Title
19927
    1ASP      N    1   5.995   4.750   1.568  0.4721  0.0215 -0.0815
    1ASP    HT1    2   5.896   4.724   1.552  0.0343  2.1692 -1.1809
    1ASP    HT2    3   5.996   4.849   1.600  0.2352 -0.6391  2.2110
    1ASP    HT3    4   6.030   4.686   1.643  0.0450 -0.9671 -0.7072
    1ASP     CA    5   6.074   4.727   1.444  0.4361 -0.7567 -0.3857
    1ASP     HA    6   6.067   4.623   1.416  0.3274 -1.0294  0.6477
    1ASP     CB    7   6.008   4.820   1.331  0.2430 -0.5500 -0.0499
    1ASP    HB1    8   6.014   4.927   1.363 -0.0201 -1.1048  1.9822
    1ASP    HB2    9   5.900   4.793   1.336 -0.6731  2.7105  0.3407
    1ASP     CG   10   6.058   4.797   1.194 -0.2175  0.2581  0.3176
    1ASP    OD1   11   6.110   4.683   1.171  0.3582 -0.1693  0.0421
    1ASP    OD2   12   6.036   4.882   1.106 -0.1678  0.1349  0.2308
    1ASP      C   13   6.222   4.740   1.469 -0.2175  0.6639  0.1209
    1ASP      O   14   6.259   4.791   1.574 -0.2087  0.3660 -0.4779
    2ALA      N   15   6.319   4.718   1.367 -0.1434  0.2567  0.3620
    2ALA     HN   16   6.277   4.675   1.288  0.9102  0.8595 -0.5568
    2ALA     CA   17   6.453   4.766   1.365  0.5334 -0.4550 -0.3494
    2ALA     HA   18   6.492   4.738   1.461  1.1253 -3.2791 -1.3087
    2ALA     CB   19   6.543   4.698   1.254  0.0565  0.0810 -0.4374
    2ALA    HB1   20   6.528   4.588   1.257 -1.8580  0.2977 -0.9719
    2ALA    HB2   21   6.649   4.724   1.274  0.0097 -0.9395  1.3326
    2ALA    HB3   22   6.505   4.732   1.156  1.3255  0.1796 -0.9136
    2ALA      C   23   6.469   4.920   1.358 -0.0195 -0.3489 -0.2671
    2ALA      O   24   6.381   4.991   1.314  0.2284 -0.0923  0.6329
    3ASP      N   25   6.581   4.968   1.414  0.3362 -0.0898  0.3715
    3ASP     HN   26   6.653   4.906   1.444 -0.4940 -0.5359  1.5341
    3ASP     CA   27   6.613   5.109   1.428  0.0833  0.0585 -0.1876
    3ASP     HA   28   6.521   5.159   1.401 -0.0807 -0.7195 -1.0988
    3ASP     CB   29   6.675   5.144   1.567  0.5145 -0.0758  0.2624
    3ASP    HB1   30   6.697   5.251   1.582 -1.8478  0.3124  1.3025
    3ASP    HB2   31   6.765   5.084   1.594  0.4092 -0.4679 -0.2296
    3ASP     CG   32   6.569   5.123   1.682  0.4994 -0.1331 -0.0434
    3ASP    OD1   33   6.618   5.124   1.798 -0.3030 -0.2193  0.3289
    3ASP    OD2   34   6.447   5.121   1.664  0.3063  0.0038  0.8525
    3ASP      C   35   6.706   5.159   1.327 -1.1196 -0.8835 -0.0929
    3ASP      O   36   6.796   5.087   1.276 -0.0887  0.3491 -0.5338
    4GLY      N   37   6.706   5.290   1.296  0.2070 -0.2384 -0.6732
    4GLY     HN   38   6.643   5.348   1.348  0.8756  1.1104 -1.3073
    4GLY     CA   39   6.797   5.355   1.204 -0.3304 -0.0956 -0.3449
    4GLY    HA1   40   6.760   5.456   1.194 -1.7995 -0.6290 -0.6295
    4GLY    HA2   41   6.799   5.296   1.114  1.7326  0.6056 -0.8119
    4GLY      C   42   6.937   5.359   1.259  0.7688 -0.2697 -0.7195
    4GLY      O   43   6.971   5.304   1.362 -0.1737 -0.1503  0.3434
    5PRO      N   44   7.024   5.423   1.177 -0.0458 -0.7969 -0.4052
    5PRO     CD   45   6.983   5.488   1.054  0.4249 -0.4576  0.3119
    5PRO    HD1   46   6.911   5.572   1.070 -0.2103 -0.5783 -1.5835
    5PRO    HD2   47   6.934   5.415   0.986  0.0131  0.6640 -0.6381
    5PRO     CA   48   7.165   5.451   1.207 -0.1337 -0.2173 -0.6245
    5PRO     HA   49   7.226   5.367   1.180 -0.1395 -0.7459  0.9306
    5PRO     CB   50   7.198   5.571   1.110  0.0027  0.0884 -0.0071
    5PRO    HB1   51   7.304   5.591   1.085 -0.7258  1.4137 -2.3233
    5PRO    HB2   52   7.161   5.669   1.150  1.4446 -0.0426  1.7812
    5PRO     CG   53   7.105   5.544   0.989  1.0801  0.0597 -0.2297
    5PRO    HG1   54   7.096   5.629   0.918  0.8057 -0.6287 -1.0358
    5PRO    HG2   55   7.154   5.476   0.915 -1.1330  0.8141 -2.5168
    5PRO      C   56   7.200   5.487   1.352  0.2678  0.2354  0.3778
    5PRO      O   57   7.124   5.545   1.433 -0.1289  0.3475  0.2015
    6GLY      N   58   7.324   5.441   1.399  0.8596  0.4802  0.1925
    6GLY     HN   59   7.391   5.391   1.345  1.7393 -0.1722  1.8086
    6GLY     CA   60   7.375   5.467   1.539  0.4083  0.4258  0.4453
    6GLY    HA1   61   7.458   5.402   1.559 -1.6173 -2.8927 -1.1568
    6GLY    HA2   62   7.292   5.443   1.603  0.4174  2.1363  1.1664
    6GLY      C   63   7.407   5.607   1.556 -0.1208 -0.3309  0.3127
    6GLY      O   64   7.396   5.694   1.468 -1.0482  0.6863  0.8807
    7ASP      N   65   7.458   5.644   1.674 -0.6951 -0.2035  0.0837
    7ASP     HN   66   7.470   5.571   1.742  2.9469 -0.5212 -0.6931
    7ASP     CA   67   7.525   5.767   1.703  0.5545 -0.9710  0.2582
    7ASP     HA   68   7.469   5.842   1.650  0.8346 -1.7492 -1.2021
    7ASP     CB   69   7.510   5.805   1.851  0.3632  0.9096 -0.3111
    7ASP    HB1   70   7.567   5.895   1.882  1.9478 -1.1263  3.4886
    7ASP    HB2   71   7.558   5.718   1.901 -0.1965  0.3811 -0.6879
    7ASP     CG   72   7.365   5.820   1.893  0.3147  0.7967  0.4643
    7ASP    OD1   73   7.345   5.825   2.019 -0.6391  0.2229 -0.3064
    7ASP    OD2   74   7.273   5.833   1.812 -0.2715  0.3018 -0.2255
    7ASP      C   75   7.671   5.772   1.653 -0.0018 -0.5614  0.2686
    7ASP      O   76   7.740   5.674   1.643  0.4469 -0.4080  0.1140
    8PRO      N   77   7.734   5.887   1.620  0.0327  0.2535 -0.0609
    8PRO     CD   78   7.674   6.013   1.585 -0.3017  0.5446 -0.0216
    8PRO    HD1   79   7.635   6.072   1.671  0.1971 -0.5620  0.9834
    8PRO    HD2   80   7.594   5.998   1.508 -0.9873 -0.0196  0.7789
    8PRO     CA   81   7.863   5.875   1.549 -0.9762 -0.6079  0.2501
    8PRO     HA   82   7.874   5.778   1.501  0.0728 -0.4356  0.1339
    8PRO     CB   83   7.869   5.993   1.460  0.4130  0.1863 -0.2265
    8PRO    HB1   84   7.834   5.975   1.356 -2.3201  0.4619  0.5743
    8PRO    HB2   85   7.974   6.028   1.451  0.9067 -1.0780  0.3674
    8PRO     CG   86   7.786   6.096   1.523  0.2856 -0.6371  0.0725
    8PRO    HG1   87   7.839   6.140   1.610 -2.3855  0.9215  1.0140
    8PRO    HG2   88   7.743   6.174   1.457 -0.0305 -3.0917 -2.8725
    8PRO      C   89   7.971   5.893   1.650 -0.3281  0.4323 -0.3201
    8PRO      O   90   8.084   5.865   1.617 -0.1018  0.1021 -0.5724
    9ASP      N   91   7.942   5.943   1.770  0.5180  0.5831  0.0359
    9ASP     HN   92   7.846   5.947   1.797  0.3233 -0.2458 -0.4825
    9ASP     CA   93   8.035   5.956   1.874 -0.2580 -0.5736  0.3358
    9ASP     HA   94   8.115   5.883   1.875  0.3442  0.0421 -0.9278
    9ASP     CB   95   8.107   6.099   1.866  0.4661  0.2903  0.6469
    9ASP    HB1   96   8.026   6.175   1.872  1.2127  1.1524  0.0741
    9ASP    HB2   97   8.168   6.087   1.774 -1.5130 -2.4879 -0.4414
    9ASP     CG   98   8.212   6.120   1.968 -0.3671 -0.1026 -0.4088
    9ASP    OD1   99   8.243   6.233   2.000 -0.0502 -0.3950  0.5916
    9ASP    OD2  100   8.278   6.023   2.011  0.1934  0.0718 -0.0181
    9ASP      C  101   7.961   5.925   1.998 -0.0890 -0.0926 -0.0252
    9ASP      O  102   7.842   5.947   1.997 -0.2100  0.1991  0.9671
   10ALA      N  103   8.032   5.855   2.094 -0.1798 -0.6196  0.4255
   10ALA     HN  104   8.129   5.839   2.075 -0.0666  0.7958 -0.3025
   10ALA     CA  105   7.977   5.808   2.221  0.0439 -0.2423  0.3678
   10ALA     HA  106   7.907   5.729   2.199  1.0002 -0.9234 -0.3443
   10ALA     CB  107   8.098   5.745   2.306  0.1845  0.3241  0.4240
   10ALA    HB1  108   8.183   5.816   2.307 -0.0192  0.5602  0.8222
   10ALA    HB2  109   8.115   5.646   2.258  2.6080 -0.2938  2.3698
   10ALA    HB3  110   8.060   5.717   2.406 -0.5159 -1.0943 -0.1997
   10ALA      C  111   7.908   5.920   2.300  0.3813  0.4796  0.0249
   10ALA      O  112   7.968   6.028   2.318 -0.6522  0.1296  0.5752
   11GLY      N  113   7.787   5.901   2.344  0.4631 -0.2420  0.3467
   11GLY     HN  114   7.742   5.813   2.358 -1.8163  0.8658  0.4112
   11GLY     CA  115   7.708   6.016   2.399 -0.0093 -0.6199 -0.3826
   11GLY    HA1  116   7.686   6.079   2.314  0.9655  0.4903  0.1694
   11GLY    HA2  117   7.760   6.068   2.477 -3.6460  0.4810  1.5603
   11GLY      C  118   7.578   5.959   2.458  0.1557 -0.1591 -0.2579
   11GLY    OT1  119   7.586   5.901   2.566  0.1624  0.1368  0.2350
   11GLY    OT2  120   7.471   5.986   2.399 -0.2844  0.4966  0.0535
   12SOD    SOD  121   1.596   3.732   0.232 -0.1430 -0.1661  0.2379
   13SOD    SOD  122   0.632   3.323   4.801  0.0905  0.1220  0.3921
   14SOD    SOD  123   1.810   0.888   1.322 -0.2265 -0.1719 -0.0815
   15SOD    SOD  124   3.100   4.049   3.506 -0.1335  0.0412  0.2539
   16SOD    SOD  125   0.650   3.779   3.717  0.0073 -0.4299  0.2500
   17SOD    SOD  126   0.727   0.758   0.119  0.1146 -0.3368  0.3423
   18SOD    SOD  127   5.492   4.472   1.853  0.1728 -0.0246 -0.0554
   19SOD    SOD  128   4.114   2.811   3.049 -0.1938 -0.0155  0.0299
   20SOD    SOD  129   3.697   1.247   3.451 -0.0032 -0.2384  0.0964
   21SOD    SOD  130   3.419   1.571   0.401  0.4352 -0.3880  0.1066
   22SOD    SOD  131   3.237   0.741   0.655 -0.5879 -0.3612 -0.1884
   23SOD    SOD  132   4.455   5.645   3.998  0.4008  0.0648  0.2369
   24SOD    SOD  133   0.961   3.421   1.231 -0.2717  0.4454  0.3985
   25SOD    SOD  134   3.805   0.040   4.433 -0.4508  0.1955 -0.0146
   26SOD    SOD  135   4.790   0.490   2.492  0.3126  0.3583 -0.6198
   27SOD    SOD  136   2.836   0.648   4.037 -0.5812 -0.1323 -0.3449
   28SOD    SOD  137   0.088   1.946   1.269  0.1580 -0.0626 -0.3686
   29SOD    SOD  138   1.611   0.241   0.707 -0.0400 -0.4925  0.3241
   30SOD    SOD  139   2.812   5.480   0.931  0.3450  0.3649 -0.0105
   31SOD    SOD  140   4.587   3.596   2.815  0.3618 -0.1918  0.4890
   32SOD    SOD  141   2.997   3.018   2.823 -0.5654  0.4103 -0.2142
   33SOD    SOD  142   2.146   3.732   2.603 -0.0911  0.3211  0.0948
   34CLA    CLA  143   1.494   3.165   0.672  0.2074  0.4791 -0.1199
   35CLA    CLA  144   1.363   0.363   1.921 -0.1075 -0.0329 -0.6602
   36CLA    CLA  145   2.313   2.189   0.183 -0.0099  0.2838  0.0044
   37CLA    CLA  146   5.251   0.791   2.945 -0.0123  0.5329 -0.1362
   38CLA    CLA  147   3.868   0.761   3.657  0.3830 -0.3851 -0.3533
   39CLA    CLA  148   5.447   2.925   4.955  0.5832 -0.0164  0.1371
   40CLA    CLA  149   5.455   3.205   1.870  0.0720  0.1894  0.1153
   41CLA    CLA  150   3.764   1.432   0.019  0.1899  0.3114 -0.2358
   42CLA    CLA  151   0.406   2.603   3.780 -0.3031 -0.5147  0.2039
   43CLA    CLA  152   4.547   3.061   4.301 -0.4588  0.1974  0.2790
   44CLA    CLA  153   3.530   3.159   2.997  0.1814  0.0517  0.1061
   45CLA    CLA  154   4.395   2.173   2.602 -0.0865 -0.5919  0.2901
   46CLA    CLA  155   2.751   2.027   4.050 -0.3866 -0.0987  0.1767
   47CLA    CLA  156   1.274   3.141   1.788 -0.2940  0.2686 -0.1025
   48CLA    CLA  157   0.655   3.862   2.661  0.0440 -0.0070 -0.0909
   49CLA    CLA  158   6.052   1.090   0.981  0.2403 -0.2599 -0.3431
   50CLA    CLA  159   3.485   5.687   3.365  0.0002  0.0903 -0.3615
   51CLA    CLA  160   4.885   4.886   3.571  0.1403 -0.6691  0.1712
   52TIP3   OH2  161   0.237   0.346   4.742 -0.1550  0.3387  0.6022
   52TIP3    H1  162   0.183   0.286   4.690 -0.0336  1.9393 -1.5160
   52TIP3    H2  163   0.317   0.297   4.759 -0.7572 -0.7263  0.4622
   53TIP3   OH2  164   2.342   3.912   1.580  0.4383  0.7336  0.4184
   53TIP3    H1  165   2.329   3.989   1.525 -3.0202 -0.1040 -0.1581
   53TIP3    H2  166   2.374   3.844   1.521  1.2678  1.0914  0.4509
   54TIP3   OH2  167   3.551   4.618   4.639  0.1947  0.1510  0.1080
   54TIP3    H1  168   3.616   4.587   4.702  0.1170  0.5796  0.4045
   54TIP3    H2  169   3.560   4.559   4.565  1.0886  0.3402  0.0446
   55TIP3   OH2  170   1.314   5.837   0.266 -0.1812 -0.6897 -0.2145
   55TIP3    H1  171   1.244   5.773   0.276  1.0978 -2.3396 -1.2758
   55TIP3    H2  172   1.354   5.815   0.182  2.7273 -1.0045  1.1411
   56TIP3   OH2  173   0.547   2.037   4.325 -0.3091  0.0788 -0.3508
   56TIP3    H1  174   0.494   2.112   4.300  0.5561  0.0818 -2.4171
   56TIP3    H2  175   0.611   2.072   4.387  0.6264  1.2945 -1.9289
   57TIP3   OH2  176   1.473   5.046   1.788  0.3604  0.1625  0.0770
   57TIP3    H1  177   1.503   5.133   1.760  0.6147 -0.0039 -0.1785
   57TIP3    H2  178   1.381   5.043   1.762  0.6465 -0.0633 -0.9337
   58TIP3   OH2  179   3.729   0.327   4.973 -0.1281 -0.4308  0.8893
   58TIP3    H1  180   3.699   0.325   5.064 -0.1787 -0.9433  0.8632
   58TIP3    H2  181   3.663   0.380   4.928  0.4043  0.6300  1.3255
   59TIP3   OH2  182   4.620   1.794   2.591  0.3285  0.2818  0.2813
   59TIP3    H1  183   4.706   1.789   2.548  0.4381  2.4283  0.1177
   59TIP3    H2  184   4.631   1.864   2.656 -0.8087 -0.6313  1.4892
   60TIP3   OH2  185   0.027   1.867   4.988 -0.4840 -0.5080 -0.1124
   60TIP3    H1  186   0.032   1.776   4.960 -0.3639 -1.6505  3.2577
   60TIP3    H2  187   0.109   1.883   5.034 -0.8308  1.0799  0.0055
   61TIP3   OH2  188   0.907   4.569   2.791  0.1681 -0.3475 -0.2375
   61TIP3    H1  189   0.934   4.506   2.725 -1.1435  0.0600 -1.2142
   61TIP3    H2  190   0.829   4.611   2.754 -0.6585 -0.1453  1.5813
   62TIP3   OH2  191   3.917   3.043   1.534 -0.0785  0.9235 -0.2398
   62TIP3    H1  192   3.943   3.090   1.455  0.5605 -0.9732 -1.1930
   62TIP3    H2  193   3.835   2.999   1.511  0.0087  0.5136  0.2161
   63TIP3   OH2  194   1.625   5.809   0.861  0.3792 -0.1200  0.2236
   63TIP3    H1  195   1.677   5.744   0.815 -0.4599  0.3015 -1.3887
   63TIP3    H2  196   1.583   5.860   0.792 -1.1769  0.3538  1.4582
   64TIP3   OH2  197   3.976   5.198   0.317  0.7951  0.1392 -0.4347
   64TIP3    H1  198   4.023   5.123   0.280  1.7790  0.9425 -0.8423
   64TIP3    H2  199   3.883   5.174   0.309  1.0937 -0.9629 -0.7070
   65TIP3   OH2  200   5.462   2.984   0.109 -0.0797 -0.1223 -0.4607
   65TIP3    H1  201   5.392   3.043   0.082 -0.9230 -1.2509 -0.8357
   65TIP3    H2  202   5.533   3.041   0.137 -1.1560  1.0578 -0.0504
   66TIP3   OH2  203   0.401   5.171   0.878 -0.3990 -0.2628 -0.1886
   66TIP3    H1  204   0.348   5.133   0.947 -2.0321  0.5488 -0.9472
   66TIP3    H2  205   0.400   5.265   0.896  0.8173 -0.2236 -0.2158
   67TIP3   OH2  206   3.481   4.159   4.342  0.2564  1.2675 -0.3020
   67TIP3    H1  207   3.540   4.130   4.411 -2.0007  0.8601  1.5643
   67TIP3    H2  208   3.439   4.079   4.311 -2.1098  1.8301  1.1694
   68TIP3   OH2  209   4.088   5.158   4.144 -0.5472 -0.4438 -0.5780
   68TIP3    H1  210   4.033   5.081   4.130 -0.7758 -0.0776 -1.8258
   68TIP3    H2  211   4.072   5.213   4.067 -1.2421  1.3679  0.7686
   69TIP3   OH2  212   3.631   1.614   2.243 -0.6765  0.0664 -0.0607
   69TIP3    H1  213   3.589   1.558   2.178  0.0165 -0.5103 -0.0160
   69TIP3    H2  214   3.589   1.699   2.232 -1.1620 -0.2522 -0.6828
   70TIP3   OH2  215   4.132   3.205   2.253 -0.1168  0.1485 -0.1211
   70TIP3    H1  216   4.036   3.207   2.244 -0.1257  0.5397  0.0532
   70TIP3    H2  217   4.164   3.251   2.175 -0.0737  0.1150 -0.1231
   71TIP3   OH2  218   3.929   5.315   3.558  0.0741  0.4445 -0.4459
   71TIP3    H1  219   3.905   5.310   3.466 -1.6452 -0.1643  0.0003
   71TIP3    H2  220   3.933   5.409   3.577 -1.4901  0.5837 -0.6917
   72TIP3   OH2  221   6.051   5.639   4.864  0.2824 -0.5251  0.2794
   72TIP3    H1  222   5.964   5.673   4.840  0.7495  0.8539  0.4686
   72TIP3    H2  223   6.038   5.545   4.873 -1.8090 -0.1119  2.7979
   73TIP3   OH2  224   0.529   4.532   3.241 -0.5020  0.3801 -0.3577
   73TIP3    H1  225   0.592   4.460   3.232  0.0886  0.8573 -0.0447
   73TIP3    H2  226   0.465   4.499   3.304  0.7701  0.7998  1.2163
   74TIP3   OH2  227   4.035   3.809   4.257  0.0808 -0.2372 -0.5486
   74TIP3    H1  228   4.116   3.792   4.210  0.0082 -0.7943 -0.4907
   74TIP3    H2  229   3.992   3.723   4.261 -0.7375  0.1364 -1.0021
   75TIP3   OH2  230   5.612   0.889   2.412  0.1295  0.2618 -0.0439
   75TIP3    H1  231   5.545   0.881   2.480 -0.5886 -0.3159 -0.7980
   75TIP3    H2  232   5.641   0.980   2.418  1.7851 -0.3161  2.5784
   76TIP3   OH2  233   0.208   1.936   1.505 -0.3629  0.8253 -0.0559
   76TIP3    H1  234   0.213   2.020   1.551  0.0092  0.4519  0.6150
   76TIP3    H2  235   0.174   1.875   1.571  1.0780  0.0762  0.0365
   77TIP3   OH2  236   1.114   3.876   3.723  0.1522 -0.2196  0.3774
   77TIP3    H1  237   1.038   3.926   3.694  1.0649  2.0929  1.6549
   77TIP3    H2  238   1.080   3.791   3.749 -1.8171  0.4242  0.0389
   78TIP3   OH2  239   5.037   2.580   4.103  0.6340 -0.2605  0.1078
   78TIP3    H1  240   5.010   2.490   4.121  0.7126 -0.0964  1.0813
   78TIP3    H2  241   5.034   2.624   4.188 -0.0549  0.8354 -0.4521
   79TIP3   OH2  242   4.116   4.127   1.905  0.1204 -0.0160 -0.1101
   79TIP3    H1  243   4.061   4.167   1.973  0.7248  0.6591 -0.0124
   79TIP3    H2  244   4.119   4.193   1.836  0.3131 -0.3029 -0.3753
   80TIP3   OH2  245   5.273   2.935   0.565  0.1747  0.2925 -0.5474
   80TIP3    H1  246   5.179   2.921   0.554  0.1465 -0.3450  0.4296
   80TIP3    H2  247   5.312   2.892   0.489 -0.2620 -0.3395 -0.4202
   81TIP3   OH2  248   4.477   4.959   0.402 -0.3136 -0.0780  0.0056
   81TIP3    H1  249   4.514   4.873   0.424 -0.9122 -0.9989 -2.3409
   81TIP3    H2  250   4.417   4.977   0.474 -0.3642 -1.7595  0.4462
   82TIP3   OH2  251   4.119   3.818   1.307  0.4076  0.0549  0.1345
   82TIP3    H1  252   4.193   3.816   1.368 -0.2002  0.8751  0.9306
   82TIP3    H2  253   4.092   3.910   1.306 -1.4623 -0.4469  0.9372
   83TIP3   OH2  254   5.789   1.233   0.036 -0.5808 -0.2302 -0.6879
   83TIP3    H1  255   5.844   1.308   0.013 -0.7003 -0.1113 -0.5932
   83TIP3    H2  256   5.850   1.167   0.068 -0.3518 -0.5878 -1.7973
   84TIP3   OH2  257   2.395   3.559   4.366 -0.0333  0.1186  0.3915
   84TIP3    H1  258   2.331   3.500   4.406 -0.1072 -0.5729 -0.6816
   84TIP3    H2  259   2.345   3.607   4.300  0.4642 -0.1509 -0.1923
   85TIP3   OH2  260   1.229   0.944   2.516 -0.2097 -0.4877 -0.0514
   85TIP3    H1  261   1.175   0.865   2.507 -1.2652  0.0479  1.2265
   85TIP3    H2  262   1.231   0.960   2.610  0.5188  0.6617 -0.2504
   86TIP3   OH2  263   1.888   2.313   3.574  0.1073  0.6095 -0.0284
   86TIP3    H1  264   1.914   2.261   3.498  0.8715  2.1502 -0.8935
   86TIP3    H2  265   1.796   2.333   3.559 -0.2537 -0.6377  0.4285
   87TIP3   OH2  266   5.653   2.755   1.860  0.0424 -0.1680  0.2887
   87TIP3    H1  267   5.608   2.694   1.802  2.4817 -1.5653 -0.3095
   87TIP3    H2  268   5.682   2.826   1.802 -0.0414 -0.0842  0.3505
   88TIP3   OH2  269   0.122   2.940   3.932  0.6132  0.6964  0.2083
   88TIP3    H1  270   0.065   2.962   4.006  1.2773  0.7664  0.7044
   88TIP3    H2  271   0.145   3.024   3.893  0.8601  0.7053  0.3729
   89TIP3   OH2  272   0.946   2.525   1.252 -0.3042 -0.0257 -0.1161
   89TIP3    H1  273   0.902   2.562   1.329 -3.1246 -1.1575 -1.0625
   89TIP3    H2  274   0.955   2.598   1.192 -0.4785  0.3301  0.2856
   90TIP3   OH2  275   2.863   3.227   3.430 -0.4011 -0.4166  0.2011
   90TIP3    H1  276   2.958   3.227   3.428 -0.3742 -0.1120  1.0606
   90TIP3    H2  277   2.838   3.290   3.363  0.0973  1.5918  1.7934
   91TIP3   OH2  278   5.644   2.774   5.187 -0.6000  0.5710  0.2534
   91TIP3    H1  279   5.724   2.818   5.216  1.6303 -1.5581 -2.1671
   91TIP3    H2  280   5.628   2.810   5.100  0.3699 -2.0424 -1.1143
   92TIP3   OH2  281   2.089   3.315   1.290  0.3012 -0.2061  0.2134
   92TIP3    H1  282   1.998   3.334   1.313  0.2524  1.7283 -1.3316
   92TIP3    H2  283   2.094   3.219   1.290 -2.2298 -0.4411 -1.2975
   93TIP3   OH2  284   3.207   3.400   2.893  0.0604  0.2377 -0.3696
   93TIP3    H1  285   3.129   3.408   2.839  0.3215 -0.5196 -0.8845
   93TIP3    H2  286   3.272   3.359   2.835  0.6839  0.4070  0.1948
   94TIP3   OH2  287   2.061   4.301   3.930 -0.1995  0.0943 -1.0573
   94TIP3    H1  288   2.105   4.381   3.958 -2.5129  0.4561  2.1218
   94TIP3    H2  289   2.128   4.232   3.939  0.2253  0.7658  2.5376
   95TIP3   OH2  290   0.192   3.804   2.981 -0.1030  0.2575 -0.2297
   95TIP3    H1  291   0.164   3.753   2.905 -0.6642  1.2345 -0.6943
   95TIP3    H2  292   0.233   3.883   2.944 -0.6877  0.9039  0.4686
   96TIP3   OH2  293   0.371   4.644   4.484 -0.1897  0.1396 -0.4788
   96TIP3    H1  294   0.395   4.555   4.510 -0.4092 -0.1260 -1.1874
   96TIP3    H2  295   0.283   4.636   4.448 -0.1318  0.6171 -0.7311
   97TIP3   OH2  296   3.114   5.829   4.638 -0.2906 -0.2853  0.8747
   97TIP3    H1  297   3.069   5.865   4.715 -1.2537  0.4307 -0.0040
   97TIP3    H2  298   3.122   5.903   4.578  1.9438 -0.4365  0.9171
   98TIP3   OH2  299   3.203   5.281   4.636  0.5477  0.1570 -0.0425
   98TIP3    H1  300   3.171   5.348   4.575  2.5145 -0.3136 -1.7302
   98TIP3    H2  301   3.270   5.326   4.687  1.4779 -0.3447 -0.7947
   99TIP3   OH2  302   3.141   0.035   2.705  0.1770 -0.8374  0.0614
   99TIP3    H1  303   3.185  -0.010   2.633  1.2024 -1.5173  1.0684
   99TIP3    H2  304   3.202   0.105   2.729 -0.2627 -0.4733  0.1147
  100TIP3   OH2  305   4.194   5.777   2.151  0.1932  0.5572 -0.3160
  100TIP3    H1  306   4.218   5.768   2.059  0.1362 -0.3852 -0.2475
  100TIP3    H2  307   4.229   5.863   2.177 -2.0999  2.0809 -1.9139
  101TIP3   OH2  308   2.070   2.341   5.180  0.0526  0.2200  0.1452
  101TIP3    H1  309   2.029   2.340   5.093  0.9507 -0.5154 -0.2902
  101TIP3    H2  310   2.154   2.383   5.165  1.0509 -1.6495  0.2340
  102TIP3   OH2  311   3.315   5.364   0.129 -0.0458 -0.0334 -0.2018
  102TIP3    H1  312   3.228   5.327   0.136  0.0185 -0.4245 -1.2286
  102TIP3    H2  313   3.308   5.452   0.167 -0.4732 -0.6614  1.2160
  103TIP3   OH2  314   5.270   4.828   4.848  0.1708  0.6653  0.1790
  103TIP3    H1  315   5.243   4.809   4.758 -0.9323  1.1389  0.3945
  103TIP3    H2  316   5.302   4.744   4.882 -0.6713  0.1666 -0.2305
  104TIP3   OH2  317   5.038   3.728   1.293 -0.4909  0.1782  0.1412
  104TIP3    H1  318   4.995   3.668   1.354  0.0843  0.0195  0.3980
  104TIP3    H2  319   4.983   3.807   1.294 -0.7023  0.0295  0.5657
  105TIP3   OH2  320   5.511   3.425   3.563 -0.2869 -0.3042 -0.0119
  105TIP3    H1  321   5.460   3.500   3.592 -0.6208 -0.8778  0.9458
  105TIP3    H2  322   5.600   3.444   3.594 -0.1306  0.1908 -0.7339
  106TIP3   OH2  323   0.509   5.113   3.507 -0.0635  0.0981 -0.8541
  106TIP3    H1  324   0.494   5.208   3.506  1.1916  0.3720  0.7188
  106TIP3    H2  325   0.563   5.099   3.585  1.4852 -1.6411 -2.1464
  107TIP3   OH2  326   3.556   0.244   4.623 -0.5363  0.3674  0.3379
  107TIP3    H1  327   3.492   0.207   4.562 -1.2649  1.4087  0.4342
  107TIP3    H2  328   3.514   0.324   4.656  0.6712  0.8868  0.6755
  108TIP3   OH2  329   2.385   1.291   0.980  0.2931 -0.2419 -0.3640
  108TIP3    H1  330   2.392   1.214   1.036 -1.2481 -0.5993 -0.6282
  108TIP3    H2  331   2.473   1.329   0.982  1.0930 -1.9828 -0.2204
  109TIP3   OH2  332   2.593   3.750   3.918  0.2486  0.3281 -0.5752
  109TIP3    H1  333   2.590   3.723   4.010  0.1513 -1.9646 -1.1912
  109TIP3    H2  334   2.650   3.686   3.877 -0.3955  0.8116 -2.2874
  110TIP3   OH2  335   5.875   4.073   0.920 -0.2465  0.1340 -0.1090
  110TIP3    H1  336   5.951   4.110   0.874 -1.2398  1.4694 -0.7672
  110TIP3    H2  337   5.803   4.083   0.858 -1.1189 -0.4065  0.7943
  111TIP3   OH2  338   5.690   3.566   3.748 -0.0553 -0.2414 -0.3139
  111TIP3    H1  339   5.781   3.559   3.776  0.0302 -0.0361 -0.5354
  111TIP3    H2  340   5.643   3.599   3.824  0.3890  1.5812 -0.7747
  112TIP3   OH2  341   2.411   3.445   1.594  0.0050 -0.6427 -0.2717
  112TIP3    H1  342   2.391   3.500   1.670  1.1501  1.6403 -1.5250
  112TIP3    H2  343   2.369   3.489   1.520  0.8794 -1.5059 -1.3251
  113TIP3   OH2  344   1.584   1.568   1.437  0.3893 -0.1671 -0.6546
  113TIP3    H1  345   1.675   1.587   1.415  1.0167 -0.5030  1.4285
  113TIP3    H2  346   1.537   1.576   1.354  2.7920 -3.1160 -2.5062
  114TIP3   OH2  347   2.046   0.238   2.663 -0.7741  0.0534  0.5813
  114TIP3    H1  348   1.962   0.283   2.653 -1.3607 -0.8445  1.3410
  114TIP3    H2  349   2.111   0.303   2.634 -1.7180  0.7526 -0.0250
  115TIP3   OH2  350   3.069   2.097   4.115 -0.4176  0.0449  0.0328
  115TIP3    H1  351   3.049   2.183   4.152  1.2629  0.1640  0.7260
  115TIP3    H2  352   2.983   2.060   4.093 -1.2906  1.1296  1.4570
  116TIP3   OH2  353   5.069   2.918   4.583  0.6933  0.5599 -0.0109
  116TIP3    H1  354   5.155   2.883   4.606  0.6504 -0.0445 -0.7224
  116TIP3    H2  355   5.075   2.937   4.490  0.5326  1.9780  0.2410
  117TIP3   OH2  356   0.724   5.094   0.295  0.1845 -0.3149  0.4156
  117TIP3    H1  357   0.681   5.025   0.347  1.1265  0.5839  2.5080
  117TIP3    H2  358   0.693   5.176   0.334  0.3513  0.4281 -0.9702
  118TIP3   OH2  359   2.895   0.292   2.276  0.3590  0.0781  0.1581
  118TIP3    H1  360   2.985   0.281   2.306  0.5464 -1.7843 -0.9490
  118TIP3    H2  361   2.841   0.269   2.351  0.8246 -3.3379 -0.4079
  119TIP3   OH2  362   1.553   2.076   0.513 -0.3805 -0.1376  0.4511
  119TIP3    H1  363   1.617   2.127   0.563  0.3757  0.5208 -1.1047
  119TIP3    H2  364   1.472   2.082   0.564  0.0506  1.4951  1.0041
  120TIP3   OH2  365   4.541   4.987   0.974  0.4300 -0.0585 -0.6804
  120TIP3    H1  366   4.543   5.072   0.931  0.9015  0.3523  0.1558
  120TIP3    H2  367   4.632   4.965   0.991  0.1978  0.6750  1.8395
  121TIP3   OH2  368   1.249   4.860   2.209 -0.1738 -0.1528 -0.0352
  121TIP3    H1  369   1.326   4.848   2.265  0.1134 -0.5128 -0.4981
  121TIP3    H2  370   1.278   4.922   2.142 -0.1357 -0.6591 -0.4899
  122TIP3   OH2  371   4.429   4.176   2.937  0.4590 -0.4236 -0.5374
  122TIP3    H1  372   4.341   4.184   2.974 -0.0644 -0.9080 -1.6274
  122TIP3    H2  373   4.455   4.265   2.916 -0.0740 -0.3468 -0.8797
  123TIP3   OH2  374   0.592   3.982   5.137  0.0463 -0.0215 -0.2462
  123TIP3    H1  375   0.500   3.997   5.115  0.1930  0.7080 -0.3938
  123TIP3    H2  376   0.589   3.926   5.214 -0.4876 -2.2249 -1.7585
  124TIP3   OH2  377   2.479   3.251   0.183 -0.2208  0.1377  0.3825
  124TIP3    H1  378   2.488   3.322   0.246  1.1395 -0.7298  1.2133
  124TIP3    H2  379   2.543   3.186   0.211  0.2365 -0.3982 -1.7358
  125TIP3   OH2  380   3.479   5.575   2.407  0.6321  0.8287  0.5807
  125TIP3    H1  381   3.478   5.650   2.466  0.4197  0.6538  0.8025
  125TIP3    H2  382   3.562   5.531   2.425  0.9266  1.2221  0.1817
  126TIP3   OH2  383   6.008   2.479   4.231 -0.8987 -0.9801  0.1145
  126TIP3    H1  384   6.025   2.462   4.324  0.0817 -0.3869  0.0556
  126TIP3    H2  385   6.028   2.397   4.187 -0.2013 -0.9167  0.2987
  127TIP3   OH2  386   2.585   3.303   4.479  1.5703 -0.1561  0.1472
  127TIP3    H1  387   2.543   3.252   4.548 -0.6025  1.0162 -0.2277
  127TIP3    H2  388   2.603   3.388   4.519 -0.2724  0.7465 -0.8355
  128TIP3   OH2  389   5.498   1.709   1.432  0.0540 -0.5054  0.2667
  128TIP3    H1  390   5.462   1.723   1.344 -0.5607 -0.1794  0.5642
  128TIP3    H2  391   5.466   1.784   1.483  2.2895  0.5505  0.2188
  129TIP3   OH2  392   3.656   1.488   0.789  0.0795  0.2442  0.0696
  129TIP3    H1  393   3.576   1.537   0.807 -0.0176  0.1235 -0.0341
  129TIP3    H2  394   3.678   1.446   0.872  0.6845  1.2164  0.4206
  130TIP3   OH2  395   2.970   3.102   1.043  0.2467  0.1386 -0.0191
  130TIP3    H1  396   2.904   3.033   1.033 -1.3395  1.6133 -0.3367
  130TIP3    H2  397   2.950   3.142   1.127  0.2627  1.0551 -0.4382
  131TIP3   OH2  398   5.960   2.280   2.561 -0.8787 -0.2382  0.3942
  131TIP3    H1  399   5.988   2.206   2.614 -2.5656 -1.4605 -0.3464
  131TIP3    H2  400   6.022   2.350   2.583  3.6538 -2.9901 -2.0542
  132TIP3   OH2  401   0.233   1.302   0.313  0.0881  0.2628  0.1721
  132TIP3    H1  402   0.295   1.345   0.254 -0.6126  2.3758  0.8880
  132TIP3    H2  403   0.153   1.355   0.307 -0.7244 -0.7679  1.3612
  133TIP3   OH2  404   5.564   0.551   0.867 -0.0744  0.2785 -0.0182
  133TIP3    H1  405   5.538   0.500   0.790 -0.1681 -0.0208  0.2087
  133TIP3    H2  406   5.488   0.606   0.886  0.4170  1.3219 -0.9206
  134TIP3   OH2  407   1.830   2.556   4.033  0.2916 -0.2548 -0.2713
  134TIP3    H1  408   1.796   2.466   4.030  0.6376 -0.3664 -1.0760
  134TIP3    H2  409   1.855   2.569   4.124  0.3243 -1.0126 -0.1676
  135TIP3   OH2  410   3.179   5.326   1.084  0.4073 -0.0347  0.0145
  135TIP3    H1  411   3.203   5.340   0.992 -0.3160 -0.5693 -0.2608
  135TIP3    H2  412   3.247   5.267   1.117 -1.0806 -2.5385 -1.0931
  136TIP3   OH2  413   5.428   1.323   1.017  0.6485  0.5080  0.0715
  136TIP3    H1  414   5.471   1.289   1.096 -1.4661  0.7786  1.4424
  136TIP3    H2  415   5.335   1.325   1.040 -0.1210  0.1382 -2.6359
  137TIP3   OH2  416   1.242   0.267   2.442 -0.3376  0.1377 -0.1957
  137TIP3    H1  417   1.294   0.340   2.477  0.6289 -0.7838  0.3455
  137TIP3    H2  418   1.280   0.250   2.356  2.5178 -2.5692  1.3842
  138TIP3   OH2  419   1.438   1.308   1.342 -0.3042  0.1500  0.9045
  138TIP3    H1  420   1.482   1.343   1.265 -0.0445 -0.7455  0.6380
  138TIP3    H2  421   1.456   1.373   1.411 -1.7725  1.7076 -0.1116
  139TIP3   OH2  422   0.717   5.058   1.409  0.1390 -0.5839 -0.2427
  139TIP3    H1  423   0.702   5.005   1.330 -0.8062 -1.0149  0.2058
  139TIP3    H2  424   0.706   5.148   1.379  0.2890 -0.7179 -0.7162
  140TIP3   OH2  425   1.009   2.071   1.273  0.6323  0.1076  0.1569
  140TIP3    H1  426   1.030   2.158   1.305  0.7078  0.1753 -0.0741
  140TIP3    H2  427   1.020   2.014   1.349  0.2880  0.3426  0.3809
  141TIP3   OH2  428   0.186   0.700   3.763 -0.0214  0.1842 -0.2434
  141TIP3    H1  429   0.147   0.776   3.720 -0.0228  0.8705  0.9151
  141TIP3    H2  430   0.111   0.650   3.796  0.0051  1.0760  1.2697
  142TIP3   OH2  431   3.259   1.416   3.341 -0.0889 -0.3567  0.3213
  142TIP3    H1  432   3.196   1.346   3.360 -0.8475 -0.3488 -1.8784
  142TIP3    H2  433   3.300   1.389   3.259 -0.2735  1.6698 -0.4850
  143TIP3   OH2  434   0.263   3.946   3.322  0.0511  0.1043 -0.4436
  143TIP3    H1  435   0.214   4.026   3.306 -2.7129 -1.6172 -1.2041
  143TIP3    H2  436   0.308   3.928   3.240  0.5782  0.7737 -0.3107
  144TIP3   OH2  437   5.395   0.133   2.457 -0.7104  0.6646 -0.3529
  144TIP3    H1  438   5.371   0.068   2.390  0.3000 -0.0701 -0.0284
  144TIP3    H2  439   5.489   0.146   2.444 -0.6717  1.1520  0.3883
  145TIP3   OH2  440   2.194   0.825   0.336 -0.6819 -0.3904 -0.7423
  145TIP3    H1  441   2.116   0.777   0.306  0.9794 -1.9350 -2.9489
  145TIP3    H2  442   2.253   0.757   0.369  0.2407  0.6007 -0.2863
  146TIP3   OH2  443   6.150   5.612   2.327  0.1438 -0.3588  0.2033
  146TIP3    H1  444   6.101   5.618   2.245  0.3609 -0.4282  0.0687
  146TIP3    H2  445   6.109   5.539   2.374  0.4392 -0.7360 -0.1252
  147TIP3   OH2  446   2.325   2.977   4.695 -0.5631 -0.1824 -0.2587
  147TIP3    H1  447   2.255   2.978   4.760  1.4179  1.6168  2.0635
  147TIP3    H2  448   2.390   2.916   4.731  0.3062  0.3608 -0.8750
  148TIP3   OH2  449   3.926   2.646   0.628  0.1316 -0.3287  0.5982
  148TIP3    H1  450   4.007   2.642   0.678  0.9909 -0.9019 -0.7848
  148TIP3    H2  451   3.926   2.566   0.575 -1.3624 -0.3685  0.6035
  149TIP3   OH2  452   3.031   1.852   1.367  0.0466 -0.4270  1.0781
  149TIP3    H1  453   3.108   1.884   1.414 -0.8459 -0.3210  2.5421
  149TIP3    H2  454   2.968   1.830   1.437 -1.4005 -0.1236 -0.0830
  150TIP3   OH2  455   1.042   5.070   4.640  0.0937  0.5666  0.2214
  150TIP3    H1  456   1.023   4.992   4.588  0.8433  0.0191  0.7415
  150TIP3    H2  457   1.125   5.102   4.606  0.6285  0.1633  1.0846
  151TIP3   OH2  458   3.688   3.372   4.766  0.2806  0.2209  0.1908
  151TIP3    H1  459   3.657   3.282   4.781  1.5208 -0.2068  0.2613
  151TIP3    H2  460   3.624   3.427   4.810 -2.6851 -0.3574 -2.8974
  152TIP3   OH2  461   5.306   1.730   0.231  0.5040 -0.1454 -0.0219
  152TIP3    H1  462   5.315   1.770   0.317 -0.2213 -1.5719  0.7553
  152TIP3    H2  463   5.292   1.637   0.249  0.9639 -0.5751 -1.7063
  153TIP3   OH2  464   2.812   2.912   2.700 -0.2592 -0.6042 -0.3669
  153TIP3    H1  465   2.732   2.873   2.737 -2.0792  0.4845 -2.8635
  153TIP3    H2  466   2.819   2.873   2.613  0.3498  1.3393 -1.2398
  154TIP3   OH2  467   1.702   3.300   0.246  0.0481  0.0188 -0.3442
  154TIP3    H1  468   1.637   3.247   0.292  1.5507 -0.5841  1.2076
  154TIP3    H2  469   1.705   3.263   0.158 -0.1303 -1.3912  0.2179
  155TIP3   OH2  470   5.834   0.376   0.564 -0.6452  0.1165  0.1507
  155TIP3    H1  471   5.913   0.354   0.612 -0.6164 -0.5042 -0.1647
  155TIP3    H2  472   5.810   0.464   0.594 -0.8457 -0.4006  1.5911
  156TIP3   OH2  473   5.671   3.985   4.157 -0.5589 -0.1635  0.2550
  156TIP3    H1  474   5.632   3.913   4.107 -3.0242  2.1056 -1.3424
  156TIP3    H2  475   5.699   4.048   4.091 -0.4572  1.3091  1.6338
  157TIP3   OH2  476   1.123   2.056   0.995  0.0406 -0.7764 -0.2752
  157TIP3    H1  477   1.096   2.105   0.917  0.0767  0.0399  0.2201
  157TIP3    H2  478   1.048   2.063   1.055 -0.7397 -2.9235 -0.8911
  158TIP3   OH2  479   1.356   3.729   0.250  0.0078 -0.2597  0.0121
  158TIP3    H1  480   1.362   3.651   0.194  1.3594 -0.9636  1.0828
  158TIP3    H2  481   1.262   3.748   0.256 -0.3049 -1.5483 -0.6059
  159TIP3   OH2  482   0.385   3.930   4.134 -0.2143  0.4993 -0.3009
  159TIP3    H1  483   0.304   3.978   4.120 -0.2297  0.7046  0.5017
  159TIP3    H2  484   0.361   3.856   4.189  0.1947  0.7227  0.1876
  160TIP3   OH2  485   3.835   2.507   4.319 -0.1827 -0.0180  0.3243
  160TIP3    H1  486   3.804   2.591   4.284  1.5585 -0.6096 -2.9708
  160TIP3    H2  487   3.930   2.510   4.305 -0.1202 -2.6441 -0.1435
  161TIP3   OH2  488   5.854   5.043   4.274  0.3828  0.8108  0.2059
  161TIP3    H1  489   5.882   5.019   4.186  0.0048  1.8167 -0.2101
  161TIP3    H2  490   5.806   5.125   4.262 -0.7992  0.2916  1.1774
  162TIP3   OH2  491   3.617   0.894   4.017 -0.2273 -0.4626  0.4624
  162TIP3    H1  492   3.656   0.808   4.000 -2.4219 -1.2720 -0.8949
  162TIP3    H2  493   3.524   0.876   4.033 -0.6005  1.6014  0.9840
  163TIP3   OH2  494   3.745   1.373   0.557 -0.1231  0.1963 -0.0552
  163TIP3    H1  495   3.836   1.351   0.578  0.0021  0.2103 -0.5925
  163TIP3    H2  496   3.714   1.420   0.635  0.5575  0.8633 -0.1796
  164TIP3   OH2  497   6.194   0.463   1.562  0.4325 -0.2713 -0.1636
  164TIP3    H1  498   6.264   0.514   1.522 -1.7486  1.3430 -2.2859
  164TIP3    H2  499   6.154   0.523   1.625 -1.2973  0.2937 -1.6929
  165TIP3   OH2  500   2.299   5.185   0.103 -0.2076  0.1877 -0.1070
  165TIP3    H1  501   2.321   5.126   0.175  0.6292 -0.1182 -0.6068
  165TIP3    H2  502   2.363   5.166   0.035 -2.3683 -1.1643 -1.8730
  166TIP3   OH2  503   5.781   1.872   1.706  0.5844  0.8554  0.5327
  166TIP3    H1  504   5.783   1.881   1.801 -0.6182 -0.2524  0.6894
  166TIP3    H2  505   5.691   1.845   1.686  1.1044 -0.0007 -0.8057
  167TIP3   OH2  506   5.473   4.657   0.553 -0.4284  0.2990  0.0894
  167TIP3    H1  507   5.485   4.748   0.526  0.9388  0.9219  2.4625
  167TIP3    H2  508   5.562   4.621   0.552 -0.5213 -0.0765  1.9978
  168TIP3   OH2  509   3.876   5.060   1.372  0.3458  0.1545 -0.5722
  168TIP3    H1  510   3.785   5.065   1.344  0.7177  0.5690 -1.7574
  168TIP3    H2  511   3.879   4.983   1.430 -0.7518  0.1592 -0.4951
  169TIP3   OH2  512   1.279   0.893   0.697 -0.2313 -0.1290  0.1422
  169TIP3    H1  513   1.245   0.929   0.615  0.2320 -1.3623 -0.6153
  169TIP3    H2  514   1.221   0.928   0.764 -1.7518 -0.5534 -0.9002
  170TIP3   OH2  515   4.652   5.596   4.753  0.2720  0.3886  0.6389
  170TIP3    H1  516   4.639   5.642   4.836  0.0077  1.2821  0.1201
  170TIP3    H2  517   4.658   5.504   4.777 -0.1615  0.6027  1.6175
  171TIP3   OH2  518   3.036   0.723   5.135  0.7220 -0.2419  0.0890
  171TIP3    H1  519   3.035   0.638   5.180 -0.5901 -0.3919 -0.1971
  171TIP3    H2  520   3.113   0.717   5.078  1.5132 -0.6426  1.1476
  172TIP3   OH2  521   4.012   5.475   4.709 -0.0072 -0.1428 -0.2689
  172TIP3    H1  522   3.974   5.561   4.695  0.2504  0.0957  0.4460
  172TIP3    H2  523   3.980   5.448   4.795  0.1856 -0.6142 -0.3417
  173TIP3   OH2  524   5.088   4.068   0.629  0.3616  0.0457  0.1675
  173TIP3    H1  525   5.054   4.109   0.708 -0.2093  0.2588 -0.1887
  173TIP3    H2  526   5.091   4.138   0.564  0.3346 -0.2437 -0.1530
  174TIP3   OH2  527   0.392   0.301   2.706  0.5033 -0.3914 -0.3581
  174TIP3    H1  528   0.391   0.355   2.627 -0.1926  1.2352  0.7067
  174TIP3    H2  529   0.320   0.334   2.759  1.1137 -1.2594  1.0826
  175TIP3   OH2  530   1.416   5.629   4.831  0.4523 -0.2784 -0.6316
  175TIP3    H1  531   1.502   5.586   4.835  0.6778  0.2310  0.1556
  175TIP3    H2  532   1.356   5.567   4.872  0.6079 -0.2411 -0.3472
  176TIP3   OH2  533   4.538   2.514   1.813 -0.4015 -0.0119  0.5252
  176TIP3    H1  534   4.494   2.511   1.898 -0.2328  1.9489  0.7337
  176TIP3    H2  535   4.574   2.603   1.808 -2.0008  0.6256 -2.3509
  177TIP3   OH2  536   0.675   2.580   1.072  0.2127  0.2969  0.3206
  177TIP3    H1  537   0.748   2.619   1.024  0.8356 -0.9858  0.1757
  177TIP3    H2  538   0.621   2.538   1.004 -0.1343  0.4030  0.5269
  178TIP3   OH2  539   0.376   0.882   4.800  0.1168  0.5668  0.4346
  178TIP3    H1  540   0.325   0.805   4.774  0.3675  0.4521  0.2890
  178TIP3    H2  541   0.336   0.909   4.883 -0.7675  1.0189 -0.1257
  179TIP3   OH2  542   2.755   1.655   2.390 -0.0382 -0.3134  0.2711
  179TIP3    H1  543   2.670   1.696   2.376  0.0138 -0.4982 -0.6686
  179TIP3    H2  544   2.814   1.700   2.330  0.4557 -0.4234  0.6643
  180TIP3   OH2  545   1.463   5.701   3.003 -0.0083 -0.0299  0.3904
  180TIP3    H1  546   1.472   5.630   2.939  1.4904  2.3187 -2.2890
  180TIP3    H2  547   1.553   5.726   3.023 -0.4845  0.2261  2.4308
  181TIP3   OH2  548   2.365   1.251   0.712  0.1571 -0.1551  0.3359
  181TIP3    H1  549   2.299   1.203   0.763 -0.3387 -0.1253 -0.2628
  181TIP3    H2  550   2.363   1.340   0.748 -0.3630 -0.0723  0.1135
  182TIP3   OH2  551   5.078   5.370   2.202  0.6430  0.0621 -0.2823
  182TIP3    H1  552   5.040   5.455   2.177 -1.2930 -0.5957  0.2544
  182TIP3    H2  553   5.135   5.391   2.277 -0.3084  0.8218  0.2538
  183TIP3   OH2  554   1.371   1.672   2.363 -0.2888 -0.2187 -0.2390
  183TIP3    H1  555   1.465   1.689   2.367 -0.4266  0.6426 -0.4595
  183TIP3    H2  556   1.364   1.584   2.324  0.4018  0.0138 -0.9024
  184TIP3   OH2  557   5.163   5.383   0.540  0.3332  0.1081  0.1533
  184TIP3    H1  558   5.101   5.341   0.599  0.2817 -0.2538 -0.1644
  184TIP3    H2  559   5.111   5.414   0.466  0.4735  0.1386  0.0657
  185TIP3   OH2  560   6.264   5.446   2.735  0.1750  0.6860  0.0091
  185TIP3    H1  561   6.177   5.476   2.709  0.1768  0.6756 -0.0088
  185TIP3    H2  562   6.249   5.362   2.778 -0.0521  1.6608  1.9262
  186TIP3   OH2  563   2.748   5.575   3.374  0.1093  0.3793  0.1877
  186TIP3    H1  564   2.800   5.577   3.294 -1.7719 -0.7168 -1.1401
  186TIP3    H2  565   2.768   5.491   3.414 -0.3699  0.1037 -0.1454
  187TIP3   OH2  566   0.413   5.815   3.582 -0.6565 -0.1514  0.2691
  187TIP3    H1  567   0.391   5.789   3.672 -1.5552  1.3329  0.5157
  187TIP3    H2  568   0.372   5.901   3.572 -0.8560 -0.4487 -1.6977
  188TIP3   OH2  569   0.575   4.868   2.369 -0.3945 -0.3367 -0.0935
  188TIP3    H1  570   0.528   4.928   2.428 -0.0489 -0.8274  0.7039
  188TIP3    H2  571   0.664   4.901   2.367 -0.8156  0.7878 -1.8723
  189TIP3   OH2  572   1.864   0.734   3.584 -0.3105  0.4832  0.0304
  189TIP3    H1  573   1.813   0.707   3.660 -1.0967  1.3595 -0.1711
  189TIP3    H2  574   1.939   0.780   3.620 -0.3283  0.3077  0.2934
  190TIP3   OH2  575   5.959   3.383   3.645 -0.1924 -0.2143 -0.5278
  190TIP3    H1  576   5.894   3.322   3.681 -2.8612  2.6734  0.0181
  190TIP3    H2  577   6.021   3.398   3.716 -3.0168  2.2044  1.6951
  191TIP3   OH2  578   2.657   5.549   0.325  0.1402  0.1608 -0.2167
  191TIP3    H1  579   2.665   5.618   0.260 -0.6873  0.3491 -0.1277
  191TIP3    H2  580   2.690   5.470   0.281  0.6246  0.5118 -0.4809
  192TIP3   OH2  581   0.521   0.653   0.844  0.0978 -0.0356 -0.4785
  192TIP3    H1  582   0.581   0.645   0.918 -0.1997 -1.1266 -0.3381
  192TIP3    H2  583   0.459   0.580   0.855  1.7845 -2.1160 -3.3521
  193TIP3   OH2  584   1.208   1.957   0.537 -0.2393  0.0776  0.5773
  193TIP3    H1  585   1.284   1.985   0.589  0.4586 -0.2282 -0.2708
  193TIP3    H2  586   1.209   1.862   0.542  1.8955 -0.2122 -2.7837
  194TIP3   OH2  587   0.221   1.731   2.314 -0.4964  0.0206  0.0656
  194TIP3    H1  588   0.201   1.669   2.384 -0.4146  2.1916  2.1413
  194TIP3    H2  589   0.293   1.784   2.350 -0.1556  0.9275 -1.8531
  195TIP3   OH2  590   0.264   2.270   4.511 -0.5876  0.1797  0.0542
  195TIP3    H1  591   0.241   2.356   4.474  0.1840 -0.0065 -0.8739
  195TIP3    H2  592   0.352   2.282   4.546 -0.6769 -0.0994  0.3781
  196TIP3   OH2  593   1.704   3.493   5.127 -0.1807 -0.3965 -0.4291
  196TIP3    H1  594   1.790   3.532   5.116 -1.2921  2.1420 -0.8824
  196TIP3    H2  595   1.672   3.479   5.038 -0.8024  0.0721 -0.2903
  197TIP3   OH2  596   6.159   3.831   1.994 -0.4556 -0.8228 -0.1020
  197TIP3    H1  597   6.113   3.898   1.943 -1.1487 -2.4143 -1.6790
  197TIP3    H2  598   6.088   3.782   2.037  0.0442 -0.6086  1.0113
  198TIP3   OH2  599   1.415   1.875   3.423 -0.1146 -0.3292  0.0535
  198TIP3    H1  600   1.480   1.943   3.403  0.9680 -1.5018 -0.4842
  198TIP3    H2  601   1.331   1.915   3.400  0.3106  1.4283  1.2934
  199TIP3   OH2  602   3.596   4.275   1.350  0.0642  0.0166 -0.5479
  199TIP3    H1  603   3.616   4.368   1.341  0.2648  0.2917  1.9034
  199TIP3    H2  604   3.680   4.232   1.337  0.1927  0.2771 -0.5923
  200TIP3   OH2  605   2.948   1.929   1.013 -0.4762  0.0371  0.1157
  200TIP3    H1  606   2.955   1.971   1.098  0.7391 -0.4728  0.2894
  200TIP3    H2  607   2.928   2.000   0.952  1.5503  0.9047  0.3927
  201TIP3   OH2  608   0.432   5.119   2.986  0.7421  0.0105  0.2981
  201TIP3    H1  609   0.357   5.140   2.930  0.4563 -4.0483 -1.2099
  201TIP3    H2  610   0.500   5.090   2.924  2.0153 -0.4542  1.8543
  202TIP3   OH2  611   3.014   4.250   2.862 -0.3656 -0.4056 -0.0533
  202TIP3    H1  612   3.011   4.156   2.844 -1.8003 -0.5762  0.9326
  202TIP3    H2  613   2.987   4.291   2.780 -0.0576 -0.8603 -0.3895
  203TIP3   OH2  614   5.429   4.041   1.943 -0.3815 -0.1376 -0.0169
  203TIP3    H1  615   5.336   4.067   1.943 -0.4728 -0.4472  0.6282
  203TIP3    H2  616   5.440   3.991   1.862 -1.2147 -1.6003  0.7373
  204TIP3   OH2  617   0.964   5.971   4.855 -0.2993 -0.8120  0.2574
  204TIP3    H1  618   0.983   5.877   4.860  0.5581 -0.6800 -0.2747
  204TIP3    H2  619   1.017   6.002   4.781 -0.5415  0.1012  0.4577
  205TIP3   OH2  620   1.304   2.517   3.092  0.0799 -0.2266 -0.4035
  205TIP3    H1  621   1.326   2.607   3.068 -2.4366  0.4684 -0.3593
  205TIP3    H2  622   1.335   2.464   3.017  0.9524  0.7263 -0.7424
  206TIP3   OH2  623   3.684   0.013   3.968  0.1016 -0.2956 -0.2286
  206TIP3    H1  624   3.649   0.098   3.994  0.7798  0.2238 -0.9362
  206TIP3    H2  625   3.641  -0.006   3.884  2.7868  1.2676 -2.1098
  207TIP3   OH2  626   3.158   3.111   1.814  0.2121 -0.2961  0.2490
  207TIP3    H1  627   3.104   3.153   1.881  0.6902  0.6283  0.0776
  207TIP3    H2  628   3.239   3.163   1.812  0.4085 -0.6141 -0.6886
  208TIP3   OH2  629   4.463   3.891   3.800 -0.7378 -0.0428 -0.0968
  208TIP3    H1  630   4.408   3.955   3.844  0.4545  0.7636  0.2830
  208TIP3    H2  631   4.503   3.939   3.728 -0.5601 -0.6217 -0.3885
  209TIP3   OH2  632   2.647   4.593   2.820  0.5441  0.0301 -0.2628
  209TIP3    H1  633   2.650   4.612   2.914 -2.7011 -0.2156  0.0040
  209TIP3    H2  634   2.632   4.499   2.815 -1.4454  0.3403 -0.8997
  210TIP3   OH2  635  -0.004   4.002   1.713  0.4275  0.3876 -0.4985
  210TIP3    H1  636   0.067   4.049   1.758  0.4246  0.4693 -0.5770
  210TIP3    H2  637  -0.005   3.915   1.753  0.6766  0.3346 -0.6019
  211TIP3   OH2  638   4.661   0.430   0.826  0.5816 -0.4641 -0.1521
  211TIP3    H1  639   4.589   0.366   0.825  0.9253 -0.9628 -3.0335
  211TIP3    H2  640   4.618   0.514   0.844 -0.4606 -0.9814 -0.1391
  212TIP3   OH2  641   2.302   4.324   1.974  0.1370  0.5667  0.0099
  212TIP3    H1  642   2.254   4.400   2.005 -0.7587 -0.1405  0.4078
  212TIP3    H2  643   2.276   4.253   2.033  2.2931  0.3234  0.7382
  213TIP3   OH2  644   1.365   2.627   2.639  0.0084 -0.2988  0.3220
  213TIP3    H1  645   1.416   2.708   2.633 -0.4344  0.1280  1.8416
  213TIP3    H2  646   1.428   2.563   2.671  0.9277 -1.1769 -2.8785
  214TIP3   OH2  647   6.191   4.832   0.302  0.0366  0.5833  0.7136
  214TIP3    H1  648   6.149   4.760   0.349  0.3253  0.1277  0.2752
  214TIP3    H2  649   6.284   4.820   0.318  0.1454  0.3741 -0.0473
  215TIP3   OH2  650   0.841   3.936   3.360 -0.0203  0.3929  0.5032
  215TIP3    H1  651   0.915   3.883   3.391  0.8681  0.5147 -1.2571
  215TIP3    H2  652   0.771   3.873   3.345  0.7482 -0.2032 -0.7390
  216TIP3   OH2  653   0.116   0.618   2.327 -0.7585  0.0302  0.0145
  216TIP3    H1  654   0.078   0.593   2.411  1.3135 -3.8690  0.0262
  216TIP3    H2  655   0.211   0.611   2.341 -0.3467 -3.1593 -3.1163
  217TIP3   OH2  656   2.459   2.882   1.931  0.2973 -0.2404 -0.3637
  217TIP3    H1  657   2.492   2.814   1.873 -1.9792 -0.5851 -1.3633
  217TIP3    H2  658   2.387   2.923   1.882 -0.6921  0.5036  1.6028
  218TIP3   OH2  659   2.369   0.477   1.280 -0.1424 -0.4837  0.5997
  218TIP3    H1  660   2.384   0.440   1.367 -0.6824 -1.2056  0.3999
  218TIP3    H2  661   2.338   0.566   1.297  0.0278 -0.5239  1.1345
  219TIP3   OH2  662   4.140   1.306   4.409 -0.3263 -0.0526  0.4079
  219TIP3    H1  663   4.062   1.283   4.459 -1.2420 -1.3028 -1.4817
  219TIP3    H2  664   4.128   1.397   4.384 -0.7579  0.0118  0.8514
  220TIP3   OH2  665   5.756   5.806   2.042 -0.2107  0.2131 -0.0096
  220TIP3    H1  666   5.729   5.814   2.133  2.1623 -0.5208  0.8282
  220TIP3    H2  667   5.750   5.712   2.023 -0.8051  0.3763 -0.6462
  221TIP3   OH2  668   4.475   2.717   1.189 -0.1979 -0.3781 -0.0457
  221TIP3    H1  669   4.556   2.766   1.182 -0.7107  0.7789  1.4795
  221TIP3    H2  670   4.411   2.768   1.140 -0.6324  0.2754  1.1688
  222TIP3   OH2  671   2.047   2.280   1.243 -0.1901 -0.3300  0.5432
  222TIP3    H1  672   2.039   2.349   1.177  1.2022  0.7197  1.4067
  222TIP3    H2  673   1.969   2.226   1.232 -0.3745  0.2645 -1.4297
  223TIP3   OH2  674   4.345   1.496   5.000 -0.0166  0.2111  0.3574
  223TIP3    H1  675   4.335   1.590   5.017  0.4463  0.3690 -0.2312
  223TIP3    H2  676   4.321   1.454   5.083  1.3926  0.9397  1.1747
  224TIP3   OH2  677   0.427   4.283   0.584 -0.2239  0.0857 -0.3924
  224TIP3    H1  678   0.446   4.299   0.677  0.2636 -0.5666 -0.3672
  224TIP3    H2  679   0.513   4.275   0.543 -0.3869  1.9621 -1.2233
  225TIP3   OH2  680   4.491   0.503   3.841 -0.0391  0.4021  0.0855
  225TIP3    H1  681   4.405   0.490   3.881  0.4117  0.4612  1.1119
  225TIP3    H2  682   4.536   0.562   3.902  1.3349 -0.9877  0.4582
  226TIP3   OH2  683   4.374   4.449   1.988 -0.0568 -0.3801 -0.0953
  226TIP3    H1  684   4.379   4.424   1.896 -2.8140 -0.8066 -0.2027
  226TIP3    H2  685   4.462   4.432   2.022  1.3244  0.7107 -2.8166
  227TIP3   OH2  686   5.950   1.622   0.164 -0.1450 -0.2727 -0.5894
  227TIP3    H1  687   5.890   1.565   0.210 -0.4408 -1.1953 -2.0388
  227TIP3    H2  688   5.915   1.710   0.176 -0.2842 -0.5045  0.7760
  228TIP3   OH2  689   5.509   3.394   2.461  0.3587 -0.5407  0.7252
  228TIP3    H1  690   5.537   3.354   2.378 -1.3587  0.7655 -0.5720
  228TIP3    H2  691   5.574   3.365   2.525  1.8629 -1.4536 -1.1096
  229TIP3   OH2  692   1.846   2.631   5.105 -0.2556  0.1690 -0.9895
  229TIP3    H1  693   1.935   2.643   5.072 -0.0450 -0.4792 -0.6713
  229TIP3    H2  694   1.829   2.537   5.097 -0.1611 -0.0463  0.7957
  230TIP3   OH2  695   5.778   1.257   1.912 -0.2446 -0.0331 -0.0591
  230TIP3    H1  696   5.851   1.213   1.956  2.1672  2.1487 -1.5715
  230TIP3    H2  697   5.772   1.214   1.826 -0.9946 -0.4170  0.1761
  231TIP3   OH2  698   2.403   4.384   3.002 -0.1804 -0.8522  0.5468
  231TIP3    H1  699   2.330   4.348   2.952  1.8311 -1.4391 -2.1953
  231TIP3    H2  700   2.366   4.461   3.046 -2.5171 -1.3667 -0.3642
  232TIP3   OH2  701   5.443   3.805   2.093  0.6183 -0.1382 -0.0592
  232TIP3    H1  702   5.498   3.741   2.049  0.2071  0.4241 -1.4259
  232TIP3    H2  703   5.449   3.884   2.039 -1.2069  0.0689 -0.0417
  233TIP3   OH2  704   3.162   5.514   4.480 -0.2292  0.5514  0.3788
  233TIP3    H1  705   3.198   5.558   4.403 -1.8321 -1.9479 -1.9870
  233TIP3    H2  706   3.068   5.508   4.464 -0.2826 -2.4167  1.1578
  234TIP3   OH2  707   4.608   3.741   3.507  0.1379  0.1698  0.2408
  234TIP3    H1  708   4.516   3.766   3.505 -0.2491 -1.1889 -0.6536
  234TIP3    H2  709   4.631   3.726   3.415  1.0170 -0.2670  0.5153
  235TIP3   OH2  710   0.795   2.330   3.416  0.1239 -0.3700 -0.1055
  235TIP3    H1  711   0.838   2.268   3.357  1.3898  0.7646 -0.4193
  235TIP3    H2  712   0.809   2.292   3.503  2.2619  0.1987 -0.1479
  236TIP3   OH2  713   0.893   1.518   0.811 -0.1184  0.2864 -0.3829
  236TIP3    H1  714   0.816   1.464   0.793  0.4640 -0.6079 -0.2383
  236TIP3    H2  715   0.897   1.523   0.907 -0.7176  1.4089 -0.3965
  237TIP3   OH2  716   6.004   4.202   5.000  0.1016 -0.1728 -0.0286
  237TIP3    H1  717   6.068   4.259   4.957  0.5544 -1.4256 -1.0412
  237TIP3    H2  718   5.949   4.263   5.051 -0.8840  1.4847 -2.8611
  238TIP3   OH2  719   1.563   3.255   0.961  0.1186  0.1956  0.3874
  238TIP3    H1  720   1.536   3.211   0.880  0.5216  0.0457  0.3274
  238TIP3    H2  721   1.648   3.216   0.981 -0.1852 -0.0894  1.1339
  239TIP3   OH2  722   3.580   5.632   4.853  0.7473 -0.0066 -0.7587
  239TIP3    H1  723   3.590   5.681   4.935  0.4560 -1.9676  0.5091
  239TIP3    H2  724   3.498   5.665   4.815  1.3904  1.6271 -0.8120
  240TIP3   OH2  725   3.650   1.373   3.968  0.2299  0.1476 -0.4866
  240TIP3    H1  726   3.653   1.301   3.906 -2.1891 -0.5778  0.1320
  240TIP3    H2  727   3.649   1.331   4.054 -0.5680  0.9252 -0.0979
  241TIP3   OH2  728   2.527   1.848   4.175  0.0922 -0.3893 -0.0559
  241TIP3    H1  729   2.588   1.913   4.140  0.5694 -0.2222  1.0452
  241TIP3    H2  730   2.444   1.894   4.183  0.4997  0.1921  0.9998
  242TIP3   OH2  731   4.545   4.962   1.311 -0.2690  0.8259 -0.0338
  242TIP3    H1  732   4.541   5.015   1.391  1.4989 -0.7394  1.1903
  242TIP3    H2  733   4.487   4.888   1.328 -0.4010  0.8251 -0.4826
  243TIP3   OH2  734   5.551   2.503   4.397 -0.2659  0.1091  0.2722
  243TIP3    H1  735   5.567   2.488   4.490 -1.1340 -0.3267  0.3535
  243TIP3    H2  736   5.461   2.474   4.382 -0.1302  0.1484 -0.7086
  244TIP3   OH2  737   3.515   3.942   1.060 -0.2434  0.7994 -0.4057
  244TIP3    H1  738   3.527   3.900   1.145 -2.2089  0.5016 -0.2321
  244TIP3    H2  739   3.534   3.873   0.996  0.3908  0.7864 -0.2157
  245TIP3   OH2  740   5.752   1.013   0.616 -0.2526  0.2125 -0.2049
  245TIP3    H1  741   5.748   0.965   0.534 -0.3847  1.2742 -0.8344
  245TIP3    H2  742   5.722   0.951   0.682  1.0663 -1.0623 -0.7543
  246TIP3   OH2  743   5.703   2.713   3.151 -0.5204  0.5149 -0.0230
  246TIP3    H1  744   5.619   2.696   3.109 -0.2308  0.6129 -0.6527
  246TIP3    H2  745   5.742   2.785   3.101  0.7705 -0.7730 -0.9764
  247TIP3   OH2  746   1.302   5.428   2.753  0.0860 -0.3399  0.0584
  247TIP3    H1  747   1.231   5.447   2.816  0.3490  1.6250 -0.1668
  247TIP3    H2  748   1.268   5.460   2.669  0.5806 -0.9660 -0.3832
  248TIP3   OH2  749   3.907   1.414   2.976 -0.3416 -0.3369  0.4152
  248TIP3    H1  750   3.935   1.505   2.978 -2.4788  0.6299 -3.6688
  248TIP3    H2  751   3.811   1.419   2.980 -0.5291 -2.3583 -0.5312
  249TIP3   OH2  752   1.978   4.436   0.002 -0.4684 -0.9517 -0.0027
  249TIP3    H1  753   2.052   4.434   0.062  0.7312  2.3821 -1.1732
  249TIP3    H2  754   1.903   4.457   0.058  0.6160  2.0287  0.5242
  250TIP3   OH2  755   5.008   1.173   0.912  0.3791 -0.7791 -0.5116
  250TIP3    H1  756   4.931   1.124   0.939  0.1463  0.6868  1.7919
  250TIP3    H2  757   5.056   1.114   0.853 -1.5297 -2.4184 -0.5079
  251TIP3   OH2  758   0.599   4.472   4.067 -0.2913  0.0646 -0.6296
  251TIP3    H1  759   0.642   4.444   4.147 -0.6490 -0.3574 -0.5815
  251TIP3    H2  760   0.590   4.567   4.076 -1.0725 -0.0788  0.2008
  252TIP3   OH2  761   4.700   5.651   0.880 -0.2437 -0.4712  0.3228
  252TIP3    H1  762   4.767   5.643   0.812  0.6634  0.5405  1.0591
  252TIP3    H2  763   4.644   5.575   0.868 -0.3633 -0.0995 -1.8196
  253TIP3   OH2  764   1.876   2.592   2.951  0.3615  0.3137  0.1124
  253TIP3    H1  765   1.936   2.654   2.993  0.2220  1.5038 -1.3681
  253TIP3    H2  766   1.913   2.578   2.864  0.2317 -1.5135  0.3082
  254TIP3   OH2  767   2.925   2.948   1.756  0.0718  0.0189  0.7945
  254TIP3    H1  768   2.979   3.027   1.753 -1.0440  0.8328  1.4218
  254TIP3    H2  769   2.874   2.950   1.675 -1.0713  0.7852  1.5064
  255TIP3   OH2  770   3.837   4.963   3.431 -0.2423 -0.4277  0.0486
  255TIP3    H1  771   3.855   4.953   3.337  0.2264 -1.3641  0.2222
  255TIP3    H2  772   3.810   4.876   3.459 -2.3704  0.2993  0.3975
  256TIP3   OH2  773   3.620   1.451   2.996 -0.2277 -0.4546  0.0284
  256TIP3    H1  774   3.547   1.393   3.017  1.4349 -2.4765  0.5220
  256TIP3    H2  775   3.584   1.539   3.006 -2.6980 -1.3615 -0.1737
  257TIP3   OH2  776   4.687   4.944   2.788  0.1938 -0.5162 -0.0282
  257TIP3    H1  777   4.614   4.889   2.758 -1.4701  1.2187  0.6033
  257TIP3    H2  778   4.700   4.919   2.879  0.1757 -0.6147 -0.0528
  258TIP3   OH2  779   0.723   5.253   0.703 -0.0625  0.1084 -0.0054
  258TIP3    H1  780   0.797   5.302   0.669  0.1857  0.1346  0.5664
  258TIP3    H2  781   0.745   5.236   0.795 -1.0877  0.7675  0.3843
  259TIP3   OH2  782   3.143   3.739   1.188 -0.4496 -0.0361 -0.3507
  259TIP3    H1  783   3.100   3.654   1.197  0.1886 -0.3166  0.1286
  259TIP3    H2  784   3.099   3.781   1.114 -0.4477 -0.9874 -0.9001
  260TIP3   OH2  785   2.943   0.972   1.401  0.0970  0.0631  0.7106
  260TIP3    H1  786   2.903   1.055   1.375 -0.1828  0.1666  1.4493
  260TIP3    H2  787   2.989   0.992   1.483  2.3183  0.1296 -0.4780
  261TIP3   OH2  788   1.979   2.231   2.144  0.2330  0.3034  0.1717
  261TIP3    H1  789   1.985   2.149   2.095  0.3151  0.4606 -0.0827
  261TIP3    H2  790   1.917   2.212   2.214  0.4727 -0.0622  0.2892
  262TIP3   OH2  791   5.952   0.678   4.909  1.1776 -0.4604 -0.6634
  262TIP3    H1  792   5.876   0.647   4.859  1.2386 -1.7024 -0.0206
  262TIP3    H2  793   5.935   0.771   4.922 -0.4606 -0.7823 -0.1754
  263TIP3   OH2  794   2.748   1.619   2.661  0.3430  0.6915  0.3818
  263TIP3    H1  795   2.778   1.636   2.572  1.1514  4.0255  1.1605
  263TIP3    H2  796   2.654   1.638   2.658  0.5676  1.9309  0.4064
  264TIP3   OH2  797   5.591   0.199   4.660 -0.6851 -0.2838 -0.0470
  264TIP3    H1  798   5.498   0.190   4.684 -0.3292  0.2134  1.6235
  264TIP3    H2  799   5.621   0.275   4.709  0.4870 -0.1021 -1.0058
  265TIP3   OH2  800   0.233   1.646   1.588  0.2769  0.4318 -0.4665
  265TIP3    H1  801   0.165   1.651   1.656  0.6324  2.2801 -0.1919
  265TIP3    H2  802   0.189   1.606   1.514 -0.9257  0.8988 -0.0370
  266TIP3   OH2  803   5.461   4.593   0.849 -0.0935  0.3044 -0.3033
  266TIP3    H1  804   5.554   4.598   0.870  0.4406 -0.9750 -2.1764
  266TIP3    H2  805   5.452   4.640   0.766 -0.9506 -0.3812 -0.6155
  267TIP3   OH2  806   2.196   3.894   2.421 -0.5181  0.5890 -0.3217
  267TIP3    H1  807   2.267   3.895   2.357  0.3602 -1.6144  0.5033
  267TIP3    H2  808   2.121   3.929   2.375  0.1462 -0.6816 -2.5226
  268TIP3   OH2  809   5.438   5.911   2.247  0.0754 -0.2522 -0.5803
  268TIP3    H1  810   5.398   5.939   2.329 -0.9436 -1.4893 -0.6201
  268TIP3    H2  811   5.510   5.854   2.274 -0.0069 -0.3343 -0.5326
  269TIP3   OH2  812   5.198   4.556   2.179  0.0488 -0.2842  0.5057
  269TIP3    H1  813   5.289   4.547   2.151 -0.0350  0.3585  0.0111
  269TIP3    H2  814   5.158   4.471   2.160  0.5348 -0.5667  0.7128
  270TIP3   OH2  815   5.214   3.272   2.670  0.6441 -0.5024  0.0022
  270TIP3    H1  816   5.232   3.184   2.635 -1.4781 -0.2496 -1.9838
  270TIP3    H2  817   5.200   3.326   2.592  0.9714  1.4071  1.2116
  271TIP3   OH2  818   5.644   1.879   3.767 -0.0384  0.0472 -0.2485
  271TIP3    H1  819   5.720   1.912   3.718 -0.3108  3.5676  1.3822
  271TIP3    H2  820   5.660   1.908   3.857 -2.0525 -1.5770  0.7113
  272TIP3   OH2  821   4.951   3.538   3.995 -0.1995  0.4941  0.2646
  272TIP3    H1  822   4.899   3.616   3.974 -2.4290 -1.1693 -0.7839
  272TIP3    H2  823   4.894   3.484   4.049  1.0970 -0.6459  0.5600
  273TIP3   OH2  824   0.500   0.910   1.668 -0.4496  0.2669  0.2134
  273TIP3    H1  825   0.447   0.970   1.720 -1.4940 -0.1929 -0.2816
  273TIP3    H2  826   0.525   0.840   1.728 -1.3283 -0.0674  0.2045
  274TIP3   OH2  827   0.068   3.309   2.455 -0.0422  0.2976  0.5420
  274TIP3    H1  828  -0.017   3.308   2.411 -0.1644  0.2088  0.7807
  274TIP3    H2  829   0.106   3.224   2.436  0.7141  0.9249 -0.9623
  275TIP3   OH2  830   3.466   2.518   3.385 -0.0260  0.0636 -0.2524
  275TIP3    H1  831   3.496   2.581   3.450  1.2133  0.0682 -0.7932
  275TIP3    H2  832   3.462   2.568   3.303 -0.2477 -0.2620 -0.4442
  276TIP3   OH2  833   4.814   1.737   2.810  0.2133 -0.0488  0.2049
  276TIP3    H1  834   4.741   1.799   2.815  0.1278 -0.2116  1.1631
  276TIP3    H2  835   4.892   1.792   2.816  0.1647  0.0657 -0.1531
  277TIP3   OH2  836   4.630   3.708   4.306  0.1512 -0.0988 -0.1504
  277TIP3    H1  837   4.711   3.721   4.354 -0.2944  0.9630  0.3454
  277TIP3    H2  838   4.563   3.752   4.359 -0.8253 -1.3116 -0.3316
  278TIP3   OH2  839   5.571   2.353   0.472  0.6688  1.0270  0.0846
  278TIP3    H1  840   5.595   2.330   0.561 -1.2691  0.8679  0.6194
  278TIP3    H2  841   5.594   2.446   0.464  0.9100  1.0251  0.7290
  279TIP3   OH2  842   4.152   1.630   4.420  0.4385  0.1114 -0.2788
  279TIP3    H1  843   4.070   1.673   4.398  0.3367 -0.0693 -0.2535
  279TIP3    H2  844   4.166   1.651   4.513  0.9168  0.9529 -0.5264
  280TIP3   OH2  845   4.902   3.489   0.954  0.2110 -0.3275  0.2875
  280TIP3    H1  846   4.834   3.450   1.009  0.0757 -1.2844 -0.5221
  280TIP3    H2  847   4.856   3.517   0.875  0.8118 -1.5235 -0.5231
  281TIP3   OH2  848   2.808   1.470   1.243  0.0693 -0.5189  0.0244
  281TIP3    H1  849   2.809   1.561   1.216  3.9351 -0.3980  0.0721
  281TIP3    H2  850   2.819   1.473   1.338  0.2973 -1.0156  0.0178
  282TIP3   OH2  851   5.435   4.608   2.038  0.1433  0.8003 -0.1518
  282TIP3    H1  852   5.488   4.608   2.117 -2.7470  0.1279  1.9541
  282TIP3    H2  853   5.395   4.694   2.036 -2.0375 -0.1191  0.8539
  283TIP3   OH2  854   2.893   0.441   0.661  0.7659  0.1618 -0.6491
  283TIP3    H1  855   2.915   0.421   0.752  0.8505  1.6280 -0.3329
  283TIP3    H2  856   2.798   0.425   0.655  0.9903 -1.2986 -0.7014
  284TIP3   OH2  857   6.026   5.857   2.060  0.4018  0.1213  0.5083
  284TIP3    H1  858   5.930   5.853   2.052  0.3183  0.6499  1.1868
  284TIP3    H2  859   6.042   5.879   2.152  1.1692  0.3830  0.3200
  285TIP3   OH2  860   4.019   2.934   1.144 -0.5644 -0.5530  0.3119
  285TIP3    H1  861   4.087   2.962   1.082 -0.5465 -1.5042 -0.1197
  285TIP3    H2  862   3.945   2.992   1.126 -0.8804 -1.3787 -1.2602
  286TIP3   OH2  863   4.365   2.942   2.145 -0.3660 -0.2521  0.0764
  286TIP3    H1  864   4.359   2.854   2.109  0.3736 -0.7152  1.0158
  286TIP3    H2  865   4.284   2.953   2.195 -0.2675 -0.5730  0.3093
  287TIP3   OH2  866   0.614   0.556   0.059  0.4276 -0.0318 -0.1000
  287TIP3    H1  867   0.616   0.488  -0.009  0.2046  0.1252 -0.2630
  287TIP3    H2  868   0.542   0.530   0.117  0.4669 -0.0395 -0.0547
  288TIP3   OH2  869   1.979   4.607   2.841 -0.2323 -0.9208 -0.5072
  288TIP3    H1  870   1.909   4.594   2.777  0.5412 -1.8425 -1.2052
  288TIP3    H2  871   2.051   4.553   2.809  0.8295  0.0404  0.1528
  289TIP3   OH2  872   4.619   5.123   4.597  0.0193  0.2290 -0.1992
  289TIP3    H1  873   4.635   5.062   4.669  1.8000  0.6775 -0.1568
  289TIP3    H2  874   4.645   5.075   4.519 -0.4637  0.2573 -0.3776
  290TIP3   OH2  875   1.353   1.272   0.906 -0.9287  0.5434 -0.1309
  290TIP3    H1  876   1.337   1.211   0.979 -0.9086 -2.0934 -2.1487
  290TIP3    H2  877   1.267   1.309   0.886 -1.4276 -0.6314 -0.2699
  291TIP3   OH2  878   4.354   2.102   3.362  0.2041  0.1247 -0.2021
  291TIP3    H1  879   4.320   2.173   3.417 -1.0518  0.1554 -0.9710
  291TIP3    H2  880   4.413   2.146   3.300  0.4280  0.3089  0.1414
  292TIP3   OH2  881   4.233   1.612   2.529 -0.2794 -0.0815 -0.1560
  292TIP3    H1  882   4.235   1.605   2.434  0.0482 -0.5113 -0.1235
  292TIP3    H2  883   4.267   1.699   2.547 -0.6872  0.1408 -0.4436
  293TIP3   OH2  884   3.316   2.518   2.085 -0.2099 -0.0089  0.2152
  293TIP3    H1  885   3.221   2.510   2.078 -0.0688 -0.9340 -1.0015
  293TIP3    H2  886   3.331   2.561   2.170 -1.7037  0.2174  0.3806
  294TIP3   OH2  887   2.784   2.949   1.515 -0.5117 -0.5946 -0.0475
  294TIP3    H1  888   2.745   3.036   1.512  2.2811  0.7909 -1.9827
  294TIP3    H2  889   2.760   2.909   1.431  1.7700  0.1930 -1.1654
  295TIP3   OH2  890   2.761   0.742   1.032  0.3696 -0.2801  0.0844
  295TIP3    H1  891   2.756   0.835   1.054  0.1535 -0.2610 -0.0480
  295TIP3    H2  892   2.723   0.698   1.108 -0.9061 -0.1861 -0.4757
  296TIP3   OH2  893   5.710   1.533   1.463 -0.5099  0.0361 -0.3228
  296TIP3    H1  894   5.675   1.612   1.422  0.2296  0.4603 -0.1528
  296TIP3    H2  895   5.649   1.515   1.535 -0.6028  0.5334 -0.2707
  297TIP3   OH2  896   0.729   3.330   1.228  0.1264  0.2213  0.2334
  297TIP3    H1  897   0.641   3.345   1.196 -0.3946  0.7091  1.7889
  297TIP3    H2  898   0.721   3.257   1.290  1.0868 -0.6994 -0.6853
  298TIP3   OH2  899   0.362   1.102   4.347 -0.2540  0.1772 -0.3035
  298TIP3    H1  900   0.279   1.105   4.300 -1.1422 -0.1737  1.1668
  298TIP3    H2  901   0.339   1.127   4.437  1.4369  1.1953 -0.1113
  299TIP3   OH2  902   0.557   5.867   1.503  0.2407  0.8145  0.2021
  299TIP3    H1  903   0.582   5.849   1.594 -1.3300 -0.1780  0.4778
  299TIP3    H2  904   0.511   5.951   1.506  1.8487  1.7369 -0.0153
  300TIP3   OH2  905   0.881   1.455   1.661  0.1166 -0.6513 -0.3205
  300TIP3    H1  906   0.885   1.395   1.736 -0.6100 -1.7105 -1.1067
  300TIP3    H2  907   0.811   1.517   1.683  1.0790  0.1493  0.6335
  301TIP3   OH2  908   5.284   3.446   0.801 -0.1422  0.3467 -0.4970
  301TIP3    H1  909   5.356   3.498   0.836 -0.1812  0.2156 -0.2210
  301TIP3    H2  910   5.288   3.363   0.850 -0.2383  0.1888 -0.7534
  302TIP3   OH2  911   0.412   1.100   2.247 -0.1179  0.7016  0.1649
  302TIP3    H1  912   0.432   1.006   2.245 -3.6715 -0.1987 -1.3356
  302TIP3    H2  913   0.438   1.128   2.334  3.6287 -0.9091 -0.2211
  303TIP3   OH2  914   4.812   3.783   2.115  0.0318  0.4394  0.3076
  303TIP3    H1  915   4.846   3.780   2.026 -0.7435  0.5398 -0.0026
  303TIP3    H2  916   4.719   3.803   2.104 -0.0955  0.3299  1.1339
  304TIP3   OH2  917   2.163   2.116   3.856 -0.5124  0.1062  0.0058
  304TIP3    H1  918   2.171   2.143   3.765 -0.8483  0.3048  0.0348
  304TIP3    H2  919   2.186   2.194   3.907  4.3188 -1.1324  0.1835
  305TIP3   OH2  920   1.721   0.785   1.520 -0.8214  0.1813  0.4230
  305TIP3    H1  921   1.686   0.857   1.571 -1.8541 -0.4949  0.7125
  305TIP3    H2  922   1.740   0.716   1.584  2.4923  0.9856  0.4856
  306TIP3   OH2  923   3.665   3.731   2.626 -0.1769  0.2485  0.1579
  306TIP3    H1  924   3.627   3.685   2.701 -0.4266  0.7662  0.3545
  306TIP3    H2  925   3.589   3.766   2.579  0.0183  0.6552  0.1382
  307TIP3   OH2  926   2.979   3.295   0.843 -0.2147  0.2147 -0.2766
  307TIP3    H1  927   3.000   3.220   0.899 -1.3895  0.4772  0.5767
  307TIP3    H2  928   2.898   3.269   0.799 -0.3764  0.7992 -0.3258
  308TIP3   OH2  929   6.226   1.000   0.331  0.2678 -0.3483  0.1301
  308TIP3    H1  930   6.321   1.009   0.321  0.6415 -1.2548  2.3496
  308TIP3    H2  931   6.197   0.956   0.251  1.6085  0.3802 -0.8003
  309TIP3   OH2  932   0.508   1.021   0.383  0.4219  0.3936  0.0098
  309TIP3    H1  933   0.512   1.039   0.289 -0.9513  0.2563 -0.1047
  309TIP3    H2  934   0.414   1.021   0.403  0.5441 -1.8470  0.9252
  310TIP3   OH2  935   4.574   3.582   4.053 -0.3886  0.0310  0.6323
  310TIP3    H1  936   4.596   3.621   4.138 -1.4769 -0.5560  1.2044
  310TIP3    H2  937   4.636   3.510   4.043  0.3659  0.6907  0.4746
  311TIP3   OH2  938   1.243   2.230   2.224  0.4284 -0.1640  0.2172
  311TIP3    H1  939   1.282   2.143   2.226 -0.3456 -0.5702 -1.0919
  311TIP3    H2  940   1.300   2.283   2.280  1.1761 -1.3897  0.6609
  312TIP3   OH2  941   5.285   1.066   3.526  0.0952  0.0065  0.2844
  312TIP3    H1  942   5.310   0.981   3.488  0.3199  1.6286 -3.6717
  312TIP3    H2  943   5.369   1.106   3.551  0.3111  0.2034 -0.6905
  313TIP3   OH2  944   1.096   2.293   2.869  1.2610 -0.3896 -0.0986
  313TIP3    H1  945   1.075   2.245   2.789 -0.2507 -1.5460  0.9501
  313TIP3    H2  946   1.013   2.297   2.917  2.6236 -1.7972  2.5052
  314TIP3   OH2  947   0.564   0.460   4.418 -0.1406  0.1648 -0.0960
  314TIP3    H1  948   0.650   0.429   4.447 -0.2438 -0.8711 -0.8603
  314TIP3    H2  949   0.579   0.499   4.332 -0.5400 -0.6843 -0.5662
  315TIP3   OH2  950   4.508   2.436   2.735  0.3631  0.0789 -0.4427
  315TIP3    H1  951   4.501   2.345   2.705  0.9130  0.3315 -1.3578
  315TIP3    H2  952   4.418   2.462   2.753  0.2690 -0.9286  0.7325
  316TIP3   OH2  953   4.882   2.176   1.997 -0.0000 -0.0710 -0.1146
  316TIP3    H1  954   4.908   2.212   1.912  2.6591  1.5707  1.2272
  316TIP3    H2  955   4.823   2.242   2.034  2.5134  1.6769  1.1005
  317TIP3   OH2  956   3.540   2.662   4.336  0.3114 -0.1372 -0.2528
  317TIP3    H1  957   3.477   2.710   4.282 -0.5609  1.5914  2.1278
  317TIP3    H2  958   3.625   2.701   4.315 -0.4126  3.0520  1.9600
  318TIP3   OH2  959   1.132   2.748   2.207 -0.1554 -0.1680  0.0450
  318TIP3    H1  960   1.175   2.831   2.229 -0.1794 -0.2943  0.6015
  318TIP3    H2  961   1.094   2.718   2.290 -0.1908 -0.7108 -0.1607
  319TIP3   OH2  962   6.211   4.713   2.635 -0.0386 -0.1038 -0.1843
  319TIP3    H1  963   6.213   4.621   2.664 -0.2927 -0.9193 -2.5879
  319TIP3    H2  964   6.148   4.714   2.564 -0.4630  2.1011  0.1649
  320TIP3   OH2  965   4.662   2.082   2.239 -0.3231  0.0155  0.2614
  320TIP3    H1  966   4.656   2.051   2.148  1.4953  0.1533  0.0394
  320TIP3    H2  967   4.574   2.071   2.274 -0.8624 -0.8945 -1.2443
  321TIP3   OH2  968   2.382   5.733   2.868 -0.0674 -0.6620 -0.3438
  321TIP3    H1  969   2.420   5.816   2.841 -0.3305 -0.1740  0.7090
  321TIP3    H2  970   2.342   5.697   2.789 -0.5486  0.5424 -0.6705
  322TIP3   OH2  971   1.184   2.251   0.538 -0.0830  0.3551  0.2292
  322TIP3    H1  972   1.271   2.235   0.500  0.1887 -1.9282  1.6564
  322TIP3    H2  973   1.130   2.178   0.507 -1.2352  1.1982  0.1793
  323TIP3   OH2  974   5.239   4.796   3.533 -0.5966 -0.2693  0.2472
  323TIP3    H1  975   5.146   4.777   3.548 -0.5715 -0.1547  0.5624
  323TIP3    H2  976   5.240   4.886   3.501 -0.5458 -0.0515  0.8557
  324TIP3   OH2  977   1.510   3.046   1.205  0.2165  0.2684  0.1953
  324TIP3    H1  978   1.601   3.069   1.226 -0.1436  1.7992  0.2009
  324TIP3    H2  979   1.518   2.984   1.132  1.2811 -0.2849  0.7533
  325TIP3   OH2  980   2.601   4.285   3.922 -0.3621  0.6983  0.7158
  325TIP3    H1  981   2.670   4.218   3.929  0.5175  1.6029  0.9116
  325TIP3    H2  982   2.533   4.243   3.869  0.0826 -0.4153  0.9854
  326TIP3   OH2  983   0.402   3.791   0.237 -0.1874  0.0219 -0.7289
  326TIP3    H1  984   0.497   3.798   0.229 -0.1345  0.3895  0.1113
  326TIP3    H2  985   0.388   3.741   0.317 -0.7020  0.1421 -0.7366
  327TIP3   OH2  986   1.705   5.865   3.075  0.5186 -0.1683 -0.0891
  327TIP3    H1  987   1.659   5.880   3.157 -1.5053 -1.1886 -0.9795
  327TIP3    H2  988   1.793   5.838   3.102  0.1319  0.1970  1.7048
  328TIP3   OH2  989   4.245   4.861   3.133  0.0089 -0.3708 -0.4424
  328TIP3    H1  990   4.195   4.839   3.211 -1.0859 -2.7727 -1.7055
  328TIP3    H2  991   4.186   4.916   3.082 -0.5076 -1.3323 -0.9109
  329TIP3   OH2  992   4.621   0.723   3.596  0.4871  0.1230  0.4931
  329TIP3    H1  993   4.653   0.786   3.532  2.6047  1.5130  2.7324
  329TIP3    H2  994   4.701   0.684   3.632 -0.6898 -1.7368  1.2357
  330TIP3   OH2  995   5.680   3.047   1.760  0.3557 -1.0387  0.0027
  330TIP3    H1  996   5.603   3.095   1.789 -0.3720 -0.6243 -2.3926
  330TIP3    H2  997   5.754   3.098   1.793 -0.4018  0.1397 -0.0802
  331TIP3   OH2  998   6.307   0.632   3.088 -0.1377  0.1105  0.5562
  331TIP3    H1  999   6.248   0.589   3.025 -1.3058  0.9517  1.0349
  331TIP3    H2 1000   6.280   0.724   3.088  0.5471  0.3308  1.4918
  332TIP3   OH2 1001   1.455   5.975   3.723  0.5863 -0.1827 -0.3511
  332TIP3    H1 1002   1.429   5.885   3.701  0.2109 -0.1643  0.0026
  332TIP3    H2 1003   1.521   5.997   3.658 -0.2414 -0.2635 -1.2414
  333TIP3   OH2 1004   2.193   0.282   3.879 -0.2796 -0.0154  0.2168
  333TIP3    H1 1005   2.239   0.232   3.946  1.3990  1.8419  0.5325
  333TIP3    H2 1006   2.115   0.316   3.924 -0.3413 -0.6164  0.5753
  334TIP3   OH2 1007   2.562   4.291   0.963 -0.7686  0.0766  0.0167
  334TIP3    H1 1008   2.488   4.321   0.909 -3.1385 -1.8138  1.9427
  334TIP3    H2 1009   2.533   4.304   1.053  1.6951  0.1327  0.8759
  335TIP3   OH2 1010   2.464   5.861   4.937  0.7718  0.4898 -0.1638
  335TIP3    H1 1011   2.484   5.918   4.863  1.2279 -0.5498 -0.8616
  335TIP3    H2 1012   2.383   5.897   4.973 -2.4254 -1.7278 -4.1855
  336TIP3   OH2 1013   4.620   0.323   4.446 -0.6119 -0.0227  0.1392
  336TIP3    H1 1014   4.583   0.411   4.446 -1.0934 -0.2243  0.4169
  336TIP3    H2 1015   4.707   0.334   4.406 -2.3491 -0.1837 -4.2223
  337TIP3   OH2 1016   1.703   5.253   3.287  0.1399  0.0490  0.0614
  337TIP3    H1 1017   1.730   5.173   3.242 -0.0799 -0.1441  0.2780
  337TIP3    H2 1018   1.646   5.224   3.358  0.0057  0.4000  0.1006
  338TIP3   OH2 1019   1.435   2.365   2.914  0.2405 -0.0399  0.3760
  338TIP3    H1 1020   1.494   2.386   2.842 -1.1183 -1.4093 -1.2082
  338TIP3    H2 1021   1.430   2.269   2.914 -1.7564  0.0266  0.6333
  339TIP3   OH2 1022   4.281   1.050   1.457 -0.2112  0.5558 -0.3364
  339TIP3    H1 1023   4.371   1.077   1.480 -0.0313  1.0566 -1.5602
  339TIP3    H2 1024   4.263   0.977   1.516  2.2015 -1.7210 -2.1664
  340TIP3   OH2 1025   5.085   1.086   5.021 -0.1060 -0.4267 -0.3123
  340TIP3    H1 1026   5.125   1.171   5.041 -1.8656 -0.0299  1.9790
  340TIP3    H2 1027   5.038   1.100   4.939  0.8745  0.3578 -0.7536
  341TIP3   OH2 1028   2.246   3.471   5.116 -0.3817 -0.1796  0.0884
  341TIP3    H1 1029   2.288   3.555   5.134  0.0851 -0.3522 -0.1658
  341TIP3    H2 1030   2.230   3.471   5.022 -4.3702  1.4269  0.5770
  342TIP3   OH2 1031   3.041   4.221   3.921 -0.0874  0.1291  0.2314
  342TIP3    H1 1032   3.106   4.288   3.940  0.3002 -0.2802  0.3595
  342TIP3    H2 1033   2.962   4.270   3.897 -0.1747  0.6592  1.4846
  343TIP3   OH2 1034   1.453   0.295   0.895 -0.8316 -0.2618  0.0765
  343TIP3    H1 1035   1.440   0.244   0.976 -1.8912 -2.1555 -1.2093
  343TIP3    H2 1036   1.412   0.379   0.914  0.3733 -0.0410  2.0474
  344TIP3   OH2 1037   2.318   2.141   3.372  0.1059  0.3937  0.2542
  344TIP3    H1 1038   2.270   2.184   3.301  0.6992 -0.5992 -0.7952
  344TIP3    H2 1039   2.374   2.077   3.327  0.4601 -0.3028  1.6325
  345TIP3   OH2 1040   0.754   5.833   0.189  0.4214  0.6969  0.1967
  345TIP3    H1 1041   0.733   5.838   0.096  0.1714 -0.0487  0.2073
  345TIP3    H2 1042   0.773   5.924   0.214 -0.9669  1.1366 -0.2369
  346TIP3   OH2 1043   2.576   3.599   2.487 -0.0330  0.5098  0.0812
  346TIP3    H1 1044   2.642   3.605   2.418  0.7843  3.5148  0.9873
  346TIP3    H2 1045   2.549   3.507   2.486  3.8058 -0.7964 -0.6450
  347TIP3   OH2 1046   2.381   1.901   5.154 -0.1710 -0.3431 -0.0370
  347TIP3    H1 1047   2.309   1.838   5.165  0.0092 -0.2600  1.8421
  347TIP3    H2 1048   2.448   1.851   5.107 -0.2137 -1.4475  1.0103
  348TIP3   OH2 1049   5.079   2.874   4.151 -0.3508  0.5108 -0.5030
  348TIP3    H1 1050   5.067   2.787   4.113  0.4052  0.7442 -1.3200
  348TIP3    H2 1051   4.992   2.912   4.152 -0.7200 -0.3094  0.0139
  349TIP3   OH2 1052   3.372   3.942   0.214  1.2993  0.3432 -0.2283
  349TIP3    H1 1053   3.351   3.950   0.121  1.8979 -1.2085 -0.5144
  349TIP3    H2 1054   3.291   3.910   0.254  1.4199 -0.2307 -0.4336
  350TIP3   OH2 1055   4.079   3.887   2.551 -0.2008 -0.7351  0.5759
  350TIP3    H1 1056   4.084   3.968   2.500  0.6103 -1.4571 -0.5227
  350TIP3    H2 1057   4.055   3.916   2.639  2.1336  0.9327  0.7511
  351TIP3   OH2 1058   4.259   5.836   1.019 -0.0260  0.5458  0.8763
  351TIP3    H1 1059   4.208   5.794   0.950 -1.1302 -1.6884  2.8991
  351TIP3    H2 1060   4.337   5.870   0.975  0.1355 -2.2333 -1.2366
  352TIP3   OH2 1061   2.180   2.596   1.843  0.4846  0.4806  0.2183
  352TIP3    H1 1062   2.204   2.509   1.875 -0.3965 -0.4740 -1.5594
  352TIP3    H2 1063   2.126   2.633   1.913 -1.1150 -1.3989  0.0637
  353TIP3   OH2 1064   5.906   2.628   0.383 -0.1229  0.6682 -0.0195
  353TIP3    H1 1065   5.910   2.705   0.326 -1.0837  0.5603 -0.2582
  353TIP3    H2 1066   5.813   2.622   0.408  0.2466  0.5986  1.4098
  354TIP3   OH2 1067   0.178   3.449   2.241  0.4939 -0.1509  0.1242
  354TIP3    H1 1068   0.136   3.394   2.306 -1.5374  1.5575  0.3807
  354TIP3    H2 1069   0.225   3.515   2.291 -0.0147  0.4089 -0.1155
  355TIP3   OH2 1070   2.868   1.392   3.118  0.3846  0.0026 -0.2054
  355TIP3    H1 1071   2.824   1.309   3.130  1.2583 -0.4568 -0.0772
  355TIP3    H2 1072   2.835   1.426   3.035 -1.6997  0.6420  0.8260
  356TIP3   OH2 1073   0.334   0.786   0.665  0.1610 -0.1842  0.2477
  356TIP3    H1 1074   0.410   0.749   0.709 -1.0755 -0.8400  1.9342
  356TIP3    H2 1075   0.360   0.875   0.642  0.7665  0.3265  2.6457
  357TIP3   OH2 1076   0.121   1.417   1.293 -0.1003 -0.2134 -0.2807
  357TIP3    H1 1077   0.075   1.431   1.210 -0.4407 -0.0166 -0.0620
  357TIP3    H2 1078   0.199   1.472   1.287 -0.8333  0.9137  0.0950
  358TIP3   OH2 1079   6.027   0.335   3.244 -0.4815  0.3500 -0.2776
  358TIP3    H1 1080   6.096   0.379   3.292  0.7417 -1.2845 -0.4310
  358TIP3    H2 1081   6.050   0.347   3.152 -1.7382  1.8009 -0.4376
  359TIP3   OH2 1082   5.247   0.467   3.951 -0.3551  0.0101 -0.1090
  359TIP3    H1 1083   5.260   0.483   4.044  1.6341 -0.3938 -0.2692
  359TIP3    H2 1084   5.160   0.429   3.945 -0.6287  0.3071  1.5440
  360TIP3   OH2 1085   5.195   0.352   2.741  0.0414  0.1134 -0.5902
  360TIP3    H1 1086   5.108   0.393   2.749 -0.9950 -2.1010  0.3053
  360TIP3    H2 1087   5.245   0.388   2.815 -0.7223  0.0805 -0.0392
  361TIP3   OH2 1088   0.870   0.097   4.810 -0.2995 -0.4896  0.1117
  361TIP3    H1 1089   0.952   0.126   4.771 -0.1058  0.7692  1.3742
  361TIP3    H2 1090   0.890   0.083   4.902 -1.4696 -0.3246  0.4098
  362TIP3   OH2 1091   4.052   2.517   0.929 -0.1455 -0.1309  0.0729
  362TIP3    H1 1092   4.040   2.498   1.022 -2.5889 -1.0625 -0.3629
  362TIP3    H2 1093   4.139   2.482   0.909  1.1134  1.4421  2.2707
  363TIP3   OH2 1094   4.651   4.382   1.341  0.6745  0.3194 -0.0566
  363TIP3    H1 1095   4.583   4.448   1.337  1.0852  0.7099 -1.6830
  363TIP3    H2 1096   4.726   4.423   1.296  1.6422 -0.4622  0.8010
  364TIP3   OH2 1097   6.291   5.551   3.063 -0.0821 -0.4177  0.0549
  364TIP3    H1 1098   6.323   5.568   2.975 -0.9166  1.1601  0.0305
  364TIP3    H2 1099   6.371   5.551   3.117  0.1832  2.0223 -0.2197
  365TIP3   OH2 1100   6.061   2.827   2.129 -0.0683  1.3133  0.0358
  365TIP3    H1 1101   6.015   2.760   2.078  2.2332  0.4159 -0.9994
  365TIP3    H2 1102   6.016   2.828   2.213 -0.2412 -1.5254  0.0856
  366TIP3   OH2 1103   5.464   0.780   0.662 -0.0642  0.1633  0.0946
  366TIP3    H1 1104   5.383   0.831   0.651  0.2942  0.6144 -0.5382
  366TIP3    H2 1105   5.446   0.697   0.618 -0.8863 -0.5408  1.7002
  367TIP3   OH2 1106   4.548   1.605   3.277 -0.4320  0.6604  0.2092
  367TIP3    H1 1107   4.477   1.632   3.220 -0.3350  1.4300  0.4411
  367TIP3    H2 1108   4.516   1.623   3.366 -0.0338  0.8131  0.3254
  368TIP3   OH2 1109   5.741   4.420   2.172 -0.7492  0.1462  0.5312
  368TIP3    H1 1110   5.680   4.388   2.105  0.6551  0.9592 -1.2475
  368TIP3    H2 1111   5.723   4.514   2.177  0.1564  0.3456  0.1756
  369TIP3   OH2 1112   5.150   4.516   1.619  0.6762 -0.1535  1.0360
  369TIP3    H1 1113   5.079   4.491   1.559  1.1628 -0.3514  0.5324
  369TIP3    H2 1114   5.172   4.606   1.595  2.1149 -0.8223 -0.3620
  370TIP3   OH2 1115   4.907   3.948   2.542 -0.1292  0.0272 -0.0787
  370TIP3    H1 1116   4.951   3.942   2.458  0.5917 -0.1197  0.3000
  370TIP3    H2 1117   4.920   3.862   2.583 -3.5258 -1.2165 -1.2454
  371TIP3   OH2 1118   6.126   3.252   1.175 -0.0456  0.3623 -0.4334
  371TIP3    H1 1119   6.077   3.281   1.098 -0.7644  0.7238  0.1405
  371TIP3    H2 1120   6.208   3.301   1.172 -1.2559  2.6140  0.5522
  372TIP3   OH2 1121   0.371   3.354   3.036 -0.5607 -0.4289 -0.5067
  372TIP3    H1 1122   0.306   3.308   3.088 -0.5617 -0.5911 -0.6489
  372TIP3    H2 1123   0.338   3.444   3.030  1.1206  0.5171  2.6299
  373TIP3   OH2 1124   2.402   3.195   0.555 -0.8829  0.5821 -0.1258
  373TIP3    H1 1125   2.349   3.141   0.497  0.1816 -0.4183 -0.1845
  373TIP3    H2 1126   2.373   3.285   0.537  0.1420  0.4371 -3.0039
  374TIP3   OH2 1127   3.083   1.308   4.851  0.1051  0.0295  0.2601
  374TIP3    H1 1128   3.029   1.237   4.817  0.6289 -2.3423  3.7679
  374TIP3    H2 1129   3.022   1.381   4.863 -1.7565 -1.5777  1.2809
  375TIP3   OH2 1130   5.204   5.718   0.407  0.3916  0.4185  0.0049
  375TIP3    H1 1131   5.128   5.668   0.380  0.3064  0.8680 -0.6228
  375TIP3    H2 1132   5.187   5.741   0.498 -0.0514  0.2063 -0.0231
  376TIP3   OH2 1133   4.069   2.259   2.663  0.0839 -0.6685 -0.2145
  376TIP3    H1 1134   4.027   2.327   2.610  1.0184 -0.2664 -0.4584
  376TIP3    H2 1135   4.151   2.240   2.617  0.3177 -1.2145  0.4158
  377TIP3   OH2 1136   2.273   5.195   4.027  0.1424 -0.7332  0.1165
  377TIP3    H1 1137   2.205   5.206   3.959  0.8318  0.2699 -0.4416
  377TIP3    H2 1138   2.340   5.141   3.985  0.9507  0.5625 -0.3214
  378TIP3   OH2 1139   1.780   5.971   5.104  0.3493  0.0230  0.2346
  378TIP3    H1 1140   1.808   5.885   5.135  1.3190  0.4598  0.6141
  378TIP3    H2 1141   1.812   5.975   5.014  0.1211 -0.0876  0.1467
  379TIP3   OH2 1142   4.776   2.962   1.995 -0.0315 -0.0441 -0.3152
  379TIP3    H1 1143   4.802   2.910   2.070 -0.1059  1.0311  0.4789
  379TIP3    H2 1144   4.822   3.045   2.006 -0.4043  0.2993 -1.2155
  380TIP3   OH2 1145   1.503   2.492   4.140  0.1930  0.3816 -0.2617
  380TIP3    H1 1146   1.548   2.573   4.165 -1.8961  1.0208  1.6631
  380TIP3    H2 1147   1.427   2.521   4.090 -1.5616 -0.1756  1.9280
  381TIP3   OH2 1148   5.682   1.044   4.241 -0.4308  0.3778 -0.7956
  381TIP3    H1 1149   5.675   1.098   4.320  2.1504 -0.3583  0.0425
  381TIP3    H2 1150   5.731   1.098   4.179 -0.1759 -0.0060 -0.9300
  382TIP3   OH2 1151   3.734   3.754   1.648 -0.4743 -0.6887  0.3799
  382TIP3    H1 1152   3.748   3.840   1.609 -0.7933 -0.1530  1.4174
  382TIP3    H2 1153   3.791   3.695   1.597  0.5324  0.3027  0.3159
  383TIP3   OH2 1154   6.135   4.206   3.900 -0.2831 -0.5859  0.1113
  383TIP3    H1 1155   6.090   4.233   3.820 -1.4427 -1.9204  0.2803
  383TIP3    H2 1156   6.083   4.133   3.934  0.0942  0.0452  2.1791
  384TIP3   OH2 1157   4.563   2.648   4.424  0.5397  0.0774  0.1659
  384TIP3    H1 1158   4.523   2.628   4.339 -0.5537 -0.3636  0.7633
  384TIP3    H2 1159   4.490   2.649   4.485  1.2998  0.4999  1.0967
  385TIP3   OH2 1160   4.364   4.693   0.101 -0.6018 -0.1269 -0.8494
  385TIP3    H1 1161   4.351   4.599   0.112 -0.1882 -0.0110  0.8968
  385TIP3    H2 1162   4.293   4.734   0.150 -0.3705  0.4812 -1.0070
  386TIP3   OH2 1163   6.162   4.346   1.483 -0.5611  1.0913 -0.4647
  386TIP3    H1 1164   6.165   4.251   1.477 -0.3034  1.0485  0.2037
  386TIP3    H2 1165   6.254   4.372   1.493 -0.7653  1.2372  1.4102
  387TIP3   OH2 1166   6.165   4.067   4.190 -0.7303 -0.2199 -0.2985
  387TIP3    H1 1167   6.155   4.002   4.259 -3.2487 -0.7236 -1.0504
  387TIP3    H2 1168   6.214   4.138   4.231  1.7956 -2.3396  0.6584
  388TIP3   OH2 1169   2.533   0.806   5.145  0.2287 -0.4194  0.0612
  388TIP3    H1 1170   2.452   0.756   5.143  1.2705 -2.2089  0.3994
  388TIP3    H2 1171   2.519   0.878   5.083 -1.4989 -0.8225 -0.0590
  389TIP3   OH2 1172   0.320   1.386   1.763  0.4751 -0.6780  0.4252
  389TIP3    H1 1173   0.244   1.387   1.704  0.8224 -1.2532 -0.0396
  389TIP3    H2 1174   0.292   1.437   1.839  0.1822  0.5133 -0.4507
  390TIP3   OH2 1175   4.037   1.975   1.736 -0.0103  0.8866 -0.1683
  390TIP3    H1 1176   4.025   2.036   1.663 -1.7048  3.1218  1.8240
  390TIP3    H2 1177   3.948   1.958   1.768  0.5840 -1.1738  0.5768
  391TIP3   OH2 1178   1.582   2.083   0.075 -0.1813  0.7462 -0.3735
  391TIP3    H1 1179   1.600   1.998   0.033 -2.5619 -0.1573  0.2693
  391TIP3    H2 1180   1.492   2.102   0.050 -0.8554  1.3708  2.3142
  392TIP3   OH2 1181   1.700   1.748   3.411  0.3486  0.2045  0.4403
  392TIP3    H1 1182   1.781   1.764   3.363  1.0766  0.0297  1.5882
  392TIP3    H2 1183   1.644   1.822   3.388  0.8836  0.4076 -0.2419
  393TIP3   OH2 1184   0.470   3.905   3.846 -0.0330  0.6467 -0.1125
  393TIP3    H1 1185   0.383   3.869   3.831  0.6763 -1.0590 -0.3848
  393TIP3    H2 1186   0.475   3.916   3.941 -1.1176  2.4036 -0.2062
  394TIP3   OH2 1187   2.694   4.728   5.127  0.2995  0.1786 -0.4548
  394TIP3    H1 1188   2.717   4.757   5.039 -0.6613 -2.7089 -1.8011
  394TIP3    H2 1189   2.618   4.780   5.152 -0.8074 -0.4551 -2.3379
  395TIP3   OH2 1190   5.903   3.711   3.486  0.3682 -0.0746  0.0564
  395TIP3    H1 1191   5.870   3.633   3.441  0.0932 -1.0813  1.8960
  395TIP3    H2 1192   5.999   3.702   3.483  0.3802  0.2854 -0.9831
  396TIP3   OH2 1193   5.685   1.206   4.973 -0.4364  0.8854 -0.8432
  396TIP3    H1 1194   5.721   1.229   4.887  1.8245 -0.0567 -0.2423
  396TIP3    H2 1195   5.757   1.224   5.034 -2.1662  2.0297  0.9526
  397TIP3   OH2 1196   6.271   1.888   2.070  0.5428  0.8036  0.3315
  397TIP3    H1 1197   6.356   1.922   2.041  1.3655 -0.2737  1.3857
  397TIP3    H2 1198   6.293   1.826   2.140 -0.8236 -2.1510 -1.6561
  398TIP3   OH2 1199   3.264   0.681   2.752  1.0250  0.1521  0.3082
  398TIP3    H1 1200   3.236   0.645   2.667  1.7844 -1.6622  0.7717
  398TIP3    H2 1201   3.296   0.769   2.732 -1.1104  0.7365 -0.8702
  399TIP3   OH2 1202   1.252   0.584   0.584  0.4519  0.8611  0.6635
  399TIP3    H1 1203   1.199   0.619   0.513  0.0417  0.5373  0.8095
  399TIP3    H2 1204   1.226   0.635   0.661 -0.1781  0.2071  0.8853
  400TIP3   OH2 1205   2.674   4.713   1.225 -0.8262 -0.1101  0.2623
  400TIP3    H1 1206   2.619   4.784   1.192  0.5121  0.4128 -0.9694
  400TIP3    H2 1207   2.712   4.674   1.146  1.2032  0.0898  1.0760
  401TIP3   OH2 1208   3.744   5.485   2.326 -0.4094  0.1089 -0.0854
  401TIP3    H1 1209   3.831   5.521   2.308 -0.8480  1.5061  0.4269
  401TIP3    H2 1210   3.714   5.452   2.242  1.0840 -1.5392 -0.0431
  402TIP3   OH2 1211   5.149   2.652   1.281  0.1450 -0.2900 -0.4314
  402TIP3    H1 1212   5.210   2.584   1.311 -0.4076 -0.1149  1.1878
  402TIP3    H2 1213   5.196   2.734   1.296  0.3515 -0.2494 -1.2681
  403TIP3   OH2 1214   1.180   4.514   1.262  0.3070  0.1838  0.0492
  403TIP3    H1 1215   1.273   4.500   1.244  0.0733  0.7904 -1.8427
  403TIP3    H2 1216   1.134   4.450   1.208 -0.4075 -0.5772  1.4740
  404TIP3   OH2 1217   3.584   5.411   3.504  0.0898 -0.5043 -0.4545
  404TIP3    H1 1218   3.655   5.379   3.447  0.7159  0.2221 -0.1044
  404TIP3    H2 1219   3.559   5.495   3.465 -0.4303 -0.6502 -0.4409
  405TIP3   OH2 1220   3.122   2.861   2.708  0.0511  0.4494 -0.2299
  405TIP3    H1 1221   3.197   2.801   2.704  1.3085  1.9137  0.4445
  405TIP3    H2 1222   3.102   2.880   2.616 -0.4062 -1.0080 -0.4587
  406TIP3   OH2 1223   1.803   0.858   0.019 -0.4645 -0.1255  0.3533
  406TIP3    H1 1224   1.868   0.907   0.069  0.3142 -1.1411  0.3592
  406TIP3    H2 1225   1.723   0.912   0.025 -0.1719  0.1940  1.9865
  407TIP3   OH2 1226   1.675   3.759   4.866 -0.2587 -0.7737 -0.5611
  407TIP3    H1 1227   1.771   3.756   4.871 -0.3049 -0.7966  0.4583
  407TIP3    H2 1228   1.647   3.668   4.870 -0.3913 -0.6825  0.9689
  408TIP3   OH2 1229   1.838   4.354   3.139  0.0502 -0.3483  0.4234
  408TIP3    H1 1230   1.785   4.398   3.072  2.1759  0.7446 -0.6365
  408TIP3    H2 1231   1.883   4.425   3.184  2.1247 -1.3025 -0.0507
  409TIP3   OH2 1232   3.633   3.130   4.558  0.3675 -0.2581  0.3094
  409TIP3    H1 1233   3.577   3.156   4.631  0.3673  0.2474  0.1315
  409TIP3    H2 1234   3.618   3.196   4.491  1.1964 -0.0937  0.2706
  410TIP3   OH2 1235   3.628   5.080   0.497  0.1901  0.2298  0.3511
  410TIP3    H1 1236   3.564   5.018   0.463  1.0957  0.4092 -1.8511
  410TIP3    H2 1237   3.681   5.028   0.558 -0.8617 -0.3953  0.7584
  411TIP3   OH2 1238   5.286   1.192   4.061 -0.1323 -0.2701  0.0713
  411TIP3    H1 1239   5.281   1.097   4.045  2.1812 -0.0435 -3.0120
  411TIP3    H2 1240   5.333   1.200   4.144  1.2501 -1.9149 -0.4764
  412TIP3   OH2 1241   4.833   1.290  -0.015 -0.8861 -0.0958  0.4807
  412TIP3    H1 1242   4.762   1.263   0.043 -0.4542  0.5774  1.3582
  412TIP3    H2 1243   4.910   1.245   0.019 -0.7490 -0.2327 -0.0025
  413TIP3   OH2 1244   1.433   2.885   1.630 -0.0163 -0.0301 -0.0297
  413TIP3    H1 1245   1.397   2.934   1.703 -0.7002 -0.8888  0.2248
  413TIP3    H2 1246   1.447   2.950   1.561  0.0168  0.6703  0.6311
  414TIP3   OH2 1247   0.863   4.920   2.485 -0.1147 -0.2984 -0.7171
  414TIP3    H1 1248   0.833   4.969   2.562 -1.5724  0.7896 -1.9059
  414TIP3    H2 1249   0.916   4.849   2.521 -1.8820 -0.6625  1.3872
  415TIP3   OH2 1250   2.569   2.124   2.437  0.0828  0.0057 -0.3581
  415TIP3    H1 1251   2.608   2.126   2.525 -1.0069  1.0375  0.1360
  415TIP3    H2 1252   2.478   2.098   2.452  0.5845 -2.7957 -1.5358
  416TIP3   OH2 1253   5.270   4.307   3.929  0.4243 -1.1983 -0.1949
  416TIP3    H1 1254   5.179   4.308   3.961  0.6786 -1.5841  0.5772
  416TIP3    H2 1255   5.266   4.349   3.844 -0.1339  0.7907  0.7657
  417TIP3   OH2 1256   2.520   2.814   3.760 -0.2146  0.0639 -0.2705
  417TIP3    H1 1257   2.563   2.732   3.736  0.7583  0.6246 -0.4988
  417TIP3    H2 1258   2.434   2.788   3.791  0.3129 -1.1083  0.2819
  418TIP3   OH2 1259   1.400   0.314   3.439 -0.0353  0.2348  0.2439
  418TIP3    H1 1260   1.334   0.250   3.463  0.1180  0.4179  1.1661
  418TIP3    H2 1261   1.387   0.327   3.344 -0.4352 -0.7172  0.1589
  419TIP3   OH2 1262   2.086   0.574   4.197 -0.0056 -0.7775  0.7151
  419TIP3    H1 1263   2.028   0.635   4.242 -0.9779 -1.1321 -0.0049
  419TIP3    H2 1264   2.165   0.571   4.251 -0.2322  0.5375  1.1506
  420TIP3   OH2 1265   1.900   1.196   0.567  0.0910 -0.0275  0.4744
  420TIP3    H1 1266   1.839   1.260   0.606  0.1752 -1.0253  2.3265
  420TIP3    H2 1267   1.858   1.111   0.582  0.1119 -0.4814 -1.7219
  421TIP3   OH2 1268   2.945   2.328   4.182 -0.4224 -0.7432  0.4172
  421TIP3    H1 1269   2.921   2.326   4.275  0.0486 -2.8553  0.5605
  421TIP3    H2 1270   2.864   2.307   4.136 -1.1633  2.3332  0.1364
  422TIP3   OH2 1271   4.778   3.747   3.912 -0.3375  0.4981 -0.4173
  422TIP3    H1 1272   4.709   3.792   3.959 -0.4774 -1.0088  0.9160
  422TIP3    H2 1273   4.806   3.809   3.845 -2.0590  1.6396 -0.1438
  423TIP3   OH2 1274   5.134   5.631   0.658  0.2900 -0.5862  0.4523
  423TIP3    H1 1275   5.181   5.551   0.633 -0.0332 -0.9487  0.9798
  423TIP3    H2 1276   5.140   5.634   0.753  0.9353  0.4266  0.3873
  424TIP3   OH2 1277   5.873   1.420   3.038  0.3970 -0.1596 -0.7647
  424TIP3    H1 1278   5.958   1.458   3.018  1.0708 -0.3946  1.4194
  424TIP3    H2 1279   5.891   1.351   3.102 -1.6130  1.6309  2.0053
  425TIP3   OH2 1280   1.761   2.892   2.045  0.5722 -0.8324  0.5695
  425TIP3    H1 1281   1.680   2.869   2.090 -0.5020 -0.4914 -1.1118
  425TIP3    H2 1282   1.767   2.830   1.972  1.6584 -0.6260  0.4543
  426TIP3   OH2 1283   4.610   0.961   4.055  0.4794  0.0367 -0.0596
  426TIP3    H1 1284   4.600   0.897   3.985 -0.3563  1.9773 -1.8233
  426TIP3    H2 1285   4.690   1.009   4.032 -0.4029  1.4209 -0.3802
  427TIP3   OH2 1286   3.470   3.063   1.705  0.5404 -0.2248 -0.6883
  427TIP3    H1 1287   3.444   3.138   1.650  1.3523  0.4101 -0.2373
  427TIP3    H2 1288   3.566   3.064   1.702  0.6461  0.3471  1.4027
  428TIP3   OH2 1289   2.985   3.703   4.745  0.4243  0.4095  0.7417
  428TIP3    H1 1290   2.973   3.608   4.752 -1.5009  0.5941  0.4608
  428TIP3    H2 1291   3.080   3.715   4.745  0.8508 -1.7796 -2.6184
  429TIP3   OH2 1292   5.000   3.523   2.543 -0.1733 -0.6325  0.4718
  429TIP3    H1 1293   5.021   3.608   2.582  0.6598  1.6242 -4.1587
  429TIP3    H2 1294   5.083   3.492   2.507 -0.9059 -2.2528  0.0806
  430TIP3   OH2 1295   5.466   0.351   3.436 -0.3396  0.3287  0.7361
  430TIP3    H1 1296   5.519   0.328   3.360  0.6050 -0.4872  1.6113
  430TIP3    H2 1297   5.451   0.268   3.481 -2.9431  0.4172  0.2035
  431TIP3   OH2 1298   6.058   2.338   2.131  0.0942 -0.4068  0.3122
  431TIP3    H1 1299   6.098   2.278   2.193  1.4428  1.9779  1.8846
  431TIP3    H2 1300   5.980   2.371   2.176 -0.8796 -1.2213 -0.7113
  432TIP3   OH2 1301   3.980   4.695   3.645 -0.1255  0.3675  0.0455
  432TIP3    H1 1302   4.009   4.618   3.693  1.1215  1.4888  1.1656
  432TIP3    H2 1303   3.913   4.734   3.701 -0.9201  0.0036 -0.6276
  433TIP3   OH2 1304   3.664   4.747   1.710 -0.6548 -0.8217 -0.3168
  433TIP3    H1 1305   3.645   4.761   1.803 -1.1460  0.5598 -0.6002
  433TIP3    H2 1306   3.759   4.740   1.706 -0.3840  1.6679  0.0271
  434TIP3   OH2 1307   3.063   2.806   4.435 -0.6952 -0.4935  0.2299
  434TIP3    H1 1308   3.155   2.791   4.457  0.0660  1.5013 -1.2599
  434TIP3    H2 1309   3.015   2.741   4.486  1.4769 -1.1331  1.5913
  435TIP3   OH2 1310   0.839   4.557   0.789  0.2755  0.5868  0.2849
  435TIP3    H1 1311   0.913   4.557   0.729 -0.1150  2.2019 -0.2540
  435TIP3    H2 1312   0.842   4.644   0.830 -0.5444  0.1856  1.2328
  436TIP3   OH2 1313   5.073   0.289   4.214  0.8497 -0.1639  0.4867
  436TIP3    H1 1314   5.010   0.360   4.204  0.5322 -0.4934  0.0802
  436TIP3    H2 1315   5.037   0.218   4.160  1.7615 -0.2267 -0.0630
  437TIP3   OH2 1316   2.507   0.857   0.062  0.1752  0.2966  0.2769
  437TIP3    H1 1317   2.585   0.803   0.061  0.0877  0.1812 -0.3576
  437TIP3    H2 1318   2.491   0.874   0.155 -0.1081 -1.2248  0.5343
  438TIP3   OH2 1319   0.599   3.589   1.775  0.0194  0.3135 -0.5926
  438TIP3    H1 1320   0.688   3.562   1.798  0.3048 -0.2881 -2.2509
  438TIP3    H2 1321   0.593   3.680   1.804  1.0166  0.2188 -0.0458
  439TIP3   OH2 1322   3.559   4.262   5.111 -0.1330 -0.3143 -0.0146
  439TIP3    H1 1323   3.601   4.342   5.144  0.7623 -1.4450  1.7772
  439TIP3    H2 1324   3.466   4.275   5.129 -0.0045  0.3669  0.2022
  440TIP3   OH2 1325  -0.030   4.028   0.045  0.6747 -0.0810  0.1675
  440TIP3    H1 1326   0.035   4.060  -0.018  1.9460 -0.7466  1.0922
  440TIP3    H2 1327   0.021   3.977   0.107 -0.3759  1.3268  2.3095
  441TIP3   OH2 1328   4.841   4.661   4.251  0.5630 -0.1446  0.4309
  441TIP3    H1 1329   4.790   4.602   4.196  2.8004 -1.0855 -0.7839
  441TIP3    H2 1330   4.850   4.741   4.198  0.0571  0.1554  0.7941
  442TIP3   OH2 1331   0.029   5.336   1.054 -0.5720 -0.7599 -0.4553
  442TIP3    H1 1332   0.067   5.418   1.085  0.5660 -2.0092  1.7334
  442TIP3    H2 1333  -0.048   5.323   1.109  0.6354 -2.2993  0.9596
  443TIP3   OH2 1334   3.625   3.466   1.206  0.5773  1.0044  0.3198
  443TIP3    H1 1335   3.561   3.509   1.149  1.3776  0.9385 -0.6497
  443TIP3    H2 1336   3.575   3.397   1.250  0.3288 -0.2188 -1.7650
  444TIP3   OH2 1337   3.466   5.535   1.970 -0.7926 -0.3840 -0.3650
  444TIP3    H1 1338   3.417   5.617   1.962 -2.1307 -1.3085 -2.5672
  444TIP3    H2 1339   3.403   5.473   2.007 -0.7623 -1.1006 -1.4422
  445TIP3   OH2 1340   1.389   2.216   0.355 -0.1557 -0.1164  0.2247
  445TIP3    H1 1341   1.458   2.158   0.388 -0.4715 -0.4594  0.2879
  445TIP3    H2 1342   1.371   2.184   0.267  1.2112  1.2643 -0.6035
  446TIP3   OH2 1343   6.280   1.291   3.071 -0.1049 -0.0016  0.1700
  446TIP3    H1 1344   6.362   1.334   3.094  0.1577  0.0789 -0.8540
  446TIP3    H2 1345   6.254   1.332   2.988 -1.1443 -0.0764  0.4429
  447TIP3   OH2 1346   2.926   1.685   0.220 -0.5555 -0.9225 -0.0564
  447TIP3    H1 1347   2.890   1.728   0.298 -1.7790 -0.9279 -0.5907
  447TIP3    H2 1348   2.930   1.593   0.242 -0.4721 -0.8678  0.1565
  448TIP3   OH2 1349   5.627   5.633   3.243 -0.2209  0.1103 -0.2841
  448TIP3    H1 1350   5.722   5.639   3.239 -0.0601 -1.0936  0.9003
  448TIP3    H2 1351   5.598   5.722   3.265  0.6006  0.5260 -0.8469
  449TIP3   OH2 1352   0.106   2.135   3.769  0.0058 -0.0737 -0.2567
  449TIP3    H1 1353   0.023   2.146   3.723 -2.4438 -1.3503  3.4019
  449TIP3    H2 1354   0.130   2.223   3.797 -1.4978  0.0535  0.7244
  450TIP3   OH2 1355   1.990   0.831   2.353  0.0808  0.1090  0.4687
  450TIP3    H1 1356   2.049   0.787   2.415  0.3794  0.8505  0.7269
  450TIP3    H2 1357   1.910   0.847   2.404 -0.6197 -1.4669 -0.0638
  451TIP3   OH2 1358   1.739   5.816   3.617 -0.1472 -0.4646 -0.5110
  451TIP3    H1 1359   1.787   5.735   3.600  0.9131 -0.2239  1.0996
  451TIP3    H2 1360   1.808   5.882   3.630 -0.9749  0.4475 -0.6325
  452TIP3   OH2 1361   1.031   1.260   3.366 -0.2250 -0.5277 -0.6276
  452TIP3    H1 1362   1.069   1.325   3.426 -1.1992  0.6165 -1.2074
  452TIP3    H2 1363   0.938   1.261   3.386 -0.3354 -1.2929 -1.0861
  453TIP3   OH2 1364   1.674   1.297   3.340  0.5735 -0.1595 -0.2361
  453TIP3    H1 1365   1.603   1.347   3.381 -0.0701  0.0852 -1.5969
  453TIP3    H2 1366   1.673   1.324   3.249  2.3875 -0.2099 -0.3185
  454TIP3   OH2 1367   5.393   4.863   2.387  0.0529  0.2221  0.1263
  454TIP3    H1 1368   5.443   4.815   2.453  0.4553 -0.6284 -0.7858
  454TIP3    H2 1369   5.354   4.936   2.436  2.1541  0.9174  0.8656
  455TIP3   OH2 1370   1.453   4.851   1.009 -0.3092  0.0570 -0.4306
  455TIP3    H1 1371   1.441   4.756   1.012 -1.2111  0.1788 -0.0119
  455TIP3    H2 1372   1.499   4.872   1.090  0.0350 -0.0345 -0.5988
  456TIP3   OH2 1373   4.308   0.146   2.029 -0.0552  0.4035 -0.2128
  456TIP3    H1 1374   4.218   0.115   2.040 -0.6982  1.3879 -2.2365
  456TIP3    H2 1375   4.362   0.080   2.073 -1.6664 -0.9494 -0.1861
  457TIP3   OH2 1376   4.770   2.390   3.132 -0.5711  0.0521  0.5523
  457TIP3    H1 1377   4.733   2.352   3.052  0.4543 -0.2582  0.2129
  457TIP3    H2 1378   4.857   2.420   3.106 -0.3150  0.1525  1.5067
  458TIP3   OH2 1379   2.435   4.551   1.868  0.2031 -0.5353  0.3997
  458TIP3    H1 1380   2.349   4.573   1.905  0.3639  0.3392  0.2630
  458TIP3    H2 1381   2.495   4.558   1.942  0.2273 -0.7299  0.3995
  459TIP3   OH2 1382   3.982   0.786   5.150  0.2597 -0.4224 -0.3252
  459TIP3    H1 1383   3.975   0.691   5.155  1.1307 -0.6054 -1.8988
  459TIP3    H2 1384   4.016   0.812   5.235  0.2952 -1.5587  0.0215
  460TIP3   OH2 1385   3.891   2.771   3.140 -0.4326  0.2355  0.2827
  460TIP3    H1 1386   3.816   2.823   3.112 -0.6996 -0.4642 -0.3305
  460TIP3    H2 1387   3.897   2.701   3.075  1.8189  1.2547 -0.6938
  461TIP3   OH2 1388   3.002   1.506   5.193  0.1649  0.0284 -0.2125
  461TIP3    H1 1389   3.067   1.437   5.177  0.0959  0.4007 -2.4554
  461TIP3    H2 1390   3.042   1.585   5.157 -0.3314  0.9104  1.0935
  462TIP3   OH2 1391   2.663   0.511   4.099 -0.0276 -0.2731 -0.1548
  462TIP3    H1 1392   2.667   0.468   4.014 -1.4435 -0.0204 -0.3856
  462TIP3    H2 1393   2.580   0.482   4.137 -0.4894  1.3221  0.1691
  463TIP3   OH2 1394   1.342   1.363   3.380 -0.0681  0.0075 -0.1832
  463TIP3    H1 1395   1.393   1.436   3.345  0.3203 -0.8602 -1.5094
  463TIP3    H2 1396   1.268   1.403   3.425  0.9226  1.2490  0.3855
  464TIP3   OH2 1397   0.610   3.516   0.436 -0.1766  0.1216  0.3998
  464TIP3    H1 1398   0.530   3.554   0.400 -0.3942 -1.1533 -0.5296
  464TIP3    H2 1399   0.614   3.549   0.525 -2.1202 -0.3482  0.6976
  465TIP3   OH2 1400   1.954   3.161   0.574 -0.1487 -0.5225 -0.6198
  465TIP3    H1 1401   2.039   3.140   0.614  0.4149  1.0827 -0.8991
  465TIP3    H2 1402   1.975   3.184   0.484 -1.0567 -1.3078 -1.0449
  466TIP3   OH2 1403   5.800   3.854   1.462 -0.0788  0.0246 -0.6746
  466TIP3    H1 1404   5.799   3.758   1.470  2.1963  0.0132  0.3089
  466TIP3    H2 1405   5.888   3.874   1.429 -0.2024  1.8108 -0.0135
  467TIP3   OH2 1406   4.231   1.904   3.498 -0.6762 -0.1201  0.0686
  467TIP3    H1 1407   4.290   1.963   3.451 -0.1021 -0.2710  0.5806
  467TIP3    H2 1408   4.218   1.947   3.583 -3.3114  1.1847 -0.8685
  468TIP3   OH2 1409   4.357   5.750   3.156 -0.2209  0.3994  0.0362
  468TIP3    H1 1410   4.432   5.692   3.144 -0.2199  0.3047  0.4719
  468TIP3    H2 1411   4.292   5.719   3.094  0.1223  0.5169 -0.3859
  469TIP3   OH2 1412   4.216   5.423   2.150  0.1587  0.3132 -0.1554
  469TIP3    H1 1413   4.172   5.494   2.196  0.9514  0.9194 -0.3250
  469TIP3    H2 1414   4.309   5.442   2.159  0.3568 -0.2592 -0.9010
  470TIP3   OH2 1415   1.265   4.467   3.717  0.0650  0.2639  0.8898
  470TIP3    H1 1416   1.298   4.461   3.628  0.1494  1.1535  0.8514
  470TIP3    H2 1417   1.308   4.396   3.764  0.9229  0.5154  0.4958
  471TIP3   OH2 1418   1.211   2.228   3.119 -0.2859 -0.2387 -0.1159
  471TIP3    H1 1419   1.228   2.315   3.154  0.4804 -0.3268 -0.2652
  471TIP3    H2 1420   1.193   2.242   3.026  0.5389 -0.3092 -0.2917
  472TIP3   OH2 1421   2.752   3.658   2.727 -0.5643  0.1666  0.2052
  472TIP3    H1 1422   2.720   3.672   2.816 -1.2037  1.0121 -0.1445
  472TIP3    H2 1423   2.677   3.624   2.679 -0.4187  0.3618 -0.1690
  473TIP3   OH2 1424   2.050   5.081   4.186  0.4085  0.2101  0.0538
  473TIP3    H1 1425   2.047   4.990   4.218 -0.4205 -0.1249 -0.9520
  473TIP3    H2 1426   2.140   5.092   4.155 -0.1016 -1.1035 -2.1061
  474TIP3   OH2 1427   5.229   2.662   4.418  0.1657 -0.0074 -0.3064
  474TIP3    H1 1428   5.231   2.602   4.493  0.5365  0.4744  0.0774
  474TIP3    H2 1429   5.138   2.662   4.390 -0.1936  0.5632  0.7778
  475TIP3   OH2 1430  -0.000   5.437   3.411 -0.4984  0.3775 -0.0992
  475TIP3    H1 1431   0.006   5.352   3.455  0.9659  0.8135  0.5949
  475TIP3    H2 1432   0.043   5.425   3.327  0.2922  0.5956  0.2703
  476TIP3   OH2 1433   1.233   0.976   2.785 -0.4249  0.8901 -0.3843
  476TIP3    H1 1434   1.166   0.937   2.842 -0.4985  2.7899  0.9266
  476TIP3    H2 1435   1.316   0.947   2.823 -0.4435 -0.6911 -1.4496
  477TIP3   OH2 1436   1.918   1.383   1.751  0.5857 -0.0302 -0.2076
  477TIP3    H1 1437   1.936   1.442   1.678 -0.0758  1.3273  0.6670
  477TIP3    H2 1438   1.830   1.351   1.736  0.9850 -0.9146 -0.7391
  478TIP3   OH2 1439   2.815   0.441   1.430  0.3765  0.7233  0.7271
  478TIP3    H1 1440   2.768   0.378   1.375  1.0958 -0.2662  1.2201
  478TIP3    H2 1441   2.874   0.388   1.483 -0.2257  1.6512  2.4115
  479TIP3   OH2 1442   4.159   5.577   3.535  0.1288  0.3737  0.7207
  479TIP3    H1 1443   4.069   5.600   3.559 -0.2373 -0.6697  0.4001
  479TIP3    H2 1444   4.193   5.530   3.611 -0.9422 -2.6944 -0.5274
  480TIP3   OH2 1445   1.153   2.872   3.706 -0.0411  0.2982  0.6065
  480TIP3    H1 1446   1.174   2.803   3.643  0.6883 -0.3146  1.4935
  480TIP3    H2 1447   1.182   2.838   3.790 -0.9338  1.1266  1.2850
  481TIP3   OH2 1448   4.873   1.218   0.374  0.1882 -0.5446  0.2154
  481TIP3    H1 1449   4.816   1.161   0.323  0.4764 -1.2528  0.6859
  481TIP3    H2 1450   4.950   1.231   0.317 -0.4132  0.4149 -0.4199
  482TIP3   OH2 1451   3.903   3.669   0.324  0.1146 -1.0019 -0.5807
  482TIP3    H1 1452   3.975   3.624   0.367  0.8623 -0.3345 -1.1072
  482TIP3    H2 1453   3.924   3.762   0.331  1.1090 -0.8520 -3.6566
  483TIP3   OH2 1454   4.706   3.561   0.381  0.1105 -0.8249 -0.4270
  483TIP3    H1 1455   4.640   3.630   0.379 -0.4352 -1.3286 -0.0207
  483TIP3    H2 1456   4.746   3.570   0.468 -0.4603 -1.4765 -0.0896
  484TIP3   OH2 1457   2.263   0.298   2.508 -0.3158  0.4977  0.2229
  484TIP3    H1 1458   2.324   0.227   2.486 -1.4341  0.1225 -1.9738
  484TIP3    H2 1459   2.189   0.285   2.448 -1.0531  2.8909  0.5071
  485TIP3   OH2 1460   2.558   0.692   4.268 -0.3940  0.4575 -0.0591
  485TIP3    H1 1461   2.585   0.615   4.218  0.1764  2.0124 -2.3034
  485TIP3    H2 1462   2.577   0.669   4.359 -1.1774 -2.3955 -0.4969
  486TIP3   OH2 1463   0.055   0.064   0.347  0.1938 -0.5421  0.1277
  486TIP3    H1 1464   0.034  -0.018   0.302 -0.4127  0.2971 -1.2109
  486TIP3    H2 1465   0.149   0.076   0.333  0.0836 -0.4849 -0.6387
  487TIP3   OH2 1466   2.319   2.901   3.576  0.3634 -0.0402  0.1134
  487TIP3    H1 1467   2.330   2.808   3.555 -1.8839 -0.6869  1.4720
  487TIP3    H2 1468   2.392   2.922   3.634 -0.9962 -2.0235  2.7633
  488TIP3   OH2 1469   4.464   2.389   4.199  0.4544 -0.3176  0.3543
  488TIP3    H1 1470   4.470   2.484   4.183  0.1794 -0.0647  1.5823
  488TIP3    H2 1471   4.405   2.357   4.131 -1.6609  0.8898  1.4919
  489TIP3   OH2 1472   2.043   0.979   3.613 -0.4288 -0.6420 -0.6909
  489TIP3    H1 1473   2.104   0.963   3.541  2.6229  3.8270  0.5104
  489TIP3    H2 1474   1.984   1.047   3.580  0.5525  0.9353  0.6513
  490TIP3   OH2 1475   3.861   4.672   0.156  0.3459  0.8580 -0.0138
  490TIP3    H1 1476   3.778   4.649   0.197 -0.3370 -0.9782 -2.1966
  490TIP3    H2 1477   3.837   4.736   0.088  0.9140  1.2639  0.1593
  491TIP3   OH2 1478   3.517   0.816   1.469  0.2508  0.0096  0.4797
  491TIP3    H1 1479   3.422   0.808   1.464 -0.0997  0.9974  3.7043
  491TIP3    H2 1480   3.549   0.731   1.437 -1.5197  0.2769 -2.4091
  492TIP3   OH2 1481   3.608   3.830   1.388 -0.8222 -0.0431  0.2383
  492TIP3    H1 1482   3.513   3.818   1.389 -1.1870  2.4180  1.8292
  492TIP3    H2 1483   3.624   3.905   1.444  1.9999  0.3222 -0.8816
  493TIP3   OH2 1484   6.015   4.968   3.283 -0.0382  0.1720  0.0368
  493TIP3    H1 1485   6.048   4.964   3.373 -1.3737  0.9105  0.6041
  493TIP3    H2 1486   6.087   5.006   3.233  0.0385  1.7337  1.2221
  494TIP3   OH2 1487   4.224   3.833   3.044  0.0121 -0.3464  0.5211
  494TIP3    H1 1488   4.143   3.872   3.077  0.2997  0.6802  0.0678
  494TIP3    H2 1489   4.281   3.827   3.120 -0.9720 -2.4623  1.1634
  495TIP3   OH2 1490   3.225   0.063   1.256 -0.2742  0.6154 -0.5920
  495TIP3    H1 1491   3.288   0.030   1.192 -0.2650 -0.3620 -0.1035
  495TIP3    H2 1492   3.196  -0.015   1.303 -1.5097  1.1084 -0.5032
  496TIP3   OH2 1493   2.826   3.188   0.638 -0.1966 -0.5403  0.4103
  496TIP3    H1 1494   2.760   3.253   0.616 -2.4226 -2.2927  1.5577
  496TIP3    H2 1495   2.889   3.193   0.566 -1.4143  1.3814 -0.6003
  497TIP3   OH2 1496   4.875   5.554   5.037 -0.0370  0.4044  0.0274
  497TIP3    H1 1497   4.950   5.543   4.978 -0.4835 -1.2026 -0.2805
  497TIP3    H2 1498   4.912   5.599   5.113  1.1861 -0.0424 -0.2667
  498TIP3   OH2 1499   3.416   2.876   1.008  0.2430 -0.3194  0.0785
  498TIP3    H1 1500   3.344   2.862   0.946 -0.0757  0.5379  0.2468
  498TIP3    H2 1501   3.397   2.816   1.080 -0.0944 -0.3767 -0.0543
  499TIP3   OH2 1502   2.413   0.401   2.827 -0.5032 -0.4859 -0.4258
  499TIP3    H1 1503   2.331   0.413   2.874 -1.4632 -1.6016 -1.7521
  499TIP3    H2 1504   2.392   0.340   2.757  1.2741 -0.1538 -1.2975
  500TIP3   OH2 1505   5.051   5.167   0.134  0.0246  0.2618 -0.2560
  500TIP3    H1 1506   5.106   5.116   0.194  0.1905  1.3170  0.5172
  500TIP3    H2 1507   4.963   5.156   0.168 -0.2197 -1.0490 -1.2233
  501TIP3   OH2 1508   2.999   4.193   1.222  0.1879  0.0184  0.1257
  501TIP3    H1 1509   2.977   4.221   1.133  1.4848  1.2112  0.1457
  501TIP3    H2 1510   2.997   4.273   1.274 -2.0059 -0.8498  1.5481
  502TIP3   OH2 1511   5.035   0.999   3.667 -0.6395 -0.0451 -0.1920
  502TIP3    H1 1512   4.990   1.083   3.666  0.4185  0.6561  2.7427
  502TIP3    H2 1513   5.120   1.016   3.625 -0.6281  0.2260 -0.0596
  503TIP3   OH2 1514   4.765   2.210   0.795 -0.0960 -0.1515 -0.5249
  503TIP3    H1 1515   4.693   2.163   0.838  0.3974 -0.6599 -0.2300
  503TIP3    H2 1516   4.842   2.157   0.815  0.3839  0.4775 -0.7004
  504TIP3   OH2 1517   5.575   2.637   2.103  0.0941  0.2687 -0.2404
  504TIP3    H1 1518   5.584   2.692   2.025 -2.1147  2.5203  0.9532
  504TIP3    H2 1519   5.571   2.548   2.069 -0.7842  1.1775 -2.7099
  505TIP3   OH2 1520   5.309   0.662   0.939 -0.0426 -0.5450 -0.4308
  505TIP3    H1 1521   5.310   0.725   1.011 -2.2786 -0.3995 -0.4656
  505TIP3    H2 1522   5.272   0.711   0.865 -0.3042 -1.4437 -0.9026
  506TIP3   OH2 1523   0.642   2.320   1.265 -0.1642  0.2476 -0.1124
  506TIP3    H1 1524   0.571   2.385   1.265 -0.5089 -0.0729 -1.8995
  506TIP3    H2 1525   0.713   2.362   1.217 -0.4186 -0.6915 -1.3567
  507TIP3   OH2 1526   3.012   5.456   0.798 -0.2835  0.1734 -0.0296
  507TIP3    H1 1527   3.019   5.519   0.727  0.2696  3.1959  2.4786
  507TIP3    H2 1528   3.101   5.450   0.834 -1.0352  0.8947  2.0651
  508TIP3   OH2 1529   1.613   2.462   2.706  0.1008  0.4040  0.3792
  508TIP3    H1 1530   1.702   2.432   2.689  0.2823  1.7925 -1.5014
  508TIP3    H2 1531   1.620   2.557   2.716 -1.2464  0.6928 -0.8989
  509TIP3   OH2 1532   1.674   3.360   1.235 -0.0014 -0.3106  0.1356
  509TIP3    H1 1533   1.599   3.326   1.284  0.6196 -1.6965  0.1706
  509TIP3    H2 1534   1.646   3.358   1.143  0.0363 -1.0020  0.1317
  510TIP3   OH2 1535   4.257   3.792   0.899  0.5573 -0.0411 -0.3298
  510TIP3    H1 1536   4.208   3.874   0.895 -1.2930 -1.1140 -1.2085
  510TIP3    H2 1537   4.212   3.734   0.837  1.5877 -1.8486  0.5188
  511TIP3   OH2 1538   4.342   3.926   4.208  0.4600 -0.4414  0.0032
  511TIP3    H1 1539   4.350   3.888   4.296  0.8273  1.3139  0.7640
  511TIP3    H2 1540   4.338   4.020   4.223 -0.5701 -0.1543 -1.8119
  512TIP3   OH2 1541   0.435   2.310   3.396 -0.3110  0.0284  0.5976
  512TIP3    H1 1542   0.408   2.301   3.487  0.5956 -0.0383  0.8657
  512TIP3    H2 1543   0.529   2.292   3.396 -0.5421 -1.3694 -0.5700
  513TIP3   OH2 1544   6.061   1.629   2.848 -0.3265 -0.1220 -0.3713
  513TIP3    H1 1545   6.005   1.689   2.798  0.4355 -0.5697 -1.8330
  513TIP3    H2 1546   6.094   1.682   2.921 -2.0775  0.3413  0.1521
  514TIP3   OH2 1547   1.308   1.670   3.133 -0.2526  0.3979 -0.1500
  514TIP3    H1 1548   1.278   1.605   3.070  1.1234  1.9429 -2.5777
  514TIP3    H2 1549   1.241   1.738   3.132  0.1795  0.8249 -0.6243
  515TIP3   OH2 1550   4.241   2.281   3.537  0.4603  0.2706  0.5218
  515TIP3    H1 1551   4.256   2.371   3.507 -1.2192  0.5096  0.2674
  515TIP3    H2 1552   4.286   2.276   3.621  1.1143  1.1440  0.2430
  516TIP3   OH2 1553   0.571   0.493   0.613  0.4547 -0.2918 -0.2736
  516TIP3    H1 1554   0.574   0.580   0.652 -2.3717  0.3349 -1.2430
  516TIP3    H2 1555   0.552   0.434   0.687  0.4279  0.1811  0.0981
  517TIP3   OH2 1556   5.042   4.831   2.801 -0.2246 -0.0412  0.2015
  517TIP3    H1 1557   4.955   4.803   2.830 -1.0038  1.3256 -0.6639
  517TIP3    H2 1558   5.042   4.814   2.707  0.8948 -1.0713  0.3691
  518TIP3   OH2 1559   2.682   0.255   2.812 -0.3361 -0.1574  0.2873
  518TIP3    H1 1560   2.620   0.266   2.884 -0.8435 -0.4313 -0.1042
  518TIP3    H2 1561   2.695   0.161   2.804  0.7590 -0.0797  0.8838
  519TIP3   OH2 1562   3.611   1.910   0.347 -0.0397  0.4681 -0.7205
  519TIP3    H1 1563   3.582   1.836   0.295  0.2608 -0.5941  0.5681
  519TIP3    H2 1564   3.550   1.913   0.421  0.8030  0.5850 -0.0049
  520TIP3   OH2 1565   1.631   3.191   3.890  0.2563 -0.1594  0.6859
  520TIP3    H1 1566   1.582   3.230   3.817 -0.0193 -0.8721  0.4874
  520TIP3    H2 1567   1.655   3.104   3.859  2.0001  0.3037  0.6319
  521TIP3   OH2 1568   2.529   4.637   3.925  0.5278  0.0042 -0.0348
  521TIP3    H1 1569   2.460   4.687   3.882 -0.6720 -1.4096  0.1629
  521TIP3    H2 1570   2.486   4.598   4.001  2.1567  1.0165  1.4804
  522TIP3   OH2 1571   0.960   2.654   3.990  0.1700  0.2465  0.3766
  522TIP3    H1 1572   0.965   2.627   3.899 -1.6546  0.2797  0.2163
  522TIP3    H2 1573   0.944   2.573   4.039  0.2533  0.3356  0.5538
  523TIP3   OH2 1574   2.482   5.462   2.331 -0.0062 -0.2553 -0.5133
  523TIP3    H1 1575   2.430   5.385   2.353  0.4327 -0.3789  0.1216
  523TIP3    H2 1576   2.537   5.433   2.258 -0.3238 -0.3334 -0.7231
  524TIP3   OH2 1577   2.647   1.555   2.008 -0.2821 -0.8687  0.4779
  524TIP3    H1 1578   2.621   1.466   2.031 -1.6112 -0.2189  1.6412
  524TIP3    H2 1579   2.739   1.561   2.033 -0.1141 -1.9790  0.1545
  525TIP3   OH2 1580   4.421   1.687   0.132  0.4216  0.1405  0.2649
  525TIP3    H1 1581   4.343   1.698   0.079  1.9437  0.8230 -1.9512
  525TIP3    H2 1582   4.466   1.611   0.095 -0.0608 -1.4976  2.7487
  526TIP3   OH2 1583   1.356   0.035   2.600  0.6369 -0.1367 -0.0496
  526TIP3    H1 1584   1.296   0.031   2.674 -0.4046 -0.7413 -0.8931
  526TIP3    H2 1585   1.314   0.093   2.537  1.6380  0.5890 -0.0700
  527TIP3   OH2 1586   2.385   2.222   2.010  0.3217 -0.1230 -0.1715
  527TIP3    H1 1587   2.441   2.229   2.087  2.2375 -2.6745 -1.2029
  527TIP3    H2 1588   2.436   2.261   1.939 -0.2392 -0.3391 -0.7103
  528TIP3   OH2 1589   5.059   4.339   5.008 -0.7265 -0.2336 -0.3187
  528TIP3    H1 1590   5.150   4.309   5.009 -0.3683  0.7571  1.8460
  528TIP3    H2 1591   5.065   4.433   4.991 -1.2640  0.0050  0.7372
  529TIP3   OH2 1592   2.811   3.731   4.503  0.4570 -0.0958 -0.3210
  529TIP3    H1 1593   2.796   3.791   4.430  0.7458  1.0683  0.5549
  529TIP3    H2 1594   2.839   3.787   4.575 -1.3220 -1.0423  1.1629
  530TIP3   OH2 1595   3.694   2.305   4.242  0.0441  0.0124  0.6760
  530TIP3    H1 1596   3.755   2.376   4.261 -0.3834  0.7426 -0.5165
  530TIP3    H2 1597   3.628   2.310   4.310  0.0372  0.7507  0.6174
  531TIP3   OH2 1598   2.152   2.851   4.532 -0.0657  0.3258  0.2973
  531TIP3    H1 1599   2.212   2.895   4.593 -1.2910  0.5139  1.4164
  531TIP3    H2 1600   2.075   2.908   4.528 -0.4667 -0.2506 -0.5709
  532TIP3   OH2 1601   5.455   4.008   2.798  0.3763  0.6904 -0.4747
  532TIP3    H1 1602   5.544   3.984   2.773 -0.0842 -1.5273 -0.1947
  532TIP3    H2 1603   5.463   4.097   2.833  2.7656  0.0310  0.9065
  533TIP3   OH2 1604   5.772   4.005   2.044  0.2486  0.6724  0.0951
  533TIP3    H1 1605   5.762   4.000   2.140  0.4368  0.1495  0.0898
  533TIP3    H2 1606   5.682   4.015   2.012  0.0322 -0.5616  0.2534
  534TIP3   OH2 1607   1.401   4.923   3.626 -0.8923  0.7922 -0.2645
  534TIP3    H1 1608   1.361   4.876   3.699  1.5332  0.4097  0.9161
  534TIP3    H2 1609   1.331   4.929   3.561 -2.9507  0.5464  1.7797
  535TIP3   OH2 1610   5.727   3.435   4.463  0.3864  0.0168  0.0546
  535TIP3    H1 1611   5.706   3.347   4.430  0.4380 -0.3759  1.0572
  535TIP3    H2 1612   5.714   3.492   4.387  0.6452 -0.8913 -0.6927
  536TIP3   OH2 1613   3.786   1.201   2.330 -0.4645  0.3595 -0.3958
  536TIP3    H1 1614   3.807   1.250   2.409  0.2446  0.0527 -0.3842
  536TIP3    H2 1615   3.871   1.171   2.298 -0.8630 -0.6686 -0.5204
  537TIP3   OH2 1616   3.369   2.975   4.477  0.6864  0.1155  0.1348
  537TIP3    H1 1617   3.453   2.928   4.482  1.8455  1.9141 -1.2892
  537TIP3    H2 1618   3.339   2.979   4.568 -0.0541 -4.1985  0.3045
  538TIP3   OH2 1619   0.758   0.874   2.875 -0.9220  0.1650 -0.3763
  538TIP3    H1 1620   0.705   0.796   2.893  0.7339 -0.6676  1.1841
  538TIP3    H2 1621   0.696   0.947   2.883 -2.0318 -0.8275  0.5492
  539TIP3   OH2 1622   2.872   2.683   0.053 -0.5539 -0.5078 -0.6819
  539TIP3    H1 1623   2.965   2.665   0.068 -0.2296  1.3199 -0.2860
  539TIP3    H2 1624   2.830   2.660   0.136 -0.1779  0.3552 -0.2412
  540TIP3   OH2 1625   2.171   2.287   3.201  0.5878  0.6935 -0.2691
  540TIP3    H1 1626   2.080   2.313   3.190 -0.2096 -1.6019  0.2658
  540TIP3    H2 1627   2.222   2.359   3.164 -1.3724  2.7251  0.7735
  541TIP3   OH2 1628   2.056   3.805   3.379  0.3463 -0.3603 -0.0155
  541TIP3    H1 1629   1.998   3.737   3.414 -0.0556  0.1678  0.3546
  541TIP3    H2 1630   2.001   3.855   3.319  0.2705  0.4701  0.7382
  542TIP3   OH2 1631   0.645   0.446   1.668  0.3986  0.7250 -0.0970
  542TIP3    H1 1632   0.674   0.526   1.713 -0.9942  0.8241  0.6702
  542TIP3    H2 1633   0.613   0.389   1.738 -1.8858  0.9069 -0.9000
  543TIP3   OH2 1634   1.180   3.910   1.578  0.0072 -0.0014 -0.0942
  543TIP3    H1 1635   1.270   3.944   1.579 -0.4610  1.3479 -0.8849
  543TIP3    H2 1636   1.139   3.950   1.654  0.4847 -1.9129  1.2308
  544TIP3   OH2 1637   3.635   5.602   0.630  0.3287 -0.4305 -0.4345
  544TIP3    H1 1638   3.635   5.508   0.647  0.1092 -0.6735 -1.7189
  544TIP3    H2 1639   3.543   5.627   0.633  0.3594 -0.3166 -0.4414
  545TIP3   OH2 1640   0.554   2.341   0.647 -0.4570 -0.4559  0.1955
  545TIP3    H1 1641   0.590   2.429   0.637 -0.1465 -0.3711  1.7339
  545TIP3    H2 1642   0.465   2.347   0.613 -0.9247  0.8556  1.5183
  546TIP3   OH2 1643   0.565   3.673   2.913  0.2476 -0.2109 -0.5283
  546TIP3    H1 1644   0.600   3.733   2.847 -3.1235  0.6359 -1.7235
  546TIP3    H2 1645   0.619   3.595   2.906  2.8139  1.4903 -1.0889
  547TIP3   OH2 1646   5.995   0.452   4.103  0.5022  0.2016 -0.5552
  547TIP3    H1 1647   6.012   0.399   4.180  0.8991 -0.4889 -1.1045
  547TIP3    H2 1648   5.901   0.469   4.105  0.3641 -0.5533 -0.3924
  548TIP3   OH2 1649   4.045   4.433   3.703  0.1567  0.3008 -1.0946
  548TIP3    H1 1650   4.009   4.346   3.683 -0.2563  0.3709 -0.6843
  548TIP3    H2 1651   4.130   4.435   3.659  0.5917 -0.6726 -0.3222
  549TIP3   OH2 1652   3.575   3.889   4.949  0.5039 -0.0141  0.1543
  549TIP3    H1 1653   3.527   3.818   4.993  2.4543 -1.1966  0.4965
  549TIP3    H2 1654   3.609   3.942   5.021 -0.9896  1.3649 -0.1031
  550TIP3   OH2 1655   4.059   5.970   0.039  0.2536 -0.0869  0.0991
  550TIP3    H1 1656   4.003   6.023   0.095  1.9066  1.6921  0.1760
  550TIP3    H2 1657   4.114   5.920   0.100  0.0083 -0.4480  0.0299
  551TIP3   OH2 1658   4.929   5.833   1.967 -0.3860 -0.3429  0.6133
  551TIP3    H1 1659   4.867   5.851   2.038 -1.5355 -2.7173  0.3007
  551TIP3    H2 1660   4.975   5.754   1.994 -0.2347 -0.7976 -0.8984
  552TIP3   OH2 1661   4.245   0.547   4.052 -0.0843  0.8166  1.1840
  552TIP3    H1 1662   4.284   0.575   4.135 -0.0843  1.0983  1.0890
  552TIP3    H2 1663   4.221   0.455   4.067 -0.6190  1.0332  1.6920
  553TIP3   OH2 1664   5.282   5.913   0.174  0.2718 -0.2715  0.2928
  553TIP3    H1 1665   5.242   5.864   0.247 -0.9131  1.0970  0.6008
  553TIP3    H2 1666   5.224   5.896   0.100 -0.0445  0.4736  0.3567
  554TIP3   OH2 1667   3.125   0.239   2.407  0.7376  0.5352  0.1140
  554TIP3    H1 1668   3.178   0.252   2.486 -1.4193  0.6396  1.6419
  554TIP3    H2 1669   3.156   0.156   2.371  1.5602  0.3070  1.2559
  555TIP3   OH2 1670   6.066   5.593   1.084  0.4137 -0.7120 -0.0677
  555TIP3    H1 1671   6.095   5.658   1.148 -0.6736 -0.8279  0.5757
  555TIP3    H2 1672   6.078   5.636   0.999 -0.3534  0.3711  0.3477
  556TIP3   OH2 1673   5.162   5.012   2.496  0.1099  0.4579 -0.1936
  556TIP3    H1 1674   5.093   4.950   2.472  0.5012  0.4571 -1.3797
  556TIP3    H2 1675   5.114   5.093   2.518 -0.2977  0.3585 -0.6814
  557TIP3   OH2 1676   1.729   4.284   3.724 -0.1021 -0.1811  0.1566
  557TIP3    H1 1677   1.785   4.217   3.685 -1.0291 -0.5287 -0.6227
  557TIP3    H2 1678   1.773   4.367   3.704 -0.6977 -0.3317 -1.9263
  558TIP3   OH2 1679   3.784   5.438   3.280  0.0608  0.3474  0.5651
  558TIP3    H1 1680   3.785   5.533   3.290 -1.4326  0.6609 -1.6039
  558TIP3    H2 1681   3.849   5.421   3.211  1.4069 -0.4168  1.9573
  559TIP3   OH2 1682   0.988   1.615   1.955 -0.0760  0.1001  0.4222
  559TIP3    H1 1683   0.905   1.604   1.911 -0.0620 -3.3178  0.9891
  559TIP3    H2 1684   0.981   1.560   2.033  2.6218 -0.1753  0.5640
  560TIP3   OH2 1685   5.398   3.863   3.495  0.7340  0.2961 -0.4356
  560TIP3    H1 1686   5.478   3.836   3.450  1.7009  1.3529  0.5761
  560TIP3    H2 1687   5.424   3.873   3.586 -1.0553 -1.2912  0.3059
  561TIP3   OH2 1688   3.576   5.143   3.997  0.0864  0.1400  0.3034
  561TIP3    H1 1689   3.524   5.200   3.941  0.3075 -0.7570 -0.8466
  561TIP3    H2 1690   3.531   5.144   4.082 -1.5460 -0.2729 -0.5357
  562TIP3   OH2 1691   1.346   4.417   4.124 -0.7712  0.7798  0.2840
  562TIP3    H1 1692   1.327   4.444   4.213 -0.8436 -0.3670  0.6377
  562TIP3    H2 1693   1.390   4.332   4.133 -4.8468 -1.7655 -0.8020
  563TIP3   OH2 1694   5.953   0.926   3.749 -0.0869  0.0362 -0.5927
  563TIP3    H1 1695   5.960   0.836   3.780 -1.1405 -0.1143 -0.7839
  563TIP3    H2 1696   6.007   0.929   3.670  0.7061 -0.1775 -0.0667
  564TIP3   OH2 1697   3.494   0.197   2.948  0.4679  0.4994 -0.6502
  564TIP3    H1 1698   3.398   0.196   2.950  0.4549  0.8410  1.3421
  564TIP3    H2 1699   3.517   0.280   2.907 -0.1134  0.9833 -0.0130
  565TIP3   OH2 1700   6.303   0.077   0.791 -0.4820  0.1536 -0.4296
  565TIP3    H1 1701   6.321   0.030   0.710 -0.0010 -0.6116  0.1039
  565TIP3    H2 1702   6.234   0.026   0.833  0.7874 -0.7430  0.6675
  566TIP3   OH2 1703   4.494   4.937   3.271  0.4958 -0.2973  0.1011
  566TIP3    H1 1704   4.501   4.902   3.360 -3.0646  1.7267  1.4218
  566TIP3    H2 1705   4.408   4.906   3.241  0.1158  1.8743 -1.2105
  567TIP3   OH2 1706   2.660   0.537   3.275 -0.0191 -0.4170 -0.2171
  567TIP3    H1 1707   2.672   0.526   3.180  0.8019 -1.6022  0.0102
  567TIP3    H2 1708   2.625   0.626   3.284 -0.2153 -0.3239 -1.6380
  568TIP3   OH2 1709   5.269   2.723   2.733  0.5537 -0.9048 -0.2372
  568TIP3    H1 1710   5.310   2.665   2.668  0.8375 -1.6034  0.5411
  568TIP3    H2 1711   5.194   2.673   2.765  1.4545 -1.3342  1.2610
  569TIP3   OH2 1712   4.912   3.446   1.463 -0.4816  0.0091  0.5618
  569TIP3    H1 1713   4.916   3.419   1.371 -1.5378 -0.9985  0.7975
  569TIP3    H2 1714   4.970   3.385   1.509  0.5049  0.8723  0.5100
  570TIP3   OH2 1715   2.103   3.877   4.662  0.7551  0.4812  0.1962
  570TIP3    H1 1716   2.110   3.970   4.639  0.3277  0.4644 -0.0157
  570TIP3    H2 1717   2.192   3.852   4.689  0.4595  1.4765  2.2632
  571TIP3   OH2 1718   0.113   0.651   4.107 -0.2543  0.1928 -0.3377
  571TIP3    H1 1719   0.076   0.706   4.038 -0.3738  0.3836 -0.1198
  571TIP3    H2 1720   0.068   0.567   4.097 -0.1495  0.1669 -0.6005
  572TIP3   OH2 1721   6.009   5.568   1.655 -0.3382  0.2832  0.7438
  572TIP3    H1 1722   6.039   5.588   1.566 -1.9608 -0.3215  0.0251
  572TIP3    H2 1723   6.055   5.487   1.678  0.7329  0.8944  0.8090
  573TIP3   OH2 1724   5.230   3.278   4.106  0.4297  0.4199 -0.2590
  573TIP3    H1 1725   5.300   3.212   4.110 -0.6205 -0.6891  0.8877
  573TIP3    H2 1726   5.222   3.309   4.196 -1.6848 -0.7329  0.0026
  574TIP3   OH2 1727   1.846   2.029   4.283  0.1821 -0.1405  0.5933
  574TIP3    H1 1728   1.884   2.097   4.227 -0.3508  0.9172  1.4675
  574TIP3    H2 1729   1.920   1.971   4.304  0.8386  0.6367  0.4894
  575TIP3   OH2 1730   1.572   0.196   3.628  0.1025  0.0380 -0.0146
  575TIP3    H1 1731   1.504   0.143   3.669 -0.5787  0.4735 -0.5616
  575TIP3    H2 1732   1.525   0.271   3.591  0.8879  0.3739 -0.3454
  576TIP3   OH2 1733   1.160   2.471   0.151 -0.4857  0.2561 -0.1941
  576TIP3    H1 1734   1.197   2.491   0.237 -2.3710 -0.0461  0.7442
  576TIP3    H2 1735   1.095   2.402   0.168  0.6689 -1.4295 -2.2284
  577TIP3   OH2 1736   2.638   5.318   2.101 -0.5703  0.2255  0.1556
  577TIP3    H1 1737   2.671   5.231   2.077  0.7225  0.7556 -0.0819
  577TIP3    H2 1738   2.586   5.346   2.025 -0.5852 -0.1332  0.0323
  578TIP3   OH2 1739   0.074   4.844   3.845 -0.1326 -0.0315 -0.4825
  578TIP3    H1 1740   0.145   4.875   3.900 -1.3527  0.2977  0.9819
  578TIP3    H2 1741  -0.004   4.886   3.881 -1.2947 -1.6746 -0.9765
  579TIP3   OH2 1742   3.869   5.919   0.885  0.0602 -0.3965  0.7974
  579TIP3    H1 1743   3.841   5.966   0.806 -1.0188 -0.1100  1.3447
  579TIP3    H2 1744   3.858   5.827   0.863  0.9210 -0.3685  0.1915
  580TIP3   OH2 1745   4.358   1.290   4.599 -0.1360  0.4362  0.0851
  580TIP3    H1 1746   4.294   1.296   4.528  0.1486 -0.3513 -0.2540
  580TIP3    H2 1747   4.438   1.258   4.556 -0.0002 -0.1677  0.7740
  581TIP3   OH2 1748   5.037   4.381   0.227 -0.2666  0.0174 -0.1955
  581TIP3    H1 1749   5.131   4.366   0.240  0.1173  0.9035 -1.6764
  581TIP3    H2 1750   5.033   4.439   0.151 -2.0407 -0.3240 -0.3937
  582TIP3   OH2 1751   0.048   0.655   0.262  0.4189 -0.0402  0.0863
  582TIP3    H1 1752  -0.044   0.673   0.276  0.1933  1.1577 -2.4081
  582TIP3    H2 1753   0.090   0.677   0.346 -1.4020  0.3541  0.9444
  583TIP3   OH2 1754   2.123   1.213   4.526 -0.2455  0.6339 -0.8873
  583TIP3    H1 1755   2.131   1.189   4.434  1.1644  0.0246 -0.6254
  583TIP3    H2 1756   2.029   1.226   4.539 -0.7657 -1.6009 -1.8423
  584TIP3   OH2 1757   2.494   4.002   3.928  0.4288  0.1069  0.1895
  584TIP3    H1 1758   2.545   4.027   4.006 -0.2664  1.1110  0.3425
  584TIP3    H2 1759   2.540   3.926   3.893  1.7660  0.7049  0.5836
  585TIP3   OH2 1760   0.881   5.203   0.944 -0.0789  0.1479  0.6195
  585TIP3    H1 1761   0.946   5.274   0.945 -0.2303  0.3344 -0.7813
  585TIP3    H2 1762   0.926   5.131   0.899 -0.5583  0.0138  0.3486
  586TIP3   OH2 1763   4.877   0.474   1.858  0.4254  0.1095 -0.0330
  586TIP3    H1 1764   4.878   0.500   1.766  2.8515  0.3509 -0.0134
  586TIP3    H2 1765   4.862   0.379   1.855  1.0195  0.0248 -0.7336
  587TIP3   OH2 1766   0.872   5.225   1.847 -0.0756 -0.4562  0.5913
  587TIP3    H1 1767   0.813   5.184   1.784  1.1019 -1.0152 -0.1855
  587TIP3    H2 1768   0.826   5.220   1.930 -1.3427 -0.3961 -0.0902
  588TIP3   OH2 1769   2.980   2.820   0.425  0.0370 -0.0808 -0.2065
  588TIP3    H1 1770   2.950   2.886   0.362 -2.0186 -1.2547 -0.5674
  588TIP3    H2 1771   2.903   2.804   0.480  1.2170 -0.4781  1.3856
  589TIP3   OH2 1772   5.986   3.974   3.992  0.2997  0.6037 -0.3682
  589TIP3    H1 1773   5.923   4.038   4.026 -1.3303 -1.1520  0.0820
  589TIP3    H2 1774   6.044   3.957   4.066 -1.2058 -0.7309  0.5711
  590TIP3   OH2 1775   1.614   0.319   5.005  0.5909  0.4389 -0.2221
  590TIP3    H1 1776   1.654   0.235   5.027 -0.4978  0.2262  1.0761
  590TIP3    H2 1777   1.646   0.339   4.917  3.1650  0.0751  0.5605
  591TIP3   OH2 1778   2.686   4.923   2.714 -0.7389  0.3503  0.2847
  591TIP3    H1 1779   2.634   4.861   2.764 -0.6938  1.5848  1.9828
  591TIP3    H2 1780   2.690   5.001   2.770  1.1517  1.0431 -0.7212
  592TIP3   OH2 1781   4.832   0.294   0.494 -0.5132  0.1689 -0.0922
  592TIP3    H1 1782   4.778   0.278   0.572 -0.9427 -1.0628 -0.6115
  592TIP3    H2 1783   4.918   0.260   0.517 -0.1036  1.5299  0.4977
  593TIP3   OH2 1784   5.720   5.638   1.458 -0.3717  0.0481 -0.1249
  593TIP3    H1 1785   5.682   5.657   1.543  0.0908  0.7541 -0.0714
  593TIP3    H2 1786   5.688   5.550   1.436  2.5456 -1.8628  2.4988
  594TIP3   OH2 1787   5.603   0.494   1.509 -0.4624  0.2831  0.3120
  594TIP3    H1 1788   5.544   0.569   1.512  1.1258  1.5912 -0.1069
  594TIP3    H2 1789   5.656   0.502   1.588  0.2679  0.0686 -0.1502
  595TIP3   OH2 1790   0.664  -0.003   1.102  0.1569  0.0720 -0.1826
  595TIP3    H1 1791   0.719  -0.001   1.181  2.8874  0.9738 -1.9518
  595TIP3    H2 1792   0.722   0.030   1.033 -2.8153  1.5182 -2.1543
  596TIP3   OH2 1793   2.774   2.706   0.619  0.0042 -0.2205 -0.0644
  596TIP3    H1 1794   2.775   2.659   0.702 -0.5370 -0.1853 -0.0377
  596TIP3    H2 1795   2.728   2.647   0.559  0.2329 -0.1677 -0.2925
  597TIP3   OH2 1796   4.315   4.177   2.127  0.3801  0.1421  0.0363
  597TIP3    H1 1797   4.371   4.220   2.062 -0.0812  3.2758  1.5179
  597TIP3    H2 1798   4.235   4.155   2.078  0.6840  0.8963 -0.8333
  598TIP3   OH2 1799   1.115   1.767   1.002  0.1548  0.1453  0.2598
  598TIP3    H1 1800   1.025   1.798   0.995  0.3670  0.6261 -0.4584
  598TIP3    H2 1801   1.168   1.847   0.998  0.5794 -0.0078  1.8465
  599TIP3   OH2 1802   3.014   4.014   4.971  0.0459 -0.4536  0.0979
  599TIP3    H1 1803   3.034   4.067   4.894 -0.1176 -0.0648  0.3177
  599TIP3    H2 1804   2.923   4.035   4.992 -0.0151 -0.8076  0.2017
  600TIP3   OH2 1805   3.518   4.953   1.314  0.8641 -0.1846 -0.6766
  600TIP3    H1 1806   3.433   4.962   1.272  0.8796 -0.6601 -0.8108
  600TIP3    H2 1807   3.560   4.881   1.268 -0.1546 -2.5558  1.8193
  601TIP3   OH2 1808   6.256   6.000   1.983  0.6683 -0.2476  0.2056
  601TIP3    H1 1809   6.332   5.961   2.028  0.9965 -2.0776 -1.7559
  601TIP3    H2 1810   6.183   5.942   2.005  0.5704 -0.4323 -0.5935
  602TIP3   OH2 1811   5.369   5.702   1.724 -0.3011 -0.3011 -0.1723
  602TIP3    H1 1812   5.276   5.681   1.712 -0.2230 -0.0880 -1.2824
  602TIP3    H2 1813   5.372   5.751   1.806 -1.1950 -0.1890 -0.1963
  603TIP3   OH2 1814   5.902   4.890   4.707 -0.1046 -0.3604 -0.3598
  603TIP3    H1 1815   5.889   4.799   4.681  2.2383 -0.8356 -0.0204
  603TIP3    H2 1816   5.884   4.941   4.628 -2.0282 -0.9968 -0.4036
  604TIP3   OH2 1817   3.441   4.875   4.680  0.1178 -0.2184  0.0559
  604TIP3    H1 1818   3.461   4.782   4.667 -0.4092 -0.2749 -0.3517
  604TIP3    H2 1819   3.520   4.910   4.721  0.9091 -0.5337 -1.1455
  605TIP3   OH2 1820   4.439   0.303   3.038 -0.0344 -0.0556  0.6010
  605TIP3    H1 1821   4.389   0.369   3.085  1.1184  1.3928 -0.1275
  605TIP3    H2 1822   4.391   0.221   3.053 -0.6364  0.6308  2.8408
  606TIP3   OH2 1823   3.059   2.054   0.321 -0.3366  0.5389  0.1899
  606TIP3    H1 1824   2.979   2.106   0.324  0.3591  1.5625  2.3423
  606TIP3    H2 1825   3.049   1.990   0.391 -0.0210 -0.5463 -0.7161
  607TIP3   OH2 1826   0.868   2.407   4.852 -0.2255  0.3123  0.6441
  607TIP3    H1 1827   0.915   2.372   4.776  0.5009  0.4367  1.0274
  607TIP3    H2 1828   0.775   2.392   4.832  0.0309 -1.1717  0.4802
  608TIP3   OH2 1829   0.360   2.800   1.138 -0.0593 -0.4665 -0.2993
  608TIP3    H1 1830   0.453   2.797   1.158  0.2954 -0.6314 -1.8310
  608TIP3    H2 1831   0.330   2.882   1.177  0.8907 -0.0473 -0.4154
  609TIP3   OH2 1832   3.463   2.146   2.314  0.7308 -0.1873 -0.1215
  609TIP3    H1 1833   3.528   2.097   2.363  0.2182  0.0720  0.8627
  609TIP3    H2 1834   3.476   2.237   2.342 -1.0673 -0.3210  1.3634
  610TIP3   OH2 1835   0.478   5.277   4.392 -0.3351  0.2981 -0.0002
  610TIP3    H1 1836   0.550   5.325   4.432 -1.3657  1.0789  0.9720
  610TIP3    H2 1837   0.470   5.197   4.444  0.7639 -0.5253 -1.0337
  611TIP3   OH2 1838   0.906   0.494   0.753 -0.1749  0.3440  0.6688
  611TIP3    H1 1839   0.844   0.453   0.693  0.9155  1.1343 -1.0578
  611TIP3    H2 1840   0.978   0.431   0.760  0.9002  1.3226 -0.9657
  612TIP3   OH2 1841   4.897   3.260   2.559 -0.2004 -0.8562  0.4249
  612TIP3    H1 1842   4.942   3.342   2.579 -0.9407 -0.3061 -0.0966
  612TIP3    H2 1843   4.959   3.211   2.505  0.6174 -1.0607  1.5156
  613TIP3   OH2 1844   4.611   4.693   0.335  0.7609 -0.7270 -0.3749
  613TIP3    H1 1845   4.550   4.623   0.314  1.7333 -1.2194 -1.7777
  613TIP3    H2 1846   4.627   4.736   0.251  1.3929  0.1770  0.1885
  614TIP3   OH2 1847   6.185   3.564   1.762  0.1420  0.5655  0.1787
  614TIP3    H1 1848   6.189   3.482   1.713 -1.1287  0.2673  0.5440
  614TIP3    H2 1849   6.216   3.630   1.700  1.1152 -0.1747 -0.1403
  615TIP3   OH2 1850   4.992   2.823   5.061  0.2061 -0.0803  0.0793
  615TIP3    H1 1851   5.081   2.821   5.096  0.4163 -1.6213 -0.4615
  615TIP3    H2 1852   4.981   2.913   5.029  2.1526 -0.2472 -1.2608
  616TIP3   OH2 1853   4.026   4.293   5.075  0.5628  0.4116 -0.4372
  616TIP3    H1 1854   4.066   4.377   5.054  0.3895  0.5863 -0.0651
  616TIP3    H2 1855   4.099   4.237   5.101  0.5724  0.7330  0.2519
  617TIP3   OH2 1856   4.802   4.769   1.844 -0.4946  0.0968 -0.1288
  617TIP3    H1 1857   4.842   4.754   1.929 -1.3984 -1.0758  0.1027
  617TIP3    H2 1858   4.876   4.787   1.786  0.0739  1.7548  1.0407
  618TIP3   OH2 1859   0.316   2.691   3.488 -0.0550 -0.6422  1.0687
  618TIP3    H1 1860   0.330   2.603   3.455 -2.6747 -0.9215  0.4410
  618TIP3    H2 1861   0.333   2.685   3.582 -0.1093 -1.8079  1.0160
  619TIP3   OH2 1862   4.272   1.804   0.324 -0.5669  0.5349 -0.1795
  619TIP3    H1 1863   4.264   1.739   0.394 -0.5651  0.3580 -0.3464
  619TIP3    H2 1864   4.337   1.769   0.265  1.2021  1.7630  0.9358
  620TIP3   OH2 1865   2.321   5.342   2.834 -0.1715 -0.5385  0.0345
  620TIP3    H1 1866   2.275   5.403   2.777  2.8515 -0.3708 -2.4778
  620TIP3    H2 1867   2.388   5.395   2.877  0.7980 -1.5644 -0.1533
  621TIP3   OH2 1868   4.625   1.884   4.108  0.0712  0.0507 -0.0029
  621TIP3    H1 1869   4.581   1.826   4.046  0.9295 -1.1709  0.4739
  621TIP3    H2 1870   4.717   1.882   4.081  0.1255  1.1332  0.0783
  622TIP3   OH2 1871   1.300   4.964   3.970  0.3483 -0.2023  0.2918
  622TIP3    H1 1872   1.324   4.948   4.061  0.2058 -2.5248 -0.0136
  622TIP3    H2 1873   1.296   4.877   3.931  1.1281  0.7877 -2.1434
  623TIP3   OH2 1874   0.810   2.385   1.819 -0.3121 -0.6491 -0.1538
  623TIP3    H1 1875   0.792   2.291   1.824  0.2866 -0.9034 -1.8917
  623TIP3    H2 1876   0.850   2.397   1.733 -0.5712  1.2422 -0.0613
  624TIP3   OH2 1877   0.640   4.969   3.255  1.1856  0.0119  0.6536
  624TIP3    H1 1878   0.610   4.995   3.343  1.1006  1.7704  0.1521
  624TIP3    H2 1879   0.559   4.962   3.204  1.2577 -0.6951  0.6335
  625TIP3   OH2 1880   6.020   3.035   0.428  0.1539  0.0170  0.2314
  625TIP3    H1 1881   6.054   3.122   0.406  1.9025 -0.6393  0.1343
  625TIP3    H2 1882   5.994   2.997   0.344  0.1662  0.1415  0.1717
  626TIP3   OH2 1883   4.846   4.565   0.424 -0.0584 -0.3641 -0.2162
  626TIP3    H1 1884   4.880   4.516   0.349  0.9003  0.8056 -0.5697
  626TIP3    H2 1885   4.777   4.621   0.387 -0.3632 -0.5981 -0.0136
  627TIP3   OH2 1886   1.501   1.483   1.041 -0.0373  0.2477 -0.0302
  627TIP3    H1 1887   1.521   1.552   0.978  0.1434 -0.4669 -0.7802
  627TIP3    H2 1888   1.445   1.422   0.992  1.8028 -1.3913 -0.2058
  628TIP3   OH2 1889   4.250   2.413   2.437  0.0409  0.3536 -0.5827
  628TIP3    H1 1890   4.323   2.473   2.450  0.7249 -0.4239 -0.6975
  628TIP3    H2 1891   4.275   2.335   2.487 -0.5664 -0.0345 -0.8794
  629TIP3   OH2 1892   2.152   2.045   1.982  0.4783  0.1986  0.1983
  629TIP3    H1 1893   2.113   2.084   1.904  1.6747 -1.0716 -1.0906
  629TIP3    H2 1894   2.242   2.078   1.984  0.9776 -1.1133  0.0598
  630TIP3   OH2 1895   6.277   0.136   3.330 -0.3284 -0.3959 -0.9187
  630TIP3    H1 1896   6.347   0.105   3.271  1.4126 -0.3820  1.0249
  630TIP3    H2 1897   6.262   0.226   3.303  1.8481  0.2577 -0.1874
  631TIP3   OH2 1898   5.821   3.452   3.047  0.0090 -0.2277 -0.0154
  631TIP3    H1 1899   5.912   3.453   3.017  0.5539  1.6413  1.5349
  631TIP3    H2 1900   5.773   3.410   2.975  1.8915 -0.0683 -1.4430
  632TIP3   OH2 1901   1.271   0.090   1.850 -0.4455  0.3084 -0.1803
  632TIP3    H1 1902   1.315   0.098   1.766 -0.0882  1.3726  0.0895
  632TIP3    H2 1903   1.293   0.171   1.897 -0.3767 -0.3923  1.0532
  633TIP3   OH2 1904   3.977   4.420   4.606  0.8408  0.3392 -0.1859
  633TIP3    H1 1905   3.992   4.348   4.667 -0.9308 -0.1582 -0.2593
  633TIP3    H2 1906   4.052   4.418   4.548  0.7416 -1.6338 -0.3285
  634TIP3   OH2 1907   2.468   0.094   2.465  0.1525 -0.7503  0.1488
  634TIP3    H1 1908   2.540   0.063   2.410  0.8489  0.1452  0.5291
  634TIP3    H2 1909   2.419   0.015   2.487  0.9239 -1.3537 -0.2563
  635TIP3   OH2 1910   3.485   0.705   2.241 -0.6483 -0.9935 -0.1554
  635TIP3    H1 1911   3.419   0.720   2.174 -0.7948  1.7088  0.4740
  635TIP3    H2 1912   3.565   0.688   2.192 -0.7028  1.1260 -1.1295
  636TIP3   OH2 1913   2.008   2.491   4.377  0.0693  0.1386 -0.0939
  636TIP3    H1 1914   1.945   2.548   4.421 -1.8959 -3.1974  1.7988
  636TIP3    H2 1915   1.971   2.403   4.385  2.3240 -1.3775 -3.8423
  637TIP3   OH2 1916   3.594   2.948   2.709 -0.5646  0.2270  0.0692
  637TIP3    H1 1917   3.678   2.903   2.702 -0.7887 -0.2467  0.3352
  637TIP3    H2 1918   3.585   2.968   2.802 -1.5349 -1.3127  0.3530
  638TIP3   OH2 1919   2.564   3.487   3.228 -0.4400 -0.0702  0.1049
  638TIP3    H1 1920   2.532   3.555   3.287 -1.0756  0.6210 -1.0011
  638TIP3    H2 1921   2.494   3.421   3.228 -0.5712  0.0702 -0.1106
  639TIP3   OH2 1922   0.716   4.346   3.233 -0.3148  0.0974  0.4251
  639TIP3    H1 1923   0.758   4.351   3.319  1.9887 -0.4136 -0.6013
  639TIP3    H2 1924   0.788   4.331   3.172 -1.9987 -0.5173 -1.5080
  640TIP3   OH2 1925   2.383   2.852   2.636  0.1086 -0.2769  0.2465
  640TIP3    H1 1926   2.447   2.822   2.701 -0.2246 -2.4459 -0.3197
  640TIP3    H2 1927   2.407   2.804   2.556 -0.6859  0.8389 -0.6974
  641TIP3   OH2 1928   3.780   2.378   2.092 -0.5110 -0.0526  0.1687
  641TIP3    H1 1929   3.790   2.324   2.170 -0.1075 -0.3562 -0.0882
  641TIP3    H2 1930   3.792   2.317   2.019 -0.6162  0.2775 -0.1269
  642TIP3   OH2 1931   1.145   4.119   3.005 -0.0653 -0.0850 -0.2053
  642TIP3    H1 1932   1.169   4.142   2.915 -0.7109  1.9501  0.0839
  642TIP3    H2 1933   1.228   4.124   3.054  0.4736 -2.1566 -0.7942
  643TIP3   OH2 1934   5.709   3.908   3.633  0.1772  0.5093 -0.2090
  643TIP3    H1 1935   5.756   3.846   3.577 -1.3358 -1.8194  0.9118
  643TIP3    H2 1936   5.657   3.852   3.691  0.1334  2.8449  2.1674
  644TIP3   OH2 1937   3.036   1.330   0.805 -0.1756  0.6762 -0.7993
  644TIP3    H1 1938   3.028   1.245   0.849  1.6758  0.9074  0.1151
  644TIP3    H2 1939   3.023   1.394   0.876 -1.2305  1.1573 -1.4154
  645TIP3   OH2 1940   3.973   1.323   4.624  0.2057  0.2947  0.0140
  645TIP3    H1 1941   3.940   1.412   4.610  1.6013  1.0938  1.5576
  645TIP3    H2 1942   3.905   1.281   4.678  0.3332  0.9746  0.7115
  646TIP3   OH2 1943   4.498   5.788   2.837 -0.5441  0.1099  0.0024
  646TIP3    H1 1944   4.417   5.739   2.851 -0.9339  0.4449 -1.0369
  646TIP3    H2 1945   4.471   5.868   2.793  0.1886  0.8945  0.9072
  647TIP3   OH2 1946   0.815   5.121   4.262  0.4148 -0.2616  0.7737
  647TIP3    H1 1947   0.739   5.073   4.229  1.0468 -1.6570  1.2449
  647TIP3    H2 1948   0.804   5.121   4.357  0.7595 -0.0650  0.8145
  648TIP3   OH2 1949   3.465   2.379   1.502  0.4200  0.1146  0.0841
  648TIP3    H1 1950   3.462   2.425   1.418  2.6579  2.1533  1.0065
  648TIP3    H2 1951   3.404   2.427   1.558 -1.2391 -1.3756 -0.3295
  649TIP3   OH2 1952   5.828   3.743   5.004  0.1288  0.5981 -0.2300
  649TIP3    H1 1953   5.788   3.740   5.091  2.0105 -0.6004  0.6713
  649TIP3    H2 1954   5.830   3.837   4.982 -0.6453  0.9000  0.8740
  650TIP3   OH2 1955   4.386   4.260   3.318  0.2115 -0.1196  0.3904
  650TIP3    H1 1956   4.361   4.266   3.226  0.5389 -0.7090  0.2586
  650TIP3    H2 1957   4.432   4.342   3.336  0.8121 -0.3278 -0.1770
  651TIP3   OH2 1958   4.033   2.134   2.890 -0.2806  0.2941  0.4075
  651TIP3    H1 1959   4.048   2.197   2.820 -0.9827 -0.3001 -0.3041
  651TIP3    H2 1960   3.972   2.178   2.949  0.1355  0.7133  0.5293
  652TIP3   OH2 1961   3.109   2.814   5.056 -0.2472 -0.3270  0.4974
  652TIP3    H1 1962   3.148   2.879   4.998  1.5574 -0.1503  1.7871
  652TIP3    H2 1963   3.144   2.730   5.026  2.2776 -0.0671  2.3444
  653TIP3   OH2 1964   6.189   3.478   1.360  0.1598 -0.0718  0.4861
  653TIP3    H1 1965   6.093   3.487   1.363  0.1625 -0.1844  2.3239
  653TIP3    H2 1966   6.211   3.490   1.268 -1.2597  3.7053  0.4420
  654TIP3   OH2 1967   4.538   2.451   4.959  0.7330  0.2249 -0.3309
  654TIP3    H1 1968   4.600   2.518   4.988 -0.2685 -0.3189  3.7204
  654TIP3    H2 1969   4.452   2.493   4.964  0.3078 -0.6278 -0.1931
  655TIP3   OH2 1970   1.015   3.737   3.449  0.1050  1.1344  0.3533
  655TIP3    H1 1971   1.020   3.731   3.354 -0.9119 -2.3898  0.3825
  655TIP3    H2 1972   1.105   3.723   3.479 -0.0067 -0.8448 -0.1033
  656TIP3   OH2 1973   5.159   4.023   3.809  0.0219 -0.5039 -0.3568
  656TIP3    H1 1974   5.184   4.064   3.726  0.3147 -1.9147 -0.9854
  656TIP3    H2 1975   5.212   4.067   3.875  0.4619 -0.0071 -1.0335
  657TIP3   OH2 1976   2.740   2.653   3.329  0.0255  0.1490  0.2189
  657TIP3    H1 1977   2.774   2.741   3.348 -1.4575  0.9703 -0.7208
  657TIP3    H2 1978   2.766   2.601   3.405  0.4926  1.5275  1.0557
  658TIP3   OH2 1979   2.430   2.842   0.303  0.4617 -0.1626 -0.6713
  658TIP3    H1 1980   2.472   2.863   0.386  0.6898 -1.6500 -0.3951
  658TIP3    H2 1981   2.342   2.813   0.327  0.9652 -1.9026 -0.7931
  659TIP3   OH2 1982   0.075   5.487   0.208  0.4594 -0.2160 -0.0800
  659TIP3    H1 1983   0.042   5.426   0.274 -2.2789 -0.0150 -1.1363
  659TIP3    H2 1984   0.120   5.431   0.144  1.7819 -0.5703  1.0946
  660TIP3   OH2 1985   1.492   3.329   3.704 -0.0971 -0.3655  0.3156
  660TIP3    H1 1986   1.549   3.324   3.627  2.1527 -0.6510  1.9071
  660TIP3    H2 1987   1.424   3.264   3.688  0.0262 -0.0779 -1.6151
  661TIP3   OH2 1988   1.171   0.101   0.788  0.3177  0.1571  0.1069
  661TIP3    H1 1989   1.133   0.133   0.870  0.5718  2.9033 -0.7453
  661TIP3    H2 1990   1.252   0.057   0.815  1.7773  3.2539  1.2724
  662TIP3   OH2 1991   1.899   3.782   1.596 -0.3362  0.4128 -0.1312
  662TIP3    H1 1992   1.906   3.876   1.613 -0.4940  0.4174 -0.0907
  662TIP3    H2 1993   1.873   3.744   1.680  0.6949  0.2095  0.1128
  663TIP3   OH2 1994   1.251   5.200   1.710  0.1412  0.0681  0.3459
  663TIP3    H1 1995   1.180   5.173   1.653 -0.0368  0.0000  0.5996
  663TIP3    H2 1996   1.315   5.239   1.651 -1.2327  2.5549  0.3853
  664TIP3   OH2 1997   2.591   5.310   2.591 -0.4151 -0.0233  0.1409
  664TIP3    H1 1998   2.579   5.390   2.643 -1.1714  0.9678 -1.4703
  664TIP3    H2 1999   2.505   5.269   2.588 -0.6771  0.5647 -1.2602
  665TIP3   OH2 2000   2.799   5.917   2.290  0.0540 -0.2997  0.2240
  665TIP3    H1 2001   2.845   5.868   2.221 -1.1486  0.0185 -0.8485
  665TIP3    H2 2002   2.767   5.849   2.349  0.3546 -0.6465 -0.0035
  666TIP3   OH2 2003   3.225   0.718   1.782 -0.0632  0.1758 -0.0793
  666TIP3    H1 2004   3.169   0.641   1.773 -2.9940  1.6009  3.3660
  666TIP3    H2 2005   3.183   0.785   1.727  0.6633  0.1765 -0.6435
  667TIP3   OH2 2006   1.430   4.470   5.107 -0.2928 -0.5939 -0.0095
  667TIP3    H1 2007   1.447   4.555   5.147 -0.3354 -1.2169  1.3696
  667TIP3    H2 2008   1.439   4.407   5.178 -1.0105 -1.6789 -0.8449
  668TIP3   OH2 2009   3.067   4.571   4.335 -0.1587  0.2125 -0.0476
  668TIP3    H1 2010   3.106   4.642   4.283  0.1669  0.3256  0.3410
  668TIP3    H2 2011   3.143   4.520   4.366 -0.3761 -0.1501 -0.1062
  669TIP3   OH2 2012   5.441   0.163   2.094 -0.1097  0.5086  0.0822
  669TIP3    H1 2013   5.513   0.100   2.088 -0.1154  0.4522  0.5616
  669TIP3    H2 2014   5.378   0.121   2.152 -0.2118  0.8621  0.2294
  670TIP3   OH2 2015   1.788   4.769   1.473  0.5018  0.0815  0.5513
  670TIP3    H1 2016   1.728   4.842   1.485 -1.2695 -1.0097 -1.0411
  670TIP3    H2 2017   1.732   4.691   1.472  1.9956 -1.0489 -0.3582
  671TIP3   OH2 2018   0.305   2.441   0.504 -0.2049 -0.2583  0.1400
  671TIP3    H1 2019   0.355   2.523   0.507  0.5093 -0.7161  1.6119
  671TIP3    H2 2020   0.273   2.436   0.413  0.1641  1.3790 -0.1148
  672TIP3   OH2 2021   4.971   0.848   4.709  0.1257 -0.1350  0.0838
  672TIP3    H1 2022   4.950   0.939   4.691 -1.3310 -0.5203 -0.2942
  672TIP3    H2 2023   5.043   0.852   4.773  0.5934  1.2516 -0.4888
  673TIP3   OH2 2024   5.054   3.542   3.456 -0.2560  0.6971  0.0158
  673TIP3    H1 2025   5.017   3.505   3.536  1.5710  0.4958  0.8038
  673TIP3    H2 2026   5.032   3.477   3.388  1.5553 -1.1524  1.1017
  674TIP3   OH2 2027   1.446   5.634   0.576  0.0898 -0.3265 -0.5250
  674TIP3    H1 2028   1.468   5.616   0.485  2.4409 -1.0079  0.0839
  674TIP3    H2 2029   1.461   5.728   0.587 -0.1084 -0.2601 -0.8231
  675TIP3   OH2 2030   1.488   5.389   3.068 -0.0712 -0.2915  0.0847
  675TIP3    H1 2031   1.553   5.399   3.137 -0.6372  1.7403  0.4134
  675TIP3    H2 2032   1.539   5.386   2.987  0.4719  1.6492  0.3070
  676TIP3   OH2 2033   1.763   0.413   0.823 -0.0502  0.4779  0.4164
  676TIP3    H1 2034   1.804   0.405   0.909  0.8794  0.3709 -0.0226
  676TIP3    H2 2035   1.743   0.507   0.816 -0.9805  0.3477  1.1122
  677TIP3   OH2 2036   2.917   2.167   4.877  0.3132 -0.1139 -0.3223
  677TIP3    H1 2037   2.830   2.136   4.901  0.1564 -0.3357 -1.1690
  677TIP3    H2 2038   2.954   2.200   4.959 -2.0881  3.8245 -0.6122
  678TIP3   OH2 2039   3.991   2.855   0.270  0.6925  0.4871  0.1977
  678TIP3    H1 2040   4.002   2.771   0.314 -3.1974  0.9731  2.5716
  678TIP3    H2 2041   4.040   2.917   0.323  0.9211  0.2058  0.3172
  679TIP3   OH2 2042   3.081   2.572   4.034  0.6107 -0.3571 -0.3469
  679TIP3    H1 2043   3.053   2.490   4.076  2.5814 -0.4818  0.8280
  679TIP3    H2 2044   3.176   2.566   4.031  0.6666  0.2741 -3.6847
  680TIP3   OH2 2045   1.281   2.145   4.686  0.3742  0.3407 -0.1415
  680TIP3    H1 2046   1.248   2.086   4.753 -1.4348 -0.1356 -1.3815
  680TIP3    H2 2047   1.218   2.217   4.684  0.0522  0.0533 -1.6911
  681TIP3   OH2 2048   1.317   3.835   2.384  0.1731  0.3545 -0.6528
  681TIP3    H1 2049   1.339   3.927   2.372 -0.4923  0.5676 -0.2706
  681TIP3    H2 2050   1.237   3.822   2.333  0.6050 -0.1773 -1.2278
  682TIP3   OH2 2051   6.050   1.278   4.994 -0.5002  0.2342  0.1589
  682TIP3    H1 2052   6.070   1.312   5.081  0.1581  0.6743 -0.1645
  682TIP3    H2 2053   6.101   1.197   4.987  1.3598  1.4099 -0.7070
  683TIP3   OH2 2054   1.740   2.771   2.404  0.2037  0.0628  0.8138
  683TIP3    H1 2055   1.813   2.795   2.461  0.2773 -0.4590  0.9424
  683TIP3    H2 2056   1.760   2.813   2.321  0.0071  0.9818  1.2119
  684TIP3   OH2 2057   4.907   3.984   1.200  0.2859  0.0095  0.0128
  684TIP3    H1 2058   4.917   4.048   1.270 -1.1030  0.8712 -0.5343
  684TIP3    H2 2059   4.816   3.993   1.172  0.9204  0.0869 -2.2512
  685TIP3   OH2 2060   2.559   1.818   3.823 -0.2951 -0.2742 -0.2256
  685TIP3    H1 2061   2.619   1.882   3.860  0.4157 -0.9307 -0.2052
  685TIP3    H2 2062   2.575   1.738   3.874 -1.4968 -0.3412  0.0617
  686TIP3   OH2 2063   1.458   5.256   1.104 -0.1216 -0.4175  0.0123
  686TIP3    H1 2064   1.376   5.239   1.057 -0.5511  0.2174  0.5243
  686TIP3    H2 2065   1.450   5.204   1.184 -0.4445  0.3887  0.5102
  687TIP3   OH2 2066   2.747   5.725   4.843  0.0338  0.4212  0.1323
  687TIP3    H1 2067   2.811   5.785   4.805 -0.1656  0.5191 -0.0520
  687TIP3    H2 2068   2.662   5.765   4.825 -0.0493  0.6215  0.9618
  688TIP3   OH2 2069   2.381   0.393   1.537  0.1778  0.1064 -0.5422
  688TIP3    H1 2070   2.363   0.453   1.609  3.7867 -0.9967  1.5274
  688TIP3    H2 2071   2.319   0.321   1.549  0.9275 -0.2487  1.8631
  689TIP3   OH2 2072   0.871   5.918   3.842  0.5127  0.4770  0.4413
  689TIP3    H1 2073   0.853   6.012   3.837 -2.4503 -0.0544 -0.9418
  689TIP3    H2 2074   0.901   5.904   3.932  1.2128  2.7370  0.6200
  690TIP3   OH2 2075   1.148   5.318   4.057 -0.1130 -0.9978  0.0727
  690TIP3    H1 2076   1.196   5.389   4.014 -1.2700 -0.6527 -0.7251
  690TIP3    H2 2077   1.065   5.359   4.082 -0.9251 -2.1260 -0.6755
  691TIP3   OH2 2078   2.204   3.705   4.177 -0.9388  0.4507  0.4892
  691TIP3    H1 2079   2.252   3.783   4.205  0.6054 -0.2853 -0.0121
  691TIP3    H2 2080   2.179   3.724   4.086  0.6763 -0.1597 -0.1171
  692TIP3   OH2 2081   1.658   0.483   3.242  0.6123  0.2196 -0.2228
  692TIP3    H1 2082   1.605   0.560   3.263 -1.7240 -1.1206 -0.8490
  692TIP3    H2 2083   1.661   0.433   3.324 -1.1367 -0.8287 -0.7654
  693TIP3   OH2 2084   5.175   1.617   1.503  0.4257 -0.0870 -0.1712
  693TIP3    H1 2085   5.087   1.586   1.526  0.0161  0.1085 -1.3920
  693TIP3    H2 2086   5.221   1.539   1.474  0.4195 -0.0700 -0.2271
  694TIP3   OH2 2087   3.946   4.919   4.175  0.3533 -0.2208  0.5422
  694TIP3    H1 2088   3.888   4.955   4.108  0.3891  0.0633  0.6649
  694TIP3    H2 2089   3.890   4.907   4.251 -0.2088 -2.4904 -0.1278
  695TIP3   OH2 2090   4.023   1.476   2.228 -0.5453 -0.3876  0.4887
  695TIP3    H1 2091   4.104   1.521   2.206  0.2361 -2.1082 -0.3383
  695TIP3    H2 2092   4.048   1.384   2.241 -2.4656 -1.1437 -0.6350
  696TIP3   OH2 2093   0.262   4.921   2.191  0.1547  0.4648  0.0914
  696TIP3    H1 2094   0.312   4.902   2.111  0.0258  0.2248  0.0636
  696TIP3    H2 2095   0.328   4.938   2.258  0.2532  1.3312 -0.2226
  697TIP3   OH2 2096   2.895   5.359   2.638 -0.1235 -0.4543  0.2073
  697TIP3    H1 2097   2.900   5.454   2.643  0.0035 -0.4008 -0.7236
  697TIP3    H2 2098   2.801   5.339   2.635 -0.1461 -0.2698 -0.7606
  698TIP3   OH2 2099   6.303   4.945   1.070 -0.5112  0.1292  0.4570
  698TIP3    H1 2100   6.316   4.965   1.163  1.0885 -1.2794  0.5664
  698TIP3    H2 2101   6.219   4.899   1.067  0.0813 -1.0578  1.4153
  699TIP3   OH2 2102   6.154   4.078   2.225 -0.3584  0.1862 -0.5156
  699TIP3    H1 2103   6.226   4.109   2.281  0.6581  0.8322 -2.0984
  699TIP3    H2 2104   6.177   3.988   2.204  0.5796  0.7133 -1.8645
  700TIP3   OH2 2105   3.580   4.445   2.830 -0.6858 -0.0597 -0.2722
  700TIP3    H1 2106   3.587   4.483   2.918 -0.2521  0.9990 -0.7456
  700TIP3    H2 2107   3.487   4.426   2.819 -1.2511  2.5742 -0.6750
  701TIP3   OH2 2108   6.036   2.974   1.461 -0.5301 -0.1331  0.2720
  701TIP3    H1 2109   5.961   2.924   1.492  0.3699 -1.1601  0.8364
  701TIP3    H2 2110   6.106   2.954   1.523  0.6177 -0.2892 -1.0236
  702TIP3   OH2 2111   5.412   5.085   0.611 -1.0273  0.3784 -0.2964
  702TIP3    H1 2112   5.492   5.055   0.654 -0.3163 -0.2293 -1.9335
  702TIP3    H2 2113   5.341   5.058   0.669 -0.1055 -0.0886  0.6375
  703TIP3   OH2 2114   5.638   1.131   2.777 -0.0598 -0.1523 -0.0057
  703TIP3    H1 2115   5.650   1.216   2.734 -0.6918 -0.3207 -0.5316
  703TIP3    H2 2116   5.655   1.148   2.869 -1.1095  0.7706  0.0365
  704TIP3   OH2 2117   5.301   3.075   3.171  0.1267  0.5154  0.3612
  704TIP3    H1 2118   5.370   3.137   3.197 -0.1185  0.3867  1.3544
  704TIP3    H2 2119   5.264   3.044   3.253  0.5700 -1.3426 -0.0896
  705TIP3   OH2 2120   1.271   3.398   2.761  0.1564 -0.3427 -0.1432
  705TIP3    H1 2121   1.214   3.329   2.725  0.8250 -0.2735 -1.3880
  705TIP3    H2 2122   1.299   3.448   2.684 -0.6224  1.5877  0.7586
  706TIP3   OH2 2123   3.422   5.413   4.767  0.0081  0.0290  0.2619
  706TIP3    H1 2124   3.407   5.506   4.779 -0.7168 -0.0609  0.0685
  706TIP3    H2 2125   3.445   5.380   4.854 -0.3918  0.2631  0.4530
  707TIP3   OH2 2126   5.106   3.745   2.934  0.7919  0.1418  0.3524
  707TIP3    H1 2127   5.031   3.765   2.990  0.7722  0.6073  0.1623
  707TIP3    H2 2128   5.181   3.782   2.980  0.8560  0.0002  0.3626
  708TIP3   OH2 2129   2.346   5.724   4.422  0.2562  0.1092  0.4229
  708TIP3    H1 2130   2.359   5.640   4.467 -0.1241 -0.2581 -0.1280
  708TIP3    H2 2131   2.400   5.786   4.471 -1.2254  0.0399  2.2754
  709TIP3   OH2 2132   0.172   3.069   2.053  0.5886  0.0885 -0.2890
  709TIP3    H1 2133   0.093   3.118   2.032 -0.7183 -1.5059  0.6708
  709TIP3    H2 2134   0.154   3.029   2.138  1.6012 -1.9570 -0.9679
  710TIP3   OH2 2135   1.968   3.921   3.771  0.0824 -0.3938 -0.3017
  710TIP3    H1 2136   1.922   3.976   3.834  0.5894 -0.2104 -0.0908
  710TIP3    H2 2137   1.956   3.965   3.687 -1.8648 -1.4000 -0.6148
  711TIP3   OH2 2138   6.161   1.342   1.453 -0.1010  0.2979  0.5435
  711TIP3    H1 2139   6.211   1.273   1.496  0.1224  0.6697  0.8908
  711TIP3    H2 2140   6.070   1.313   1.458 -0.2601  0.9439  2.5109
  712TIP3   OH2 2141   2.349   2.292   1.557 -0.0369 -0.2558 -0.1005
  712TIP3    H1 2142   2.254   2.296   1.568  0.0446 -0.4046  0.7127
  712TIP3    H2 2143   2.365   2.338   1.475 -1.0551 -2.3437 -1.5787
  713TIP3   OH2 2144   5.961   4.850   0.659 -0.0594  0.7518  0.5441
  713TIP3    H1 2145   5.978   4.797   0.737 -1.3412 -1.1641 -0.3901
  713TIP3    H2 2146   6.047   4.876   0.627  0.4807  2.0066  2.8213
  714TIP3   OH2 2147   3.880   1.667   2.349  0.0444  0.0381 -0.3764
  714TIP3    H1 2148   3.793   1.634   2.326  0.6078 -0.8825 -1.2184
  714TIP3    H2 2149   3.941   1.602   2.315  0.9915 -1.3443  3.4125
  715TIP3   OH2 2150   0.099   4.519   2.633  0.4979  0.0299  0.3410
  715TIP3    H1 2151   0.031   4.508   2.566 -0.1391 -0.7978  1.0788
  715TIP3    H2 2152   0.050   4.530   2.715  1.2599  0.6539  0.7279
  716TIP3   OH2 2153   0.429   2.292   3.675 -0.2512  0.1334  0.2185
  716TIP3    H1 2154   0.413   2.384   3.696  0.6889  0.1150  1.0408
  716TIP3    H2 2155   0.362   2.244   3.724 -1.6452  0.4285 -1.2901
  717TIP3   OH2 2156   3.333   1.683   2.282  0.1624  0.0260  0.0231
  717TIP3    H1 2157   3.366   1.594   2.269 -0.4778 -0.3889  1.1342
  717TIP3    H2 2158   3.241   1.679   2.256  0.4375  0.6785 -1.1103
  718TIP3   OH2 2159   3.675   2.589   1.064 -0.0416  0.4786  0.3984
  718TIP3    H1 2160   3.754   2.583   1.009 -1.1855  0.9762 -1.4113
  718TIP3    H2 2161   3.628   2.507   1.047  0.6841 -0.4504  2.5461
  719TIP3   OH2 2162   0.541   3.482   4.368  0.5749 -0.3948  0.9512
  719TIP3    H1 2163   0.505   3.400   4.402  0.9920 -0.5813  0.9443
  719TIP3    H2 2164   0.571   3.460   4.280 -2.8610  0.6647 -0.6831
  720TIP3   OH2 2165   5.846   0.482   1.712 -0.2692  0.4387 -0.1943
  720TIP3    H1 2166   5.855   0.420   1.641  0.0299 -0.4835  0.6269
  720TIP3    H2 2167   5.918   0.544   1.700 -1.0249  1.1105 -1.4568
  721TIP3   OH2 2168   5.513   2.462   0.810 -0.2468  0.3489 -0.3713
  721TIP3    H1 2169   5.424   2.482   0.839 -0.5072 -1.1659 -0.0333
  721TIP3    H2 2170   5.567   2.530   0.849 -0.9507 -0.1051  1.4976
  722TIP3   OH2 2171   4.901   3.750   3.348 -0.1647 -0.2168 -0.1661
  722TIP3    H1 2172   4.835   3.684   3.325  1.3328 -1.4284 -1.1206
  722TIP3    H2 2173   4.966   3.702   3.399  0.8563  0.5452 -0.7136
  723TIP3   OH2 2174   3.887   4.333   4.344 -0.4308 -0.5189  0.3576
  723TIP3    H1 2175   3.899   4.426   4.365  0.6225 -0.4722 -0.3571
  723TIP3    H2 2176   3.966   4.291   4.379 -0.9812 -1.1743  0.8228
  724TIP3   OH2 2177   5.660   2.064   1.342  0.2580  0.7432 -0.4379
  724TIP3    H1 2178   5.645   2.033   1.431  0.6460 -2.0272 -1.2385
  724TIP3    H2 2179   5.744   2.109   1.345  0.1669  0.8545  0.6106
  725TIP3   OH2 2180   3.505   4.588   3.314 -0.8059  0.1453 -0.3012
  725TIP3    H1 2181   3.577   4.580   3.377 -2.1082 -0.2768  1.2100
  725TIP3    H2 2182   3.447   4.653   3.352 -1.3475  0.3198 -1.3808
  726TIP3   OH2 2183   3.233   1.603   1.811 -0.2983 -0.4671 -0.4569
  726TIP3    H1 2184   3.309   1.548   1.794 -0.1533 -0.6280  0.6665
  726TIP3    H2 2185   3.258   1.689   1.777  0.5636 -0.4076  0.2949
  727TIP3   OH2 2186   0.981   5.715   0.718 -0.1731 -0.1034 -0.5122
  727TIP3    H1 2187   0.894   5.715   0.678 -0.4420  0.5085  0.0585
  727TIP3    H2 2188   1.036   5.667   0.655 -0.9312 -0.5625 -0.8383
  728TIP3   OH2 2189   5.511   3.989   0.183 -0.1582  0.0692 -0.2044
  728TIP3    H1 2190   5.560   4.064   0.217 -0.3515  0.4541 -0.7687
  728TIP3    H2 2191   5.449   3.967   0.252  0.5159 -0.1540  0.3404
  729TIP3   OH2 2192   1.610   2.771   4.747 -0.4919 -0.6200  0.6461
  729TIP3    H1 2193   1.679   2.723   4.794 -1.3137  1.0154  3.8137
  729TIP3    H2 2194   1.538   2.776   4.808 -2.7982 -0.6253 -1.8880
  730TIP3   OH2 2195   2.290   3.284   3.660 -0.1720  0.3248 -0.8551
  730TIP3    H1 2196   2.241   3.361   3.632  2.4043  1.5475 -2.3797
  730TIP3    H2 2197   2.315   3.302   3.750  0.6871  1.4693 -1.3055
  731TIP3   OH2 2198   5.216   1.691   4.396  0.4547  0.6653  0.3369
  731TIP3    H1 2199   5.170   1.750   4.455  1.0617  1.4317  0.0609
  731TIP3    H2 2200   5.242   1.746   4.322  1.2014  0.1076  0.1654
  732TIP3   OH2 2201   2.482   2.858   0.609 -0.1135  0.0701 -0.1634
  732TIP3    H1 2202   2.502   2.778   0.657  0.9833  0.9465  0.8916
  732TIP3    H2 2203   2.388   2.872   0.624 -0.1492 -0.6167  0.2776
  733TIP3   OH2 2204   3.459   3.664   2.310  0.1900 -0.9825  0.4123
  733TIP3    H1 2205   3.414   3.693   2.389  0.6213  0.4174  0.1666
  733TIP3    H2 2206   3.537   3.618   2.343  0.7942  0.2881  0.8164
  734TIP3   OH2 2207   6.134   0.022   1.424  0.0615 -0.1160  0.2140
  734TIP3    H1 2208   6.132  -0.016   1.336 -0.0653 -1.8211  0.9185
  734TIP3    H2 2209   6.202   0.089   1.420  0.3621 -0.4728 -1.0566
  735TIP3   OH2 2210   4.285   1.348   1.612 -0.1628 -0.0953 -0.0790
  735TIP3    H1 2211   4.346   1.415   1.641 -0.8444  0.3135  0.4367
  735TIP3    H2 2212   4.221   1.340   1.683  0.5374 -2.1178  0.4043
  736TIP3   OH2 2213   4.361   1.606   4.239 -0.5715  0.1442 -0.3641
  736TIP3    H1 2214   4.275   1.608   4.281 -0.3076  0.4190  0.1817
  736TIP3    H2 2215   4.348   1.652   4.156 -1.7255 -2.6592 -1.8688
  737TIP3   OH2 2216   4.271   1.374   3.981 -0.1238 -0.3609  0.1737
  737TIP3    H1 2217   4.251   1.322   3.903 -0.1557 -0.4774  0.2581
  737TIP3    H2 2218   4.335   1.321   4.029 -1.5662 -1.2599  1.2271
  738TIP3   OH2 2219   5.635   3.757   0.095  0.4232 -0.1960  0.2686
  738TIP3    H1 2220   5.622   3.850   0.114 -1.0416 -0.6554  1.7821
  738TIP3    H2 2221   5.553   3.716   0.122  1.3250 -2.0252  0.3378
  739TIP3   OH2 2222   3.411   2.479   0.423 -0.6623 -0.3861 -0.2643
  739TIP3    H1 2223   3.443   2.485   0.333  0.6155  0.8249  0.2245
  739TIP3    H2 2224   3.317   2.495   0.416 -0.5287 -0.0052 -1.3670
  740TIP3   OH2 2225   4.082   2.532   4.754  0.6394 -0.8264  0.3358
  740TIP3    H1 2226   3.989   2.541   4.775  0.5204 -1.2730  0.0119
  740TIP3    H2 2227   4.125   2.596   4.810  0.1308 -0.5693  0.4398
  741TIP3   OH2 2228   0.171   1.351   5.113 -0.2138 -0.4658 -0.2639
  741TIP3    H1 2229   0.114   1.366   5.188 -0.2594 -0.2824 -0.3350
  741TIP3    H2 2230   0.246   1.408   5.128  1.0878 -2.3778  1.0121
  742TIP3   OH2 2231   5.268   0.133   0.314 -0.0553 -0.2594 -0.6259
  742TIP3    H1 2232   5.350   0.109   0.356 -0.6995 -0.4163  0.5760
  742TIP3    H2 2233   5.293   0.158   0.225  1.4993  1.2358  0.1838
  743TIP3   OH2 2234   3.505   2.868   1.979  0.5432  0.3157  0.1343
  743TIP3    H1 2235   3.588   2.826   1.954  1.5366  1.8362  0.7590
  743TIP3    H2 2236   3.467   2.808   2.043  0.1492 -1.3892 -1.5960
  744TIP3   OH2 2237   1.816   1.473   2.299  0.4885 -0.4276 -0.2587
  744TIP3    H1 2238   1.845   1.433   2.218 -0.0911  0.2944 -0.8348
  744TIP3    H2 2239   1.889   1.462   2.359  1.2706 -0.1924 -1.1480
  745TIP3   OH2 2240   3.219   3.462   0.196  0.8972 -0.1473 -0.4146
  745TIP3    H1 2241   3.307   3.498   0.206  1.6202 -2.1649  1.4106
  745TIP3    H2 2242   3.169   3.500   0.268  0.2259  1.0550 -1.4950
  746TIP3   OH2 2243   5.747   3.886   1.075  0.5475 -0.6306 -0.1402
  746TIP3    H1 2244   5.828   3.857   1.116  1.0303  0.1759 -0.5045
  746TIP3    H2 2245   5.774   3.949   1.009 -0.3784 -0.2997 -0.2252
  747TIP3   OH2 2246   3.415   3.077   2.131  0.2754 -1.0514  0.1266
  747TIP3    H1 2247   3.454   3.031   2.056  1.5820  1.1014 -0.6029
  747TIP3    H2 2248   3.363   3.147   2.092  0.6643 -0.1334  1.1998
  748TIP3   OH2 2249   5.604   0.564   4.393 -0.2358  0.7010  0.2071
  748TIP3    H1 2250   5.523   0.515   4.402 -0.5566  1.4332  1.6859
  748TIP3    H2 2251   5.587   0.646   4.440  1.2001  1.0634  0.1321
  749TIP3   OH2 2252   0.242   5.283   3.872 -0.2539 -0.2011  0.2322
  749TIP3    H1 2253   0.277   5.217   3.812 -0.2266  0.6892 -0.7601
  749TIP3    H2 2254   0.147   5.276   3.863 -0.2598  1.6084 -1.8745
  750TIP3   OH2 2255   0.786   1.283   3.485  0.5409  0.6778 -0.1163
  750TIP3    H1 2256   0.787   1.275   3.580  0.0944 -0.7143 -0.2116
  750TIP3    H2 2257   0.717   1.224   3.456  1.3817  0.2611 -1.3785
  751TIP3   OH2 2258   2.800   4.106   0.467 -0.2054  0.2157  0.3884
  751TIP3    H1 2259   2.845   4.132   0.386 -0.8293 -0.3104 -0.1369
  751TIP3    H2 2260   2.708   4.096   0.441 -0.6596  1.3286  1.4551
  752TIP3   OH2 2261   0.649   4.262   4.373  0.4436  0.5485  0.4447
  752TIP3    H1 2262   0.706   4.224   4.440 -0.7515 -1.2715  0.4884
  752TIP3    H2 2263   0.632   4.189   4.313 -0.1037  1.6349 -0.7457
  753TIP3   OH2 2264   4.099   1.905   2.741  0.5205 -0.1245  0.4293
  753TIP3    H1 2265   4.165   1.931   2.677  0.3065  0.0153  0.2644
  753TIP3    H2 2266   4.097   1.977   2.804 -0.7938  0.7683 -0.5766
  754TIP3   OH2 2267   5.805   0.695   5.196  0.2671  0.1885 -0.9887
  754TIP3    H1 2268   5.723   0.728   5.160 -0.0966 -0.4963 -0.8073
  754TIP3    H2 2269   5.849   0.653   5.121  0.4887  0.6110 -1.1005
  755TIP3   OH2 2270   1.515   5.463   4.553  0.1855 -0.1817  0.4325
  755TIP3    H1 2271   1.521   5.484   4.646  1.4274  1.2971  0.0673
  755TIP3    H2 2272   1.597   5.418   4.533  0.9105  1.4032 -0.3452
  756TIP3   OH2 2273   3.984   5.688   2.322  0.0952 -0.9410  0.1181
  756TIP3    H1 2274   4.042   5.651   2.389  1.5943 -0.4186 -0.8327
  756TIP3    H2 2275   4.044   5.726   2.257 -1.2670  3.3708  1.0771
  757TIP3   OH2 2276   4.295   4.621   3.450 -0.1052 -0.4713  0.8765
  757TIP3    H1 2277   4.353   4.634   3.375 -1.4315  1.0579  0.0471
  757TIP3    H2 2278   4.337   4.666   3.523 -0.6734  1.4862  0.0423
  758TIP3   OH2 2279   3.650   1.093   3.291 -0.0174 -0.4927  0.0503
  758TIP3    H1 2280   3.686   1.011   3.324 -1.3011 -0.6359  1.1643
  758TIP3    H2 2281   3.582   1.067   3.229  0.3679 -0.2425 -0.4912
  759TIP3   OH2 2282   2.429   3.718   3.681  0.5618  0.1048 -0.0148
  759TIP3    H1 2283   2.474   3.781   3.737  1.3057 -0.4102 -0.0104
  759TIP3    H2 2284   2.382   3.661   3.742  1.2007 -0.3264  0.0896
  760TIP3   OH2 2285   0.133   4.288   0.106  0.1899  0.0521  0.4953
  760TIP3    H1 2286   0.050   4.273   0.061 -0.4934 -0.3269  1.8304
  760TIP3    H2 2287   0.197   4.240   0.054 -0.6881 -0.9397  0.2861
  761TIP3   OH2 2288   4.054   4.201   4.731  0.5412 -0.4108  0.0407
  761TIP3    H1 2289   4.071   4.118   4.687 -1.0824 -0.6431 -0.2069
  761TIP3    H2 2290   4.017   4.175   4.815 -2.3535  0.0122 -1.0191
  762TIP3   OH2 2291   2.021   5.903   4.232 -0.6707  0.2512 -0.5465
  762TIP3    H1 2292   1.991   5.946   4.312 -0.8397  0.2127 -0.5891
  762TIP3    H2 2293   2.011   5.970   4.164  0.8652  0.7871 -0.2854
  763TIP3   OH2 2294   0.249   0.022   2.663  0.1031 -0.6670  0.0160
  763TIP3    H1 2295   0.227   0.022   2.570  0.0322 -0.2573  0.0267
  763TIP3    H2 2296   0.231   0.112   2.691  1.1398 -0.5018  0.1873
  764TIP3   OH2 2297   5.989   4.273   4.351  0.0150 -0.0676  0.4274
  764TIP3    H1 2298   5.952   4.184   4.350 -2.0571  0.6779  2.5733
  764TIP3    H2 2299   6.082   4.259   4.368 -0.0058 -1.8599 -0.5983
  765TIP3   OH2 2300   0.442   4.533   1.153 -0.1307  0.7051  0.5678
  765TIP3    H1 2301   0.482   4.610   1.113 -1.5044  0.4202 -1.5250
  765TIP3    H2 2302   0.354   4.562   1.177 -0.2029  0.1494  1.0004
  766TIP3   OH2 2303   0.572   2.428   5.086 -0.0676  0.4234  0.2152
  766TIP3    H1 2304   0.582   2.379   5.004  1.1419  0.3227  0.4094
  766TIP3    H2 2305   0.591   2.519   5.061  2.2038  0.1486  0.7033
  767TIP3   OH2 2306   3.247   2.142   4.509 -0.1031 -0.0320 -0.2420
  767TIP3    H1 2307   3.224   2.091   4.431 -0.1716  1.1203 -0.9999
  767TIP3    H2 2308   3.332   2.107   4.536 -0.7600 -1.4606  0.0802
  768TIP3   OH2 2309   1.692   0.981   3.977 -0.2334  0.4172  0.5584
  768TIP3    H1 2310   1.691   0.891   3.945 -0.4515  0.4755  0.3960
  768TIP3    H2 2311   1.740   1.030   3.910  2.5093 -0.0691  2.0329
  769TIP3   OH2 2312   4.448   4.664   4.202 -0.5249  0.0163  0.0529
  769TIP3    H1 2313   4.400   4.602   4.146 -0.2009 -1.4806  1.3773
  769TIP3    H2 2314   4.540   4.649   4.181 -0.4065 -0.4856  0.8827
  770TIP3   OH2 2315   0.002   2.554   2.833 -0.2666 -0.1639 -0.0242
  770TIP3    H1 2316   0.020   2.608   2.910  2.5770 -1.1929  0.1204
  770TIP3    H2 2317   0.088   2.533   2.797 -1.4500 -1.2314 -2.4477
  771TIP3   OH2 2318   5.277   3.444   1.445  0.4124 -0.6287  0.7671
  771TIP3    H1 2319   5.263   3.394   1.525  2.0671  0.1331  1.5784
  771TIP3    H2 2320   5.368   3.474   1.451  1.2117 -2.0913 -2.2836
  772TIP3   OH2 2321   3.946   0.443   4.489 -0.3500 -0.2914 -0.2151
  772TIP3    H1 2322   3.870   0.485   4.448 -0.1708  0.2587 -0.0007
  772TIP3    H2 2323   3.941   0.470   4.581 -0.8935 -1.7176  0.2078
  773TIP3   OH2 2324   3.226   4.181   3.082 -0.2632  0.2098 -0.5571
  773TIP3    H1 2325   3.168   4.210   3.011  1.7231  2.4100 -1.4122
  773TIP3    H2 2326   3.247   4.261   3.130 -1.3048 -1.1570  2.4602
  774TIP3   OH2 2327   4.617   0.056   3.127 -0.0516  0.1838 -0.0294
  774TIP3    H1 2328   4.524   0.069   3.142 -0.1040  1.0129 -0.9410
  774TIP3    H2 2329   4.658   0.137   3.157  0.3310 -0.0286  0.0297
  775TIP3   OH2 2330   1.852   3.853   2.023  0.4230  0.3041 -0.4118
  775TIP3    H1 2331   1.889   3.941   2.013  0.6526  0.2432 -0.1177
  775TIP3    H2 2332   1.917   3.806   2.075  0.1670  0.0440 -0.3273
  776TIP3   OH2 2333   0.460   3.092   3.817  0.1042 -0.5849 -0.1731
  776TIP3    H1 2334   0.371   3.116   3.791  0.8581  0.3239 -2.0763
  776TIP3    H2 2335   0.448   3.020   3.879 -2.0131  0.7051  1.0594
  777TIP3   OH2 2336   6.231   3.014   3.321 -0.1605 -0.3744  0.0871
  777TIP3    H1 2337   6.148   3.062   3.320 -0.7152 -1.2801 -1.4786
  777TIP3    H2 2338   6.280   3.052   3.393 -0.7772  2.1747 -0.7402
  778TIP3   OH2 2339   0.308   2.063   0.841 -0.0728  0.0927  0.4766
  778TIP3    H1 2340   0.255   1.983   0.837  0.4181 -0.2212  0.0730
  778TIP3    H2 2341   0.261   2.124   0.785 -0.2126 -0.0614  0.4221
  779TIP3   OH2 2342   4.084   2.486   4.248 -0.0901 -0.5562  0.0859
  779TIP3    H1 2343   4.160   2.499   4.305  0.4901 -0.0474 -0.7662
  779TIP3    H2 2344   4.100   2.546   4.175 -2.4895  1.3850  1.0321
  780TIP3   OH2 2345   5.730   3.257   3.437  0.2816  0.5225  0.3357
  780TIP3    H1 2346   5.636   3.244   3.429  0.4877 -0.6702 -0.3901
  780TIP3    H2 2347   5.755   3.207   3.514  0.2747  1.1368  0.7421
  781TIP3   OH2 2348   1.012   0.807   1.696 -0.9760  0.1461 -0.0528
  781TIP3    H1 2349   0.974   0.744   1.635  1.3903  0.5302 -2.1026
  781TIP3    H2 2350   1.054   0.754   1.763 -1.6986 -0.3428  0.0253
  782TIP3   OH2 2351   5.936   2.154   1.280 -0.0655 -0.1978 -0.6032
  782TIP3    H1 2352   5.974   2.176   1.365 -0.4282  0.4449 -0.5982
  782TIP3    H2 2353   6.002   2.098   1.238  1.1170  1.2542 -0.7833
  783TIP3   OH2 2354   6.212   3.766   4.901  0.6690 -0.4057 -0.3626
  783TIP3    H1 2355   6.177   3.735   4.984 -0.8774 -0.3417 -0.9593
  783TIP3    H2 2356   6.297   3.805   4.923  0.7217 -1.2542  1.0211
  784TIP3   OH2 2357   3.933   3.337   2.764  0.5643 -0.0134 -1.0138
  784TIP3    H1 2358   3.949   3.306   2.674  1.1115 -0.7564 -0.6727
  784TIP3    H2 2359   3.987   3.279   2.818  0.9617  1.0328 -0.2768
  785TIP3   OH2 2360   4.233   3.172   0.037 -0.2996 -0.4458  0.6739
  785TIP3    H1 2361   4.149   3.195   0.076 -0.5868 -0.9332  0.3514
  785TIP3    H2 2362   4.212   3.102  -0.025 -0.1065  1.2154 -1.3811
  786TIP3   OH2 2363   0.578   1.764   1.043 -0.0168  0.3334  0.2474
  786TIP3    H1 2364   0.577   1.675   1.077  1.3571 -0.4306 -1.5746
  786TIP3    H2 2365   0.628   1.814   1.108 -1.1978 -0.0607  1.5174
  787TIP3   OH2 2366   2.190   1.440   1.055 -0.7493 -0.1749 -0.2269
  787TIP3    H1 2367   2.227   1.528   1.055 -2.6870  0.6944 -0.1882
  787TIP3    H2 2368   2.256   1.386   1.012  0.4544  1.3019 -0.2997
  788TIP3   OH2 2369   5.610   0.228   4.238 -0.2465 -0.4668  0.2716
  788TIP3    H1 2370   5.517   0.226   4.217 -0.2569 -1.0906  0.3518
  788TIP3    H2 2371   5.643   0.308   4.196 -0.5358 -0.9811 -0.9740
  789TIP3   OH2 2372   5.335   1.192   4.366  0.1129  0.4707  0.0274
  789TIP3    H1 2373   5.250   1.165   4.400 -0.3387  2.2650  0.4268
  789TIP3    H2 2374   5.344   1.283   4.393  1.6133  0.7015 -1.1051
  790TIP3   OH2 2375   0.958   0.599   1.533 -0.0422 -0.2869 -0.3411
  790TIP3    H1 2376   0.930   0.511   1.509 -0.4557  0.1587 -1.5752
  790TIP3    H2 2377   1.048   0.605   1.502  0.5655 -0.8010  1.2093
  791TIP3   OH2 2378   3.829   4.657   3.419  0.5886 -0.5872  0.1008
  791TIP3    H1 2379   3.893   4.661   3.491  2.9180  0.2169 -1.8483
  791TIP3    H2 2380   3.848   4.574   3.375  1.2969  0.2807 -1.2993
  792TIP3   OH2 2381   0.418   1.359   2.675 -0.2646  0.2413 -0.9411
  792TIP3    H1 2382   0.356   1.333   2.744 -1.3211  0.3233 -1.8325
  792TIP3    H2 2383   0.455   1.441   2.706  0.2163 -0.3575  0.1082
  793TIP3   OH2 2384   2.007   2.968   1.904 -0.2007 -0.3538 -0.2117
  793TIP3    H1 2385   1.951   2.930   1.836 -0.2122 -0.3462 -0.2064
  793TIP3    H2 2386   1.951   2.970   1.982  0.3571 -2.0617  0.2938
  794TIP3   OH2 2387   2.111   5.535   4.799  0.4564 -0.0084  0.0635
  794TIP3    H1 2388   2.102   5.483   4.720  0.3731 -0.1210  0.1483
  794TIP3    H2 2389   2.190   5.500   4.841 -1.2783 -2.2003  1.7287
  795TIP3   OH2 2390   3.459   0.098   3.222 -0.4911 -0.4197  0.6695
  795TIP3    H1 2391   3.504   0.129   3.143 -2.5573  0.1164 -0.3747
  795TIP3    H2 2392   3.509   0.022   3.250  1.2167  0.3132 -0.2091
  796TIP3   OH2 2393   4.723   2.859   3.601  0.1611  0.2800 -0.1339
  796TIP3    H1 2394   4.695   2.887   3.688 -2.5340 -1.1427 -0.4479
  796TIP3    H2 2395   4.753   2.939   3.559 -0.4014  1.3505  1.4067
  797TIP3   OH2 2396   3.632   1.967   3.712 -1.0914 -0.3302  0.1665
  797TIP3    H1 2397   3.569   1.899   3.687 -0.8631 -0.4511 -0.0949
  797TIP3    H2 2398   3.711   1.944   3.663 -0.7065 -0.4327  0.8281
  798TIP3   OH2 2399   4.861   4.770   4.520 -0.0070 -0.6110  0.0807
  798TIP3    H1 2400   4.801   4.700   4.493  0.2917 -0.6669 -0.4521
  798TIP3    H2 2401   4.934   4.764   4.458 -1.4288  2.2295 -2.1409
  799TIP3   OH2 2402   5.703   0.613   1.928  0.1065 -0.5867 -0.0388
  799TIP3    H1 2403   5.618   0.572   1.911 -0.0046  0.3016 -1.9306
  799TIP3    H2 2404   5.745   0.616   1.842  1.9498 -0.7348  0.8086
  800TIP3   OH2 2405   3.310   4.861   2.842 -0.4610 -0.2186 -0.1387
  800TIP3    H1 2406   3.306   4.845   2.747  0.5713 -0.9890 -0.0716
  800TIP3    H2 2407   3.339   4.952   2.849 -0.7150 -0.0987 -0.5591
  801TIP3   OH2 2408   5.427   1.061   1.289 -0.0364  0.4394  0.1380
  801TIP3    H1 2409   5.361   1.044   1.356 -1.0295  0.7768 -0.7226
  801TIP3    H2 2410   5.452   1.153   1.303 -0.5499  0.6337 -0.2124
  802TIP3   OH2 2411   4.782   0.434   0.090  0.1116  0.3881  0.2267
  802TIP3    H1 2412   4.813   0.367   0.151 -0.0216 -1.7475 -1.9114
  802TIP3    H2 2413   4.862   0.467   0.048  0.0528  0.1723 -0.0631
  803TIP3   OH2 2414   6.125   0.674   0.332 -0.8283  0.3279 -0.5125
  803TIP3    H1 2415   6.044   0.666   0.282 -0.4196 -0.5832 -1.0660
  803TIP3    H2 2416   6.135   0.588   0.374 -0.1435  0.4236 -0.4721
  804TIP3   OH2 2417   3.209   0.048   4.611 -0.0732  0.0525  0.3457
  804TIP3    H1 2418   3.197   0.039   4.516  1.6024 -2.4580  0.2867
  804TIP3    H2 2419   3.281  -0.010   4.632  0.1784  1.1978  3.0903
  805TIP3   OH2 2420   5.033   2.508   2.742 -0.3452 -0.4724 -0.5709
  805TIP3    H1 2421   4.943   2.514   2.774 -0.7508  0.6223 -1.8091
  805TIP3    H2 2422   5.027   2.533   2.649  1.2422 -0.2767 -0.6472
  806TIP3   OH2 2423   2.449   1.096   3.819  0.1880  0.3643  0.3738
  806TIP3    H1 2424   2.447   1.076   3.913 -4.1811 -2.1612  0.0157
  806TIP3    H2 2425   2.440   1.191   3.814  2.1591  0.7413  2.4079
  807TIP3   OH2 2426   3.426   1.393   0.594 -0.0706  0.5872  0.0721
  807TIP3    H1 2427   3.398   1.302   0.582 -1.0151  0.6577  1.5069
  807TIP3    H2 2428   3.521   1.387   0.605  0.2945  0.1102 -2.6494
  808TIP3   OH2 2429   1.303   1.294   4.901 -0.6191  0.5689  0.6136
  808TIP3    H1 2430   1.372   1.355   4.876  0.7521 -0.3637  1.9654
  808TIP3    H2 2431   1.221   1.342   4.887  0.2021  1.3925 -1.9272
  809TIP3   OH2 2432   2.623   3.138   2.700  0.8971 -0.0519  0.4290
  809TIP3    H1 2433   2.558   3.087   2.750  2.4769 -0.4991  2.1557
  809TIP3    H2 2434   2.683   3.072   2.665  0.2912  0.3273 -1.4428
  810TIP3   OH2 2435   5.767   3.033   4.595  0.2366  0.3915 -0.0562
  810TIP3    H1 2436   5.683   2.988   4.596  0.8674 -0.8480  1.1909
  810TIP3    H2 2437   5.822   2.982   4.535  0.1424  1.1073 -0.7535
  811TIP3   OH2 2438   1.356   3.428   0.943  0.5462  0.6876  0.0388
  811TIP3    H1 2439   1.371   3.470   0.859 -1.5335 -1.1920 -1.3980
  811TIP3    H2 2440   1.429   3.368   0.954  1.3804  1.6898  0.1349
  812TIP3   OH2 2441   1.809   1.053   2.792  0.0817 -0.2628 -0.1726
  812TIP3    H1 2442   1.881   1.054   2.729  1.3693 -1.4281  1.1983
  812TIP3    H2 2443   1.849   1.020   2.873 -1.3613  1.6279  1.4189
  813TIP3   OH2 2444   5.789   1.047   1.432  0.4277  0.5372 -0.6350
  813TIP3    H1 2445   5.881   1.036   1.456 -0.5643 -0.7676  3.3612
  813TIP3    H2 2446   5.766   0.964   1.391  1.2613  1.3743 -2.9385
  814TIP3   OH2 2447   1.396   1.598   1.255 -0.1656  0.5226 -0.1678
  814TIP3    H1 2448   1.303   1.619   1.254 -0.2001  0.5438  1.2656
  814TIP3    H2 2449   1.412   1.554   1.171 -1.9432 -1.4438  0.4178
  815TIP3   OH2 2450   2.236   4.519   1.614  0.2948 -0.5671  0.3516
  815TIP3    H1 2451   2.296   4.593   1.616 -0.7739  0.3285  0.1758
  815TIP3    H2 2452   2.280   4.450   1.664  1.4666  0.0524  0.1975
  816TIP3   OH2 2453   5.086   5.426   0.987 -0.0492 -0.2776  0.2558
  816TIP3    H1 2454   5.136   5.358   1.033  0.1149 -0.1937  0.2045
  816TIP3    H2 2455   5.017   5.451   1.049  1.9818  2.0203  1.7925
  817TIP3   OH2 2456   1.525   0.443   4.424 -0.4630  0.0573  0.1645
  817TIP3    H1 2457   1.447   0.388   4.418  0.3402 -1.0696 -0.1790
  817TIP3    H2 2458   1.498   0.527   4.388 -1.5827 -0.2385  0.2797
  818TIP3   OH2 2459   3.201   5.498   3.294 -0.2465  0.3443 -0.0216
  818TIP3    H1 2460   3.227   5.406   3.299 -0.4242  0.1566 -1.8089
  818TIP3    H2 2461   3.281   5.547   3.313 -0.4574 -0.1086  2.3489
  819TIP3   OH2 2462   3.091   3.611   2.241  0.3223 -0.1971  0.4740
  819TIP3    H1 2463   3.077   3.518   2.261  0.4665  0.1122  2.1481
  819TIP3    H2 2464   3.180   3.614   2.205  1.0222 -0.5079  2.0969
  820TIP3   OH2 2465   3.922   0.503   4.745 -0.4080  0.2864  0.0481
  820TIP3    H1 2466   3.868   0.571   4.787  0.5115  0.3915  1.1231
  820TIP3    H2 2467   4.012   0.526   4.769 -0.1064 -1.6140  0.9162
  821TIP3   OH2 2468   3.118   0.414   0.461 -0.4614  0.2918 -0.0971
  821TIP3    H1 2469   3.028   0.419   0.494 -0.2330  0.3232  0.5355
  821TIP3    H2 2470   3.110   0.369   0.377 -0.7347 -2.5317  1.3233
  822TIP3   OH2 2471   4.383   1.964   4.861  0.1994 -0.8027 -0.1886
  822TIP3    H1 2472   4.404   2.006   4.778 -0.5747  2.6604  1.2198
  822TIP3    H2 2473   4.287   1.956   4.860  0.2787 -1.9248 -0.1191
  823TIP3   OH2 2474   3.975   3.568   3.806  0.3302  0.1788  0.0218
  823TIP3    H1 2475   3.898   3.608   3.848  0.3503  0.3347 -0.0874
  823TIP3    H2 2476   3.997   3.493   3.862 -1.5618 -1.5373 -1.3964
  824TIP3   OH2 2477   1.236   1.617   2.730  0.2199 -0.0217 -0.2237
  824TIP3    H1 2478   1.222   1.572   2.813 -0.6109  0.1542 -0.2614
  824TIP3    H2 2479   1.182   1.570   2.667  0.0274  0.4893 -0.4485
  825TIP3   OH2 2480   5.386   0.325   1.438  0.4051  0.0767 -0.5782
  825TIP3    H1 2481   5.413   0.241   1.400  0.6432 -0.3979  0.5989
  825TIP3    H2 2482   5.460   0.384   1.420  0.7106 -0.2636 -0.4563
  826TIP3   OH2 2483   3.543   2.691   3.597  0.2287  0.7926 -0.2919
  826TIP3    H1 2484   3.583   2.636   3.664  0.9668  2.3881  0.6412
  826TIP3    H2 2485   3.597   2.770   3.595  0.3335  0.7651 -2.9093
  827TIP3   OH2 2486   5.786   4.250   2.614 -0.1992  0.6517 -0.4788
  827TIP3    H1 2487   5.832   4.187   2.669 -0.0073  0.0730 -1.2871
  827TIP3    H2 2488   5.854   4.287   2.557 -0.7257 -0.4226 -1.8845
  828TIP3   OH2 2489   3.840   3.398   4.537 -0.0462 -0.1187  0.2096
  828TIP3    H1 2490   3.755   3.424   4.500 -0.2278 -1.8764 -0.7170
  828TIP3    H2 2491   3.818   3.346   4.614  0.2018 -0.5366 -0.0037
  829TIP3   OH2 2492   0.632   1.645   1.504 -0.3280  0.2381 -0.1827
  829TIP3    H1 2493   0.581   1.687   1.436  0.7699  2.2588  0.1571
  829TIP3    H2 2494   0.590   1.672   1.586 -0.2787 -0.2770  0.0168
  830TIP3   OH2 2495   0.036   4.612   4.141 -0.0059 -0.4788  0.0938
  830TIP3    H1 2496   0.091   4.545   4.183  0.7298 -1.0728 -1.7544
  830TIP3    H2 2497   0.060   4.609   4.049 -1.9040  0.4821 -0.4823
  831TIP3   OH2 2498   1.745   4.157   4.924 -0.5723  0.6267  0.0802
  831TIP3    H1 2499   1.664   4.122   4.963 -0.3281 -1.5151 -1.2076
  831TIP3    H2 2500   1.755   4.109   4.842  1.1992  1.9791 -0.5446
  832TIP3   OH2 2501   5.870   0.582   0.189 -0.4310  0.3297  0.3260
  832TIP3    H1 2502   5.877   0.494   0.226  1.6904  0.8468  1.2615
  832TIP3    H2 2503   5.887   0.571   0.096 -0.6222 -0.2838  0.3591
  833TIP3   OH2 2504   0.679   5.830   2.517  0.1773 -0.6011 -0.5049
  833TIP3    H1 2505   0.747   5.867   2.461 -0.4778 -1.7221 -2.1082
  833TIP3    H2 2506   0.699   5.736   2.521 -0.6241 -0.7662 -0.0858
  834TIP3   OH2 2507   2.888   3.602   1.911  0.2938 -0.7218 -0.5941
  834TIP3    H1 2508   2.821   3.564   1.854 -1.0196 -0.6820  0.8554
  834TIP3    H2 2509   2.839   3.639   1.984  1.7426  1.3959 -0.6115
  835TIP3   OH2 2510   0.170   1.629   0.368  0.0774  0.0321  0.1120
  835TIP3    H1 2511   0.119   1.703   0.401  0.3281 -0.2264  1.1118
  835TIP3    H2 2512   0.105   1.561   0.350 -0.3620  1.0098 -2.4195
  836TIP3   OH2 2513   2.663   0.962   3.655  0.2920 -0.4801  0.2392
  836TIP3    H1 2514   2.584   0.921   3.620  0.0852 -1.4649  1.7518
  836TIP3    H2 2515   2.632   1.040   3.700  0.4504  0.2879 -0.9572
  837TIP3   OH2 2516   4.346   2.976   3.965 -0.2601 -0.3105 -0.0641
  837TIP3    H1 2517   4.438   2.950   3.959 -0.3818 -0.5246 -1.2713
  837TIP3    H2 2518   4.334   3.036   3.891 -1.2256 -0.7287 -0.2576
  838TIP3   OH2 2519   0.388   3.437   1.344  0.5069 -0.7239  0.0950
  838TIP3    H1 2520   0.402   3.438   1.250  2.1348  0.4355  0.3159
  838TIP3    H2 2521   0.457   3.493   1.380 -0.2484 -0.8989  1.9558
  839TIP3   OH2 2522   2.038   2.687   3.907 -0.1837 -0.4472  0.3903
  839TIP3    H1 2523   1.956   2.655   3.945 -2.0268  3.9164  0.6502
  839TIP3    H2 2524   2.015   2.710   3.817  0.9834  0.1865  0.2363
  840TIP3   OH2 2525   6.161   0.423   0.417  0.7447  0.0204  0.1667
  840TIP3    H1 2526   6.245   0.382   0.393 -0.1697 -0.7864 -1.9507
  840TIP3    H2 2527   6.136   0.380   0.499  2.0858 -0.1898  0.4916
  841TIP3   OH2 2528   6.112   3.090   4.501 -0.0917 -0.0946 -0.3735
  841TIP3    H1 2529   6.177   3.020   4.495 -0.5684 -0.9568  2.7758
  841TIP3    H2 2530   6.030   3.050   4.471  0.1080 -0.1160 -0.8975
  842TIP3   OH2 2531   0.786   3.702   0.903  0.3234 -0.2154 -0.0056
  842TIP3    H1 2532   0.812   3.630   0.961  0.8451 -0.5056 -0.5809
  842TIP3    H2 2533   0.846   3.773   0.925  2.1113 -1.0743 -1.7357
  843TIP3   OH2 2534   3.795   2.899   4.864 -0.4066  0.8335  0.5847
  843TIP3    H1 2535   3.813   2.917   4.771  0.9175  1.5117  0.9394
  843TIP3    H2 2536   3.720   2.839   4.863 -2.2065  2.9261 -0.8488
  844TIP3   OH2 2537   3.426   1.180   3.867 -0.2356 -0.2792  0.0641
  844TIP3    H1 2538   3.515   1.154   3.893 -0.4271 -0.8224  0.1776
  844TIP3    H2 2539   3.372   1.159   3.944 -0.2100  1.5992  0.6543
  845TIP3   OH2 2540   0.873   1.563   0.352  0.1623  0.1675  0.2030
  845TIP3    H1 2541   0.852   1.473   0.375  0.0098  0.7150  2.4441
  845TIP3    H2 2542   0.937   1.591   0.417  0.2471  1.6752 -0.4650
  846TIP3   OH2 2543   4.716   0.846   2.266  0.5650  0.5859 -0.6967
  846TIP3    H1 2544   4.713   0.796   2.347 -0.6159  0.7571 -0.6263
  846TIP3    H2 2545   4.789   0.808   2.217  0.0681 -0.8028 -0.3879
  847TIP3   OH2 2546   6.316   3.256   2.022  0.0605  0.1810  0.0839
  847TIP3    H1 2547   6.353   3.336   1.985 -3.4402  1.2597 -1.4667
  847TIP3    H2 2548   6.265   3.285   2.097  0.2667 -0.8698  0.6482
  848TIP3   OH2 2549   1.527   0.244   2.653  0.2235  0.0697  0.5242
  848TIP3    H1 2550   1.486   0.161   2.631  0.7121  0.1270 -0.6520
  848TIP3    H2 2551   1.474   0.310   2.608  0.0260  0.3763  1.1906
  849TIP3   OH2 2552   4.668   4.211   0.070 -0.3941  0.0816  0.2243
  849TIP3    H1 2553   4.679   4.122   0.104 -1.7884 -0.4494 -0.6500
  849TIP3    H2 2554   4.733   4.218  -0.000  1.6665  0.7769  2.0624
  850TIP3   OH2 2555   0.946   3.211   4.488  0.1247  0.1779 -0.0372
  850TIP3    H1 2556   0.996   3.277   4.537 -0.0310  1.9041 -2.0446
  850TIP3    H2 2557   0.939   3.248   4.400 -1.7431 -1.6277 -0.7121
  851TIP3   OH2 2558   1.496   3.777   1.154  0.5561  0.2102 -0.2388
  851TIP3    H1 2559   1.444   3.697   1.165  1.8925 -0.6304  0.1299
  851TIP3    H2 2560   1.537   3.791   1.239  1.6225  0.3596 -0.7617
  852TIP3   OH2 2561   4.205   2.622   4.510 -0.1871  1.0526  0.3368
  852TIP3    H1 2562   4.192   2.587   4.599  1.3901 -0.7803 -0.0669
  852TIP3    H2 2563   4.204   2.717   4.521 -2.0802  0.9149  1.9579
  853TIP3   OH2 2564   3.455   5.855   4.270 -0.2496 -0.0791 -0.3688
  853TIP3    H1 2565   3.510   5.777   4.272  1.9120  1.3051  2.5996
  853TIP3    H2 2566   3.473   5.895   4.185  2.2311 -0.5024 -0.1226
  854TIP3   OH2 2567   2.888   0.701   1.817  0.5580 -0.1323 -0.2277
  854TIP3    H1 2568   2.921   0.612   1.833 -0.4764 -0.2281  1.6113
  854TIP3    H2 2569   2.846   0.696   1.731  0.3034 -1.5003 -0.0473
  855TIP3   OH2 2570   6.060   4.140   0.062  0.8260 -0.0407  0.0179
  855TIP3    H1 2571   6.038   4.048   0.068  0.0170 -0.0182 -1.8401
  855TIP3    H2 2572   6.145   4.142   0.017  0.1829  0.1298 -1.2320
  856TIP3   OH2 2573   5.316   3.425   0.513  0.3499 -0.1456 -0.3109
  856TIP3    H1 2574   5.307   3.458   0.603 -2.0350 -0.7591 -0.2475
  856TIP3    H2 2575   5.278   3.337   0.516  2.5505 -1.2171 -1.4217
  857TIP3   OH2 2576   0.101   3.344   3.225 -0.2394 -0.1146  0.4669
  857TIP3    H1 2577   0.126   3.261   3.264 -0.6050 -0.5859 -0.2787
  857TIP3    H2 2578   0.010   3.332   3.199  0.5162 -0.5159 -2.2791
  858TIP3   OH2 2579   4.340   4.743   4.528  0.5262  0.2527  0.7402
  858TIP3    H1 2580   4.323   4.798   4.451  1.7331  0.9433  0.9430
  858TIP3    H2 2581   4.432   4.758   4.548  0.5254 -0.8250  1.6267
  859TIP3   OH2 2582   3.221   1.864   4.012 -0.3184 -0.2839  0.1773
  859TIP3    H1 2583   3.129   1.855   3.986 -0.0314 -2.5382 -0.1933
  859TIP3    H2 2584   3.238   1.958   4.003 -2.5968  0.2196  0.3640
  860TIP3   OH2 2585   2.614   4.188   3.052  0.4350 -0.1594 -0.4198
  860TIP3    H1 2586   2.569   4.104   3.065 -0.1093 -0.1321 -1.9118
  860TIP3    H2 2587   2.544   4.252   3.047  0.8884  0.5878  1.7216
  861TIP3   OH2 2588   3.490   0.195   2.072 -0.3888 -0.8731  0.0861
  861TIP3    H1 2589   3.414   0.145   2.043 -0.0916  0.1238 -2.6304
  861TIP3    H2 2590   3.564   0.135   2.062 -0.2946 -0.5512 -1.2851
  862TIP3   OH2 2591   4.947   2.793   2.669  0.4215  0.0535 -0.0626
  862TIP3    H1 2592   4.865   2.785   2.621  0.0923  2.6623 -0.0492
  862TIP3    H2 2593   5.010   2.825   2.605  0.3523  2.0859  0.8179
  863TIP3   OH2 2594   0.563   2.738   4.627  0.1788  0.5091  0.1028
  863TIP3    H1 2595   0.472   2.743   4.596  0.1666 -1.3930 -0.2719
  863TIP3    H2 2596   0.614   2.780   4.558 -0.3109  0.6236 -0.1959
  864TIP3   OH2 2597   0.872   3.997   2.516  0.2995  0.6051  0.4499
  864TIP3    H1 2598   0.820   3.944   2.576  1.1339 -0.4291  0.2808
  864TIP3    H2 2599   0.961   3.995   2.552  0.3565  1.8871  0.4358
  865TIP3   OH2 2600   5.028   4.116   0.004 -0.1496 -0.7665 -0.3373
  865TIP3    H1 2601   5.090   4.047   0.028  1.2902  0.1159 -1.3339
  865TIP3    H2 2602   5.018   4.169   0.083 -0.5286 -1.5639  0.1558
  866TIP3   OH2 2603   6.164   5.027   2.483  0.2413 -0.1610  0.2504
  866TIP3    H1 2604   6.234   5.091   2.474  1.6384 -1.4881  1.2453
  866TIP3    H2 2605   6.208   4.942   2.484 -1.5685 -1.2332 -1.4103
  867TIP3   OH2 2606   1.739   0.694   0.830  0.3515  0.6829  0.0235
  867TIP3    H1 2607   1.732   0.758   0.901 -1.4097 -0.2890  0.7567
  867TIP3    H2 2608   1.656   0.699   0.784 -0.1068 -1.5256  0.5022
  868TIP3   OH2 2609   2.660   5.581   3.950  0.2241 -0.4748  0.5277
  868TIP3    H1 2610   2.572   5.553   3.975  0.0886 -0.0148  0.5733
  868TIP3    H2 2611   2.683   5.524   3.877 -0.7549  0.4817 -0.5519
  869TIP3   OH2 2612   3.616   5.896   0.688 -0.3211  0.5294 -0.0344
  869TIP3    H1 2613   3.635   5.804   0.707  1.0526  1.0033  1.0729
  869TIP3    H2 2614   3.532   5.913   0.730 -0.3116 -0.0888  0.2376
  870TIP3   OH2 2615   5.183   3.052   1.865 -0.5320 -0.6654  0.4636
  870TIP3    H1 2616   5.236   3.008   1.798 -3.3357  0.7980 -3.1000
  870TIP3    H2 2617   5.229   3.135   1.880 -1.1701  0.2320 -1.9506
  871TIP3   OH2 2618   1.038   0.355   2.069 -0.7015 -0.0125 -0.2889
  871TIP3    H1 2619   0.966   0.317   2.019 -0.3519  0.8480 -1.4928
  871TIP3    H2 2620   1.106   0.373   2.004 -0.8246  2.5792  0.1891
  872TIP3   OH2 2621   1.843   3.429   1.437  0.6418  0.3525  0.5763
  872TIP3    H1 2622   1.836   3.409   1.530  0.6103 -1.5012  0.2073
  872TIP3    H2 2623   1.754   3.454   1.411  0.4278 -0.1412  0.8264
  873TIP3   OH2 2624   2.969   1.012   2.027  0.2619 -0.3683 -0.0611
  873TIP3    H1 2625   2.939   0.923   2.047 -1.5152  0.5654  1.7693
  873TIP3    H2 2626   2.889   1.065   2.027  1.4934  1.6020  1.0551
  874TIP3   OH2 2627   5.721   2.296   2.698  0.0596 -0.0952 -0.5019
  874TIP3    H1 2628   5.781   2.276   2.626 -1.7697  0.1884 -2.1764
  874TIP3    H2 2629   5.766   2.365   2.748  0.9290  0.4538 -1.9809
  875TIP3   OH2 2630   1.106   2.668   1.528  0.2380  0.4393  0.2892
  875TIP3    H1 2631   1.018   2.632   1.524  0.5040 -0.3977  1.5094
  875TIP3    H2 2632   1.126   2.673   1.622  1.3099  1.0651  0.0443
  876TIP3   OH2 2633   5.227   3.001   1.508 -0.0561  0.1107  0.2838
  876TIP3    H1 2634   5.268   2.926   1.552  0.1940  0.3528  0.4657
  876TIP3    H2 2635   5.243   2.987   1.415 -1.0281 -0.6739  0.2157
  877TIP3   OH2 2636   4.874   2.674   1.944 -0.6890  0.1765  0.1252
  877TIP3    H1 2637   4.964   2.647   1.923 -1.0197 -0.4242 -0.5429
  877TIP3    H2 2638   4.823   2.652   1.866 -1.4837  0.2197  0.6210
  878TIP3   OH2 2639   1.645   1.960   2.048 -0.0215 -0.1325 -0.3365
  878TIP3    H1 2640   1.618   1.868   2.046  1.0958 -0.5344  1.0439
  878TIP3    H2 2641   1.702   1.970   1.972  1.0046 -0.9907  0.2967
  879TIP3   OH2 2642   2.183   3.057   0.733  0.6502 -0.1942  0.1982
  879TIP3    H1 2643   2.227   3.135   0.765  1.5450 -0.6732  0.1479
  879TIP3    H2 2644   2.214   3.048   0.643 -0.2559 -0.0282 -0.1460
  880TIP3   OH2 2645   6.080   0.046   4.161 -0.4111  0.3587 -0.0856
  880TIP3    H1 2646   6.052  -0.019   4.225  0.4353 -0.1109 -0.1875
  880TIP3    H2 2647   6.085   0.128   4.211 -1.1422  0.2928  0.1146
  881TIP3   OH2 2648   4.826   5.698   2.247  0.2039  0.5778  0.0200
  881TIP3    H1 2649   4.916   5.678   2.224  0.8647  1.1914  1.8735
  881TIP3    H2 2650   4.833   5.769   2.311 -1.4928 -0.3662  1.3512
  882TIP3   OH2 2651   2.411   4.524   0.292  0.7000 -0.0851 -0.6829
  882TIP3    H1 2652   2.405   4.612   0.331  0.6392  0.4594 -1.8959
  882TIP3    H2 2653   2.489   4.486   0.333 -0.8210 -0.5875  2.0001
  883TIP3   OH2 2654   6.246   5.294   2.965 -0.0932 -0.7966  0.2179
  883TIP3    H1 2655   6.283   5.242   3.035  1.6009  0.9428  0.6946
  883TIP3    H2 2656   6.214   5.373   3.008 -1.8683 -1.0318 -0.5841
  884TIP3   OH2 2657   3.827   0.932   0.038 -0.5958 -0.4503 -0.3245
  884TIP3    H1 2658   3.841   0.870   0.110 -1.2978  0.0083  0.2175
  884TIP3    H2 2659   3.912   0.977   0.028 -0.5748 -0.3178  0.4101
  885TIP3   OH2 2660   2.197   0.801   4.514  0.4119 -0.0255 -0.2549
  885TIP3    H1 2661   2.226   0.841   4.432  0.5614  0.7260  0.1560
  885TIP3    H2 2662   2.172   0.711   4.489  0.2948  0.2384 -1.1475
  886TIP3   OH2 2663   2.740   4.921   3.102 -0.3759 -0.1615  0.1354
  886TIP3    H1 2664   2.722   4.830   3.081  1.1529 -0.0110 -2.2038
  886TIP3    H2 2665   2.666   4.948   3.157  0.2823 -3.3848  2.9205
  887TIP3   OH2 2666   1.321   2.785   3.090 -0.0219 -0.4835 -0.3070
  887TIP3    H1 2667   1.261   2.826   3.152  1.4587 -0.3818  1.1165
  887TIP3    H2 2668   1.407   2.816   3.115  0.7165 -1.1149 -1.9133
  888TIP3   OH2 2669   5.415   4.733   3.336 -0.3143 -0.1018  0.2596
  888TIP3    H1 2670   5.345   4.755   3.397 -0.1921 -0.1693  0.4248
  888TIP3    H2 2671   5.401   4.641   3.315  0.7510 -0.6208  1.6664
  889TIP3   OH2 2672   3.621   4.035   2.727  0.0219  0.1623 -0.2604
  889TIP3    H1 2673   3.535   4.003   2.753 -0.0306  0.4129 -0.1220
  889TIP3    H2 2674   3.650   3.974   2.659 -0.3738  0.2315 -0.4938
  890TIP3   OH2 2675   4.095   5.901   3.814  0.0197 -0.4602  0.0983
  890TIP3    H1 2676   4.056   5.977   3.858  0.5853 -0.9994  1.5977
  890TIP3    H2 2677   4.096   5.925   3.721 -0.8434  0.8928  0.4039
  891TIP3   OH2 2678   2.892   1.314   3.870 -0.0219  0.1609 -0.0715
  891TIP3    H1 2679   2.817   1.285   3.922 -1.0204  1.4273 -0.7227
  891TIP3    H2 2680   2.917   1.398   3.908  3.3418 -1.6755  2.3114
  892TIP3   OH2 2681   4.907   1.991   1.684 -0.1538 -0.1994 -0.2159
  892TIP3    H1 2682   4.913   2.000   1.589  2.6961  0.6978 -0.0621
  892TIP3    H2 2683   4.897   2.081   1.716 -0.9466 -0.4788  0.3444
  893TIP3   OH2 2684   2.774   0.234   0.456 -0.0894  0.2200 -0.0508
  893TIP3    H1 2685   2.696   0.182   0.437 -0.1586 -0.2817  1.5298
  893TIP3    H2 2686   2.799   0.210   0.545  1.7892  0.4985 -0.4638
  894TIP3   OH2 2687   2.337   5.153   2.081 -0.4545  0.7256 -0.1056
  894TIP3    H1 2688   2.336   5.125   1.990  0.1409  1.4583 -0.3407
  894TIP3    H2 2689   2.307   5.244   2.079 -0.5204  0.7217  0.4435
  895TIP3   OH2 2690   2.663   4.075   3.635  0.5459  0.0717 -0.1250
  895TIP3    H1 2691   2.723   4.090   3.708  0.6138  1.3064 -0.4023
  895TIP3    H2 2692   2.648   4.163   3.598  0.9346 -0.5819 -1.9235
  896TIP3   OH2 2693   1.518   5.274   2.539 -0.4695 -0.1838  0.5871
  896TIP3    H1 2694   1.475   5.243   2.618  0.0440 -1.4984  0.3677
  896TIP3    H2 2695   1.541   5.365   2.558 -2.6972  0.3394  0.9544
  897TIP3   OH2 2696   5.806   0.343   1.200 -0.1482 -0.3721 -0.0280
  897TIP3    H1 2697   5.776   0.433   1.212  0.6485 -0.0929 -0.1008
  897TIP3    H2 2698   5.874   0.331   1.266 -0.0187 -0.8126 -0.2409
  898TIP3   OH2 2699   5.638   4.277   5.044 -0.1733 -0.1182 -0.3972
  898TIP3    H1 2700   5.649   4.297   4.951 -1.2316  1.1087 -0.2914
  898TIP3    H2 2701   5.711   4.321   5.087  0.0589 -0.2984 -0.6058
  899TIP3   OH2 2702   0.405   3.307   0.602  0.3355 -0.2593  0.4045
  899TIP3    H1 2703   0.392   3.291   0.509  0.7185  0.7475  0.1677
  899TIP3    H2 2704   0.484   3.257   0.624  0.1955 -0.5681  0.2170
  900TIP3   OH2 2705   5.593   3.319   4.056 -0.0942  0.1005  0.0769
  900TIP3    H1 2706   5.669   3.358   4.013 -0.9480  0.7333 -0.9226
  900TIP3    H2 2707   5.528   3.312   3.986 -0.7252 -1.0517  0.7667
  901TIP3   OH2 2708   3.201   1.371   5.081 -0.1435 -0.7081 -0.1897
  901TIP3    H1 2709   3.173   1.376   4.989 -3.2716  0.0722  0.6776
  901TIP3    H2 2710   3.207   1.277   5.098 -0.1485 -0.8793 -1.0390
  902TIP3   OH2 2711   1.251   2.914   0.832  0.1106  0.0125  0.0636
  902TIP3    H1 2712   1.247   2.819   0.832  0.2944  0.0051  0.0468
  902TIP3    H2 2713   1.263   2.938   0.740 -1.2418  0.1092 -0.1115
  903TIP3   OH2 2714   0.287   0.516   0.543 -0.1883 -0.2856 -0.7707
  903TIP3    H1 2715   0.299   0.606   0.572  0.4098 -0.4818 -0.3850
  903TIP3    H2 2716   0.361   0.468   0.582 -2.0298 -1.5183  1.4737
  904TIP3   OH2 2717   2.392   1.595   4.187 -0.4699 -0.1996 -0.2660
  904TIP3    H1 2718   2.458   1.602   4.119  0.0764 -0.0368  0.2716
  904TIP3    H2 2719   2.403   1.674   4.240 -1.0480 -0.2048 -0.1349
  905TIP3   OH2 2720   5.707   4.520   0.637 -0.0420  0.1964  0.1979
  905TIP3    H1 2721   5.774   4.515   0.706  0.5188  0.1889 -0.3340
  905TIP3    H2 2722   5.751   4.565   0.565 -0.0048 -1.4017 -0.8285
  906TIP3   OH2 2723   3.317   3.350   1.775  0.0605 -0.4401 -0.2811
  906TIP3    H1 2724   3.258   3.418   1.806  1.1497  0.2395  0.4048
  906TIP3    H2 2725   3.374   3.331   1.850 -0.1727 -2.0788 -0.4661
  907TIP3   OH2 2726   1.461   2.964   4.546  0.5103  0.0963  0.5907
  907TIP3    H1 2727   1.449   3.000   4.634 -0.0888 -0.3172  0.6852
  907TIP3    H2 2728   1.549   2.926   4.547  2.2009  3.5288 -0.2278
  908TIP3   OH2 2729   0.842   4.829   0.877 -0.7022  0.1920  0.3615
  908TIP3    H1 2730   0.748   4.846   0.885 -1.0227 -0.3293 -1.6689
  908TIP3    H2 2731   0.873   4.894   0.813  0.1762 -0.0825  0.4912
  909TIP3   OH2 2732   1.527   2.486   1.775 -0.2478  0.2047 -0.0676
  909TIP3    H1 2733   1.568   2.405   1.804  0.7071  0.5961 -0.2996
  909TIP3    H2 2734   1.437   2.460   1.753  0.0291 -0.7848 -0.1062
  910TIP3   OH2 2735   1.097   4.845   5.163  0.1106  0.1027  0.1548
  910TIP3    H1 2736   1.143   4.768   5.128  1.3509  1.5258 -1.4877
  910TIP3    H2 2737   1.061   4.815   5.246 -0.8996 -2.7719 -1.1727
  911TIP3   OH2 2738   5.072   2.971   0.876  0.4819  0.6939 -0.5119
  911TIP3    H1 2739   5.090   3.029   0.950  3.3743 -1.6239  0.7989
  911TIP3    H2 2740   4.999   2.917   0.906  0.2723  1.1224 -0.2312
  912TIP3   OH2 2741   3.479   4.044   3.380  0.0641  0.6361 -0.1925
  912TIP3    H1 2742   3.400   4.091   3.407  0.6417  1.0277  0.8888
  912TIP3    H2 2743   3.494   4.073   3.290 -1.4554 -0.0642 -0.7058
  913TIP3   OH2 2744   6.320   4.645   5.159  0.0987  0.3118 -0.0570
  913TIP3    H1 2745   6.263   4.568   5.160  0.5527 -0.0350  0.8616
  913TIP3    H2 2746   6.263   4.718   5.135 -0.7796  0.0055  1.0281
  914TIP3   OH2 2747   2.608   4.471   0.720 -0.2306  0.5326 -0.9430
  914TIP3    H1 2748   2.615   4.387   0.675  0.3837  0.4960 -0.7902
  914TIP3    H2 2749   2.692   4.513   0.706 -0.3509  0.9043 -0.5803
  915TIP3   OH2 2750   2.082   0.385   1.229  0.2799 -0.2724  0.3075
  915TIP3    H1 2751   2.095   0.389   1.324  2.0129 -0.9387  0.1256
  915TIP3    H2 2752   2.169   0.402   1.192 -0.6600  1.6208 -1.2209
  916TIP3   OH2 2753   5.948   0.827   4.569  0.7440 -0.3590 -0.0736
  916TIP3    H1 2754   5.869   0.860   4.611  0.8421 -0.6035  0.3051
  916TIP3    H2 2755   5.916   0.769   4.500  0.5643  0.5880 -0.8191
  917TIP3   OH2 2756   3.683   3.430   2.870 -0.1554 -0.0635 -0.7703
  917TIP3    H1 2757   3.628   3.359   2.903  1.2602 -1.0702 -0.4948
  917TIP3    H2 2758   3.758   3.386   2.830  0.9262  1.2827 -0.3026
  918TIP3   OH2 2759   0.847   1.919   3.315  0.5026 -0.6757 -0.5716
  918TIP3    H1 2760   0.914   1.870   3.363  0.5407  0.8036  0.9849
  918TIP3    H2 2761   0.772   1.920   3.375  0.5808  1.3166 -0.4506
  919TIP3   OH2 2762   1.665   4.981   2.909 -0.0826  0.2220  0.0696
  919TIP3    H1 2763   1.611   4.917   2.863  1.4721 -0.0741 -1.4112
  919TIP3    H2 2764   1.603   5.051   2.932 -0.9343  0.5143 -2.7014
  920TIP3   OH2 2765   3.999   5.817   1.160  0.1685  0.2689 -0.0448
  920TIP3    H1 2766   4.091   5.799   1.141 -0.4893  0.1053 -3.6221
  920TIP3    H2 2767   3.981   5.899   1.114 -1.7708 -0.3143 -0.3923
  921TIP3   OH2 2768   6.078   3.408   3.418 -0.5221 -0.2466 -0.0695
  921TIP3    H1 2769   6.018   3.417   3.492 -1.4744 -1.4643 -0.6566
  921TIP3    H2 2770   6.064   3.318   3.386  1.4279 -0.4788 -0.3975
  922TIP3   OH2 2771   1.203   3.971   3.970  0.2641  0.0361  0.2667
  922TIP3    H1 2772   1.158   4.055   3.963  0.7554  0.3580  0.8938
  922TIP3    H2 2773   1.194   3.932   3.883 -0.2848  0.5714  0.0760
  923TIP3   OH2 2774   5.121   5.121   2.090  0.6127  0.1143  0.2456
  923TIP3    H1 2775   5.206   5.082   2.070  0.4260 -0.7761  1.1139
  923TIP3    H2 2776   5.140   5.212   2.111  1.3969 -0.1555  0.7235
  924TIP3   OH2 2777   6.196   4.383   1.772 -0.1767 -0.1625 -0.4228
  924TIP3    H1 2778   6.170   4.331   1.695  0.0658 -0.7117 -0.1382
  924TIP3    H2 2779   6.147   4.344   1.845  0.6944 -0.5757 -0.0534
  925TIP3   OH2 2780   3.534   0.173   0.631 -0.4061  0.6446  0.2926
  925TIP3    H1 2781   3.453   0.159   0.582 -1.0017  1.8162  0.9178
  925TIP3    H2 2782   3.506   0.206   0.716  0.6787 -0.1016  0.9769
  926TIP3   OH2 2783   6.181   3.286   0.292 -0.4150 -0.1501 -0.1612
  926TIP3    H1 2784   6.207   3.365   0.244  0.9835 -0.3298  0.2653
  926TIP3    H2 2785   6.124   3.318   0.362  0.8970  0.6129  0.5844
  927TIP3   OH2 2786   2.629   2.250   5.015 -0.5756 -0.7388  0.4767
  927TIP3    H1 2787   2.611   2.335   5.056  0.3571 -0.0512 -0.4797
  927TIP3    H2 2788   2.543   2.217   4.988 -0.8308  0.6320 -0.5046
  928TIP3   OH2 2789   2.169   0.881   3.388  0.3930  0.6365 -0.6310
  928TIP3    H1 2790   2.217   0.917   3.313  0.3522 -0.9174 -1.4459
  928TIP3    H2 2791   2.224   0.809   3.419  0.6746  1.5940  1.2178
  929TIP3   OH2 2792   4.995   0.694   0.858 -0.2528  0.2792  0.5968
  929TIP3    H1 2793   5.012   0.601   0.866  0.3011  0.3536  0.3123
  929TIP3    H2 2794   4.918   0.700   0.801  1.0972  0.0611 -1.3389
  930TIP3   OH2 2795   5.287   0.663   2.129  0.0218  0.0400  0.5099
  930TIP3    H1 2796   5.277   0.647   2.223 -0.6313  0.3244  0.4962
  930TIP3    H2 2797   5.327   0.584   2.095 -1.5989 -0.9095  0.7018
  931TIP3   OH2 2798   3.269   5.610   0.201 -0.0912 -0.2038 -0.4053
  931TIP3    H1 2799   3.336   5.663   0.245  0.3201 -1.1402  0.1214
  931TIP3    H2 2800   3.197   5.672   0.184  0.7294  0.7211 -0.6049
  932TIP3   OH2 2801   5.263   0.610   4.663 -0.3441  0.5938 -0.7591
  932TIP3    H1 2802   5.208   0.580   4.591  0.2398 -1.3805 -0.4474
  932TIP3    H2 2803   5.202   0.635   4.732 -0.8752  1.3862 -1.4913
  933TIP3   OH2 2804   0.249   0.306   3.519  0.1904  0.0790  0.3011
  933TIP3    H1 2805   0.281   0.300   3.609 -2.0740  0.0369  1.1893
  933TIP3    H2 2806   0.166   0.354   3.527 -0.6892 -1.0140 -1.5677
  934TIP3   OH2 2807   2.933   4.849   1.136  0.1059  0.2590  0.2864
  934TIP3    H1 2808   2.975   4.935   1.128  0.9186 -0.1925 -0.5947
  934TIP3    H2 2809   2.854   4.866   1.187 -1.3510  2.1101 -2.3235
  935TIP3   OH2 2810   1.368   5.234   0.749 -0.0606 -0.3970  0.1105
  935TIP3    H1 2811   1.322   5.201   0.826 -0.2214  0.0616  0.2130
  935TIP3    H2 2812   1.415   5.311   0.781 -0.7199  0.2322 -0.4088
  936TIP3   OH2 2813   3.376   3.679   3.468  0.0715  0.5029  0.4630
  936TIP3    H1 2814   3.318   3.603   3.458  1.7452 -0.6941 -0.5606
  936TIP3    H2 2815   3.464   3.643   3.462  0.9200  2.5470 -0.1313
  937TIP3   OH2 2816   3.130   1.011   2.303 -0.7489 -0.2232  0.3110
  937TIP3    H1 2817   3.087   1.036   2.222  2.0102  1.7098 -0.7198
  937TIP3    H2 2818   3.102   0.921   2.319 -3.1255  0.0950 -1.4975
  938TIP3   OH2 2819   0.750   0.216   2.260 -0.3127 -0.2810 -0.1372
  938TIP3    H1 2820   0.828   0.244   2.309 -1.8505  1.1915  1.6513
  938TIP3    H2 2821   0.768   0.241   2.170  1.1847  0.2948  0.2920
  939TIP3   OH2 2822   2.426   5.281   0.900  0.0223 -0.3947 -0.1905
  939TIP3    H1 2823   2.518   5.306   0.904 -0.5328  1.7492  2.3426
  939TIP3    H2 2824   2.423   5.195   0.942  0.9155 -0.6860 -0.6970
  940TIP3   OH2 2825   0.765   0.278   0.597  0.0098 -0.0052  0.5608
  940TIP3    H1 2826   0.748   0.326   0.516  1.8317  0.7107  0.5753
  940TIP3    H2 2827   0.860   0.270   0.601 -0.1404 -1.7373  1.6639
  941TIP3   OH2 2828   0.628   0.339   0.837 -0.1506 -0.8185  0.1522
  941TIP3    H1 2829   0.682   0.315   0.761  0.6470 -0.7757  0.6878
  941TIP3    H2 2830   0.685   0.323   0.912 -0.4582  0.3907  0.6651
  942TIP3   OH2 2831   1.680   2.070   4.710  0.1273 -0.6030 -0.2047
  942TIP3    H1 2832   1.655   2.108   4.626 -0.7376 -1.2569 -0.2566
  942TIP3    H2 2833   1.776   2.065   4.707  0.1098 -0.4886 -1.0959
  943TIP3   OH2 2834   5.345   2.055   3.842 -0.3707 -0.2003  0.1977
  943TIP3    H1 2835   5.331   2.147   3.861  0.5509 -0.0087  0.0313
  943TIP3    H2 2836   5.415   2.028   3.902 -0.3865 -0.6876  0.0044
  944TIP3   OH2 2837   2.376   3.460   0.719 -0.2123 -0.0558  0.3894
  944TIP3    H1 2838   2.378   3.536   0.661 -2.0871 -0.0780  0.2316
  944TIP3    H2 2839   2.378   3.497   0.808 -1.3986  0.2262  0.3171
  945TIP3   OH2 2840   5.653   2.888   0.646  0.2928 -0.4036 -0.1216
  945TIP3    H1 2841   5.584   2.912   0.708  0.7365 -1.9238  1.0051
  945TIP3    H2 2842   5.734   2.895   0.696  1.1495  2.1740 -1.6461
  946TIP3   OH2 2843   1.641   3.116   1.885  0.2429 -0.3958 -0.2913
  946TIP3    H1 2844   1.708   3.049   1.881  0.4318 -0.1670 -2.9394
  946TIP3    H2 2845   1.562   3.070   1.913  1.2870 -0.7819  2.2513
  947TIP3   OH2 2846   3.813   1.438   1.393  0.0722 -0.1145  0.1678
  947TIP3    H1 2847   3.731   1.389   1.393 -0.2728  0.4628 -0.3785
  947TIP3    H2 2848   3.834   1.449   1.486 -1.6905  1.7394  0.4220
  948TIP3   OH2 2849   0.104   1.120   4.201 -0.5361  0.1166  0.0137
  948TIP3    H1 2850   0.066   1.066   4.131  0.1053 -0.5686  0.1775
  948TIP3    H2 2851   0.096   1.210   4.169 -1.5470 -0.0687 -0.3057
  949TIP3   OH2 2852   5.824   5.821   0.815 -0.1271  0.0380 -0.1970
  949TIP3    H1 2853   5.798   5.913   0.804 -0.5378  0.0871  1.0265
  949TIP3    H2 2854   5.810   5.782   0.729 -0.5430  0.9782 -0.5748
  950TIP3   OH2 2855   1.315   4.551   0.315 -0.2883 -0.1848 -0.5460
  950TIP3    H1 2856   1.228   4.513   0.323 -0.2359  0.0868  1.9328
  950TIP3    H2 2857   1.300   4.638   0.277 -1.1591  0.0744  0.3589
  951TIP3   OH2 2858   0.743   0.738   1.452  0.7224 -0.0735 -0.4324
  951TIP3    H1 2859   0.707   0.672   1.392  0.6715 -0.8550  0.4394
  951TIP3    H2 2860   0.813   0.692   1.498  0.8579  0.5688  0.0122
  952TIP3   OH2 2861   6.195   0.792   2.726 -0.4929  0.4064 -0.0212
  952TIP3    H1 2862   6.230   0.878   2.704  1.9611 -0.8981 -1.6376
  952TIP3    H2 2863   6.196   0.790   2.822  1.8538  1.2879  0.0365
  953TIP3   OH2 2864   0.230   3.123   4.686 -0.0790 -0.5103 -0.3336
  953TIP3    H1 2865   0.143   3.117   4.646  0.2493 -2.9933 -0.8486
  953TIP3    H2 2866   0.227   3.061   4.759  1.2140 -0.6020 -0.3295
  954TIP3   OH2 2867   1.207   1.951   4.915 -0.1849 -0.0243 -0.9298
  954TIP3    H1 2868   1.132   1.981   4.863 -0.7762 -1.0119 -0.6702
  954TIP3    H2 2869   1.196   1.856   4.920 -0.3085  0.0436  1.2228
  955TIP3   OH2 2870   5.729   1.109   3.746  0.1484 -0.2439 -0.4424
  955TIP3    H1 2871   5.685   1.094   3.830  1.3150  0.7536  0.3798
  955TIP3    H2 2872   5.793   1.039   3.739  1.2053  0.6018  0.3423
  956TIP3   OH2 2873   2.101   3.249   3.288 -0.2069 -0.1948 -0.1628
  956TIP3    H1 2874   2.101   3.215   3.378 -0.0292 -0.3696 -0.2275
  956TIP3    H2 2875   2.047   3.328   3.292 -2.1245 -1.4035 -0.3487
  957TIP3   OH2 2876   3.483   4.345   3.742 -0.4120 -0.6875  0.2560
  957TIP3    H1 2877   3.458   4.438   3.740 -0.1498 -0.6148 -1.2923
  957TIP3    H2 2878   3.509   4.329   3.833  0.4410  1.0119  0.3517
  958TIP3   OH2 2879   1.495   1.841   3.007 -0.2317  0.0783  0.7471
  958TIP3    H1 2880   1.431   1.779   3.043  1.0356 -1.4241  0.5073
  958TIP3    H2 2881   1.578   1.817   3.048  0.3296  1.5209  0.5118
  959TIP3   OH2 2882   0.355   4.991   2.456 -0.4870 -0.8204  0.3586
  959TIP3    H1 2883   0.260   4.985   2.462 -0.7016  1.4356 -0.1905
  959TIP3    H2 2884   0.377   5.078   2.489  1.5676 -1.8329  1.9372
  960TIP3   OH2 2885   0.082   3.210   1.580 -0.2459 -0.1241  0.5949
  960TIP3    H1 2886   0.109   3.134   1.632 -1.9326 -1.7740 -0.8148
  960TIP3    H2 2887   0.081   3.179   1.490  0.8062  2.1425 -0.2677
  961TIP3   OH2 2888   6.223   1.423   2.851 -0.1361 -0.3766  0.0651
  961TIP3    H1 2889   6.281   1.438   2.776  3.4876  1.4732  2.8931
  961TIP3    H2 2890   6.167   1.500   2.854  0.5745  0.1503 -0.0304
  962TIP3   OH2 2891   5.899   1.200   4.173 -0.0357 -0.7595 -0.1769
  962TIP3    H1 2892   5.966   1.205   4.240 -0.1514  0.3651 -0.1244
  962TIP3    H2 2893   5.945   1.166   4.096  1.0224  1.4973 -0.6211
  963TIP3   OH2 2894   4.286   3.191   0.773 -0.2407 -0.5258 -0.1680
  963TIP3    H1 2895   4.213   3.252   0.780  1.9642  2.2156  0.5690
  963TIP3    H2 2896   4.318   3.202   0.683  0.5725 -0.0682  0.1676
  964TIP3   OH2 2897   5.508   5.654   2.908  0.0176 -0.8127  0.1027
  964TIP3    H1 2898   5.601   5.640   2.923  0.3112  0.7620 -0.0871
  964TIP3    H2 2899   5.466   5.632   2.991  0.6199 -0.9720  0.3667
  965TIP3   OH2 2900   3.316   1.690   3.277 -0.1926 -0.3482 -0.0568
  965TIP3    H1 2901   3.280   1.602   3.291  0.2101 -0.4125  0.6006
  965TIP3    H2 2902   3.291   1.712   3.187 -1.7917 -0.4359  0.3308
  966TIP3   OH2 2903   4.286   0.678   3.434 -0.1236  0.1506 -0.0971
  966TIP3    H1 2904   4.349   0.732   3.386  1.1101  0.1710  1.4912
  966TIP3    H2 2905   4.337   0.635   3.502 -1.6175 -0.7915  0.4846
  967TIP3   OH2 2906   0.736   1.905   1.638 -0.5574 -0.3168  0.1749
  967TIP3    H1 2907   0.742   1.996   1.611 -0.6347 -0.8682 -1.8332
  967TIP3    H2 2908   0.643   1.883   1.630 -0.4513 -0.7355  0.0469
  968TIP3   OH2 2909   1.582   2.624   4.502  0.2219 -0.3863 -0.1871
  968TIP3    H1 2910   1.539   2.540   4.519  0.3467 -0.1265  1.6652
  968TIP3    H2 2911   1.569   2.674   4.583  0.4281  1.2692 -1.1237
  969TIP3   OH2 2912   2.937   1.402   0.221 -0.3149 -0.0962  0.8532
  969TIP3    H1 2913   2.854   1.382   0.179 -0.1871  0.6163  0.2233
  969TIP3    H2 2914   2.977   1.317   0.239 -0.5869 -0.4312 -0.0601
  970TIP3   OH2 2915   1.530   2.247   2.399  0.8092  0.3328 -0.2833
  970TIP3    H1 2916   1.475   2.207   2.466  0.1822  0.4218 -0.7406
  970TIP3    H2 2917   1.501   2.338   2.395 -0.6209 -0.1382 -2.1249
  971TIP3   OH2 2918   0.685   4.319   1.704 -0.5635  0.6155 -0.0672
  971TIP3    H1 2919   0.591   4.321   1.692 -0.5530  1.8807 -0.0463
  971TIP3    H2 2920   0.704   4.393   1.762  0.2943 -0.4291  1.0447
  972TIP3   OH2 2921   0.780   4.309   1.405 -0.6884  0.1733 -0.0959
  972TIP3    H1 2922   0.785   4.379   1.341 -0.7168 -0.3111 -0.6298
  972TIP3    H2 2923   0.722   4.343   1.474  2.5399  2.3818  1.7950
  973TIP3   OH2 2924   4.491   0.672   0.401  0.4972 -0.1443 -0.5226
  973TIP3    H1 2925   4.584   0.654   0.397  0.4963 -0.5496  0.8346
  973TIP3    H2 2926   4.480   0.728   0.478 -0.5459 -1.3552  0.2545
  974TIP3   OH2 2927   0.159   0.247   0.719  0.7720 -0.2350  0.1400
  974TIP3    H1 2928   0.096   0.185   0.758  1.7474 -0.9877  0.5729
  974TIP3    H2 2929   0.111   0.289   0.648 -0.6237  0.1423  1.2590
  975TIP3   OH2 2930   5.495   2.621   1.673  0.3061 -0.0057 -0.3744
  975TIP3    H1 2931   5.433   2.572   1.727 -1.4053  0.7660 -1.5779
  975TIP3    H2 2932   5.530   2.557   1.611  0.3911 -0.3387  0.0117
  976TIP3   OH2 2933   4.456   3.425   1.638  0.4235  0.1826  0.2253
  976TIP3    H1 2934   4.408   3.406   1.558  0.9271  0.7330 -0.2190
  976TIP3    H2 2935   4.501   3.343   1.660 -1.1195 -0.4997  0.9482
  977TIP3   OH2 2936   0.743   3.239   0.922  0.2088  0.1892  0.1946
  977TIP3    H1 2937   0.728   3.212   1.012 -0.9785  0.4899  0.1081
  977TIP3    H2 2938   0.839   3.240   0.912  0.4678  2.3261  2.1301
  978TIP3   OH2 2939   1.204   1.268   2.876  0.3032 -0.3563 -0.1610
  978TIP3    H1 2940   1.164   1.310   2.800  0.6827  0.5050  0.1079
  978TIP3    H2 2941   1.235   1.183   2.842  0.5782  0.0669 -1.0042
  979TIP3   OH2 2942   0.075   0.549   4.407 -0.3908 -0.2221  0.2989
  979TIP3    H1 2943   0.136   0.515   4.342 -1.6491 -2.0751  0.0496
  979TIP3    H2 2944   0.091   0.644   4.406  1.9710 -0.5466 -0.2470
  980TIP3   OH2 2945   6.108   5.498   0.217  0.7687 -0.1493  0.3066
  980TIP3    H1 2946   6.123   5.432   0.150 -0.1692  0.2085 -0.2739
  980TIP3    H2 2947   6.171   5.568   0.198  2.8482 -1.4760  1.8353
  981TIP3   OH2 2948   2.004   0.131   1.022  0.0636 -0.4381  0.0141
  981TIP3    H1 2949   1.963   0.051   0.989  0.7949  0.0445 -2.2167
  981TIP3    H2 2950   1.952   0.154   1.100 -1.1573 -2.1709 -0.2232
  982TIP3   OH2 2951   3.938   1.080   0.961  0.3956  0.0171  0.5456
  982TIP3    H1 2952   3.902   1.094   1.049  0.2079  0.8907  0.3384
  982TIP3    H2 2953   3.958   1.168   0.929  0.1058 -0.2624 -0.4413
  983TIP3   OH2 2954   6.065   5.383   2.443  0.5212  0.1348 -0.7216
  983TIP3    H1 2955   6.114   5.312   2.485  0.5450  1.2764  1.2866
  983TIP3    H2 2956   5.984   5.342   2.414  1.0363 -0.9607 -0.6892
  984TIP3   OH2 2957   1.369   0.808   1.062  0.7284  0.0494 -0.1487
  984TIP3    H1 2958   1.299   0.852   1.109  0.2272  1.5064 -2.1102
  984TIP3    H2 2959   1.426   0.772   1.130 -0.4850  1.1361  1.5116
  985TIP3   OH2 2960   5.021   3.226   3.924 -0.3763 -0.5965 -0.2660
  985TIP3    H1 2961   4.974   3.297   3.966 -0.3970 -0.0111 -1.2417
  985TIP3    H2 2962   5.112   3.236   3.953 -0.1727  0.4832 -1.1932
  986TIP3   OH2 2963   2.535   0.858   1.981 -0.3546 -0.9124 -0.1916
  986TIP3    H1 2964   2.627   0.835   1.984  0.0281  0.4676 -0.7509
  986TIP3    H2 2965   2.515   0.869   1.888 -0.2511  1.8214  0.0344
  987TIP3   OH2 2966   1.083   1.436   4.849  0.1046  0.0594  0.2165
  987TIP3    H1 2967   1.018   1.477   4.792 -2.5385 -1.2946  2.0557
  987TIP3    H2 2968   1.108   1.506   4.909  0.0554  0.4859 -0.2487
  988TIP3   OH2 2969   4.688   4.982   4.816  0.1194 -0.0086 -0.9573
  988TIP3    H1 2970   4.609   4.928   4.806 -0.1227 -0.0008  0.6089
  988TIP3    H2 2971   4.704   4.984   4.911  0.4928  2.1457 -1.0060
  989TIP3   OH2 2972   2.325   5.512   0.767 -0.1750 -0.5195  0.1209
  989TIP3    H1 2973   2.387   5.541   0.700  0.5173  1.0723  1.3650
  989TIP3    H2 2974   2.357   5.425   0.793 -0.2556 -1.0082 -1.3262
  990TIP3   OH2 2975   0.312   0.759   1.459 -0.5676  0.0767  0.6877
  990TIP3    H1 2976   0.248   0.769   1.388 -0.2201 -1.0934  0.1774
  990TIP3    H2 2977   0.363   0.839   1.456 -0.3619 -0.0702 -0.6144
  991TIP3   OH2 2978   3.775   1.818   0.661  0.3804  0.5230 -0.3935
  991TIP3    H1 2979   3.800   1.909   0.644  0.1591  0.4893 -0.9496
  991TIP3    H2 2980   3.822   1.768   0.595  0.9881  0.1605  0.3095
  992TIP3   OH2 2981   3.932   2.697   1.613 -0.0067  0.3945  0.5366
  992TIP3    H1 2982   3.836   2.695   1.618 -0.0091  0.7983  0.6674
  992TIP3    H2 2983   3.960   2.622   1.665 -0.2772 -0.2942 -0.2687
  993TIP3   OH2 2984   2.094   5.731   0.613  0.7992 -0.0631  0.1068
  993TIP3    H1 2985   2.120   5.643   0.586  0.8608 -1.3070  3.6057
  993TIP3    H2 2986   2.002   5.722   0.636  0.4876  1.1294 -0.6303
  994TIP3   OH2 2987   3.331   4.417   2.745  0.1163 -0.0818 -0.1252
  994TIP3    H1 2988   3.288   4.399   2.661 -0.6965 -1.5082  0.5545
  994TIP3    H2 2989   3.270   4.473   2.792 -0.0791 -0.4492  0.0603
  995TIP3   OH2 2990   5.073   5.560   3.470 -1.0292 -0.1177 -0.2304
  995TIP3    H1 2991   5.013   5.487   3.476 -0.0730 -0.9319 -0.2799
  995TIP3    H2 2992   5.114   5.550   3.384  1.1350 -1.1788  0.8543
  996TIP3   OH2 2993   1.857   2.631   0.242  0.2971 -0.1572  0.5471
  996TIP3    H1 2994   1.901   2.553   0.209 -0.6993 -0.2444 -0.6097
  996TIP3    H2 2995   1.872   2.698   0.175 -3.0376 -0.7519 -0.9982
  997TIP3   OH2 2996   4.271   5.424   3.037  0.4021 -0.1548  0.0894
  997TIP3    H1 2997   4.225   5.342   3.018 -0.8597  0.4979  0.2135
  997TIP3    H2 2998   4.343   5.397   3.094  1.3342 -1.4571 -1.5953
  998TIP3   OH2 2999   4.228   3.302   3.671 -0.1697  0.2525 -0.2209
  998TIP3    H1 3000   4.283   3.224   3.663 -0.6092 -0.0431 -0.3716
  998TIP3    H2 3001   4.273   3.356   3.737 -0.1864 -0.3984  0.3331
  999TIP3   OH2 3002   6.183   3.166   3.582  0.4096  0.0409 -0.0923
  999TIP3    H1 3003   6.094   3.163   3.547  0.7910  0.3772 -1.1466
  999TIP3    H2 3004   6.207   3.259   3.576  0.1875  0.2710  1.9100
 1000TIP3   OH2 3005   2.024   3.616   0.376  0.0545  0.1488  0.0878
 1000TIP3    H1 3006   2.087   3.682   0.405 -0.6862  0.6408  0.5985
 1000TIP3    H2 3007   1.964   3.665   0.319  0.2019 -0.3445 -0.5019
 1001TIP3   OH2 3008   4.102   1.160   1.309 -0.7205  0.1166 -0.4695
 1001TIP3    H1 3009   4.047   1.171   1.386  1.3324  1.2668  0.9150
 1001TIP3    H2 3010   4.179   1.111   1.341  0.7681  1.7182 -1.4252
 1002TIP3   OH2 3011   2.383   1.802   3.571  0.3242 -0.4108 -0.2517
 1002TIP3    H1 3012   2.424   1.774   3.653  1.9102 -0.8349 -1.1378
 1002TIP3    H2 3013   2.456   1.836   3.518 -0.2661 -2.1456 -2.3191
 1003TIP3   OH2 3014   5.145   4.230   4.394 -0.4571  0.0700  0.2663
 1003TIP3    H1 3015   5.119   4.322   4.385 -1.0470 -0.1865 -0.7874
 1003TIP3    H2 3016   5.096   4.184   4.325  0.6228 -0.8817  0.1081
 1004TIP3   OH2 3017   6.088   3.956   4.741  0.2141  0.0206  0.2791
 1004TIP3    H1 3018   6.090   3.940   4.647  1.8870 -0.5442  0.3871
 1004TIP3    H2 3019   6.108   3.871   4.780  0.5469  0.4775  1.1168
 1005TIP3   OH2 3020   3.067   5.329   2.112  0.3051 -0.3160 -0.8446
 1005TIP3    H1 3021   3.055   5.306   2.205 -2.5706  0.6434 -0.8692
 1005TIP3    H2 3022   3.159   5.312   2.095  0.6539 -1.7467  1.8494
 1006TIP3   OH2 3023   2.756   4.294   2.368  0.1873 -0.6375 -0.2346
 1006TIP3    H1 3024   2.817   4.260   2.303  0.4461 -0.1650 -0.2475
 1006TIP3    H2 3025   2.764   4.390   2.360  1.2953 -0.5491  1.4806
 1007TIP3   OH2 3026   5.128   5.144   1.754 -0.4301 -0.0073  0.1093
 1007TIP3    H1 3027   5.179   5.166   1.831 -2.5003 -1.4769  2.0142
 1007TIP3    H2 3028   5.046   5.192   1.765 -0.7742 -0.2604 -1.1886
 1008TIP3   OH2 3029   2.401   2.527   0.142  0.0465  0.5098 -0.2065
 1008TIP3    H1 3030   2.481   2.499   0.097 -0.4779 -1.9457  0.2406
 1008TIP3    H2 3031   2.330   2.482   0.094 -0.7963  0.3373  1.1588
 1009TIP3   OH2 3032   0.542   1.498   3.861  0.1063 -0.3212 -0.2522
 1009TIP3    H1 3033   0.507   1.537   3.941 -0.7261 -0.2815 -0.6282
 1009TIP3    H2 3034   0.629   1.465   3.887 -0.2406 -0.5171  0.7289
 1010TIP3   OH2 3035   3.085   3.904   2.260 -0.0743  0.0182  0.0895
 1010TIP3    H1 3036   3.066   3.811   2.270  2.4427 -0.5800 -0.0191
 1010TIP3    H2 3037   3.065   3.923   2.169  0.0021 -0.5698 -0.0526
 1011TIP3   OH2 3038   5.234   2.106   1.793  0.1194  0.4665 -0.1003
 1011TIP3    H1 3039   5.263   2.089   1.882  1.3627 -0.4865 -0.6455
 1011TIP3    H2 3040   5.282   2.184   1.766 -0.0794  0.6173 -0.0238
 1012TIP3   OH2 3041   4.048   0.520   0.554 -0.7198 -0.2610  0.0123
 1012TIP3    H1 3042   4.041   0.603   0.507 -1.5742 -0.8539 -0.9452
 1012TIP3    H2 3043   4.050   0.453   0.485  0.9781 -1.0015  0.7128
 1013TIP3   OH2 3044   1.044   5.831   4.052 -0.0798  0.2139 -0.1602
 1013TIP3    H1 3045   1.091   5.808   4.132  0.8610 -1.9906 -1.2740
 1013TIP3    H2 3046   1.112   5.838   3.985 -1.0411 -0.0142 -1.1845
 1014TIP3   OH2 3047   4.680   1.364   3.983 -0.1063 -0.3234  0.1828
 1014TIP3    H1 3048   4.669   1.358   3.888  0.2062 -1.1510  0.1941
 1014TIP3    H2 3049   4.761   1.413   3.995 -0.5471  0.4554  0.0377
 1015TIP3   OH2 3050   0.551   0.713   2.946 -0.3825 -0.0973  0.3316
 1015TIP3    H1 3051   0.486   0.729   3.015 -0.9945 -3.6523  0.7632
 1015TIP3    H2 3052   0.622   0.667   2.990  0.7775  0.5188 -0.8307
 1016TIP3   OH2 3053   1.144   1.077   4.836 -0.2452  0.7776 -0.4001
 1016TIP3    H1 3054   1.179   1.163   4.861 -0.8620  0.6140  1.1485
 1016TIP3    H2 3055   1.055   1.095   4.807 -0.8395  0.5523  1.1740
 1017TIP3   OH2 3056   3.085   1.559   1.382  0.4144 -0.3926 -0.6577
 1017TIP3    H1 3057   3.095   1.646   1.344  1.9736  0.1705  0.9336
 1017TIP3    H2 3058   3.067   1.575   1.475  0.4314 -1.7598 -0.3951
 1018TIP3   OH2 3059   4.880   2.339   0.063  0.1350  0.0710  0.5147
 1018TIP3    H1 3060   4.967   2.377   0.077  0.4213 -0.1301 -0.5877
 1018TIP3    H2 3061   4.887   2.250   0.099  0.6666 -0.2351 -0.2946
 1019TIP3   OH2 3062   4.918   0.253   4.650 -0.8890 -0.0549  0.7666
 1019TIP3    H1 3063   5.002   0.285   4.684 -0.9708 -0.2502  1.1547
 1019TIP3    H2 3064   4.882   0.328   4.602 -0.4008 -0.0347  0.4258
 1020TIP3   OH2 3065   0.350   1.479   2.402 -0.5352  0.2205 -0.1334
 1020TIP3    H1 3066   0.365   1.415   2.472 -0.8994  0.3727  0.0829
 1020TIP3    H2 3067   0.426   1.537   2.405  0.9855 -1.5071 -1.7837
 1021TIP3   OH2 3068   4.898   1.859   4.040  0.0187  0.4098  0.3153
 1021TIP3    H1 3069   4.974   1.916   4.044 -0.9049  1.7819 -0.5182
 1021TIP3    H2 3070   4.899   1.810   4.122  2.3210 -0.3499 -0.1097
 1022TIP3   OH2 3071   2.636   4.654   3.100 -0.2018 -0.4685  0.3944
 1022TIP3    H1 3072   2.689   4.605   3.163  0.0613 -0.6906 -0.0010
 1022TIP3    H2 3073   2.546   4.624   3.116  0.0908 -2.1456 -0.7780
 1023TIP3   OH2 3074   3.612   5.789   1.269  0.3787  0.3769 -0.5306
 1023TIP3    H1 3075   3.574   5.759   1.352  0.0808  1.8556 -0.0959
 1023TIP3    H2 3076   3.636   5.880   1.286  0.3477  0.6913 -2.0640
 1024TIP3   OH2 3077   3.263   1.068   2.881  0.3230 -0.0466  0.1670
 1024TIP3    H1 3078   3.302   1.155   2.867 -2.3672  1.7633  2.7046
 1024TIP3    H2 3079   3.177   1.074   2.839  0.0990 -1.5072  0.3657
 1025TIP3   OH2 3080   3.078   1.821   1.964  0.0726  0.2933 -0.4178
 1025TIP3    H1 3081   3.144   1.764   1.925 -0.1937  0.2612 -0.8243
 1025TIP3    H2 3082   3.017   1.760   2.008  0.4265  0.3344  0.1453
 1026TIP3   OH2 3083   0.880   0.970   1.187  0.1870 -0.4947 -0.7761
 1026TIP3    H1 3084   0.850   0.887   1.149 -0.3484 -0.5107 -0.3350
 1026TIP3    H2 3085   0.905   0.947   1.276  0.4539 -0.2585 -0.7895
 1027TIP3   OH2 3086   3.550   1.568   4.813 -0.2774 -0.0400  0.0867
 1027TIP3    H1 3087   3.459   1.536   4.816 -0.1649 -0.4820 -0.7524
 1027TIP3    H2 3088   3.601   1.499   4.855 -0.5977  1.4254  3.1155
 1028TIP3   OH2 3089   0.932   3.569   0.430 -0.0293 -0.0689 -0.1906
 1028TIP3    H1 3090   0.970   3.583   0.517 -1.0835  1.8245  0.0191
 1028TIP3    H2 3091   0.841   3.544   0.448  0.2213 -1.3954 -0.7312
 1029TIP3   OH2 3092   4.217   3.198   2.883  0.2522 -0.0707 -0.0167
 1029TIP3    H1 3093   4.275   3.196   2.959  1.0372 -0.2803 -0.6142
 1029TIP3    H2 3094   4.194   3.290   2.873 -0.6192 -0.1456  1.0272
 1030TIP3   OH2 3095   5.469   1.493   1.599  0.6027  0.0056 -0.0358
 1030TIP3    H1 3096   5.477   1.531   1.687 -0.9184 -0.2203  0.2304
 1030TIP3    H2 3097   5.461   1.569   1.542 -0.8606  0.1486  0.3206
 1031TIP3   OH2 3098   3.720   5.492   0.204 -0.2296 -0.7699  0.0005
 1031TIP3    H1 3099   3.690   5.583   0.196  0.7901 -0.5621 -2.0602
 1031TIP3    H2 3100   3.743   5.483   0.296  0.0130  1.1948  0.1873
 1032TIP3   OH2 3101   2.892   5.713   1.226  0.1969 -0.2990  0.4886
 1032TIP3    H1 3102   2.807   5.681   1.258 -0.2297  0.5979  0.2754
 1032TIP3    H2 3103   2.927   5.764   1.299 -0.1603  0.6200  0.0303
 1033TIP3   OH2 3104   4.593   1.980   1.983  0.0605  0.1497 -0.3039
 1033TIP3    H1 3105   4.532   1.914   1.950 -0.0449 -1.1753  2.2634
 1033TIP3    H2 3106   4.678   1.955   1.947 -0.2591 -0.3891 -0.6864
 1034TIP3   OH2 3107   4.500   5.479   1.037 -0.3775  0.0068  0.2165
 1034TIP3    H1 3108   4.484   5.474   0.943 -0.1712  0.1150  0.1749
 1034TIP3    H2 3109   4.515   5.388   1.064  0.2362  0.0486  0.0251
 1035TIP3   OH2 3110   2.653   4.623   1.678  0.4337  0.4665  0.0085
 1035TIP3    H1 3111   2.617   4.706   1.710  0.5715  0.4674  0.1656
 1035TIP3    H2 3112   2.578   4.564   1.673  0.0320  1.0595 -1.6686
 1036TIP3   OH2 3113   1.872   5.671   4.759 -0.3275  0.9941  0.2044
 1036TIP3    H1 3114   1.885   5.761   4.787  0.8981  0.4083  1.7025
 1036TIP3    H2 3115   1.954   5.626   4.783 -0.5899 -0.3544 -1.2226
 1037TIP3   OH2 3116   1.882   1.709   2.837  0.0427  0.4072  0.0193
 1037TIP3    H1 3117   1.891   1.735   2.745  2.2699  1.5247  0.4782
 1037TIP3    H2 3118   1.971   1.712   2.871 -0.8023  0.5485  2.3602
 1038TIP3   OH2 3119   4.410   0.240   2.764  0.2107 -0.0771 -0.3847
 1038TIP3    H1 3120   4.320   0.235   2.732 -0.4771  0.5376  1.3786
 1038TIP3    H2 3121   4.404   0.289   2.846  2.2294  0.4620 -0.5133
 1039TIP3   OH2 3122   2.094   5.127   0.504 -0.0972  0.0938  0.2349
 1039TIP3    H1 3123   2.126   5.152   0.418 -1.0696 -0.5763 -0.3346
 1039TIP3    H2 3124   2.086   5.210   0.552  1.3647  0.3823  0.0346
 1040TIP3   OH2 3125   0.195   2.937   2.725  0.1885 -0.0220  0.6812
 1040TIP3    H1 3126   0.217   2.869   2.789  1.1632 -1.6439 -1.2521
 1040TIP3    H2 3127   0.262   3.004   2.737 -0.7149  0.6029  2.5436
 1041TIP3   OH2 3128   0.054   3.899   2.291 -0.1540 -0.0688  0.0664
 1041TIP3    H1 3129   0.062   3.862   2.203  0.7796  1.0704 -0.3632
 1041TIP3    H2 3130   0.135   3.949   2.302 -0.7547  0.6873  1.1486
 1042TIP3   OH2 3131   3.380   0.936   2.675 -0.1215  0.1208  0.4332
 1042TIP3    H1 3132   3.395   0.927   2.581 -1.0432 -0.5246  0.3275
 1042TIP3    H2 3133   3.325   1.014   2.683 -1.1272 -0.5373  0.2816
 1043TIP3   OH2 3134   0.247   0.138   3.939 -0.1988  0.1851 -0.5471
 1043TIP3    H1 3135   0.233   0.224   3.978  0.9291  0.2104 -0.1604
 1043TIP3    H2 3136   0.222   0.076   4.008 -0.0826  0.2128 -0.4796
 1044TIP3   OH2 3137   0.322   4.475   3.401  0.6897  0.3016 -0.6497
 1044TIP3    H1 3138   0.246   4.447   3.349 -1.2425  3.2548  0.2939
 1044TIP3    H2 3139   0.312   4.428   3.484 -1.1565  1.7783  0.0557
 1045TIP3   OH2 3140   3.791   0.324   0.574 -0.2572  0.1132 -0.3329
 1045TIP3    H1 3141   3.721   0.258   0.569 -1.7098  1.6383 -1.5561
 1045TIP3    H2 3142   3.744   0.406   0.592  1.5494  0.7646  1.8022
 1046TIP3   OH2 3143   0.409   1.487   3.031  0.4649 -0.8342 -0.4091
 1046TIP3    H1 3144   0.439   1.570   2.993  0.4854 -0.4729  0.3905
 1046TIP3    H2 3145   0.478   1.463   3.093 -0.6527 -0.2254  1.1187
 1047TIP3   OH2 3146   5.534   2.924   4.093  0.0596  0.2775 -0.2600
 1047TIP3    H1 3147   5.577   2.842   4.067 -2.7465 -2.1942  2.1304
 1047TIP3    H2 3148   5.519   2.914   4.187 -3.3305  2.0470 -0.4711
 1048TIP3   OH2 3149   2.310   5.767   0.833 -0.7388  0.2826  0.2702
 1048TIP3    H1 3150   2.335   5.675   0.844 -0.6629  0.2732  0.0131
 1048TIP3    H2 3151   2.229   5.763   0.783 -0.3308  0.3909 -0.4014
 1049TIP3   OH2 3152   5.477   5.700   0.444  0.3709 -0.0551 -0.1343
 1049TIP3    H1 3153   5.470   5.618   0.492  1.5762  0.4605  0.9606
 1049TIP3    H2 3154   5.386   5.730   0.434  0.0829  0.0170  2.1837
 1050TIP3   OH2 3155   0.312   0.709   3.523  0.1656 -0.0463 -0.8639
 1050TIP3    H1 3156   0.256   0.678   3.451 -0.8451 -0.0582 -0.0948
 1050TIP3    H2 3157   0.258   0.698   3.601  0.9565  0.7147 -0.1992
 1051TIP3   OH2 3158   6.125   0.720   1.934 -0.7702  0.1639  0.0795
 1051TIP3    H1 3159   6.174   0.802   1.938 -0.9272  0.2198  1.2989
 1051TIP3    H2 3160   6.081   0.715   2.019 -0.2715 -1.4948  0.2673
 1052TIP3   OH2 3161   5.803   0.695   3.254  0.2532 -0.2525 -0.2349
 1052TIP3    H1 3162   5.714   0.706   3.222 -0.0211 -3.1802 -0.7941
 1052TIP3    H2 3163   5.807   0.604   3.283  3.2915 -0.4860 -1.0302
 1053TIP3   OH2 3164   5.712   4.222   0.519 -0.1361  0.2687  0.1649
 1053TIP3    H1 3165   5.791   4.172   0.499  0.1232  1.3831 -1.9094
 1053TIP3    H2 3166   5.743   4.297   0.570 -0.3357 -0.8711  2.0517
 1054TIP3   OH2 3167   3.705   0.010   2.842  0.0624 -0.1508  0.1656
 1054TIP3    H1 3168   3.658   0.081   2.886  0.8575 -0.7002  1.9927
 1054TIP3    H2 3169   3.733  -0.048   2.912  0.8158 -1.4575 -1.1451
 1055TIP3   OH2 3170   4.871   0.530   1.585  0.0665  0.0307 -0.1580
 1055TIP3    H1 3171   4.802   0.464   1.586 -0.6358  0.7335 -0.4336
 1055TIP3    H2 3172   4.951   0.482   1.566 -0.3757 -0.7842  0.0185
 1056TIP3   OH2 3173   4.676   2.352   0.265  0.0909 -0.2558 -0.2756
 1056TIP3    H1 3174   4.724   2.336   0.184 -2.1258 -1.7477 -1.4006
 1056TIP3    H2 3175   4.658   2.265   0.300 -1.0938  0.2773  0.5092
 1057TIP3   OH2 3176   0.611   4.555   3.803 -0.5271 -0.1273 -0.1378
 1057TIP3    H1 3177   0.619   4.511   3.887 -0.7997 -1.4465 -0.7747
 1057TIP3    H2 3178   0.519   4.580   3.797 -0.1960  1.3797  0.6082
 1058TIP3   OH2 3179   2.172   3.289   2.678 -0.6471  0.0252  0.4869
 1058TIP3    H1 3180   2.214   3.246   2.604 -0.1197 -0.5618  1.1162
 1058TIP3    H2 3181   2.086   3.247   2.685  0.2952 -1.8228  1.8199
 1059TIP3   OH2 3182   0.279   2.687   2.888 -0.0180  0.2860 -0.4171
 1059TIP3    H1 3183   0.366   2.657   2.862  0.7450 -0.0905  2.2314
 1059TIP3    H2 3184   0.245   2.617   2.943 -1.0827  1.3271  0.3120
 1060TIP3   OH2 3185   1.513   4.845   0.726  0.4944  0.4819  0.3421
 1060TIP3    H1 3186   1.490   4.853   0.819 -0.7759  0.9465  0.0053
 1060TIP3    H2 3187   1.443   4.892   0.680  2.4228  2.5278 -0.7213
 1061TIP3   OH2 3188   3.131   0.582   4.308 -0.2131  0.4146  0.2218
 1061TIP3    H1 3189   3.148   0.614   4.397  0.5506  0.4410  0.0676
 1061TIP3    H2 3190   3.035   0.578   4.302 -0.2803 -0.9426  1.5345
 1062TIP3   OH2 3191   2.247   0.655   1.819  0.2410  0.5639 -0.0841
 1062TIP3    H1 3192   2.234   0.750   1.820 -2.7432  0.2599  1.7262
 1062TIP3    H2 3193   2.241   0.629   1.911 -1.1014 -1.5595 -0.6910
 1063TIP3   OH2 3194   6.030   1.930   4.634 -0.0412 -0.0319  0.3573
 1063TIP3    H1 3195   6.073   1.971   4.709 -1.2833  0.0996  1.0166
 1063TIP3    H2 3196   5.960   1.878   4.671  0.7943 -1.9062 -0.5610
 1064TIP3   OH2 3197   1.562   5.529   2.807 -0.1128 -0.4935 -0.2711
 1064TIP3    H1 3198   1.481   5.530   2.756  0.4618 -0.8445 -1.2157
 1064TIP3    H2 3199   1.629   5.496   2.747  0.5821 -0.9793  0.7221
 1065TIP3   OH2 3200   2.103   2.677   5.001 -0.3010 -0.2620  0.0684
 1065TIP3    H1 3201   2.126   2.765   4.969 -2.4525 -0.1628 -1.3794
 1065TIP3    H2 3202   2.108   2.621   4.924 -0.2848 -1.1688  0.7116
 1066TIP3   OH2 3203   1.298   2.303   0.982  0.7751  0.5572 -0.3871
 1066TIP3    H1 3204   1.262   2.369   0.923  0.2862  0.5994 -0.0530
 1066TIP3    H2 3205   1.256   2.321   1.067  0.6112 -0.1962 -0.3001
 1067TIP3   OH2 3206   0.794   2.221   4.268 -0.2039 -0.5143  0.3725
 1067TIP3    H1 3207   0.754   2.213   4.182  0.6425 -0.9024  0.0118
 1067TIP3    H2 3208   0.804   2.131   4.299 -0.2407 -0.3893  0.7531
 1068TIP3   OH2 3209   0.183   1.030   0.057  0.4522 -0.7344 -0.0404
 1068TIP3    H1 3210   0.177   1.098  -0.010 -1.0452 -1.3623 -0.5912
 1068TIP3    H2 3211   0.115   0.966   0.032  0.5051 -1.4502  1.5448
 1069TIP3   OH2 3212   2.085   3.279   0.106 -0.1089 -0.1225 -0.0579
 1069TIP3    H1 3213   2.046   3.365   0.092 -1.1376 -0.1418  2.1744
 1069TIP3    H2 3214   2.167   3.282   0.057  0.1980  2.3765  0.4359
 1070TIP3   OH2 3215   6.183   4.466   1.048  0.0303 -0.2910  0.1879
 1070TIP3    H1 3216   6.159   4.546   1.096 -0.6495 -1.0659  1.1826
 1070TIP3    H2 3217   6.104   4.412   1.052 -0.0643 -0.3883 -1.8699
 1071TIP3   OH2 3218   5.225   5.682   4.872  0.1432 -0.1776 -0.4403
 1071TIP3    H1 3219   5.149   5.734   4.846 -1.2000 -2.0996 -0.5248
 1071TIP3    H2 3220   5.216   5.600   4.824  2.5019 -0.3272 -0.7419
 1072TIP3   OH2 3221   5.725   4.533   1.793 -0.2438 -0.1723  0.6183
 1072TIP3    H1 3222   5.776   4.539   1.712  0.2437 -0.1983  0.9153
 1072TIP3    H2 3223   5.766   4.596   1.852 -1.2519  0.6063  0.5077
 1073TIP3   OH2 3224   2.956   3.402   2.575 -0.2654  0.0453  0.0311
 1073TIP3    H1 3225   2.902   3.480   2.584 -2.4290 -1.3084 -0.3561
 1073TIP3    H2 3226   2.990   3.407   2.485 -2.9228 -0.8826 -1.1214
 1074TIP3   OH2 3227   2.659   2.309   4.129  0.6972 -0.6981 -0.1024
 1074TIP3    H1 3228   2.665   2.222   4.090 -1.9015 -1.1823  0.4548
 1074TIP3    H2 3229   2.586   2.352   4.085  1.0932  0.7391  0.5445
 1075TIP3   OH2 3230   0.070   4.394   1.563  0.0601  0.1702 -0.0766
 1075TIP3    H1 3231   0.077   4.374   1.657  0.3387 -1.6637 -0.4472
 1075TIP3    H2 3232   0.143   4.347   1.523 -1.1258 -0.6106 -1.4174
 1076TIP3   OH2 3233   1.233   5.551   3.420 -0.8754  0.6896  0.2660
 1076TIP3    H1 3234   1.243   5.512   3.507  1.8810  0.9579  0.1696
 1076TIP3    H2 3235   1.232   5.645   3.435  0.0033  0.7512  0.0156
 1077TIP3   OH2 3236   1.188   2.053   3.392 -0.2614  0.3080 -0.3560
 1077TIP3    H1 3237   1.227   2.140   3.395  0.5650  0.0358 -2.0559
 1077TIP3    H2 3238   1.175   2.029   3.484 -0.3847  2.1523  0.1387
 1078TIP3   OH2 3239   3.733   1.010   4.968 -0.6077  0.0202 -0.2320
 1078TIP3    H1 3240   3.811   1.023   4.915 -0.7125 -0.8138 -0.5963
 1078TIP3    H2 3241   3.713   1.097   5.002 -0.4111  0.5332 -1.3779
 1079TIP3   OH2 3242   5.795   4.604   4.673  0.0027 -0.4301  0.0979
 1079TIP3    H1 3243   5.712   4.636   4.709 -0.2998 -2.8027  1.7423
 1079TIP3    H2 3244   5.769   4.552   4.597 -0.1574 -1.7160  0.9900
 1080TIP3   OH2 3245   0.417   0.334   3.734  0.0693  0.3148  0.2888
 1080TIP3    H1 3246   0.406   0.400   3.802 -0.4209 -0.3064  0.8272
 1080TIP3    H2 3247   0.457   0.259   3.779 -3.0764 -1.3033  0.6844
 1081TIP3   OH2 3248   5.108   5.923   1.548 -0.0367 -0.5562  0.2215
 1081TIP3    H1 3249   5.143   5.835   1.564  0.7270 -0.4817 -0.9652
 1081TIP3    H2 3250   5.103   5.963   1.635  2.7183 -0.6115  0.4660
 1082TIP3   OH2 3251   0.537   4.140   3.178 -0.2377 -0.5265  0.2694
 1082TIP3    H1 3252   0.553   4.101   3.093  0.2239 -1.4991  0.7906
 1082TIP3    H2 3253   0.594   4.217   3.180 -0.1314 -0.5924 -0.2361
 1083TIP3   OH2 3254   1.751   4.902   2.422  0.4906  0.1132 -0.0923
 1083TIP3    H1 3255   1.796   4.984   2.443 -0.8586  0.9077 -0.1839
 1083TIP3    H2 3256   1.660   4.928   2.410  0.1274 -1.3407 -0.5929
 1084TIP3   OH2 3257   1.731   5.249   0.108  0.3756 -0.6017  0.4861
 1084TIP3    H1 3258   1.665   5.255   0.039  0.5958  0.2233  0.3269
 1084TIP3    H2 3259   1.681   5.258   0.189  0.2758 -0.0281  0.3672
 1085TIP3   OH2 3260   3.657   4.600   0.406 -0.0328  0.4211 -0.5355
 1085TIP3    H1 3261   3.719   4.558   0.467  0.2491  1.1294 -0.3263
 1085TIP3    H2 3262   3.573   4.557   0.424  0.3680 -0.4824 -0.7530
 1086TIP3   OH2 3263   4.888   5.900   5.090 -0.1672 -0.6305  0.4627
 1086TIP3    H1 3264   4.918   5.860   5.172  0.9518 -1.6907 -0.4334
 1086TIP3    H2 3265   4.919   5.842   5.021 -0.4519  0.6147 -0.7758
 1087TIP3   OH2 3266   2.563   5.956   4.707  0.4731 -0.1514 -0.2920
 1087TIP3    H1 3267   2.485   6.001   4.673  3.0017  3.6011 -1.7090
 1087TIP3    H2 3268   2.598   5.910   4.630  0.9047  0.1046 -0.2461
 1088TIP3   OH2 3269   1.510   0.888   2.864 -0.4497 -0.1502  0.3459
 1088TIP3    H1 3270   1.601   0.862   2.880  0.2524  1.8587 -0.1027
 1088TIP3    H2 3271   1.477   0.914   2.950  0.5675  2.4222  0.0408
 1089TIP3   OH2 3272   0.351   4.878   3.852  0.4639 -0.2962 -0.3190
 1089TIP3    H1 3273   0.446   4.883   3.851  0.5056  0.2077  2.0847
 1089TIP3    H2 3274   0.331   4.798   3.803  1.9476  0.7458 -2.8134
 1090TIP3   OH2 3275   1.041   1.636   0.600 -0.3766 -0.4606  0.1573
 1090TIP3    H1 3276   1.109   1.643   0.666 -1.2274  0.7471  0.9578
 1090TIP3    H2 3277   0.961   1.617   0.650 -0.7640 -1.0976 -0.6777
 1091TIP3   OH2 3278   5.239   5.624   3.941  0.7004 -0.2172 -0.6990
 1091TIP3    H1 3279   5.231   5.648   3.849 -1.5792 -1.3297 -0.8579
 1091TIP3    H2 3280   5.271   5.534   3.940 -0.1854 -0.5432 -0.4566
 1092TIP3   OH2 3281   1.932   1.829   3.288 -0.2826 -0.3996 -0.2362
 1092TIP3    H1 3282   1.993   1.792   3.352 -0.3207 -2.0226 -1.1004
 1092TIP3    H2 3283   1.984   1.897   3.243 -0.3355  0.9556  1.6162
 1093TIP3   OH2 3284   4.530   0.579   4.518 -0.4755  0.5593 -0.3579
 1093TIP3    H1 3285   4.604   0.640   4.508 -0.0164  0.0344 -0.1740
 1093TIP3    H2 3286   4.505   0.587   4.610  1.1305 -1.2701  0.2969
 1094TIP3   OH2 3287   0.082   4.647   0.865  0.3307 -0.2041 -0.2111
 1094TIP3    H1 3288   0.030   4.620   0.789  0.0769  1.5101 -0.7014
 1094TIP3    H2 3289   0.085   4.570   0.921 -2.7945 -0.3860 -0.1349
 1095TIP3   OH2 3290   4.030   4.133   0.277  0.1158  0.5182 -0.0784
 1095TIP3    H1 3291   4.034   4.228   0.266  2.1196  0.6999  1.4682
 1095TIP3    H2 3292   4.121   4.105   0.267 -0.2141 -1.0228  0.9872
 1096TIP3   OH2 3293   0.734   0.836   4.335  0.7429 -0.3718 -0.1985
 1096TIP3    H1 3294   0.647   0.873   4.323 -0.4309 -3.0125 -0.6567
 1096TIP3    H2 3295   0.732   0.798   4.423  0.3209 -2.8338 -1.1593
 1097TIP3   OH2 3296   4.881   2.979   3.956  0.6287  0.0731  0.4491
 1097TIP3    H1 3297   4.951   3.045   3.960 -0.1472  1.1331 -1.7116
 1097TIP3    H2 3298   4.914   2.913   3.895  0.1661  0.0512  0.2198
 1098TIP3   OH2 3299   3.928   0.935   2.501 -0.8362 -0.0999 -0.2761
 1098TIP3    H1 3300   3.866   0.865   2.524  1.5913 -2.3945 -0.1892
 1098TIP3    H2 3301   3.908   0.955   2.409 -0.0171 -2.8234 -1.1410
 1099TIP3   OH2 3302   2.421   0.765   0.550 -0.1263  0.3608 -0.1603
 1099TIP3    H1 3303   2.489   0.730   0.607 -1.9416 -2.4757  0.4478
 1099TIP3    H2 3304   2.386   0.840   0.598  0.3750 -0.1629  1.0577
 1100TIP3   OH2 3305   3.076   2.925   0.835 -0.6444  0.6309  0.1564
 1100TIP3    H1 3306   3.071   2.976   0.916 -0.8753 -0.3707  0.7991
 1100TIP3    H2 3307   2.988   2.927   0.800 -0.5577  1.0196 -0.0360
 1101TIP3   OH2 3308   3.688   3.192   3.592 -0.8083 -0.4075 -0.2772
 1101TIP3    H1 3309   3.781   3.196   3.568 -0.6838 -1.7611 -0.0625
 1101TIP3    H2 3310   3.664   3.283   3.609  1.0670 -0.2548  1.8845
 1102TIP3   OH2 3311   5.941   0.232   5.137 -0.1930  0.1894  0.5311
 1102TIP3    H1 3312   6.016   0.280   5.102  0.9022  0.4143  2.9697
 1102TIP3    H2 3313   5.957   0.141   5.112  0.7483  0.2876  0.7575
 1103TIP3   OH2 3314   1.459   5.494   1.300  0.0909 -0.3546 -0.7562
 1103TIP3    H1 3315   1.448   5.433   1.227  2.0563 -1.9762  0.2147
 1103TIP3    H2 3316   1.529   5.553   1.273  1.5027 -1.5642  0.1280
 1104TIP3   OH2 3317   5.309   2.457   1.378 -0.1477 -0.2775 -0.1065
 1104TIP3    H1 3318   5.283   2.450   1.470  0.9148 -0.2035  0.2134
 1104TIP3    H2 3319   5.340   2.370   1.355  0.5086 -0.0503 -0.0997
 1105TIP3   OH2 3320   1.382   0.653   2.916  0.1495 -0.3968 -0.4764
 1105TIP3    H1 3321   1.465   0.605   2.922  0.0373 -0.5041  0.3698
 1105TIP3    H2 3322   1.404   0.734   2.870  0.9110 -0.0470  0.4631
 1106TIP3   OH2 3323   1.214   3.286   4.956  0.2904 -0.0886  0.0845
 1106TIP3    H1 3324   1.249   3.376   4.957 -0.8834  0.3898  1.2498
 1106TIP3    H2 3325   1.174   3.277   4.869 -0.0400  0.7046  0.1469
 1107TIP3   OH2 3326   2.188   2.343   3.995 -0.0801  0.1467 -0.6785
 1107TIP3    H1 3327   2.163   2.434   4.014 -0.3601  0.3138 -1.7837
 1107TIP3    H2 3328   2.278   2.350   3.962 -0.4902  0.1691 -1.8373
 1108TIP3   OH2 3329   3.307   2.650   2.624  0.3413  0.2983 -0.3218
 1108TIP3    H1 3330   3.358   2.667   2.545 -0.6934  0.2044 -1.0314
 1108TIP3    H2 3331   3.246   2.582   2.598 -0.6240  0.9115  0.2860
 1109TIP3   OH2 3332   5.193   3.987   4.784 -0.6221  0.0974  0.0991
 1109TIP3    H1 3333   5.180   3.971   4.878  0.3654  0.1347  0.2557
 1109TIP3    H2 3334   5.165   4.078   4.771  0.8147  0.6664  0.7183
 1110TIP3   OH2 3335   2.721   1.132   1.954 -0.1051 -0.1622 -0.0412
 1110TIP3    H1 3336   2.692   1.080   1.880  0.9058  0.5265 -0.9576
 1110TIP3    H2 3337   2.778   1.199   1.916  0.4853  0.1821  1.3545
 1111TIP3   OH2 3338   3.254   4.551   5.095 -0.5588 -0.2993  0.5044
 1111TIP3    H1 3339   3.201   4.629   5.079  0.4135  0.7009  1.9589
 1111TIP3    H2 3340   3.333   4.564   5.042 -0.5712 -0.5102  0.4312
 1112TIP3   OH2 3341   1.766   4.177   1.877 -0.2739 -0.6399 -0.0857
 1112TIP3    H1 3342   1.824   4.254   1.870  1.0717 -1.7131 -1.7863
 1112TIP3    H2 3343   1.807   4.112   1.820 -2.7259 -1.7814 -0.6629
 1113TIP3   OH2 3344   1.526   3.026   0.078 -0.1858  0.4712 -0.6661
 1113TIP3    H1 3345   1.603   3.082   0.090 -0.5564  0.8182  0.1667
 1113TIP3    H2 3346   1.478   3.034   0.160 -2.5779  2.4840 -2.1191
 1114TIP3   OH2 3347   1.272   2.151   0.099  0.3634  0.0891 -0.3491
 1114TIP3    H1 3348   1.183   2.184   0.089  0.2194 -0.7640 -2.2545
 1114TIP3    H2 3349   1.261   2.060   0.126  0.6951  0.3095  0.5651
 1115TIP3   OH2 3350   5.928   1.741   3.267  0.3806 -0.0516  0.5637
 1115TIP3    H1 3351   5.965   1.827   3.290 -0.5869  0.3852  0.5455
 1115TIP3    H2 3352   5.838   1.761   3.241  0.0930 -1.0999  0.7320
 1116TIP3   OH2 3353   5.101   5.419   1.831  0.1671 -0.0333  0.2249
 1116TIP3    H1 3354   5.019   5.412   1.881 -0.5460  0.0298 -0.9082
 1116TIP3    H2 3355   5.168   5.430   1.898 -0.8885  1.2128  1.1412
 1117TIP3   OH2 3356   5.679   3.346   2.244 -0.1023  0.3383  0.1390
 1117TIP3    H1 3357   5.609   3.358   2.179  0.0517  0.0475 -0.0831
 1117TIP3    H2 3358   5.759   3.365   2.196 -0.0324  0.7453  0.4143
 1118TIP3   OH2 3359   3.846   5.179   4.589  0.0744 -0.2319  0.0737
 1118TIP3    H1 3360   3.884   5.244   4.531 -0.5911  0.7302  0.6793
 1118TIP3    H2 3361   3.758   5.163   4.554  0.8345 -2.1695 -1.1088
 1119TIP3   OH2 3362   4.538   0.611   0.133  0.6843  0.4087  0.6417
 1119TIP3    H1 3363   4.625   0.572   0.119  0.5147 -0.0772  0.9161
 1119TIP3    H2 3364   4.515   0.586   0.222 -1.8166 -3.7288 -0.8629
 1120TIP3   OH2 3365   0.092   2.707   1.188  0.1217 -0.6641 -0.2216
 1120TIP3    H1 3366   0.180   2.732   1.160  0.1645  0.1216  0.5500
 1120TIP3    H2 3367   0.075   2.624   1.143  1.7047 -1.4333  0.4854
 1121TIP3   OH2 3368   6.321   0.437   1.861  0.1364 -0.2113 -0.0464
 1121TIP3    H1 3369   6.323   0.467   1.770 -1.8299 -0.8115 -0.3365
 1121TIP3    H2 3370   6.397   0.379   1.869 -0.1611 -0.8472 -1.5709
 1122TIP3   OH2 3371   4.837   3.010   1.513 -0.4956 -0.4199 -0.4635
 1122TIP3    H1 3372   4.751   2.968   1.520 -1.3489  1.1870 -0.7363
 1122TIP3    H2 3373   4.877   2.998   1.599 -1.6980  0.2389  0.2081
 1123TIP3   OH2 3374   5.685   4.791   2.775  0.2103  0.0010 -0.1852
 1123TIP3    H1 3375   5.604   4.744   2.790 -0.1081  1.1073  1.9280
 1123TIP3    H2 3376   5.752   4.723   2.768 -0.6574 -0.8526 -0.4134
 1124TIP3   OH2 3377   3.507   2.099   0.019  0.4341 -0.2559 -0.0933
 1124TIP3    H1 3378   3.455   2.102  -0.062 -2.0395 -1.0251  1.3659
 1124TIP3    H2 3379   3.510   2.190   0.048 -1.5811 -0.3567  0.6103
 1125TIP3   OH2 3380   6.092   0.568   2.915  0.8648 -0.2582  0.3797
 1125TIP3    H1 3381   6.056   0.565   2.826 -0.7707  0.3390  0.9716
 1125TIP3    H2 3382   6.045   0.641   2.956  0.1430 -1.7383  2.3154
 1126TIP3   OH2 3383   0.890   3.113   0.703  0.3512 -0.2487 -0.3828
 1126TIP3    H1 3384   0.889   3.033   0.649  2.3682  0.5341 -1.7118
 1126TIP3    H2 3385   0.820   3.167   0.668 -1.3771 -1.5939  0.8676
 1127TIP3   OH2 3386   0.349   4.853   0.117 -0.1936 -1.2037  0.6964
 1127TIP3    H1 3387   0.394   4.776   0.153 -1.2316 -1.6016  1.1952
 1127TIP3    H2 3388   0.372   4.924   0.176 -1.1148 -1.6529  1.6497
 1128TIP3   OH2 3389   5.792   2.994   3.311 -0.7976  0.1328 -0.1144
 1128TIP3    H1 3390   5.806   2.971   3.403 -1.2679 -1.5378 -0.4431
 1128TIP3    H2 3391   5.698   3.012   3.304 -0.6830  0.7408 -0.1815
 1129TIP3   OH2 3392   0.049   4.110   0.819  0.0056 -0.1221  0.7853
 1129TIP3    H1 3393  -0.027   4.124   0.876  0.3465 -1.5045  1.6254
 1129TIP3    H2 3394   0.122   4.153   0.864  0.1133 -0.5102  0.9830
 1130TIP3   OH2 3395   1.194   3.176   0.922  0.0512 -0.2459  0.3171
 1130TIP3    H1 3396   1.229   3.222   0.846 -0.8660  0.4934  0.3220
 1130TIP3    H2 3397   1.191   3.085   0.896  1.5514 -0.2733  0.1690
 1131TIP3   OH2 3398   5.826   5.419   4.305 -0.1952  0.3942  0.3643
 1131TIP3    H1 3399   5.768   5.346   4.281 -2.8696  2.6698 -0.6762
 1131TIP3    H2 3400   5.822   5.422   4.400 -0.0236 -0.7895  0.4314
 1132TIP3   OH2 3401   1.708   4.306   1.049  0.0448 -0.2322 -0.3323
 1132TIP3    H1 3402   1.713   4.212   1.061 -0.3948 -0.0904  1.1855
 1132TIP3    H2 3403   1.790   4.340   1.086  0.5579 -0.0429 -1.5652
 1133TIP3   OH2 3404   5.598   4.228   0.274  0.2287  0.5337  0.2368
 1133TIP3    H1 3405   5.514   4.252   0.313 -0.1111 -2.0925  1.3069
 1133TIP3    H2 3406   5.658   4.224   0.348  0.2910 -1.5450  0.1294
 1134TIP3   OH2 3407   0.175   6.002   3.971 -0.2651  0.1631 -0.0149
 1134TIP3    H1 3408   0.162   5.938   4.040  1.9982 -0.7016 -0.2904
 1134TIP3    H2 3409   0.209   5.952   3.897 -1.5466  1.2305 -1.3959
 1135TIP3   OH2 3410   3.827   0.645   1.512  0.8140  0.2740  0.1136
 1135TIP3    H1 3411   3.771   0.581   1.468  0.3685  0.4154  0.4549
 1135TIP3    H2 3412   3.803   0.637   1.605  0.5494  1.1246  0.1284
 1136TIP3   OH2 3413   5.098   2.709   0.021 -0.5930 -0.0803  0.0920
 1136TIP3    H1 3414   5.141   2.790   0.049 -0.2377 -0.2547  0.0603
 1136TIP3    H2 3415   5.007   2.733   0.009 -0.3381  0.5132 -0.7412
 1137TIP3   OH2 3416   3.451   1.486   2.088 -0.2986 -0.2488 -0.0325
 1137TIP3    H1 3417   3.413   1.490   2.000 -2.8795  0.5626  1.0109
 1137TIP3    H2 3418   3.515   1.415   2.084  0.1614  0.2146 -2.7186
 1138TIP3   OH2 3419   3.505   2.648   2.384  0.0875 -0.0764 -0.6404
 1138TIP3    H1 3420   3.552   2.641   2.301 -1.5622 -0.1631 -1.6068
 1138TIP3    H2 3421   3.474   2.739   2.386 -0.3880 -0.2427 -0.4150
 1139TIP3   OH2 3422   5.799   2.533   3.512  0.1587 -0.3546  0.0670
 1139TIP3    H1 3423   5.738   2.461   3.526 -0.8599  0.5908  0.6348
 1139TIP3    H2 3424   5.747   2.602   3.470  0.2999  1.1986  2.2720
 1140TIP3   OH2 3425   5.011   2.892   0.496 -0.8489  0.3060  0.7015
 1140TIP3    H1 3426   4.947   2.957   0.470 -2.6553  0.0058  3.9125
 1140TIP3    H2 3427   4.982   2.811   0.455 -2.3320  0.2762  1.7454
 1141TIP3   OH2 3428   3.356   2.922   3.181 -0.3182 -0.0023 -0.0949
 1141TIP3    H1 3429   3.380   3.006   3.143 -0.8409  0.7384  1.1300
 1141TIP3    H2 3430   3.273   2.938   3.226  0.0258 -0.9121  0.9429
 1142TIP3   OH2 3431   3.433   0.493   4.603  0.1064 -0.1001 -0.6907
 1142TIP3    H1 3432   3.348   0.537   4.597 -0.5237 -1.1003  0.4915
 1142TIP3    H2 3433   3.497   0.563   4.599 -0.8783  1.0178  1.4718
 1143TIP3   OH2 3434   0.791   5.978   1.046  0.0105 -0.2270  0.2279
 1143TIP3    H1 3435   0.825   6.020   1.125 -0.9899 -0.6669  0.9249
 1143TIP3    H2 3436   0.865   5.931   1.009  0.2081 -1.0602  1.6248
 1144TIP3   OH2 3437   3.079   5.578   2.749 -0.4474  0.4808 -0.7973
 1144TIP3    H1 3438   3.133   5.573   2.827 -2.8463  1.8404  1.0754
 1144TIP3    H2 3439   3.113   5.509   2.692  1.4717 -0.4876  1.3677
 1145TIP3   OH2 3440   4.800   0.012   0.272 -0.6712 -0.5436  0.3978
 1145TIP3    H1 3441   4.745  -0.000   0.195 -1.0363  1.8147  0.2166
 1145TIP3    H2 3442   4.828   0.103   0.268  0.1482 -0.6341  2.5043
 1146TIP3   OH2 3443   2.573   5.049   0.196  0.9679  0.1295 -0.3350
 1146TIP3    H1 3444   2.580   5.143   0.212  0.3539  0.3463 -1.2394
 1146TIP3    H2 3445   2.485   5.026   0.227  0.6692  0.0991 -1.1731
 1147TIP3   OH2 3446   0.496   3.126   4.766  0.2022  0.4316  0.0584
 1147TIP3    H1 3447   0.566   3.111   4.702  0.6666  3.7322 -0.3471
 1147TIP3    H2 3448   0.416   3.110   4.716  0.6053  0.9727 -0.8034
 1148TIP3   OH2 3449   1.591   2.734   3.894  0.2987  0.4906  0.0139
 1148TIP3    H1 3450   1.639   2.675   3.952  0.2926 -0.8800 -1.3133
 1148TIP3    H2 3451   1.631   2.820   3.907 -0.5874  0.5540  3.0241
 1149TIP3   OH2 3452   1.004   5.822   3.599  0.1207 -0.5752 -0.4506
 1149TIP3    H1 3453   0.920   5.860   3.626  0.0306 -1.6423  0.8860
 1149TIP3    H2 3454   1.010   5.842   3.506 -1.3846 -0.0464 -0.4648
 1150TIP3   OH2 3455   3.741   0.104   3.501  0.2397  0.3215  0.7099
 1150TIP3    H1 3456   3.836   0.110   3.486 -0.1649  1.6336 -1.8984
 1150TIP3    H2 3457   3.709   0.193   3.488 -1.4451 -0.1910  1.0889
 1151TIP3   OH2 3458   5.026   2.355   2.994  0.7191 -0.2743  0.9166
 1151TIP3    H1 3459   5.059   2.360   2.905  0.0271 -1.5290  0.5644
 1151TIP3    H2 3460   5.105   2.354   3.049  1.2540 -1.6448  0.1779
 1152TIP3   OH2 3461   0.535   1.217   3.313  0.1338  0.2289 -0.2896
 1152TIP3    H1 3462   0.441   1.200   3.309 -0.2093  0.5218  3.1566
 1152TIP3    H2 3463   0.544   1.309   3.286 -0.4786  0.0689 -1.0727
 1153TIP3   OH2 3464   3.354   0.808   3.936 -0.1874 -0.5383  0.4363
 1153TIP3    H1 3465   3.294   0.853   3.996 -0.9230  0.6742 -1.1521
 1153TIP3    H2 3466   3.325   0.716   3.938 -2.0164 -0.0013 -0.1693
 1154TIP3   OH2 3467   3.880   0.290   1.468 -0.7731  0.0718  0.9968
 1154TIP3    H1 3468   3.937   0.217   1.492 -0.8787 -0.0872  0.7642
 1154TIP3    H2 3469   3.863   0.278   1.374 -2.7825 -0.9822  1.4626
 1155TIP3   OH2 3470   4.559   3.126   0.636  0.7765 -0.3385 -0.4102
 1155TIP3    H1 3471   4.534   3.064   0.568  0.3952 -0.6268 -0.0134
 1155TIP3    H2 3472   4.571   3.072   0.714 -0.5574  0.2023  0.1992
 1156TIP3   OH2 3473   5.000   0.483   3.507 -0.0521 -0.2512 -0.5517
 1156TIP3    H1 3474   5.043   0.435   3.436 -0.7114 -2.2601  0.3168
 1156TIP3    H2 3475   4.932   0.535   3.463  1.0379  0.3597 -1.5860
 1157TIP3   OH2 3476   0.360   3.657   0.964  0.0360  0.0135  0.3125
 1157TIP3    H1 3477   0.423   3.704   0.910  1.5037 -1.1234  0.9742
 1157TIP3    H2 3478   0.321   3.724   1.021  2.1602  0.4568  1.3257
 1158TIP3   OH2 3479   2.389   5.435   4.490  0.4940  0.4597 -0.1317
 1158TIP3    H1 3480   2.436   5.390   4.561 -0.3471  0.4031  0.4040
 1158TIP3    H2 3481   2.417   5.390   4.411  0.3781 -0.4126  0.3062
 1159TIP3   OH2 3482   3.081   4.699   1.331 -0.2850  0.8131  0.6150
 1159TIP3    H1 3483   3.060   4.759   1.259  0.6634  0.4450  0.0065
 1159TIP3    H2 3484   2.996   4.680   1.372 -0.7837  1.3951 -0.1104
 1160TIP3   OH2 3485   4.116   2.008   4.824  0.0213 -0.1983 -0.0406
 1160TIP3    H1 3486   4.053   1.990   4.894  0.3142 -1.3994 -0.0671
 1160TIP3    H2 3487   4.101   2.100   4.801 -1.3054 -0.2929  0.3685
 1161TIP3   OH2 3488   4.752   2.717   4.029  0.5735 -0.3487 -0.2824
 1161TIP3    H1 3489   4.706   2.639   3.996  0.6605 -0.5369  0.0365
 1161TIP3    H2 3490   4.834   2.719   3.979 -0.4140  0.8606 -1.9842
 1162TIP3   OH2 3491   1.394   5.337   4.200 -0.1372 -0.1153  0.2726
 1162TIP3    H1 3492   1.398   5.429   4.225  1.5504  1.4409 -4.6813
 1162TIP3    H2 3493   1.314   5.330   4.147  1.4217 -0.5235 -2.1638
 1163TIP3   OH2 3494   1.245   2.381   1.734 -0.3909  0.1217 -0.2373
 1163TIP3    H1 3495   1.163   2.338   1.708  0.3844 -0.2590 -2.1849
 1163TIP3    H2 3496   1.222   2.474   1.738 -1.2493 -0.1046  0.6636
 1164TIP3   OH2 3497   0.149   4.728   1.920 -0.0163  0.1276  0.3751
 1164TIP3    H1 3498   0.204   4.730   1.999  0.7867 -0.3935 -0.1623
 1164TIP3    H2 3499   0.079   4.791   1.939  0.4333  0.3710  1.3102
 1165TIP3   OH2 3500   3.678   3.739   3.003 -0.1605 -0.6195 -0.3728
 1165TIP3    H1 3501   3.726   3.820   2.988  1.4423 -1.2469  0.9790
 1165TIP3    H2 3502   3.721   3.675   2.947  0.2063 -1.0428  0.3670
 1166TIP3   OH2 3503   2.677   5.775   2.779  0.0460 -0.4078 -0.4832
 1166TIP3    H1 3504   2.640   5.861   2.759  1.4891  0.8092  1.6178
 1166TIP3    H2 3505   2.769   5.782   2.755  0.3101 -1.1630  0.2444
 1167TIP3   OH2 3506   2.658   1.432   0.182  0.0474  0.2092  0.0137
 1167TIP3    H1 3507   2.643   1.450   0.090 -0.2795 -0.7732 -0.1310
 1167TIP3    H2 3508   2.691   1.515   0.217 -0.8293  0.9054 -0.7498
 1168TIP3   OH2 3509   3.018   3.957   2.930  0.4322 -0.0538 -0.5539
 1168TIP3    H1 3510   3.103   3.946   2.973  0.7749  1.0955 -0.9143
 1168TIP3    H2 3511   2.960   3.988   2.999 -0.3578 -3.0479  0.2930
 1169TIP3   OH2 3512   0.699   3.044   4.043 -0.0055  0.5048 -0.0216
 1169TIP3    H1 3513   0.722   3.033   3.951  2.1762 -0.6229  0.6138
 1169TIP3    H2 3514   0.701   2.956   4.079 -0.9389  0.9223  1.1084
 1170TIP3   OH2 3515   1.024   0.245   1.691 -0.4687  0.0967  0.6952
 1170TIP3    H1 3516   1.096   0.183   1.693  0.7097  1.3940  0.3727
 1170TIP3    H2 3517   0.961   0.212   1.754  0.4286 -1.0513  1.0098
 1171TIP3   OH2 3518   4.479   0.869   1.145  0.1547 -0.1377 -0.1071
 1171TIP3    H1 3519   4.530   0.936   1.191  0.4039  0.7916 -1.6433
 1171TIP3    H2 3520   4.388   0.889   1.167  0.2939 -0.0242  0.3771
 1172TIP3   OH2 3521   0.725   3.799   1.347 -0.7434  0.4323  0.2919
 1172TIP3    H1 3522   0.767   3.883   1.367  0.3304 -0.1787  0.7106
 1172TIP3    H2 3523   0.684   3.813   1.262  0.9566  0.8718 -0.5152
 1173TIP3   OH2 3524   1.439   4.530   2.913 -0.2940 -0.0296  0.3484
 1173TIP3    H1 3525   1.450   4.621   2.941  0.6732  0.2555 -0.8507
 1173TIP3    H2 3526   1.367   4.497   2.966 -0.5148  1.3672  0.9677
 1174TIP3   OH2 3527   4.283   4.895   0.996  0.1161 -0.0813  0.4347
 1174TIP3    H1 3528   4.375   4.912   0.977 -0.1011  0.9837  0.2737
 1174TIP3    H2 3529   4.264   4.813   0.949  1.2074 -0.8179  1.2458
 1175TIP3   OH2 3530   5.845   3.359   3.932  0.3292 -0.5670  0.8621
 1175TIP3    H1 3531   5.875   3.448   3.953  0.3930 -0.8740  2.1609
 1175TIP3    H2 3532   5.923   3.315   3.898 -0.2300  0.5215 -2.1496
 1176TIP3   OH2 3533   4.825   3.270   0.674  0.3887  0.2904  0.2159
 1176TIP3    H1 3534   4.830   3.208   0.747  1.4412 -1.3353 -1.1358
 1176TIP3    H2 3535   4.734   3.299   0.673  0.5114  0.9247  2.5781
 1177TIP3   OH2 3536   3.514   4.032   2.008 -0.0196  0.7619  0.2194
 1177TIP3    H1 3537   3.552   4.113   1.974  1.5449  0.6670  1.6053
 1177TIP3    H2 3538   3.559   4.019   2.092  0.6311 -2.1456 -0.4919
 1178TIP3   OH2 3539   1.202   1.858   2.239 -0.8115 -0.0363  0.4478
 1178TIP3    H1 3540   1.264   1.924   2.209 -1.0142  0.4795  1.1466
 1178TIP3    H2 3541   1.257   1.782   2.261 -0.0047  1.2756  3.6508
 1179TIP3   OH2 3542   2.468   0.336   3.365  0.4277 -0.4042  0.6996
 1179TIP3    H1 3543   2.535   0.386   3.319  1.5435 -1.9562  0.5676
 1179TIP3    H2 3544   2.405   0.402   3.394  1.3671  0.9604 -0.2372
 1180TIP3   OH2 3545   5.423   3.366   2.152  0.1464 -0.3709  0.2436
 1180TIP3    H1 3546   5.411   3.337   2.061  0.5522  0.5348 -0.1098
 1180TIP3    H2 3547   5.387   3.454   2.154 -0.6187 -0.6874  1.1843
 1181TIP3   OH2 3548   2.412   4.735   4.776  0.3469  0.5366 -0.2311
 1181TIP3    H1 3549   2.319   4.748   4.754  0.1879 -0.7537 -0.4019
 1181TIP3    H2 3550   2.438   4.817   4.817 -1.5027  0.1598  1.9383
 1182TIP3   OH2 3551   0.237   1.769   4.163  0.1392 -0.1363  0.4457
 1182TIP3    H1 3552   0.296   1.790   4.236  0.0189  0.6096  0.3413
 1182TIP3    H2 3553   0.180   1.846   4.157  0.0576 -0.2583 -0.3475
 1183TIP3   OH2 3554   3.949   2.707   3.871  0.7666  0.2573 -0.2804
 1183TIP3    H1 3555   3.956   2.720   3.776  0.0229 -0.3921 -0.4340
 1183TIP3    H2 3556   3.888   2.634   3.880 -0.3305  1.2772  0.7523
 1184TIP3   OH2 3557   2.153   5.585   2.453 -0.1099 -0.7533 -0.2187
 1184TIP3    H1 3558   2.173   5.607   2.362 -1.8584 -0.7319 -0.6293
 1184TIP3    H2 3559   2.144   5.669   2.497  1.6256 -0.7619  0.2177
 1185TIP3   OH2 3560   0.814   3.084   2.116  0.0293 -0.4383 -0.4983
 1185TIP3    H1 3561   0.898   3.083   2.071 -0.3451  0.9589 -1.2843
 1185TIP3    H2 3562   0.781   3.173   2.103 -0.8311 -0.4787  1.1884
 1186TIP3   OH2 3563   5.826   0.063   0.477 -0.0140 -0.1499  0.1597
 1186TIP3    H1 3564   5.785   0.032   0.557 -0.5542  1.3721  0.5234
 1186TIP3    H2 3565   5.822   0.159   0.484  1.9236  0.0542 -0.6681
 1187TIP3   OH2 3566   1.556   5.564   1.857  0.3450  0.0556 -0.1765
 1187TIP3    H1 3567   1.489   5.552   1.923 -0.2323  2.4522 -0.2280
 1187TIP3    H2 3568   1.637   5.578   1.906  0.0139  1.3010  0.0442
 1188TIP3   OH2 3569   1.392   1.323   1.736 -0.2557 -0.3815  0.0707
 1188TIP3    H1 3570   1.336   1.304   1.661  0.8132  0.9386 -1.1154
 1188TIP3    H2 3571   1.339   1.381   1.792 -0.4802 -0.0516 -0.4782
 1189TIP3   OH2 3572   1.749   3.071   4.595  0.0777  0.0353 -0.0862
 1189TIP3    H1 3573   1.821   3.010   4.611 -0.6425 -0.6907  0.5085
 1189TIP3    H2 3574   1.767   3.109   4.510  0.7332 -0.7546 -0.3086
 1190TIP3   OH2 3575   2.701   2.579   1.584 -0.4315 -0.0315  0.0283
 1190TIP3    H1 3576   2.675   2.512   1.521  0.6375  0.3101 -0.7998
 1190TIP3    H2 3577   2.777   2.541   1.630  0.3604  0.6945 -0.6442
 1191TIP3   OH2 3578   4.389   5.963   2.401 -0.2184  0.2837 -0.1946
 1191TIP3    H1 3579   4.390   5.868   2.404  0.7202  0.2644 -0.5974
 1191TIP3    H2 3580   4.297   5.987   2.401 -0.4604 -0.6305 -0.3122
 1192TIP3   OH2 3581   1.522   5.438   3.591 -0.3560  0.1297 -0.2963
 1192TIP3    H1 3582   1.529   5.424   3.686 -0.5693  1.5239 -0.0532
 1192TIP3    H2 3583   1.544   5.353   3.553 -0.2324 -0.4495  0.9994
 1193TIP3   OH2 3584   0.783   0.967   2.575  0.1355 -0.2595 -0.5530
 1193TIP3    H1 3585   0.688   0.960   2.562  0.0490 -1.7122  0.4987
 1193TIP3    H2 3586   0.797   0.927   2.661  1.6484  0.4489 -0.4488
 1194TIP3   OH2 3587   4.800   1.413   0.546 -0.5577 -0.0157  0.2247
 1194TIP3    H1 3588   4.862   1.398   0.617  1.2354  2.2388 -0.7581
 1194TIP3    H2 3589   4.817   1.341   0.485  1.7157  0.9831 -0.3975
 1195TIP3   OH2 3590   3.192   2.557   4.949  0.1394 -0.1651  0.0647
 1195TIP3    H1 3591   3.282   2.583   4.972  0.7805 -0.4355 -1.9128
 1195TIP3    H2 3592   3.202   2.470   4.910 -1.0617 -0.4369  0.3410
 1196TIP3   OH2 3593   3.331   3.198   1.519  0.3728  0.6781 -0.7501
 1196TIP3    H1 3594   3.261   3.186   1.582  2.2601 -0.8084  1.2212
 1196TIP3    H2 3595   3.311   3.136   1.448 -0.2115  0.1361 -0.1246
 1197TIP3   OH2 3596   4.653   5.769   3.590  0.9946 -0.5045  0.3217
 1197TIP3    H1 3597   4.639   5.802   3.501 -1.4063 -3.1681 -0.4639
 1197TIP3    H2 3598   4.598   5.825   3.645 -0.6511 -1.1823 -0.5376
 1198TIP3   OH2 3599   1.583   3.972   2.507 -0.5068  0.1931  1.2938
 1198TIP3    H1 3600   1.645   3.915   2.462 -0.2434  0.2757  1.5429
 1198TIP3    H2 3601   1.521   3.912   2.548 -0.6583  0.1137  0.9517
 1199TIP3   OH2 3602   0.250   0.654   4.694  0.9140 -0.2403 -0.4221
 1199TIP3    H1 3603   0.274   0.561   4.699  0.4203 -0.5869 -3.1432
 1199TIP3    H2 3604   0.157   0.656   4.717  1.3951 -0.0539  1.7480
 1200TIP3   OH2 3605   0.690   0.265   0.186  0.5079 -0.2732  0.1016
 1200TIP3    H1 3606   0.694   0.328   0.258 -0.9113 -0.4971  0.3968
 1200TIP3    H2 3607   0.598   0.266   0.158  0.3401 -2.5358  0.4252
 1201TIP3   OH2 3608   0.874   1.890   0.873  0.0782 -0.1278 -0.5751
 1201TIP3    H1 3609   0.836   1.951   0.936 -1.5904 -0.8238 -0.8487
 1201TIP3    H2 3610   0.933   1.943   0.820 -0.7712  1.0978 -0.3341
 1202TIP3   OH2 3611   3.944   0.374   0.344 -0.4994  0.5969 -0.1258
 1202TIP3    H1 3612   3.883   0.352   0.414 -0.0898  1.5767  0.5558
 1202TIP3    H2 3613   3.890   0.422   0.280 -1.3481 -1.9996 -1.5199
 1203TIP3   OH2 3614   4.724   4.384   5.111  0.3869 -0.2192 -0.0632
 1203TIP3    H1 3615   4.755   4.308   5.061  0.3948  0.5039 -1.1881
 1203TIP3    H2 3616   4.713   4.453   5.045  0.3617  0.7533  0.9408
 1204TIP3   OH2 3617   0.979   4.697   0.195  0.1168  0.1259  0.3330
 1204TIP3    H1 3618   0.945   4.784   0.175 -0.7018 -0.1183  0.6451
 1204TIP3    H2 3619   1.016   4.666   0.112  0.6807  0.8812  0.2914
 1205TIP3   OH2 3620   3.559   0.421   2.800 -0.1920  0.1960  0.3950
 1205TIP3    H1 3621   3.629   0.424   2.865  0.1329 -1.2970  0.1477
 1205TIP3    H2 3622   3.540   0.513   2.782  0.4693  0.6315  1.7706
 1206TIP3   OH2 3623   1.877   3.556   2.869  0.2342  0.0115  0.2405
 1206TIP3    H1 3624   1.876   3.593   2.957 -0.7489  2.3162 -0.6315
 1206TIP3    H2 3625   1.836   3.470   2.878  0.5249  0.0355  2.0828
 1207TIP3   OH2 3626   3.226   5.680   0.968  0.2009 -0.0309 -0.0130
 1207TIP3    H1 3627   3.196   5.647   1.053  1.6114  0.5236  0.7183
 1207TIP3    H2 3628   3.287   5.751   0.989 -0.3741  0.9606 -1.5129
 1208TIP3   OH2 3629   6.251   3.019   2.425 -0.9297  0.0918 -0.9601
 1208TIP3    H1 3630   6.274   2.929   2.448  1.2067  0.3654 -1.8605
 1208TIP3    H2 3631   6.178   3.040   2.483 -0.1900 -1.5481  0.6569
 1209TIP3   OH2 3632   5.420   1.234   3.717  0.0224 -0.4212  0.6722
 1209TIP3    H1 3633   5.404   1.147   3.751  0.5713 -0.2639  1.3527
 1209TIP3    H2 3634   5.502   1.226   3.668 -1.0412 -0.7753 -1.1341
 1210TIP3   OH2 3635   1.909   0.481   1.054  0.5133  0.2171 -0.1620
 1210TIP3    H1 3636   1.958   0.530   0.988  0.8819 -0.3002 -0.2817
 1210TIP3    H2 3637   1.977   0.436   1.104  0.1697 -0.3703 -0.2174
 1211TIP3   OH2 3638   1.490   3.219   2.638  0.2115  0.3917  1.1168
 1211TIP3    H1 3639   1.433   3.189   2.709  0.2014  1.0060  1.3768
 1211TIP3    H2 3640   1.442   3.289   2.596 -0.3367 -0.8258 -0.3471
 1212TIP3   OH2 3641   4.297   2.540   1.336 -0.1662  0.0382 -0.1023
 1212TIP3    H1 3642   4.223   2.599   1.321 -1.0520 -1.6192 -3.0907
 1212TIP3    H2 3643   4.373   2.589   1.307 -0.2014  1.2691  1.7247
 1213TIP3   OH2 3644   2.844   4.049   2.743 -0.3755 -0.1300 -0.4802
 1213TIP3    H1 3645   2.844   4.010   2.656 -1.0590 -0.8075 -0.1881
 1213TIP3    H2 3646   2.912   4.002   2.791  1.4197  1.5905 -1.1988
 1214TIP3   OH2 3647   1.676   4.348   4.495  0.1550 -0.4315 -0.0198
 1214TIP3    H1 3648   1.663   4.267   4.545  0.4655 -0.5645 -0.1491
 1214TIP3    H2 3649   1.761   4.336   4.453  0.0591 -0.1677 -0.2901
 1215TIP3   OH2 3650   6.171   5.043   3.509 -0.2493 -0.1243 -0.1003
 1215TIP3    H1 3651   6.213   4.964   3.542 -0.4126  0.4474  1.5782
 1215TIP3    H2 3652   6.234   5.113   3.528 -0.7833  0.3601 -0.0874
 1216TIP3   OH2 3653   2.367   0.031   0.250 -0.0248  0.1293  0.5931
 1216TIP3    H1 3654   2.304   0.098   0.277  0.1604  0.8647 -0.7198
 1216TIP3    H2 3655   2.317  -0.050   0.247 -1.1933  0.8589 -1.3491
 1217TIP3   OH2 3656   0.453   1.221   4.804 -0.3847 -0.1153  0.1728
 1217TIP3    H1 3657   0.470   1.311   4.777 -0.8007 -0.8652 -2.9453
 1217TIP3    H2 3658   0.517   1.205   4.874  0.0030  2.4163  0.4966
 1218TIP3   OH2 3659   4.260   3.197   4.252  0.1452  0.0767  0.0838
 1218TIP3    H1 3660   4.335   3.178   4.309 -0.6391 -1.2921  0.7108
 1218TIP3    H2 3661   4.231   3.111   4.222 -0.9419  0.6173 -0.4675
 1219TIP3   OH2 3662   3.341   4.309   1.284  0.2027  0.3381 -0.2962
 1219TIP3    H1 3663   3.294   4.360   1.350 -0.4228 -0.3995 -0.1628
 1219TIP3    H2 3664   3.422   4.282   1.328  0.9706  1.9529 -0.6614
 1220TIP3   OH2 3665   6.086   1.911   1.853  0.6269 -0.1139  0.1244
 1220TIP3    H1 3666   6.127   1.898   1.939  0.0120  0.3632  0.5025
 1220TIP3    H2 3667   6.013   1.970   1.871  0.7964  0.3883 -0.8267
 1221TIP3   OH2 3668  -0.008   3.060   0.191  0.1441  0.1040 -0.2640
 1221TIP3    H1 3669  -0.052   3.128   0.243 -0.0813 -0.0293 -0.2830
 1221TIP3    H2 3670   0.064   3.107   0.148  0.5306  0.1529  0.4195
 1222TIP3   OH2 3671   0.374   4.548   1.516 -0.2104  0.0689 -0.2310
 1222TIP3    H1 3672   0.341   4.638   1.522 -1.4888 -0.4033  0.0184
 1222TIP3    H2 3673   0.346   4.507   1.598  2.5335  0.0997  0.8418
 1223TIP3   OH2 3674   5.495   3.246   3.263  0.6039  0.3613 -0.1097
 1223TIP3    H1 3675   5.548   3.288   3.195  0.2026  0.5811 -0.2877
 1223TIP3    H2 3676   5.452   3.318   3.308 -2.0124  0.1138 -1.9566
 1224TIP3   OH2 3677   5.147   3.608   1.079  0.0200  0.3436  0.0393
 1224TIP3    H1 3678   5.112   3.640   1.163 -0.3250 -0.8934  0.3836
 1224TIP3    H2 3679   5.069   3.586   1.028  0.2596 -0.4630  0.0216
 1225TIP3   OH2 3680   2.786   5.318   4.188 -0.3637 -0.0972  0.6803
 1225TIP3    H1 3681   2.860   5.273   4.148 -0.5325  0.4229 -0.2256
 1225TIP3    H2 3682   2.709   5.269   4.158 -0.5956  1.1311 -0.8064
 1226TIP3   OH2 3683   3.485   0.481   2.449 -0.0720 -0.1524 -0.2583
 1226TIP3    H1 3684   3.521   0.556   2.401  0.1736 -0.6666 -0.8985
 1226TIP3    H2 3685   3.542   0.408   2.425 -1.7430 -1.0787 -1.6237
 1227TIP3   OH2 3686   1.677   4.702   4.951 -0.0151  0.1003  0.0379
 1227TIP3    H1 3687   1.707   4.779   5.000 -1.8771  0.1661  1.1651
 1227TIP3    H2 3688   1.676   4.730   4.860 -0.7321  1.4725  0.4437
 1228TIP3   OH2 3689   0.163   5.890   2.536  0.2249 -0.1406 -0.0056
 1228TIP3    H1 3690   0.124   5.886   2.623 -0.1588 -0.3382 -0.1864
 1228TIP3    H2 3691   0.093   5.864   2.477  0.0313  1.3941 -0.5084
 1229TIP3   OH2 3692   0.615   3.287   2.899  0.6299 -0.3110 -0.0279
 1229TIP3    H1 3693   0.532   3.292   2.946 -0.0359 -1.6722 -0.9723
 1229TIP3    H2 3694   0.655   3.205   2.928  1.6672  0.3186  0.4036
 1230TIP3   OH2 3695   2.805   0.795   2.064 -0.5722  0.0977  0.1773
 1230TIP3    H1 3696   2.825   0.782   1.971 -2.3685 -0.7105 -0.1461
 1230TIP3    H2 3697   2.834   0.715   2.107  0.9844  0.7821  0.4964
 1231TIP3   OH2 3698   1.993   4.173   5.048 -0.1031  0.4637 -0.4280
 1231TIP3    H1 3699   2.040   4.105   5.000 -0.4921  0.2484 -0.5077
 1231TIP3    H2 3700   1.903   4.168   5.015  0.2854  2.3595 -1.9080
 1232TIP3   OH2 3701   3.749   3.302   1.936  0.2294  0.5226 -0.2003
 1232TIP3    H1 3702   3.732   3.262   1.851  0.0674 -0.0075  0.0693
 1232TIP3    H2 3703   3.842   3.323   1.935 -0.0989  2.0640 -1.1326
 1233TIP3   OH2 3704   4.672   4.575   4.868  0.5524  0.3237  0.1686
 1233TIP3    H1 3705   4.752   4.609   4.828  0.3417  1.0278  0.3236
 1233TIP3    H2 3706   4.604   4.588   4.802  0.1050  1.9484  0.8777
 1234TIP3   OH2 3707   0.784   3.041   1.118 -0.3483 -0.1608 -0.0629
 1234TIP3    H1 3708   0.860   3.023   1.174 -2.5743 -0.9596  2.9475
 1234TIP3    H2 3709   0.788   2.974   1.050  0.1590 -2.0499  1.7201
 1235TIP3   OH2 3710   4.001   1.034   4.847 -0.2289  0.0283  0.0676
 1235TIP3    H1 3711   4.040   0.946   4.849  1.3229  0.6778  0.3229
 1235TIP3    H2 3712   4.072   1.092   4.876 -0.6017  1.5897 -1.9058
 1236TIP3   OH2 3713   6.294   1.419   0.019  0.5986 -0.0706  0.2359
 1236TIP3    H1 3714   6.333   1.349   0.070  0.0575  1.2489  2.6095
 1236TIP3    H2 3715   6.259   1.376  -0.059  3.0471 -1.9010  0.0489
 1237TIP3   OH2 3716   1.599   0.541   0.380 -0.4236  0.2629  0.2715
 1237TIP3    H1 3717   1.673   0.561   0.436 -0.1863 -1.5452  0.6743
 1237TIP3    H2 3718   1.600   0.609   0.313  2.2617 -0.2765 -0.3454
 1238TIP3   OH2 3719   2.293   5.087   4.351  0.3551 -0.0112 -0.1801
 1238TIP3    H1 3720   2.297   5.123   4.439 -0.3421  0.8438 -0.4778
 1238TIP3    H2 3721   2.356   5.140   4.301  0.8684 -0.5985 -0.1721
 1239TIP3   OH2 3722   6.140   0.635   5.138  0.7521 -0.2160 -0.7655
 1239TIP3    H1 3723   6.232   0.656   5.127  0.4619  3.1112  1.7397
 1239TIP3    H2 3724   6.095   0.689   5.072  0.4680  0.6198  0.0918
 1240TIP3   OH2 3725   0.018   1.552   4.277 -0.2257 -0.5006 -0.4957
 1240TIP3    H1 3726   0.038   1.645   4.289 -0.2557 -0.3378 -1.5695
 1240TIP3    H2 3727   0.033   1.537   4.184  0.0728 -1.6514 -0.2711
 1241TIP3   OH2 3728   3.512   4.760   5.109 -0.1225  0.2399  0.4266
 1241TIP3    H1 3729   3.599   4.797   5.101  0.7133 -1.8034 -0.6058
 1241TIP3    H2 3730   3.455   4.823   5.064  1.1649  0.4854 -0.9293
 1242TIP3   OH2 3731   1.583   5.360   3.882  0.3090 -0.8258  0.2464
 1242TIP3    H1 3732   1.654   5.410   3.922  0.8804 -1.5831  0.1943
 1242TIP3    H2 3733   1.590   5.273   3.920  0.3251 -1.3201 -0.8576
 1243TIP3   OH2 3734   3.770   5.749   1.805  0.1968  0.0113  0.1586
 1243TIP3    H1 3735   3.793   5.826   1.857 -0.1066 -0.8147  1.5780
 1243TIP3    H2 3736   3.770   5.780   1.714  0.2763  1.6255  0.6785
 1244TIP3   OH2 3737   4.451   0.846   2.179  0.8474  0.1402  0.0386
 1244TIP3    H1 3738   4.544   0.854   2.202  1.3960  0.8031 -2.1819
 1244TIP3    H2 3739   4.448   0.783   2.107 -0.2521  1.0505 -0.7567
 1245TIP3   OH2 3740   1.218   3.715   4.252  0.0688  0.1159  0.2521
 1245TIP3    H1 3741   1.238   3.631   4.211 -0.2525 -0.0255  0.3889
 1245TIP3    H2 3742   1.303   3.760   4.257  0.1129  0.1175 -0.5276
 1246TIP3   OH2 3743   6.181   1.457   3.657 -0.8511 -0.5458  0.3462
 1246TIP3    H1 3744   6.132   1.538   3.644 -3.6053 -1.9103  1.2892
 1246TIP3    H2 3745   6.234   1.448   3.578  2.3032  3.7667  1.5894
 1247TIP3   OH2 3746   1.350   0.374   2.857  0.3848  0.2077  0.2838
 1247TIP3    H1 3747   1.420   0.311   2.873  0.8652  0.3351 -1.1714
 1247TIP3    H2 3748   1.384   0.457   2.892  1.0733  0.3122 -0.5825
 1248TIP3   OH2 3749   4.561   1.538   0.436 -0.0775 -0.1881 -0.2123
 1248TIP3    H1 3750   4.576   1.627   0.467 -0.2959 -0.0502 -0.5015
 1248TIP3    H2 3751   4.640   1.490   0.462 -0.3584 -0.1426  0.7729
 1249TIP3   OH2 3752   1.653   4.040   3.426  0.1037 -0.1473  0.3269
 1249TIP3    H1 3753   1.674   4.050   3.333 -0.8083 -0.5337  0.0655
 1249TIP3    H2 3754   1.609   4.121   3.450  0.1868 -0.1175  0.3804
 1250TIP3   OH2 3755   0.280   3.534   3.349 -0.5021  0.0220  0.0395
 1250TIP3    H1 3756   0.221   3.496   3.284 -0.8903 -0.0754  0.4414
 1250TIP3    H2 3757   0.350   3.574   3.298 -0.9134  0.1323 -0.4420
 1251TIP3   OH2 3758   1.997   1.998   4.622  0.4455  0.4258 -0.4147
 1251TIP3    H1 3759   2.077   1.948   4.608  0.0427 -0.5206  0.4728
 1251TIP3    H2 3760   1.964   1.966   4.706 -0.5667  1.2022 -0.5013
 1252TIP3   OH2 3761   5.786   1.639   1.183 -0.2603 -0.3485 -0.6255
 1252TIP3    H1 3762   5.747   1.689   1.112 -1.1005  1.8723  1.2753
 1252TIP3    H2 3763   5.732   1.560   1.189 -2.1158  0.8678 -0.5306
 1253TIP3   OH2 3764   1.026   2.054   0.709  0.9768 -0.2579  0.0581
 1253TIP3    H1 3765   0.970   2.114   0.660  0.1291 -1.2076 -0.1550
 1253TIP3    H2 3766   1.080   2.013   0.641  0.5161 -0.8223  0.0301
 1254TIP3   OH2 3767   4.423   2.858   5.090  0.1652 -0.5186  0.5934
 1254TIP3    H1 3768   4.482   2.915   5.041  0.6822  0.2352  2.0281
 1254TIP3    H2 3769   4.477   2.823   5.161 -0.5745 -1.5325  0.6856
 1255TIP3   OH2 3770   0.878   4.598   3.954 -0.4002 -0.1579  0.0656
 1255TIP3    H1 3771   0.895   4.597   4.048  0.8416  1.5460 -0.0824
 1255TIP3    H2 3772   0.800   4.654   3.944  0.6894  1.4100 -0.0192
 1256TIP3   OH2 3773   4.272   5.926   1.287 -0.1601 -0.0351  0.1364
 1256TIP3    H1 3774   4.338   5.995   1.294  2.0814 -2.0392 -0.1569
 1256TIP3    H2 3775   4.291   5.883   1.204 -0.9065 -1.5824  0.7217
 1257TIP3   OH2 3776   4.467   2.727   2.682  0.3378  0.9047  0.2063
 1257TIP3    H1 3777   4.421   2.653   2.641  0.1033 -0.2705  2.4292
 1257TIP3    H2 3778   4.409   2.756   2.752 -0.4979  4.5795 -1.7297
 1258TIP3   OH2 3779   3.580   5.275   4.570 -0.6859 -1.0805 -0.4026
 1258TIP3    H1 3780   3.655   5.334   4.578 -0.1145 -1.6319 -1.4361
 1258TIP3    H2 3781   3.517   5.306   4.635  0.9621 -1.4262  1.4237
 1259TIP3   OH2 3782   4.513   4.706   0.870  0.1210 -0.5630  0.3135
 1259TIP3    H1 3783   4.558   4.777   0.915  0.4978  0.6382 -1.7834
 1259TIP3    H2 3784   4.538   4.717   0.778 -1.4170 -2.2062 -0.3675
 1260TIP3   OH2 3785   4.473   3.511   1.238  0.3781  0.0852  0.1922
 1260TIP3    H1 3786   4.459   3.441   1.302  0.1307  0.1332  0.1901
 1260TIP3    H2 3787   4.392   3.562   1.239  0.5155  0.3092  0.1147
 1261TIP3   OH2 3788   3.888   4.599   2.913 -0.2792  0.1114 -0.4582
 1261TIP3    H1 3789   3.805   4.643   2.896 -0.3034  0.1287 -0.2910
 1261TIP3    H2 3790   3.947   4.633   2.846 -0.6843 -0.6714 -1.2382
 1262TIP3   OH2 3791   5.131   4.064   1.883  0.3361  0.0639  0.4032
 1262TIP3    H1 3792   5.097   4.144   1.924  3.5216  1.7812  0.1079
 1262TIP3    H2 3793   5.135   4.086   1.790  0.2798 -0.8378  0.1871
 1263TIP3   OH2 3794   2.814   3.834   4.257  0.3095  0.7179 -0.1106
 1263TIP3    H1 3795   2.771   3.753   4.231 -0.3626  0.1714  2.4891
 1263TIP3    H2 3796   2.907   3.812   4.259  0.3000  0.5472 -1.1600
 1264TIP3   OH2 3797   0.808   4.349   4.811  0.4739 -0.4549  0.3951
 1264TIP3    H1 3798   0.854   4.417   4.763  0.5366  0.7040  1.9994
 1264TIP3    H2 3799   0.756   4.303   4.745  1.1811  0.5152 -0.8700
 1265TIP3   OH2 3800   0.377   3.550   2.060 -0.0377  0.2920 -0.1729
 1265TIP3    H1 3801   0.354   3.532   1.969  0.6625  0.2421 -0.3486
 1265TIP3    H2 3802   0.324   3.490   2.112  0.0265 -0.1190 -0.5850
 1266TIP3   OH2 3803   2.360   0.839   1.174  0.4437 -0.0531  0.1285
 1266TIP3    H1 3804   2.377   0.933   1.175  0.3107 -0.0303  0.9534
 1266TIP3    H2 3805   2.348   0.816   1.266  0.4118 -0.8667 -0.0730
 1267TIP3   OH2 3806   1.798   0.555   1.655 -0.1770 -0.5294  0.1493
 1267TIP3    H1 3807   1.762   0.518   1.736 -0.3454 -2.5744 -0.7740
 1267TIP3    H2 3808   1.751   0.508   1.586  0.1267  1.0035 -1.1502
 1268TIP3   OH2 3809   3.286   1.933   5.160 -0.3496 -0.6411 -0.2527
 1268TIP3    H1 3810   3.344   1.859   5.142 -0.3234 -2.1932  4.7725
 1268TIP3    H2 3811   3.199   1.895   5.165 -0.5650 -0.0524  0.7088
 1269TIP3   OH2 3812   3.376   4.640   3.749  0.1641  0.8749  0.0333
 1269TIP3    H1 3813   3.354   4.709   3.812 -2.1718 -0.2212  0.5290
 1269TIP3    H2 3814   3.324   4.661   3.671  0.3914  0.3363 -0.2687
 1270TIP3   OH2 3815   2.465   3.239   5.170  0.0138  0.9729  0.5933
 1270TIP3    H1 3816   2.411   3.281   5.237 -0.6413 -2.6664  2.6495
 1270TIP3    H2 3817   2.404   3.218   5.099 -0.5583  0.1509  1.2928
 1271TIP3   OH2 3818   3.097   3.600   3.544  0.0902  0.2860  0.2777
 1271TIP3    H1 3819   3.156   3.670   3.572 -0.1324 -0.0047  1.5171
 1271TIP3    H2 3820   3.011   3.627   3.574 -0.2622  0.2038 -0.6151
 1272TIP3   OH2 3821   5.405   5.439   1.576  0.6455 -0.2812  0.4867
 1272TIP3    H1 3822   5.457   5.377   1.628  3.1946  0.8578 -0.4935
 1272TIP3    H2 3823   5.378   5.506   1.638  2.6998  0.4832  0.6349
 1273TIP3   OH2 3824   4.005   0.557   2.976  0.3364 -0.4479 -0.3395
 1273TIP3    H1 3825   3.987   0.648   2.953  1.7543 -0.0283  0.0818
 1273TIP3    H2 3826   4.083   0.562   3.031  1.2610 -2.0287 -1.4289
 1274TIP3   OH2 3827   3.613   3.439   4.383  0.1669 -0.3527 -0.0917
 1274TIP3    H1 3828   3.631   3.395   4.300  1.7865  0.5863 -0.2827
 1274TIP3    H2 3829   3.536   3.493   4.366  1.0001  0.5122 -1.2834
 1275TIP3   OH2 3830   2.672   2.094   3.716 -0.1384 -0.0829  0.0619
 1275TIP3    H1 3831   2.669   2.062   3.806  0.0236  0.0821  0.1265
 1275TIP3    H2 3832   2.757   2.138   3.709  1.0613 -2.3844 -0.9494
 1276TIP3   OH2 3833   1.548   0.195   2.913 -0.1485 -0.3974 -0.4164
 1276TIP3    H1 3834   1.542   0.206   2.818 -0.2943 -0.2538 -0.3905
 1276TIP3    H2 3835   1.642   0.180   2.929 -0.0163  0.3310 -0.5011
 1277TIP3   OH2 3836   5.332   4.421   1.030 -0.3310  0.5353 -0.2361
 1277TIP3    H1 3837   5.310   4.340   0.983 -1.1621  0.8757 -0.4580
 1277TIP3    H2 3838   5.381   4.472   0.966 -0.9185  0.7338 -0.5425
 1278TIP3   OH2 3839   1.185   5.539   0.591  0.2839 -0.3817 -0.8851
 1278TIP3    H1 3840   1.236   5.460   0.573  0.8404 -0.1318 -0.4319
 1278TIP3    H2 3841   1.250   5.609   0.595 -0.0810 -0.0751 -0.1991
 1279TIP3   OH2 3842   5.453   3.973   2.446 -0.3165  0.0974  0.2504
 1279TIP3    H1 3843   5.389   4.012   2.505  0.6338  0.8328  0.8205
 1279TIP3    H2 3844   5.527   3.949   2.502 -0.4261 -1.5516 -0.2584
 1280TIP3   OH2 3845   4.532   0.815   5.165  0.5147  0.2284  0.9064
 1280TIP3    H1 3846   4.496   0.736   5.124 -2.1348  1.4559  0.6397
 1280TIP3    H2 3847   4.549   0.789   5.255  0.5872 -0.8903  0.5905
 1281TIP3   OH2 3848   4.912   1.537   2.363 -0.0987 -0.6170 -0.4653
 1281TIP3    H1 3849   4.820   1.559   2.355 -0.0360  0.2771  0.9597
 1281TIP3    H2 3850   4.919   1.450   2.323 -1.5498 -0.7137 -0.5694
 1282TIP3   OH2 3851   2.650   5.693   2.398  0.1251 -0.0523 -0.1991
 1282TIP3    H1 3852   2.730   5.642   2.386  0.1315 -0.1891  0.4245
 1282TIP3    H2 3853   2.579   5.632   2.379  0.1319 -0.2982  0.5601
 1283TIP3   OH2 3854   5.062   4.835   1.758  0.9293  0.3174  0.4528
 1283TIP3    H1 3855   5.078   4.929   1.748  0.2414  0.4322  0.3622
 1283TIP3    H2 3856   5.083   4.816   1.849  0.9703  0.5802  0.4967
 1284TIP3   OH2 3857   4.059   5.954   4.789 -0.5094  0.0788  0.9023
 1284TIP3    H1 3858   4.021   6.030   4.746  1.0495  0.5876  0.3477
 1284TIP3    H2 3859   4.037   5.964   4.881 -2.3582 -0.0744  0.5069
 1285TIP3   OH2 3860   0.530   3.421   4.980  0.7306  0.4994 -0.5340
 1285TIP3    H1 3861   0.548   3.403   5.072  2.0544 -0.1462 -0.8969
 1285TIP3    H2 3862   0.497   3.511   4.979 -1.4919 -0.2241  0.8006
 1286TIP3   OH2 3863   3.413   5.046   4.229  1.0527  0.3981 -0.0752
 1286TIP3    H1 3864   3.403   5.053   4.324 -0.1299  0.0585 -0.1639
 1286TIP3    H2 3865   3.370   5.125   4.195 -0.2118 -0.4145 -0.4100
 1287TIP3   OH2 3866   2.494   1.383   1.265  0.0267  0.3111  0.3526
 1287TIP3    H1 3867   2.582   1.404   1.233 -0.6040  0.7494 -1.2052
 1287TIP3    H2 3868   2.477   1.295   1.229 -0.1207  0.1772  0.7529
 1288TIP3   OH2 3869   4.148   0.075   2.923 -0.0831  0.1785 -0.4495
 1288TIP3    H1 3870   4.143   0.020   2.845 -1.0630  0.0902 -0.3343
 1288TIP3    H2 3871   4.115   0.160   2.894 -1.4554 -0.1443  0.1151
 1289TIP3   OH2 3872   0.189   5.096   1.049 -0.3988  0.0071 -0.1202
 1289TIP3    H1 3873   0.108   5.044   1.053 -1.3878  1.5468  2.5021
 1289TIP3    H2 3874   0.159   5.187   1.048  1.2697  0.6335  1.2757
 1290TIP3   OH2 3875   2.233   0.615   2.105 -0.2112 -0.3267  0.1503
 1290TIP3    H1 3876   2.316   0.570   2.091 -1.8692 -3.1719 -1.4285
 1290TIP3    H2 3877   2.206   0.588   2.193 -0.5757 -1.4377 -0.2855
 1291TIP3   OH2 3878   0.400   5.824   4.956 -0.2883 -0.1444  0.0694
 1291TIP3    H1 3879   0.444   5.739   4.953 -2.9376 -1.6410  0.5215
 1291TIP3    H2 3880   0.331   5.814   5.023 -2.6632  1.2697 -1.9690
 1292TIP3   OH2 3881   1.101   4.801   1.267 -0.2643  0.1701  0.0729
 1292TIP3    H1 3882   1.013   4.762   1.272  0.1773 -1.0404 -1.2255
 1292TIP3    H2 3883   1.160   4.727   1.265  0.7035  0.9399 -0.7487
 1293TIP3   OH2 3884   3.626   4.476   2.555  0.3125 -0.5968  0.1266
 1293TIP3    H1 3885   3.611   4.500   2.647  1.8716  1.3587 -0.0692
 1293TIP3    H2 3886   3.650   4.383   2.558 -1.3263 -1.0413  1.4640
 1294TIP3   OH2 3887   1.842   3.847   0.943 -0.2032  0.2867  0.1087
 1294TIP3    H1 3888   1.780   3.780   0.973 -0.4519 -0.2671 -1.4945
 1294TIP3    H2 3889   1.903   3.799   0.888  1.5262  0.8814  1.4417
 1295TIP3   OH2 3890   5.046   1.023   2.638  0.3250  0.2466 -0.5303
 1295TIP3    H1 3891   4.957   1.020   2.605  0.2109 -0.0075 -0.2030
 1295TIP3    H2 3892   5.098   0.980   2.570  0.0604 -0.4725 -0.2894
 1296TIP3   OH2 3893   5.269   0.485   1.704  0.0964 -0.6659  0.2937
 1296TIP3    H1 3894   5.232   0.514   1.788  0.3704 -0.0339  0.2054
 1296TIP3    H2 3895   5.254   0.391   1.702  1.0650 -0.8722  1.5394
 1297TIP3   OH2 3896   1.179   1.476   3.545 -0.0302 -0.3089 -0.3153
 1297TIP3    H1 3897   1.253   1.485   3.605 -0.3777  0.1222  0.0554
 1297TIP3    H2 3898   1.101   1.481   3.601 -0.3497 -0.4442 -0.7358
 1298TIP3   OH2 3899   4.654   5.153   5.047 -0.4368  0.5130 -0.1786
 1298TIP3    H1 3900   4.679   5.205   4.970 -1.8894  2.2478  0.4375
 1298TIP3    H2 3901   4.560   5.167   5.055 -0.9999 -2.5979 -0.1623
 1299TIP3   OH2 3902   1.120   1.354   3.957 -0.2647  0.3662  0.1314
 1299TIP3    H1 3903   1.116   1.280   3.897 -1.9695 -0.7096  1.4924
 1299TIP3    H2 3904   1.192   1.333   4.017  0.0753  0.4416 -0.2464
 1300TIP3   OH2 3905   0.772   0.489   4.610  0.3989  0.0505 -0.0375
 1300TIP3    H1 3906   0.857   0.472   4.649  1.0745  1.0824 -0.9774
 1300TIP3    H2 3907   0.718   0.415   4.635  1.2014 -0.0056  1.6363
 1301TIP3   OH2 3908   4.487   2.786   0.379 -0.4070 -0.0326  0.3448
 1301TIP3    H1 3909   4.514   2.838   0.304 -0.7473 -0.0883  0.1822
 1301TIP3    H2 3910   4.551   2.715   0.384  1.1572  1.3751  1.6582
 1302TIP3   OH2 3911   0.495   5.228   2.221  0.4034 -0.7381  0.4774
 1302TIP3    H1 3912   0.541   5.298   2.268 -0.4387  0.2973 -0.1983
 1302TIP3    H2 3913   0.404   5.256   2.219  0.2330 -1.3318 -0.7578
 1303TIP3   OH2 3914   4.832   2.733   3.389  0.0394  0.2291  0.4946
 1303TIP3    H1 3915   4.815   2.639   3.392  1.7859 -0.1030  1.1711
 1303TIP3    H2 3916   4.807   2.765   3.475 -1.1875  0.5288  0.0449
 1304TIP3   OH2 3917   4.610   0.632   1.214 -0.1233  0.0568  0.4940
 1304TIP3    H1 3918   4.571   0.712   1.179 -0.9200 -0.8392 -0.7166
 1304TIP3    H2 3919   4.537   0.582   1.249  0.1316 -0.9142 -0.3246
 1305TIP3   OH2 3920   5.494   1.224   1.952  0.0092  0.0086 -0.1292
 1305TIP3    H1 3921   5.583   1.234   1.919  0.2828  3.5701  1.2467
 1305TIP3    H2 3922   5.503   1.170   2.031  0.6638 -0.9771 -0.8571
 1306TIP3   OH2 3923   4.415   3.189   4.996  0.3223 -0.4193  0.0057
 1306TIP3    H1 3924   4.493   3.220   5.042  0.0074 -0.2007  0.4076
 1306TIP3    H2 3925   4.432   3.208   4.904  0.6574 -0.1857  0.1143
 1307TIP3   OH2 3926   0.054   3.790   1.886  0.1588 -0.1628  0.0110
 1307TIP3    H1 3927   0.110   3.866   1.898 -0.5829  0.4960 -0.6182
 1307TIP3    H2 3928  -0.025   3.808   1.937 -1.2431  0.8211 -2.3424
 1308TIP3   OH2 3929   5.886   2.033   0.943 -0.3445  0.4222 -0.2657
 1308TIP3    H1 3930   5.935   2.026   1.026 -0.8365  0.3595  0.0225
 1308TIP3    H2 3931   5.826   2.106   0.957  0.1128  0.9242 -0.8571
 1309TIP3   OH2 3932   0.313   5.362   0.077  0.1340  0.2079 -0.3828
 1309TIP3    H1 3933   0.301   5.312  -0.004  0.7742  0.0211 -0.3637
 1309TIP3    H2 3934   0.383   5.317   0.124 -0.0626  0.4585  0.1645
 1310TIP3   OH2 3935   0.395   4.106   0.293  0.2452 -0.3703  0.2476
 1310TIP3    H1 3936   0.476   4.056   0.307  0.0351 -0.7795 -0.0086
 1310TIP3    H2 3937   0.378   4.099   0.200 -0.3375 -0.6635  0.3726
 1311TIP3   OH2 3938   5.455   5.167   4.573  0.2466 -0.4165  0.3198
 1311TIP3    H1 3939   5.372   5.131   4.605 -0.8970  2.0760  0.3601
 1311TIP3    H2 3940   5.519   5.142   4.639 -1.1307  0.4079  2.0372
 1312TIP3   OH2 3941   0.280   1.686   4.726  0.7051  0.4663 -0.2746
 1312TIP3    H1 3942   0.301   1.665   4.817 -0.5671  0.0500 -0.0578
 1312TIP3    H2 3943   0.246   1.605   4.690 -1.0106  1.2119 -0.4339
 1313TIP3   OH2 3944   4.061   0.195   3.250 -0.0322  0.8468 -0.3852
 1313TIP3    H1 3945   4.148   0.224   3.274 -0.1206  1.1613 -0.4503
 1313TIP3    H2 3946   4.070   0.163   3.160  0.3493 -0.5383  0.1141
 1314TIP3   OH2 3947   4.359   0.935   3.226  0.3286  0.1998 -0.1245
 1314TIP3    H1 3948   4.365   1.000   3.157  0.7493  0.6503  0.3254
 1314TIP3    H2 3949   4.449   0.904   3.238  0.2405  0.0359  0.1293
 1315TIP3   OH2 3950   2.767   0.591   2.851  0.0900 -0.7201  0.4025
 1315TIP3    H1 3951   2.797   0.662   2.794 -1.2083 -0.4908 -0.0240
 1315TIP3    H2 3952   2.847   0.542   2.872  1.2642  1.6051  1.8013
 1316TIP3   OH2 3953   2.301   4.579   4.456  0.1689 -0.3253  0.4050
 1316TIP3    H1 3954   2.363   4.652   4.463 -0.1026 -0.2537  2.5932
 1316TIP3    H2 3955   2.216   4.620   4.445 -0.1843 -0.1582  3.0604
 1317TIP3   OH2 3956   0.289   1.337   0.612 -0.0465 -0.0072 -0.2504
 1317TIP3    H1 3957   0.237   1.415   0.629 -0.1060 -0.1145  0.0576
 1317TIP3    H2 3958   0.277   1.321   0.518  1.1474  1.2018 -0.6420
 1318TIP3   OH2 3959   1.684   3.263   3.503 -0.2247 -0.3265  0.1129
 1318TIP3    H1 3960   1.748   3.193   3.492 -1.1806 -1.2855  0.4574
 1318TIP3    H2 3961   1.607   3.234   3.455 -0.9267  0.0882  0.9446
 1319TIP3   OH2 3962   4.787   1.187   3.222  0.5565  0.0457 -0.2256
 1319TIP3    H1 3963   4.802   1.237   3.302  0.4763  0.1817 -0.2946
 1319TIP3    H2 3964   4.825   1.101   3.239 -2.6873 -1.2430  1.3934
 1320TIP3   OH2 3965   0.192   1.374   2.903  0.2991 -0.2312 -0.7817
 1320TIP3    H1 3966   0.271   1.409   2.946  0.8774  0.1566 -2.1130
 1320TIP3    H2 3967   0.134   1.450   2.896 -2.0096 -1.2098  3.7874
 1321TIP3   OH2 3968   1.920   3.116   2.752 -0.1548 -0.1788  0.1421
 1321TIP3    H1 3969   1.958   3.043   2.800  0.3122  0.2308  0.4062
 1321TIP3    H2 3970   1.864   3.160   2.817 -1.2778 -0.9057 -0.3018
 1322TIP3   OH2 3971   5.215   5.252   1.135 -0.2836 -0.0684 -0.7365
 1322TIP3    H1 3972   5.226   5.285   1.224 -1.6868 -0.2484 -0.4743
 1322TIP3    H2 3973   5.301   5.217   1.112  0.6480  1.7196 -0.1970
 1323TIP3   OH2 3974   4.945   2.295   4.923  0.2639  0.5520  0.4718
 1323TIP3    H1 3975   4.911   2.362   4.864  1.1712  2.4851  2.0191
 1323TIP3    H2 3976   4.866   2.256   4.961 -0.3215  1.7435  0.5581
 1324TIP3   OH2 3977   2.273   1.972   2.948 -0.0460 -0.0105 -0.0306
 1324TIP3    H1 3978   2.284   1.921   3.028  0.5196  1.7600  1.0628
 1324TIP3    H2 3979   2.218   1.917   2.892 -0.4988 -1.2683  1.5750
 1325TIP3   OH2 3980   3.079   4.582   2.762 -0.3738 -0.0497  0.0252
 1325TIP3    H1 3981   3.135   4.641   2.712 -1.3515  0.4432 -0.5253
 1325TIP3    H2 3982   2.990   4.607   2.737 -0.8428 -0.7761  0.9146
 1326TIP3   OH2 3983   2.486   3.250   1.743  0.0568  0.7096  0.2721
 1326TIP3    H1 3984   2.470   3.320   1.680  3.3806 -0.2230 -1.8826
 1326TIP3    H2 3985   2.425   3.181   1.719  0.0745  1.0498 -0.8219
 1327TIP3   OH2 3986   1.757   2.247   4.507 -0.5208  0.1931 -0.3280
 1327TIP3    H1 3987   1.733   2.315   4.443  1.8161  1.9712  0.5335
 1327TIP3    H2 3988   1.784   2.173   4.453 -0.8643  0.8007 -1.3698
 1328TIP3   OH2 3989   5.055   3.861   4.015 -0.3787  0.3702  0.7407
 1328TIP3    H1 3990   5.125   3.795   4.021 -0.2538  0.5613  1.5543
 1328TIP3    H2 3991   5.084   3.920   3.945 -1.7863 -1.9024 -1.9427
 1329TIP3   OH2 3992   3.204   5.720   1.508  0.0972  0.1346 -0.2467
 1329TIP3    H1 3993   3.118   5.723   1.550 -0.1864 -0.3889 -0.7655
 1329TIP3    H2 3994   3.264   5.757   1.573 -0.6633  1.4645 -0.2744
 1330TIP3   OH2 3995   2.401   1.078   2.775  0.0620  0.4966 -0.2601
 1330TIP3    H1 3996   2.338   1.147   2.753 -0.7733 -0.2753 -0.3675
 1330TIP3    H2 3997   2.391   1.067   2.870 -0.5081 -0.1278 -0.3849
 1331TIP3   OH2 3998   0.565   1.346   2.181  0.3530  0.1887 -0.1061
 1331TIP3    H1 3999   0.555   1.277   2.115 -0.0712 -0.6848  0.8553
 1331TIP3    H2 4000   0.522   1.312   2.259 -0.9968  2.0700  0.0327
 1332TIP3   OH2 4001   1.755   4.548   2.111 -0.2000 -0.1230  0.0473
 1332TIP3    H1 4002   1.827   4.610   2.103 -0.7897  0.5193 -0.4038
 1332TIP3    H2 4003   1.781   4.490   2.183  1.0634 -0.3315 -0.5607
 1333TIP3   OH2 4004   3.358   5.245   1.511  0.2772  0.2816 -0.6986
 1333TIP3    H1 4005   3.410   5.189   1.568 -0.6311  1.2186  1.1453
 1333TIP3    H2 4006   3.421   5.285   1.451  1.3664 -0.1989  0.0988
 1334TIP3   OH2 4007   5.266   0.952   1.032 -0.0947 -0.5401  0.0229
 1334TIP3    H1 4008   5.313   0.977   1.111 -0.8392  0.1844  0.2501
 1334TIP3    H2 4009   5.323   0.978   0.960  0.6325 -1.2941  0.3151
 1335TIP3   OH2 4010   4.322   5.754   1.881 -0.0485  0.6906  0.2894
 1335TIP3    H1 4011   4.294   5.843   1.900  0.9499  1.4485 -1.5759
 1335TIP3    H2 4012   4.245   5.712   1.842 -0.0266  1.2821 -0.4127
 1336TIP3   OH2 4013   5.234   3.444   2.399 -0.4449  0.1081 -0.0771
 1336TIP3    H1 4014   5.319   3.402   2.416 -0.6452 -0.9470 -1.4839
 1336TIP3    H2 4015   5.246   3.488   2.314 -0.7275  1.6205  0.6383
 1337TIP3   OH2 4016   0.874   2.892   1.428  0.2276  0.4408 -0.0691
 1337TIP3    H1 4017   0.961   2.926   1.408  1.0089 -1.0271  0.5941
 1337TIP3    H2 4018   0.830   2.963   1.474  1.6372  0.7083  0.9387
 1338TIP3   OH2 4019   5.267   2.507   4.627 -0.5162  0.1782  0.5976
 1338TIP3    H1 4020   5.252   2.503   4.721 -0.9706  1.1241  0.5711
 1338TIP3    H2 4021   5.346   2.454   4.613  0.6083  1.4691  1.7373
 1339TIP3   OH2 4022   0.889   3.733   4.219 -0.6080  0.1746 -0.0923
 1339TIP3    H1 4023   0.959   3.672   4.195 -2.0386 -0.7472 -2.2465
 1339TIP3    H2 4024   0.911   3.814   4.172  0.0308  0.5744  0.8584
 1340TIP3   OH2 4025   2.841   3.777   1.349 -0.8092  0.0908  0.0420
 1340TIP3    H1 4026   2.829   3.792   1.255  0.8092  2.4261  0.1187
 1340TIP3    H2 4027   2.922   3.727   1.355  0.3344  1.9009  0.2283
 1341TIP3   OH2 4028   4.653   3.575   4.739 -0.1637  0.2357 -0.0118
 1341TIP3    H1 4029   4.668   3.513   4.668 -0.7332  1.2656 -1.0851
 1341TIP3    H2 4030   4.628   3.522   4.814 -1.0309 -0.8031 -1.0099
 1342TIP3   OH2 4031   0.686   0.637   2.238  0.7205 -0.1773  0.0478
 1342TIP3    H1 4032   0.672   0.574   2.309 -1.5679  0.8620  0.5897
 1342TIP3    H2 4033   0.724   0.584   2.167 -0.5940 -2.0899  0.6775
 1343TIP3   OH2 4034   4.548   5.289   4.352 -0.0646 -0.6461 -0.6708
 1343TIP3    H1 4035   4.479   5.333   4.403  0.4047 -0.3267 -0.3066
 1343TIP3    H2 4036   4.502   5.220   4.304 -0.9095  0.4966 -1.5837
 1344TIP3   OH2 4037   0.489   1.224   1.311  0.2775  0.1469 -0.1195
 1344TIP3    H1 4038   0.584   1.226   1.302  0.2913  0.7812  0.0915
 1344TIP3    H2 4039   0.471   1.285   1.382 -0.3507  0.6847 -0.7242
 1345TIP3   OH2 4040   4.305   4.871   2.226 -0.3987  0.1247  0.4913
 1345TIP3    H1 4041   4.355   4.921   2.161 -0.2475 -0.1899  0.3628
 1345TIP3    H2 4042   4.224   4.848   2.181  0.6285 -2.0439 -0.4126
 1346TIP3   OH2 4043   4.131   5.222   0.732 -0.1536  0.2698 -0.2229
 1346TIP3    H1 4044   4.160   5.254   0.817  0.8714  0.1426 -0.5119
 1346TIP3    H2 4045   4.167   5.286   0.669 -0.4227  0.0569 -0.5965
 1347TIP3   OH2 4046   5.042   0.701   0.491  0.0023 -0.5798 -0.4718
 1347TIP3    H1 4047   5.114   0.726   0.433  0.0464 -0.7152 -0.4746
 1347TIP3    H2 4048   5.066   0.615   0.524 -0.0593 -0.5362 -0.3105
 1348TIP3   OH2 4049   5.951   3.755   2.161 -0.1792  0.1096 -0.0700
 1348TIP3    H1 4050   6.012   3.692   2.198 -1.5609 -2.1802 -1.4453
 1348TIP3    H2 4051   5.935   3.818   2.231  1.4581 -0.8956  1.2741
 1349TIP3   OH2 4052   5.846   5.131   0.001 -0.7387 -0.2795  0.3127
 1349TIP3    H1 4053   5.924   5.120   0.056 -0.6030  1.1263  0.4403
 1349TIP3    H2 4054   5.826   5.225   0.006  0.4715  0.3648 -3.6181
 1350TIP3   OH2 4055   4.349   3.251   3.119  0.3589  0.0920 -0.2518
 1350TIP3    H1 4056   4.373   3.198   3.195  1.8627 -1.6968 -1.8618
 1350TIP3    H2 4057   4.406   3.328   3.126  0.2831  0.0853  0.5750
 1351TIP3   OH2 4058   6.092   4.270   3.273 -0.0137 -1.0862  0.5265
 1351TIP3    H1 4059   6.161   4.323   3.313 -0.8662  0.0392  0.5343
 1351TIP3    H2 4060   6.112   4.181   3.301  1.5348 -0.8197  0.3979
 1352TIP3   OH2 4061   3.636   1.105   0.139 -0.3572  0.3301  0.4025
 1352TIP3    H1 4062   3.656   1.197   0.125  0.2051  0.4588  1.9408
 1352TIP3    H2 4063   3.706   1.057   0.094  0.8319  0.7086  1.7962
 1353TIP3   OH2 4064   6.034   4.795   2.832  0.0854  0.1021 -0.1204
 1353TIP3    H1 4065   5.975   4.751   2.770 -0.6084 -0.5276  0.9603
 1353TIP3    H2 4066   6.121   4.784   2.793 -0.5361  1.6117 -2.0626
 1354TIP3   OH2 4067   0.301   4.260   2.555  0.0658 -0.1859  0.3326
 1354TIP3    H1 4068   0.343   4.223   2.632 -0.3776 -0.1988  0.5712
 1354TIP3    H2 4069   0.261   4.341   2.587 -0.8720 -0.6339  0.3215
 1355TIP3   OH2 4070   2.511   2.794   2.377 -0.2239 -0.1449  0.2873
 1355TIP3    H1 4071   2.545   2.705   2.386  0.5813  0.1686  0.4696
 1355TIP3    H2 4072   2.585   2.850   2.401 -0.8459  0.5653  0.5896
 1356TIP3   OH2 4073   1.234   5.822   2.828  0.2944  0.1859  0.6577
 1356TIP3    H1 4074   1.271   5.852   2.744  0.1413  1.3921  0.9939
 1356TIP3    H2 4075   1.297   5.758   2.860  0.1094 -0.6607 -0.6058
 1357TIP3   OH2 4076   1.425   0.327   1.611  0.0991  0.1529 -0.1306
 1357TIP3    H1 4077   1.372   0.249   1.591  2.1316 -1.2334 -0.4899
 1357TIP3    H2 4078   1.397   0.353   1.698 -1.1254 -0.5461 -0.2856
 1358TIP3   OH2 4079   2.984   1.582   1.693  0.1010 -0.0161  0.2382
 1358TIP3    H1 4080   3.058   1.577   1.754 -1.0202 -2.9071  1.5540
 1358TIP3    H2 4081   2.923   1.643   1.735  1.1825  1.4898 -0.2892
 1359TIP3   OH2 4082   0.029   0.672   5.054  0.2276  0.3460 -0.3889
 1359TIP3    H1 4083   0.042   0.595   4.998  1.0340  0.4752 -0.3848
 1359TIP3    H2 4084   0.076   0.742   5.010  0.1192  0.6624 -0.0079
 1360TIP3   OH2 4085   0.608   2.412   4.766 -0.3790 -0.0106 -0.4042
 1360TIP3    H1 4086   0.634   2.412   4.674  0.3255 -2.1624 -0.2678
 1360TIP3    H2 4087   0.607   2.504   4.791 -3.6709  1.0051 -3.3560
 1361TIP3   OH2 4088   0.060   5.871   2.801 -0.0629  0.0892 -0.3277
 1361TIP3    H1 4089   0.064   5.786   2.846 -1.3964  0.2946  0.2165
 1361TIP3    H2 4090  -0.031   5.879   2.773  0.3042  0.8535 -1.3539
 1362TIP3   OH2 4091   1.703   4.692   2.747 -0.1111  0.6155  0.7087
 1362TIP3    H1 4092   1.750   4.766   2.709  1.3152 -0.0119  1.1919
 1362TIP3    H2 4093   1.613   4.702   2.715  0.4335  1.6025 -0.6178
 1363TIP3   OH2 4094   1.407   1.545   4.382 -0.6471 -0.2560  0.3560
 1363TIP3    H1 4095   1.401   1.587   4.468  0.9244  0.0981  0.3222
 1363TIP3    H2 4096   1.497   1.562   4.353 -0.3921 -2.4445 -0.3018
 1364TIP3   OH2 4097   2.497   0.603   0.343 -0.0285 -0.0069  0.2069
 1364TIP3    H1 4098   2.555   0.668   0.304 -2.4355  1.7236 -0.7460
 1364TIP3    H2 4099   2.445   0.653   0.407 -0.2870 -1.5400  1.2509
 1365TIP3   OH2 4100   1.063   1.724   3.370 -0.4518 -0.0768 -0.5176
 1365TIP3    H1 4101   1.156   1.704   3.376 -0.5483 -1.5949 -2.9791
 1365TIP3    H2 4102   1.020   1.655   3.422 -0.2770 -0.2557 -0.6116
 1366TIP3   OH2 4103   2.179   0.539   2.351  0.1722  0.2019  0.3292
 1366TIP3    H1 4104   2.164   0.445   2.343  2.3742 -0.2174  0.3851
 1366TIP3    H2 4105   2.205   0.551   2.443  1.3495  0.5948 -0.0353
 1367TIP3   OH2 4106   1.682   4.443   1.594  0.2737 -0.0150  0.0808
 1367TIP3    H1 4107   1.772   4.416   1.611  0.2447 -0.2319 -0.1043
 1367TIP3    H2 4108   1.647   4.468   1.680  1.3223  2.5955 -0.1793
 1368TIP3   OH2 4109   1.185   5.576   0.196  0.4792 -0.1552  0.4647
 1368TIP3    H1 4110   1.255   5.534   0.145  0.1682  0.8479 -0.8434
 1368TIP3    H2 4111   1.111   5.516   0.189 -0.1739  0.8090 -1.9498
 1369TIP3   OH2 4112   1.078   0.394   3.539  0.1714 -0.4868 -0.2890
 1369TIP3    H1 4113   1.081   0.424   3.630 -0.2227  0.3193 -0.5374
 1369TIP3    H2 4114   1.108   0.303   3.544  1.2605 -0.1189  0.4955
 1370TIP3   OH2 4115   0.240   4.302   5.067 -1.0170 -0.2802  0.3625
 1370TIP3    H1 4116   0.175   4.232   5.058 -1.4834  0.0882  0.8234
 1370TIP3    H2 4117   0.258   4.306   5.161  0.6027 -1.2052  0.1397
 1371TIP3   OH2 4118   6.173   5.205   4.430 -0.2727  0.3333  0.6553
 1371TIP3    H1 4119   6.162   5.111   4.414  0.7168 -0.1940  2.7400
 1371TIP3    H2 4120   6.204   5.239   4.346 -2.1402 -0.8720 -0.6147
 1372TIP3   OH2 4121   2.491   4.352   1.564  0.6171 -0.2267 -0.7734
 1372TIP3    H1 4122   2.580   4.338   1.530  0.3679 -0.4979 -1.3174
 1372TIP3    H2 4123   2.457   4.426   1.513 -0.0532 -1.1507 -1.6940
 1373TIP3   OH2 4124   4.699   5.343   2.376 -0.5487  0.0384  0.4436
 1373TIP3    H1 4125   4.686   5.348   2.282 -0.2338  1.5541  0.4516
 1373TIP3    H2 4126   4.794   5.351   2.387 -0.7504  3.1992  0.9743
 1374TIP3   OH2 4127   3.788   2.377   4.586  0.6983  0.3684  0.4060
 1374TIP3    H1 4128   3.795   2.404   4.494 -3.0983  1.9181  0.3604
 1374TIP3    H2 4129   3.758   2.456   4.631  0.6367 -0.8682  2.6300
 1375TIP3   OH2 4130   5.074   2.019   4.333 -0.1991 -0.6959  0.4156
 1375TIP3    H1 4131   5.039   1.936   4.300 -1.0850 -1.1322  2.2982
 1375TIP3    H2 4132   5.009   2.049   4.397  1.3070  0.1587  1.6151
 1376TIP3   OH2 4133   1.817   0.699   3.832 -0.0663  0.3850  0.2764
 1376TIP3    H1 4134   1.750   0.683   3.899  0.8795  1.4371  1.5308
 1376TIP3    H2 4135   1.890   0.737   3.881  1.7086 -1.3039 -0.9555
 1377TIP3   OH2 4136   0.465   4.183   3.771  0.2256  0.7593  0.6298
 1377TIP3    H1 4137   0.499   4.094   3.762 -0.6838  0.3049  1.4765
 1377TIP3    H2 4138   0.523   4.237   3.716  0.3702 -0.4505 -0.4587
 1378TIP3   OH2 4139   3.324   2.146   0.268 -0.3373 -0.5448 -0.3381
 1378TIP3    H1 4140   3.357   2.123   0.181  0.9107 -0.7829  0.1720
 1378TIP3    H2 4141   3.236   2.109   0.271 -0.0608 -1.3153 -1.1859
 1379TIP3   OH2 4142   4.620   4.005   4.148 -1.0967 -0.0717 -0.2910
 1379TIP3    H1 4143   4.694   3.955   4.181 -0.5867  0.1501 -1.0533
 1379TIP3    H2 4144   4.547   3.944   4.148 -0.5164 -0.7933 -1.0941
 1380TIP3   OH2 4145   2.962   4.479   2.995 -0.1235  0.2753 -0.4489
 1380TIP3    H1 4146   3.029   4.506   2.932  0.7680  1.9128  1.1065
 1380TIP3    H2 4147   2.939   4.390   2.968  1.3154  0.3544 -2.1601
 1381TIP3   OH2 4148   2.421   1.680   2.945  0.1452 -0.5712  0.0952
 1381TIP3    H1 4149   2.461   1.758   2.907 -1.6338  0.1794 -0.3400
 1381TIP3    H2 4150   2.449   1.609   2.888 -2.4552  0.5152 -2.8009
 1382TIP3   OH2 4151   0.950   1.088   3.138 -0.1311  0.0112 -0.1967
 1382TIP3    H1 4152   0.999   1.153   3.189 -1.0051  0.6486 -0.1594
 1382TIP3    H2 4153   0.954   1.008   3.191  0.4973  0.1708  0.0093
 1383TIP3   OH2 4154   1.339   1.488   3.775 -0.4397 -0.3106  0.0112
 1383TIP3    H1 4155   1.368   1.576   3.797  0.4584 -0.4301 -0.6227
 1383TIP3    H2 4156   1.363   1.435   3.850 -0.3151 -0.1474  0.0870
 1384TIP3   OH2 4157   6.006   0.667   3.825  0.5517  0.4552 -0.1514
 1384TIP3    H1 4158   5.994   0.592   3.768 -1.8506  0.9905 -0.4436
 1384TIP3    H2 4159   5.979   0.636   3.912  0.2358  0.7661 -0.1354
 1385TIP3   OH2 4160   3.085   0.225   3.198 -0.4037  0.2274  0.2634
 1385TIP3    H1 4161   3.043   0.150   3.156 -1.8189  1.0934  0.0741
 1385TIP3    H2 4162   3.089   0.201   3.291  0.0518 -0.4761  0.0694
 1386TIP3   OH2 4163   2.022   3.300   3.918 -0.3929 -0.2717 -0.6080
 1386TIP3    H1 4164   2.111   3.315   3.950  0.3139  1.2165 -2.9382
 1386TIP3    H2 4165   2.010   3.205   3.923  1.1135 -0.4465  0.2941
 1387TIP3   OH2 4166   3.091   3.780   3.789  0.0841  0.0440 -0.1537
 1387TIP3    H1 4167   3.158   3.712   3.782  1.1635  1.1805 -1.3783
 1387TIP3    H2 4168   3.116   3.831   3.866  1.2644  1.0835 -1.1880
 1388TIP3   OH2 4169   3.496   1.344   3.512  0.1453  0.1992  0.0687
 1388TIP3    H1 4170   3.478   1.405   3.584 -1.1747 -0.3649  0.2542
 1388TIP3    H2 4171   3.430   1.365   3.446  0.6038 -0.0645 -0.4726
 1389TIP3   OH2 4172   4.850   5.225   1.326 -0.3866  0.1952  0.4995
 1389TIP3    H1 4173   4.861   5.178   1.243  0.3730 -0.7421  1.1104
 1389TIP3    H2 4174   4.771   5.278   1.313 -1.2639 -1.2196 -0.2564
 1390TIP3   OH2 4175   6.048   4.283   1.986  0.5159  0.3717  0.1516
 1390TIP3    H1 4176   5.964   4.240   1.975  0.8393  0.3042 -2.7884
 1390TIP3    H2 4177   6.105   4.215   2.022 -0.3582  0.0931  1.0644
 1391TIP3   OH2 4178   2.080   0.816   5.060 -0.3713  0.2260 -0.2700
 1391TIP3    H1 4179   2.060   0.841   5.150 -1.1742  1.1906 -0.6997
 1391TIP3    H2 4180   2.175   0.821   5.054 -0.2882 -0.1549  0.6078
 1392TIP3   OH2 4181   5.386   2.792   3.376  0.1420 -0.4369 -0.3978
 1392TIP3    H1 4182   5.312   2.769   3.321  0.2142 -1.3022 -0.1389
 1392TIP3    H2 4183   5.354   2.865   3.429 -1.1224 -1.8849  0.9391
 1393TIP3   OH2 4184   6.168   3.093   1.791 -0.0086  0.0741  0.2353
 1393TIP3    H1 4185   6.206   3.137   1.715 -1.9523  2.8192  0.7063
 1393TIP3    H2 4186   6.223   3.122   1.865 -0.9351  1.3333  0.4633
 1394TIP3   OH2 4187   5.882   0.904   2.265  0.0662  0.1177  0.1434
 1394TIP3    H1 4188   5.879   0.879   2.172 -0.0456  1.7555 -0.3189
 1394TIP3    H2 4189   5.794   0.887   2.297 -0.1652  0.4432 -0.3052
 1395TIP3   OH2 4190   3.916   4.160   3.742  0.5958 -0.2632 -0.4873
 1395TIP3    H1 4191   3.965   4.085   3.707  0.0146  0.1421 -2.2644
 1395TIP3    H2 4192   3.830   4.155   3.700 -0.0621  0.4216  0.7173
 1396TIP3   OH2 4193   3.088   4.702   0.815 -0.7572 -0.3619  0.5570
 1396TIP3    H1 4194   3.147   4.634   0.784  0.6757  0.8094  0.5561
 1396TIP3    H2 4195   3.059   4.672   0.901 -1.4499 -1.6994 -0.1240
 1397TIP3   OH2 4196   0.233   3.793   5.124  0.6265  0.0555 -0.2576
 1397TIP3    H1 4197   0.231   3.884   5.152 -1.0858 -0.0902  0.1970
 1397TIP3    H2 4198   0.233   3.743   5.205 -2.0974 -0.3513 -0.4352
 1398TIP3   OH2 4199   1.968   0.516   4.580 -0.1478 -0.2128 -0.7699
 1398TIP3    H1 4200   2.021   0.532   4.658 -1.4883 -3.2055  0.9423
 1398TIP3    H2 4201   1.914   0.594   4.571 -0.2034  0.1077  1.5855
 1399TIP3   OH2 4202   6.297   2.064   2.703  0.2229 -0.4610  0.0701
 1399TIP3    H1 4203   6.217   2.114   2.720  0.3812 -0.4787  0.9295
 1399TIP3    H2 4204   6.297   2.050   2.609  1.0861  2.7131 -0.5239
 1400TIP3   OH2 4205   1.352   2.342   1.461 -0.0249 -0.3657 -0.0996
 1400TIP3    H1 4206   1.304   2.333   1.543 -1.5694  1.3281 -0.7634
 1400TIP3    H2 4207   1.373   2.435   1.455  2.7114 -0.8999 -0.2402
 1401TIP3   OH2 4208   1.944   2.136   0.555 -0.0742  0.2546 -0.1406
 1401TIP3    H1 4209   1.916   2.220   0.519 -1.3284 -1.0120 -2.3112
 1401TIP3    H2 4210   2.031   2.122   0.517 -0.4588 -0.0530 -0.9274
 1402TIP3   OH2 4211   1.149   1.515   2.987 -0.5498  0.3216 -0.1650
 1402TIP3    H1 4212   1.071   1.525   3.041 -1.2068 -0.3281 -0.9496
 1402TIP3    H2 4213   1.136   1.431   2.943  1.1754 -0.4005  0.6108
 1403TIP3   OH2 4214   3.103   3.493   0.625 -0.7282  0.0265  0.0044
 1403TIP3    H1 4215   3.185   3.519   0.667 -1.0454  0.3996  0.3875
 1403TIP3    H2 4216   3.106   3.397   0.626  1.9168 -0.1741 -4.2232
 1404TIP3   OH2 4217   0.565   3.429   3.539  0.2308  0.1698  0.0490
 1404TIP3    H1 4218   0.612   3.364   3.591  0.4859  0.1994 -0.1421
 1404TIP3    H2 4219   0.573   3.398   3.449 -2.1102 -1.1114  0.1835
 1405TIP3   OH2 4220   0.674   1.962   2.398 -0.2427 -0.4261 -0.3718
 1405TIP3    H1 4221   0.636   2.042   2.434 -0.6878 -0.8863  0.2113
 1405TIP3    H2 4222   0.645   1.960   2.307 -0.1083  0.1413 -0.4331
 1406TIP3   OH2 4223   0.472   4.399   2.340  0.2784  0.6235  0.6763
 1406TIP3    H1 4224   0.540   4.460   2.313  1.2617 -0.8310 -0.2916
 1406TIP3    H2 4225   0.503   4.362   2.422  0.7328 -0.1140  0.1841
 1407TIP3   OH2 4226   1.144   3.830   1.086  0.0575 -0.7165 -0.2029
 1407TIP3    H1 4227   1.219   3.771   1.086  0.5931 -0.1504 -2.4262
 1407TIP3    H2 4228   1.140   3.865   1.175  0.7995 -2.7124  0.6742
 1408TIP3   OH2 4229   0.400   1.728   1.965  0.1748  0.0046 -0.0966
 1408TIP3    H1 4230   0.478   1.741   2.018  0.2411  1.7774 -0.5716
 1408TIP3    H2 4231   0.337   1.686   2.024  1.7278 -2.3174  0.0286
 1409TIP3   OH2 4232   4.895   2.685   0.369 -0.3656  0.2242  0.1903
 1409TIP3    H1 4233   4.819   2.629   0.386  0.5868 -1.2000 -0.0210
 1409TIP3    H2 4234   4.886   2.711   0.277 -0.8270  0.4440  0.2960
 1410TIP3   OH2 4235   4.559   4.587   3.706 -0.4938 -0.1592  0.1038
 1410TIP3    H1 4236   4.484   4.530   3.721 -1.2883  0.5044 -1.1164
 1410TIP3    H2 4237   4.564   4.642   3.784  0.3190 -1.8870  1.3199
 1411TIP3   OH2 4238   0.345   4.917   3.164  0.0528 -0.4447 -0.1402
 1411TIP3    H1 4239   0.343   4.832   3.120  0.8513  0.0035 -1.0898
 1411TIP3    H2 4240   0.341   4.981   3.092 -1.7599  0.3469  0.6097
 1412TIP3   OH2 4241   0.497   5.428   2.912  0.3530  0.3592 -0.2191
 1412TIP3    H1 4242   0.509   5.387   2.826 -2.1234 -0.5940 -0.1690
 1412TIP3    H2 4243   0.578   5.408   2.959 -0.2010 -3.5413 -0.6109
 1413TIP3   OH2 4244   1.297   4.948   1.418 -0.0258  0.0262 -0.2325
 1413TIP3    H1 4245   1.300   4.913   1.507 -1.3459 -3.1095 -1.2732
 1413TIP3    H2 4246   1.207   4.934   1.390  0.0283  2.1390 -1.6736
 1414TIP3   OH2 4247   4.751   0.660   4.844  0.6527 -0.7159 -0.0104
 1414TIP3    H1 4248   4.766   0.660   4.939 -0.6692 -0.3384  0.2211
 1414TIP3    H2 4249   4.838   0.667   4.806  1.1215  0.7426  1.2181
 1415TIP3   OH2 4250   0.899   4.947   0.161 -0.1316  0.6797  0.5939
 1415TIP3    H1 4251   0.880   4.966   0.069 -2.9818 -1.4405  0.6001
 1415TIP3    H2 4252   0.823   4.981   0.209  1.2787  1.7242  2.2401
 1416TIP3   OH2 4253   5.655   1.462   2.446 -0.2240  0.7217  0.0255
 1416TIP3    H1 4254   5.741   1.504   2.444 -0.6350  1.9593  3.0181
 1416TIP3    H2 4255   5.625   1.463   2.355  3.3104 -0.7338 -1.3353
 1417TIP3   OH2 4256   5.832   2.027   1.973  0.2104  1.0019 -0.0744
 1417TIP3    H1 4257   5.846   2.002   2.064  2.6539  0.8763 -0.4077
 1417TIP3    H2 4258   5.738   2.044   1.967 -0.1023  0.5337  2.3252
 1418TIP3   OH2 4259   2.431   5.609   1.140 -0.6150 -0.0938 -0.5152
 1418TIP3    H1 4260   2.439   5.693   1.095  2.4994 -0.0577 -0.1110
 1418TIP3    H2 4261   2.482   5.619   1.220 -0.9489 -2.0785  0.0032
 1419TIP3   OH2 4262   3.984   5.012   2.762 -0.2986  0.1132 -0.5231
 1419TIP3    H1 4263   3.992   5.105   2.743  0.3054 -0.3109 -2.5998
 1419TIP3    H2 4264   3.925   5.008   2.837  0.0048  2.1700 -0.1132
 1420TIP3   OH2 4265   0.083   5.190   1.986 -0.1363  0.3001  0.0402
 1420TIP3    H1 4266   0.066   5.281   1.964  2.3406  1.0501  0.8661
 1420TIP3    H2 4267   0.156   5.165   1.930 -0.2268 -0.8990  0.4236
 1421TIP3   OH2 4268   5.637   2.633   0.539  0.3596  0.7060 -0.2738
 1421TIP3    H1 4269   5.623   2.726   0.560  1.6938  0.9472 -0.3202
 1421TIP3    H2 4270   5.692   2.601   0.610  0.0546 -0.0117 -0.3563
 1422TIP3   OH2 4271   2.439   4.841   2.908 -0.6232 -0.5322  0.0598
 1422TIP3    H1 4272   2.409   4.771   2.967 -1.0093  0.0508  0.5675
 1422TIP3    H2 4273   2.388   4.828   2.828  0.0350 -1.4395 -0.2243
 1423TIP3   OH2 4274   5.375   3.143   2.345 -0.4106 -0.2473  0.3027
 1423TIP3    H1 4275   5.389   3.217   2.286 -1.5521  1.1849  1.7477
 1423TIP3    H2 4276   5.420   3.070   2.302  1.5977  1.4688 -0.7057
 1424TIP3   OH2 4277   3.772   4.516   0.982 -0.5189  0.2684 -0.7253
 1424TIP3    H1 4278   3.738   4.468   1.058  0.5245  1.4572  0.5688
 1424TIP3    H2 4279   3.759   4.457   0.908 -0.7534 -1.3218  0.5206
 1425TIP3   OH2 4280   3.889   5.384   2.602 -0.0130 -0.4159  0.5466
 1425TIP3    H1 4281   3.821   5.326   2.637 -0.7880 -0.1872 -0.5037
 1425TIP3    H2 4282   3.839   5.459   2.568  0.7953 -0.1222 -0.0046
 1426TIP3   OH2 4283   2.078   2.172   4.402 -0.2073  0.6365  0.2220
 1426TIP3    H1 4284   2.046   2.144   4.316  1.9345  2.1210 -1.1875
 1426TIP3    H2 4285   2.052   2.102   4.462  0.4458 -1.7748 -2.1185
 1427TIP3   OH2 4286   1.088   3.960   2.045  0.0808 -0.1221 -0.5784
 1427TIP3    H1 4287   1.144   3.979   1.969 -0.1945 -0.6460 -0.9193
 1427TIP3    H2 4288   1.009   4.012   2.029 -0.4276 -1.0686 -1.2111
 1428TIP3   OH2 4289   0.960   4.884   2.076  0.8812  0.2633  0.2781
 1428TIP3    H1 4290   1.004   4.949   2.022 -0.8627  0.0602 -1.5303
 1428TIP3    H2 4291   1.010   4.882   2.158  2.7078  1.7287 -0.7212
 1429TIP3   OH2 4292   0.831   0.282   1.008  0.4788  0.8877  0.7049
 1429TIP3    H1 4293   0.890   0.244   0.943 -0.7302 -0.7327  0.4862
 1429TIP3    H2 4294   0.888   0.310   1.079  1.5782  0.1100  0.1566
 1430TIP3   OH2 4295   0.006   3.615   4.673  0.8407  0.1081 -0.4557
 1430TIP3    H1 4296   0.069   3.589   4.740  1.1888 -1.3437 -1.2947
 1430TIP3    H2 4297  -0.044   3.686   4.714  3.0423  1.4047  0.2013
 1431TIP3   OH2 4298   3.881   1.186   3.134 -0.3864 -0.4658  0.1598
 1431TIP3    H1 4299   3.796   1.204   3.174 -0.9003  0.3281 -1.1887
 1431TIP3    H2 4300   3.885   1.246   3.059  1.1416 -0.8548 -0.1079
 1432TIP3   OH2 4301   0.512   1.700   0.528  0.1250  0.5952  0.6235
 1432TIP3    H1 4302   0.556   1.730   0.608 -1.4240  2.7887  0.7568
 1432TIP3    H2 4303   0.453   1.772   0.505  0.7479  0.1989 -2.7318
 1433TIP3   OH2 4304   1.907   1.212   3.503  0.5607 -0.1991 -0.2209
 1433TIP3    H1 4305   1.979   1.255   3.458  0.7021 -1.6734 -1.4805
 1433TIP3    H2 4306   1.828   1.245   3.459  0.6790 -1.3346 -1.3281
 1434TIP3   OH2 4307   4.599   5.828   4.032 -0.1643  0.3701  0.0165
 1434TIP3    H1 4308   4.643   5.818   3.948 -1.3619  1.1494 -0.7574
 1434TIP3    H2 4309   4.645   5.900   4.076  0.1929  0.2524 -0.1717
 1435TIP3   OH2 4310   4.408   5.815   4.864 -0.3218  0.0948 -0.3399
 1435TIP3    H1 4311   4.339   5.748   4.861 -0.4922  0.2879 -0.7530
 1435TIP3    H2 4312   4.470   5.782   4.930 -0.4378 -0.4360 -0.4891
 1436TIP3   OH2 4313   5.269   2.103   1.121  0.5053  0.5919 -0.1194
 1436TIP3    H1 4314   5.189   2.130   1.167  0.4432 -1.0198  0.7928
 1436TIP3    H2 4315   5.265   2.149   1.037 -1.0933  0.9905  0.1308
 1437TIP3   OH2 4316   0.722   0.450   2.753  0.6985  0.1780 -0.3274
 1437TIP3    H1 4317   0.668   0.378   2.786  2.7165 -1.3512 -0.1173
 1437TIP3    H2 4318   0.777   0.474   2.827  1.6319  0.3412 -1.0550
 1438TIP3   OH2 4319   4.502   0.563   5.064  0.0554 -0.0761 -0.4058
 1438TIP3    H1 4320   4.555   0.484   5.051  1.5705  1.2036 -2.6758
 1438TIP3    H2 4321   4.414   0.538   5.036  0.1467 -1.3805  0.4203
 1439TIP3   OH2 4322   5.349   5.276   2.853 -0.2604  0.2859  0.3732
 1439TIP3    H1 4323   5.265   5.239   2.878 -0.4321  0.9111  0.7349
 1439TIP3    H2 4324   5.411   5.203   2.863 -0.5908  0.0940  1.0696
 1440TIP3   OH2 4325   5.278   1.863   0.476 -0.1540  0.5985 -0.8862
 1440TIP3    H1 4326   5.328   1.909   0.544 -0.1085  1.6747 -1.6268
 1440TIP3    H2 4327   5.209   1.924   0.452 -1.6271 -0.7054 -0.1777
 1441TIP3   OH2 4328   5.097   5.654   2.155 -0.2061 -0.7134  0.4296
 1441TIP3    H1 4329   5.167   5.634   2.093 -0.1834  1.2833 -0.2383
 1441TIP3    H2 4330   5.142   5.666   2.239  0.3142  0.8184 -0.0469
 1442TIP3   OH2 4331   3.361   3.749   1.379 -0.0497  0.0619 -0.4277
 1442TIP3    H1 4332   3.278   3.736   1.333  0.0022  0.7799 -0.7438
 1442TIP3    H2 4333   3.358   3.687   1.452 -0.6675 -0.2325 -0.6940
 1443TIP3   OH2 4334   6.062   4.957   3.986  0.7131  0.0494  0.0473
 1443TIP3    H1 4335   6.146   4.931   4.024  0.8135  1.4902  0.8788
 1443TIP3    H2 4336   6.012   4.876   3.978  2.6501 -1.0672 -1.7236
 1444TIP3   OH2 4337   0.912   0.013   3.597  0.2366 -0.6310 -0.7712
 1444TIP3    H1 4338   0.851  -0.024   3.661 -0.0805  1.4871  0.2626
 1444TIP3    H2 4339   0.859   0.075   3.547  0.9551 -0.7540 -1.7138
 1445TIP3   OH2 4340   1.035   3.338   1.920 -0.1247 -0.7141  0.3324
 1445TIP3    H1 4341   1.111   3.287   1.950  0.3995 -0.3506 -0.3360
 1445TIP3    H2 4342   0.990   3.280   1.859  0.4061 -0.4307 -0.3387
 1446TIP3   OH2 4343   1.228   3.309   3.483 -0.0574 -0.0653 -0.0953
 1446TIP3    H1 4344   1.144   3.340   3.515 -0.3918 -0.0885 -0.9408
 1446TIP3    H2 4345   1.227   3.327   3.389  2.0765  2.6969  0.2800
 1447TIP3   OH2 4346   6.020   3.324   0.955  0.7414  0.0908 -0.0232
 1447TIP3    H1 4347   6.030   3.267   0.878  1.1611  0.1904 -0.0485
 1447TIP3    H2 4348   5.966   3.397   0.924 -0.0246 -0.4244  0.0813
 1448TIP3   OH2 4349   3.997   2.044   4.428  0.1014  0.2306 -0.3453
 1448TIP3    H1 4350   3.985   2.102   4.352 -0.0248  1.7409  0.7848
 1448TIP3    H2 4351   4.087   2.059   4.455 -0.2103  0.6137  0.5148
 1449TIP3   OH2 4352   0.571   2.140   0.902 -0.0160 -0.1088 -0.6762
 1449TIP3    H1 4353   0.607   2.127   0.814  0.1980 -0.2443 -0.5679
 1449TIP3    H2 4354   0.490   2.089   0.903 -0.5666  0.7114 -1.1395
 1450TIP3   OH2 4355   5.241   5.523   2.748 -0.1177  0.2443  0.7236
 1450TIP3    H1 4356   5.266   5.433   2.725 -0.6841  0.3586 -0.4183
 1450TIP3    H2 4357   5.241   5.524   2.843 -1.8286 -1.4924  0.8010
 1451TIP3   OH2 4358   1.571   4.612   0.577 -0.3826  0.0081 -0.9086
 1451TIP3    H1 4359   1.516   4.549   0.623  1.5916 -1.3667 -0.3251
 1451TIP3    H2 4360   1.547   4.696   0.616 -2.3229 -0.4574 -0.9686
 1452TIP3   OH2 4361   1.734   5.046   0.694 -0.1921  0.2857  0.5732
 1452TIP3    H1 4362   1.799   4.980   0.669  1.1698  1.8342 -0.1489
 1452TIP3    H2 4363   1.660   4.995   0.727  1.0739 -1.5734  0.7041
 1453TIP3   OH2 4364   5.918   2.860   2.345  0.2889  0.3995 -0.1692
 1453TIP3    H1 4365   5.873   2.944   2.350  0.3407  0.5082 -1.2947
 1453TIP3    H2 4366   5.909   2.822   2.433  0.0447  1.4588  0.2718
 1454TIP3   OH2 4367   2.428   2.893   4.434 -0.6340  0.3834 -0.0370
 1454TIP3    H1 4368   2.354   2.832   4.430  0.1363 -0.6391  0.8257
 1454TIP3    H2 4369   2.418   2.938   4.517 -1.0437  1.2519 -0.5470
 1455TIP3   OH2 4370   4.674   5.936   4.443  0.1445 -0.1261  0.2568
 1455TIP3    H1 4371   4.680   5.992   4.521  2.0814  1.8276 -1.1592
 1455TIP3    H2 4372   4.741   5.869   4.458  0.6444  0.3539  0.2161
 1456TIP3   OH2 4373   5.591   3.088   0.477 -0.6882 -0.0793 -0.2843
 1456TIP3    H1 4374   5.618   3.018   0.537  2.8020  0.3630 -1.1338
 1456TIP3    H2 4375   5.599   3.168   0.528 -1.6929  0.0013 -0.2222
 1457TIP3   OH2 4376   0.402   0.267   1.491 -0.1379  0.1034 -0.1871
 1457TIP3    H1 4377   0.481   0.250   1.439 -0.9496 -0.8139 -1.1792
 1457TIP3    H2 4378   0.417   0.352   1.530  1.0333  0.2793 -0.9590
 1458TIP3   OH2 4379   5.410   0.587   2.577  0.0248 -0.3033 -0.6030
 1458TIP3    H1 4380   5.474   0.602   2.507 -0.1620  0.7986 -0.5531
 1458TIP3    H2 4381   5.458   0.603   2.658  0.3661 -2.0302 -0.4193
 1459TIP3   OH2 4382   0.900   2.788   4.619  0.1167  0.2681  0.1155
 1459TIP3    H1 4383   0.852   2.835   4.551 -1.3179 -0.1354  0.8219
 1459TIP3    H2 4384   0.990   2.821   4.611 -0.0707  0.4831 -1.7435
 1460TIP3   OH2 4385   2.338   2.661   0.881 -0.0226 -0.1094  0.2325
 1460TIP3    H1 4386   2.297   2.676   0.796 -0.2736  5.2020  0.9501
 1460TIP3    H2 4387   2.429   2.640   0.860 -0.5960 -1.2024 -1.3040
 1461TIP3   OH2 4388   5.877   3.362   5.085  0.5475 -0.1602 -0.1277
 1461TIP3    H1 4389   5.911   3.428   5.145 -0.1311  2.4298 -2.4103
 1461TIP3    H2 4390   5.936   3.364   5.010 -1.4015  0.4172 -1.7368
 1462TIP3   OH2 4391   4.785   4.647   2.799 -0.6282  0.1529 -0.4111
 1462TIP3    H1 4392   4.708   4.613   2.755 -0.7796  1.7381 -1.4667
 1462TIP3    H2 4393   4.851   4.657   2.730  0.3094 -0.5644  0.3559
 1463TIP3   OH2 4394   1.805   4.212   2.186  0.1778 -0.1217 -0.2427
 1463TIP3    H1 4395   1.744   4.161   2.133 -0.0978  0.5633 -0.5951
 1463TIP3    H2 4396   1.751   4.248   2.256  0.2120  0.3530 -0.4617
 1464TIP3   OH2 4397   4.240   4.602   4.908 -0.0075  0.2424 -0.3201
 1464TIP3    H1 4398   4.227   4.683   4.858  0.9823  0.8775  0.4009
 1464TIP3    H2 4399   4.175   4.606   4.978 -0.2361  0.2096 -0.5307
 1465TIP3   OH2 4400   3.201   4.984   4.751 -0.3249  0.3632 -0.6010
 1465TIP3    H1 4401   3.193   5.073   4.717  2.2270  1.0086  0.2468
 1465TIP3    H2 4402   3.283   4.952   4.713 -0.0567 -0.7890  0.8779
 1466TIP3   OH2 4403   0.418   1.777   1.396 -0.4268 -0.2248 -0.1000
 1466TIP3    H1 4404   0.341   1.801   1.449  0.8630  0.0283  1.7656
 1466TIP3    H2 4405   0.443   1.859   1.353 -1.6130 -0.4763 -1.3162
 1467TIP3   OH2 4406   0.981   3.588   2.483 -0.2523 -0.3761  0.2346
 1467TIP3    H1 4407   1.001   3.672   2.442  1.5035 -0.2138  1.2912
 1467TIP3    H2 4408   0.890   3.595   2.510  0.2456  1.8227  1.6353
 1468TIP3   OH2 4409   2.464   2.492   4.834  0.3588  0.4407 -0.1516
 1468TIP3    H1 4410   2.430   2.403   4.822 -0.0219  0.3665  1.3104
 1468TIP3    H2 4411   2.432   2.540   4.758 -0.1782 -0.4617 -0.5088
 1469TIP3   OH2 4412   6.324   0.827   4.299 -0.5071 -0.2716 -0.2642
 1469TIP3    H1 4413   6.271   0.896   4.259 -0.8252 -0.0133  0.5739
 1469TIP3    H2 4414   6.367   0.783   4.226 -1.6093 -0.2594 -0.9251
 1470TIP3   OH2 4415   6.279   4.432   3.682  0.1304  0.7599 -0.9127
 1470TIP3    H1 4416   6.231   4.506   3.717  0.1180 -0.4702  1.9574
 1470TIP3    H2 4417   6.215   4.361   3.679  1.4127 -0.7306  2.3628
 1471TIP3   OH2 4418   1.515   3.756   2.672 -0.3236 -0.6826 -0.1096
 1471TIP3    H1 4419   1.573   3.680   2.665  0.7239  0.0628  0.2941
 1471TIP3    H2 4420   1.534   3.793   2.758  1.2124  1.6215 -1.3435
 1472TIP3   OH2 4421   4.986   4.652   3.755  0.0584 -0.0068 -0.1238
 1472TIP3    H1 4422   5.027   4.700   3.827 -1.8356  1.3003  0.1657
 1472TIP3    H2 4423   4.942   4.719   3.704  1.0855 -0.9531 -2.3839
 1473TIP3   OH2 4424   6.189   2.510   0.433 -0.1685 -0.4145 -0.0394
 1473TIP3    H1 4425   6.121   2.578   0.439  0.9953  0.9306 -1.2939
 1473TIP3    H2 4426   6.252   2.533   0.500  0.1601 -0.3195 -0.3751
 1474TIP3   OH2 4427   2.996   3.079   2.414 -0.2124  0.1128  0.8474
 1474TIP3    H1 4428   3.014   3.090   2.508  0.2137 -2.3451  1.1232
 1474TIP3    H2 4429   3.019   2.988   2.396 -3.1390 -0.4062 -0.9719
 1475TIP3   OH2 4430   3.594   5.932   4.004 -0.3832 -0.3137  0.6222
 1475TIP3    H1 4431   3.509   5.948   3.962  0.0557  0.2419 -0.0650
 1475TIP3    H2 4432   3.647   6.009   3.981  0.1379 -0.3922  1.4982
 1476TIP3   OH2 4433   2.764   0.857   4.791  0.2170  0.6304  0.4443
 1476TIP3    H1 4434   2.828   0.847   4.720 -1.6448 -2.0818 -1.0217
 1476TIP3    H2 4435   2.783   0.786   4.852 -1.0328  0.1181  0.2639
 1477TIP3   OH2 4436   5.108   3.933   1.605  0.0160 -0.2532  0.1283
 1477TIP3    H1 4437   5.094   3.990   1.529  0.5465 -0.9209 -0.4944
 1477TIP3    H2 4438   5.198   3.904   1.596 -0.1489 -0.9346  0.6020
 1478TIP3   OH2 4439   3.417   5.947   4.532 -0.8151 -0.4044  0.3132
 1478TIP3    H1 4440   3.413   5.928   4.439 -0.5131  0.0024  0.2142
 1478TIP3    H2 4441   3.466   6.029   4.538 -2.1182  0.3853  0.7163
 1479TIP3   OH2 4442   5.837   1.364   3.927 -0.4097 -0.2124  0.0871
 1479TIP3    H1 4443   5.765   1.301   3.927  0.2481 -0.9705 -0.4386
 1479TIP3    H2 4444   5.852   1.383   4.020 -1.7906  0.5589  0.1793
 1480TIP3   OH2 4445   2.703   5.345   0.164  0.0007 -0.3135  0.0462
 1480TIP3    H1 4446   2.788   5.302   0.164 -0.3852 -1.1300 -0.9628
 1480TIP3    H2 4447   2.693   5.377   0.074  0.0870  1.5282  0.6585
 1481TIP3   OH2 4448   4.587   2.902   3.857 -0.5426  0.1341 -0.1631
 1481TIP3    H1 4449   4.652   2.844   3.896 -1.5799 -1.2913 -0.4271
 1481TIP3    H2 4450   4.620   2.990   3.872  1.0854 -0.5169  0.3048
 1482TIP3   OH2 4451   5.781   0.375   2.705 -0.2272  0.0903 -0.2022
 1482TIP3    H1 4452   5.790   0.434   2.630 -2.0506  0.4384 -0.1995
 1482TIP3    H2 4453   5.697   0.332   2.691  0.2055 -1.1288  0.7773
 1483TIP3   OH2 4454   2.596   2.116   2.164 -0.1922 -0.1449 -0.0800
 1483TIP3    H1 4455   2.588   2.087   2.255  1.6328  0.4706  0.3033
 1483TIP3    H2 4456   2.577   2.037   2.112 -0.4316 -0.7043  0.8443
 1484TIP3   OH2 4457   5.871   3.562   0.923  0.6980 -0.1390  0.5284
 1484TIP3    H1 4458   5.905   3.618   0.854  3.1352 -1.4933  0.5283
 1484TIP3    H2 4459   5.847   3.622   0.993  1.1614  1.0314 -0.2849
 1485TIP3   OH2 4460   6.226   2.250   3.625  0.0491  0.2526 -0.0843
 1485TIP3    H1 4461   6.242   2.291   3.540  0.9864 -1.8470 -0.9963
 1485TIP3    H2 4462   6.192   2.163   3.603 -1.1043  0.1865  1.7444
 1486TIP3   OH2 4463   2.710   5.849   3.361  0.0533 -0.0606 -0.3216
 1486TIP3    H1 4464   2.756   5.774   3.399  0.4549  0.3797  0.0889
 1486TIP3    H2 4465   2.685   5.820   3.274 -1.7311 -1.4350  0.5691
 1487TIP3   OH2 4466   2.939   4.572   4.699  0.2012 -0.0171 -0.7164
 1487TIP3    H1 4467   2.956   4.562   4.792 -1.9067  1.6055 -0.0807
 1487TIP3    H2 4468   3.006   4.633   4.668  0.0571  0.5456  0.0631
 1488TIP3   OH2 4469   4.176   1.031   1.842 -0.2735 -0.6303  0.0296
 1488TIP3    H1 4470   4.210   1.010   1.755 -3.2205 -1.1855 -1.1390
 1488TIP3    H2 4471   4.092   0.985   1.846 -1.0876  0.8679  2.4567
 1489TIP3   OH2 4472   0.297   1.078   4.612  0.5614  0.3748 -0.1649
 1489TIP3    H1 4473   0.227   1.019   4.643 -1.2619  2.3748 -0.2674
 1489TIP3    H2 4474   0.354   1.090   4.688  0.1485 -0.3587  0.2758
 1490TIP3   OH2 4475   6.083   5.474   4.594 -0.7969  0.6142 -0.3240
 1490TIP3    H1 4476   6.079   5.435   4.681 -0.0099  0.0024 -0.5590
 1490TIP3    H2 4477   5.999   5.520   4.585 -1.2045  0.0423  0.4450
 1491TIP3   OH2 4478   4.276   2.176   0.198 -1.0503 -0.1740 -0.3090
 1491TIP3    H1 4479   4.271   2.111   0.128 -2.9462 -0.3594 -0.0613
 1491TIP3    H2 4480   4.223   2.138   0.269 -1.1170  1.0684  0.3345
 1492TIP3   OH2 4481   2.059   1.420   0.542 -0.2925 -0.0291  0.4037
 1492TIP3    H1 4482   2.032   1.432   0.633 -1.9895  1.2201 -0.2166
 1492TIP3    H2 4483   2.035   1.330   0.521 -0.2592 -0.1986  1.0664
 1493TIP3   OH2 4484   3.636   5.553   1.671 -0.7616  0.0822 -0.3376
 1493TIP3    H1 4485   3.679   5.608   1.737 -0.5758 -0.0705 -0.3317
 1493TIP3    H2 4486   3.638   5.465   1.707 -0.1036 -0.1098 -0.8160
 1494TIP3   OH2 4487   4.610   5.431   1.421  0.1804 -0.0047 -0.1762
 1494TIP3    H1 4488   4.557   5.505   1.390  0.5228  0.0508 -0.6359
 1494TIP3    H2 4489   4.700   5.457   1.402  0.3600 -0.1981  0.3880
 1495TIP3   OH2 4490   3.029   0.904   1.703  0.7266 -0.2418 -0.1645
 1495TIP3    H1 4491   2.967   0.845   1.745 -0.7259 -0.0011 -1.8793
 1495TIP3    H2 4492   3.066   0.956   1.775 -0.4114 -0.9774  0.9763
 1496TIP3   OH2 4493   2.878   3.275   4.028 -0.1176  0.1557  0.8482
 1496TIP3    H1 4494   2.949   3.316   4.077  1.2473 -0.1132 -0.8100
 1496TIP3    H2 4495   2.911   3.270   3.938 -2.0546 -0.4341  0.1273
 1497TIP3   OH2 4496   4.468   1.593   1.276 -0.2569  0.1931  0.0276
 1497TIP3    H1 4497   4.457   1.599   1.181 -2.3107 -2.0793  0.0304
 1497TIP3    H2 4498   4.428   1.510   1.300  3.8804 -1.4514  2.4108
 1498TIP3   OH2 4499   0.031   0.339   2.381 -0.1760  0.4300  0.4267
 1498TIP3    H1 4500   0.005   0.295   2.462 -2.0345  0.9893  0.1757
 1498TIP3    H2 4501   0.010   0.431   2.396  0.7108  0.7520 -0.2182
 1499TIP3   OH2 4502   4.113   3.516   0.465  0.0117  0.0558 -0.7585
 1499TIP3    H1 4503   4.161   3.434   0.481  2.7813  1.1893 -2.4355
 1499TIP3    H2 4504   4.105   3.557   0.551 -2.9718 -2.5911  0.4252
 1500TIP3   OH2 4505   3.646   1.998   3.109 -0.2284 -0.2468 -0.2288
 1500TIP3    H1 4506   3.704   2.010   3.185  0.4565 -0.0647 -0.7680
 1500TIP3    H2 4507   3.706   1.982   3.036 -0.6174  3.2372 -1.4793
 1501TIP3   OH2 4508   1.953   3.852   2.673  0.2133 -0.0549 -0.0258
 1501TIP3    H1 4509   1.906   3.867   2.754  0.4347 -0.7947  0.2481
 1501TIP3    H2 4510   1.933   3.929   2.619  1.0163  1.0377  1.1610
 1502TIP3   OH2 4511   2.024   1.768   4.048  0.4747 -0.0802  0.4467
 1502TIP3    H1 4512   2.075   1.803   3.975  2.1066 -1.2617  0.9738
 1502TIP3    H2 4513   1.934   1.795   4.029  1.0655  0.8392 -1.2575
 1503TIP3   OH2 4514   3.953   5.343   3.094 -0.1499 -0.1369 -0.0422
 1503TIP3    H1 4515   3.968   5.369   3.003 -0.8179  1.2689  0.2124
 1503TIP3    H2 4516   4.035   5.365   3.138  0.4758 -1.5878 -0.4295
 1504TIP3   OH2 4517   5.572   2.198   3.170 -0.1156 -0.0128  0.6511
 1504TIP3    H1 4518   5.496   2.174   3.116 -0.6907  1.6021  0.6764
 1504TIP3    H2 4519   5.584   2.292   3.153  1.7024 -0.1810  0.8869
 1505TIP3   OH2 4520   1.955   5.401   2.428 -0.5452 -0.0494  0.2866
 1505TIP3    H1 4521   1.980   5.378   2.339 -3.2426  1.7708 -1.0709
 1505TIP3    H2 4522   2.021   5.465   2.455  0.0258 -0.2539 -0.5704
 1506TIP3   OH2 4523   0.702   0.642   3.185  0.0076 -0.1352 -0.4384
 1506TIP3    H1 4524   0.723   0.583   3.257 -1.4144 -0.0754  0.0497
 1506TIP3    H2 4525   0.612   0.670   3.202  0.7680  2.5902 -0.3483
 1507TIP3   OH2 4526   4.504   3.595   0.843  0.8467  0.1853  0.3316
 1507TIP3    H1 4527   4.522   3.565   0.754  0.5628 -0.2929  0.4304
 1507TIP3    H2 4528   4.460   3.679   0.832  0.8061  0.1230  0.0198
 1508TIP3   OH2 4529   3.246   0.702   2.082 -0.4971 -0.5923 -0.3706
 1508TIP3    H1 4530   3.209   0.697   1.994 -1.9394 -1.6473  0.2474
 1508TIP3    H2 4531   3.216   0.622   2.124  1.2163 -0.7021  0.6992
 1509TIP3   OH2 4532   4.726   5.764   1.163 -0.2227  0.4147 -0.0067
 1509TIP3    H1 4533   4.747   5.703   1.093 -0.9312  0.0815  0.0688
 1509TIP3    H2 4534   4.773   5.844   1.139 -1.6294  0.7984 -1.6496
 1510TIP3   OH2 4535   5.147   5.983   1.841  0.5772  0.6247  0.0930
 1510TIP3    H1 4536   5.234   5.950   1.860  0.5864  1.1478  1.0326
 1510TIP3    H2 4537   5.089   5.935   1.900  0.5152  1.8132  1.0360
 1511TIP3   OH2 4538   4.475   1.345   3.411  0.4558 -0.5738  0.1918
 1511TIP3    H1 4539   4.382   1.323   3.409  0.1186  0.6153  1.1449
 1511TIP3    H2 4540   4.479   1.436   3.380  1.5619 -1.2686 -1.8892
 1512TIP3   OH2 4541   5.942   0.670   2.656 -0.4301 -0.3298  0.0682
 1512TIP3    H1 4542   6.037   0.684   2.653 -0.2159 -1.5535  0.7963
 1512TIP3    H2 4543   5.908   0.748   2.700  0.3229 -0.2510  0.5262
 1513TIP3   OH2 4544   3.591   4.433   4.437  0.3302  0.5263 -0.2357
 1513TIP3    H1 4545   3.533   4.357   4.433  1.0312  0.0153 -3.1659
 1513TIP3    H2 4546   3.679   4.396   4.430  0.8746  1.4843  1.1161
 1514TIP3   OH2 4547   6.082   0.567   0.974  0.0236 -0.2026 -0.0088
 1514TIP3    H1 4548   5.997   0.533   0.947 -0.4320  1.4179 -0.7341
 1514TIP3    H2 4549   6.146   0.516   0.924 -0.6376  0.0395 -1.1263
 1515TIP3   OH2 4550   3.586   0.502   0.935  0.1312  0.2787 -0.1898
 1515TIP3    H1 4551   3.641   0.487   1.012 -0.5519 -0.6089  0.1397
 1515TIP3    H2 4552   3.528   0.574   0.961 -0.4092 -0.3245  0.3104
 1516TIP3   OH2 4553   5.399   4.198   0.505  0.4109 -0.0035  0.6504
 1516TIP3    H1 4554   5.365   4.280   0.541  0.3865  0.5369 -0.5772
 1516TIP3    H2 4555   5.482   4.184   0.552 -1.3252 -1.3084  3.6492
 1517TIP3   OH2 4556   1.655   4.460   1.856 -0.4082 -0.2024 -0.2329
 1517TIP3    H1 4557   1.699   4.381   1.887  1.1032  0.4742 -0.5553
 1517TIP3    H2 4558   1.671   4.525   1.924 -1.9077 -0.2466  0.1751
 1518TIP3   OH2 4559   1.896   0.905   3.362 -0.2225 -0.1666  0.2431
 1518TIP3    H1 4560   1.989   0.886   3.347 -0.7486 -1.6382 -1.5000
 1518TIP3    H2 4561   1.872   0.850   3.436 -0.4375 -2.4385 -1.4094
 1519TIP3   OH2 4562   0.618   4.021   4.225  0.3580  0.0087 -0.3141
 1519TIP3    H1 4563   0.619   3.951   4.290  0.5086 -0.8102 -1.1875
 1519TIP3    H2 4564   0.531   4.018   4.187  0.9224 -0.9118 -1.6139
 1520TIP3   OH2 4565   3.117   5.407   0.340 -0.0040 -0.3158  0.2264
 1520TIP3    H1 4566   3.123   5.429   0.433 -2.5545 -0.3420  0.4788
 1520TIP3    H2 4567   3.158   5.481   0.295  1.0530 -0.1967  1.3461
 1521TIP3   OH2 4568   3.640   4.825   1.966  0.1356 -1.2739  0.5828
 1521TIP3    H1 4569   3.572   4.860   2.023  1.4820  2.5555  0.1289
 1521TIP3    H2 4570   3.704   4.787   2.025 -0.0046 -0.2392  1.4276
 1522TIP3   OH2 4571   1.015   0.181   3.891  0.2249  0.5881  0.6372
 1522TIP3    H1 4572   1.098   0.208   3.851 -1.4079  2.2274 -1.8949
 1522TIP3    H2 4573   1.005   0.238   3.967  0.6839  1.5434  0.0051
 1523TIP3   OH2 4574   0.368   0.088   2.222  0.6668 -0.5020 -0.2132
 1523TIP3    H1 4575   0.297   0.055   2.277  0.4992  1.4469  0.8381
 1523TIP3    H2 4576   0.448   0.055   2.263  0.5234  0.6051  1.0205
 1524TIP3   OH2 4577   3.477   4.683   2.204 -0.2486  0.0388 -0.1845
 1524TIP3    H1 4578   3.446   4.644   2.286  1.1926  0.9131  0.8382
 1524TIP3    H2 4579   3.397   4.698   2.153 -1.0359 -2.1688  0.2694
 1525TIP3   OH2 4580   3.457   4.618   4.302 -0.0236  0.7237  0.3512
 1525TIP3    H1 4581   3.535   4.624   4.357 -0.0270 -1.3926  0.6782
 1525TIP3    H2 4582   3.491   4.603   4.214 -0.0654  1.9750  0.0942
 1526TIP3   OH2 4583   3.509   4.891   3.405  0.5400  0.9428 -0.0312
 1526TIP3    H1 4584   3.581   4.948   3.379  0.0872  1.6579  0.2440
 1526TIP3    H2 4585   3.432   4.948   3.406  0.1790  0.4731  0.8480
 1527TIP3   OH2 4586   3.448   1.841   0.815  0.4361  0.0962  0.0159
 1527TIP3    H1 4587   3.391   1.767   0.796  2.9798 -1.3797 -2.5658
 1527TIP3    H2 4588   3.388   1.916   0.823 -1.9189 -1.2658 -2.9129
 1528TIP3   OH2 4589   0.727   3.423   0.203  0.6169  0.5602 -0.4366
 1528TIP3    H1 4590   0.648   3.402   0.153 -0.5113 -0.6036  1.6764
 1528TIP3    H2 4591   0.698   3.488   0.268  0.3313 -2.3337  2.6287
 1529TIP3   OH2 4592   3.850   1.356   4.234 -0.1140  0.0191  0.2246
 1529TIP3    H1 4593   3.824   1.435   4.281  0.8626 -0.0551  0.9418
 1529TIP3    H2 4594   3.928   1.383   4.185 -1.3335  0.2020 -1.7267
 1530TIP3   OH2 4595   3.477   1.282   4.448 -0.6567 -0.1007 -0.2668
 1530TIP3    H1 4596   3.383   1.267   4.454 -0.9046  1.4890  0.2795
 1530TIP3    H2 4597   3.485   1.372   4.417  0.6555  0.3219  1.1758
 1531TIP3   OH2 4598   4.409   6.010   3.185  0.4065  0.1266  0.5662
 1531TIP3    H1 4599   4.391   5.917   3.184  0.4610  0.1167  0.3119
 1531TIP3    H2 4600   4.486   6.020   3.129 -0.5480  0.5118 -0.7241
 1532TIP3   OH2 4601   0.536   5.032   4.548 -0.0795  0.6554 -0.4242
 1532TIP3    H1 4602   0.627   5.039   4.575 -0.2637  1.0738  0.1109
 1532TIP3    H2 4603   0.486   5.053   4.627 -0.6680 -1.6608 -0.0995
 1533TIP3   OH2 4604   0.998   5.720   4.942 -0.2306 -1.2572  0.1602
 1533TIP3    H1 4605   1.083   5.707   4.983  0.0782 -0.6416 -0.2684
 1533TIP3    H2 4606   0.937   5.728   5.016  0.5824  1.7642  0.6567
 1534TIP3   OH2 4607   2.078   4.449   0.502 -0.0549  0.1484 -0.5713
 1534TIP3    H1 4608   2.007   4.498   0.461  0.7202  1.7697 -0.0491
 1534TIP3    H2 4609   2.113   4.394   0.431 -0.6579  0.6789 -1.2883
 1535TIP3   OH2 4610   0.076   1.096   2.884 -0.1199  0.0069  0.2272
 1535TIP3    H1 4611   0.127   1.177   2.883  0.4694 -0.3628 -0.1118
 1535TIP3    H2 4612  -0.014   1.124   2.868 -0.0802  0.6975  1.1296
 1536TIP3   OH2 4613   3.888   0.176   0.054 -0.2500 -0.0636  0.4903
 1536TIP3    H1 4614   3.907   0.122  -0.023  0.6794  0.5546  0.2643
 1536TIP3    H2 4615   3.840   0.251   0.018  2.2914  1.4722  0.0729
 1537TIP3   OH2 4616   5.831   1.853   0.271 -0.0155 -0.2527 -0.1312
 1537TIP3    H1 4617   5.739   1.879   0.270  0.1428  0.3406 -1.2598
 1537TIP3    H2 4618   5.854   1.848   0.364 -0.5672  1.8482  0.1766
 1538TIP3   OH2 4619   2.786   4.870   4.933 -0.5110 -0.4373  0.1193
 1538TIP3    H1 4620   2.875   4.872   4.969 -0.2407  2.1749 -0.4951
 1538TIP3    H2 4621   2.797   4.890   4.840 -1.8149  2.6030  0.4925
 1539TIP3   OH2 4622   2.152   5.168   1.357 -0.4875  0.6913  0.2648
 1539TIP3    H1 4623   2.068   5.182   1.313  0.4706 -0.0491 -1.9853
 1539TIP3    H2 4624   2.212   5.230   1.314  0.4443  0.1511  0.7533
 1540TIP3   OH2 4625   5.763   5.976   3.302 -0.0283 -0.4977 -1.0844
 1540TIP3    H1 4626   5.826   5.914   3.264  0.7672 -0.4132  0.0523
 1540TIP3    H2 4627   5.770   6.054   3.246  1.1535 -0.3598 -0.7708
 1541TIP3   OH2 4628   5.909   4.156   1.372 -0.3088  0.0915  0.5405
 1541TIP3    H1 4629   5.907   4.130   1.464 -0.3626  2.9645  1.4412
 1541TIP3    H2 4630   5.822   4.193   1.356  0.7936  2.8380  0.4371
 1542TIP3   OH2 4631   3.776   5.631   2.631  0.5296  0.6602 -0.5893
 1542TIP3    H1 4632   3.829   5.709   2.620  0.7393  0.8113  1.1324
 1542TIP3    H2 4633   3.686   5.663   2.633  0.6470  0.9924  0.7813
 1543TIP3   OH2 4634   1.066   4.256   4.363 -0.1189 -0.1750 -0.1490
 1543TIP3    H1 4635   1.096   4.307   4.287  0.8246 -0.1711  0.2146
 1543TIP3    H2 4636   1.075   4.165   4.336  0.3049 -0.1747 -0.0089
 1544TIP3   OH2 4637   3.948   1.636   4.796 -0.1252  0.0064  0.8366
 1544TIP3    H1 4638   3.873   1.602   4.748  1.7035 -0.4699 -1.9057
 1544TIP3    H2 4639   3.960   1.576   4.869 -1.4666 -0.7800  0.4329
 1545TIP3   OH2 4640   5.014   2.318   2.313 -0.4139 -0.2083  0.0334
 1545TIP3    H1 4641   4.990   2.228   2.335 -1.9210 -0.2991 -1.7157
 1545TIP3    H2 4642   4.943   2.372   2.349 -0.1415  0.1591  0.0297
 1546TIP3   OH2 4643   2.520   0.394   5.118 -0.0735 -0.4231 -0.1104
 1546TIP3    H1 4644   2.576   0.423   5.190 -0.4641 -0.4432  0.2088
 1546TIP3    H2 4645   2.568   0.418   5.039  0.3354 -0.3491  0.1552
 1547TIP3   OH2 4646   4.161   3.374   2.499  0.2140  0.0494 -0.3077
 1547TIP3    H1 4647   4.163   3.326   2.417  2.5813 -0.4853 -0.0019
 1547TIP3    H2 4648   4.119   3.314   2.561 -0.6104  0.0454 -0.8506
 1548TIP3   OH2 4649   5.549   4.399   2.597 -0.2414 -0.4403 -0.3609
 1548TIP3    H1 4650   5.532   4.361   2.683 -2.3762 -0.1631 -0.5986
 1548TIP3    H2 4651   5.628   4.355   2.567 -0.1318 -1.4325  1.2237
 1549TIP3   OH2 4652   0.397   3.046   1.256  0.2608  0.2295  0.3851
 1549TIP3    H1 4653   0.459   3.082   1.319 -0.7793  0.4596  1.3131
 1549TIP3    H2 4654   0.438   3.060   1.171  0.6822  1.9924  0.8453
 1550TIP3   OH2 4655   5.183   3.567   3.868 -0.3292 -0.0109 -0.4597
 1550TIP3    H1 4656   5.105   3.558   3.923 -0.0805  0.2615 -0.0498
 1550TIP3    H2 4657   5.244   3.618   3.922 -0.3022  0.7928 -1.2302
 1551TIP3   OH2 4658   2.255   4.712   1.283  0.2198  0.7338  0.2139
 1551TIP3    H1 4659   2.254   4.732   1.189  0.2511 -1.0901 -0.2000
 1551TIP3    H2 4660   2.167   4.678   1.301  0.9393 -1.1773  0.2936
 1552TIP3   OH2 4661   1.120   0.349   2.680 -0.4713 -0.1946  0.1817
 1552TIP3    H1 4662   1.151   0.328   2.592 -0.5468  0.2140  0.0556
 1552TIP3    H2 4663   1.170   0.291   2.738 -2.1598 -2.2693 -0.3024
 1553TIP3   OH2 4664   0.977   1.476   2.181  0.1925  0.1106  0.3065
 1553TIP3    H1 4665   0.952   1.388   2.207  1.1881 -0.0620  0.7332
 1553TIP3    H2 4666   0.997   1.520   2.264  0.7775  0.3900  0.0227
 1554TIP3   OH2 4667   6.008   2.234   4.110 -0.1651  0.0241  0.1705
 1554TIP3    H1 4668   6.031   2.202   4.023 -0.2584 -1.8294  0.7657
 1554TIP3    H2 4669   5.937   2.176   4.139 -0.7598  1.1780  1.1295
 1555TIP3   OH2 4670   5.851   2.317   0.656  0.3237 -0.1644  0.0408
 1555TIP3    H1 4671   5.894   2.396   0.689  0.2812 -1.0340  2.3462
 1555TIP3    H2 4672   5.787   2.294   0.724  1.4835 -3.1184  0.2860
 1556TIP3   OH2 4673   2.116   0.740   0.984  0.1870  0.4603  0.1422
 1556TIP3    H1 4674   2.114   0.661   0.932  1.1956  1.4871 -1.5473
 1556TIP3    H2 4675   2.209   0.763   0.989 -0.1456  1.9353 -0.0401
 1557TIP3   OH2 4676   1.401   5.377   1.561 -0.1841  0.0351 -0.1464
 1557TIP3    H1 4677   1.437   5.427   1.489  0.1491 -1.5270 -1.1113
 1557TIP3    H2 4678   1.401   5.437   1.635  1.4368  1.0253 -0.9152
 1558TIP3   OH2 4679   5.365   2.573   2.523  0.2217 -0.0060 -0.1919
 1558TIP3    H1 4680   5.413   2.656   2.515  0.0832  0.0418 -0.5561
 1558TIP3    H2 4681   5.337   2.553   2.434  0.2812 -0.4644 -0.1094
 1559TIP3   OH2 4682   0.571   0.288   1.286 -1.0072 -0.0766  0.3015
 1559TIP3    H1 4683   0.622   0.264   1.208 -1.4284 -1.6690  0.4907
 1559TIP3    H2 4684   0.488   0.319   1.251 -1.5308 -1.6153  0.1051
 1560TIP3   OH2 4685   4.009   4.430   1.264  0.1123  0.5283  0.0971
 1560TIP3    H1 4686   4.052   4.496   1.210  0.5816  0.6632  0.6275
 1560TIP3    H2 4687   3.930   4.473   1.297  0.4051  0.8264  0.4243
 1561TIP3   OH2 4688   0.468   4.149   4.925  0.4343  0.0628 -0.0515
 1561TIP3    H1 4689   0.400   4.209   4.954  1.8096  1.9940 -0.6327
 1561TIP3    H2 4690   0.537   4.157   4.990  0.7206 -0.7390 -0.2464
 1562TIP3   OH2 4691   6.223   3.285   3.066 -0.1330  0.4264  0.4127
 1562TIP3    H1 4692   6.164   3.212   3.047 -0.6937  1.3061 -1.3426
 1562TIP3    H2 4693   6.178   3.363   3.034  2.2957  1.0452 -1.9398
 1563TIP3   OH2 4694   3.843   0.462   3.764 -0.1338 -0.0385 -0.3855
 1563TIP3    H1 4695   3.793   0.416   3.697  0.8832 -0.1752 -1.0565
 1563TIP3    H2 4696   3.851   0.552   3.731  0.0256 -0.0045 -0.2560
 1564TIP3   OH2 4697   4.792   0.165   2.199  0.3128  0.6199  0.8064
 1564TIP3    H1 4698   4.843   0.237   2.234  1.4471 -0.4275  1.3990
 1564TIP3    H2 4699   4.846   0.087   2.214  0.0457 -0.1270 -1.6256
 1565TIP3   OH2 4700   4.428   3.114   1.692 -0.4307  0.0239 -0.2796
 1565TIP3    H1 4701   4.449   3.088   1.781 -0.7514 -0.0907 -0.2355
 1565TIP3    H2 4702   4.336   3.089   1.680 -0.1192 -0.8827 -0.9636
 1566TIP3   OH2 4703   3.000   1.530   1.009  0.4344 -0.3903 -0.1924
 1566TIP3    H1 4704   2.973   1.510   1.099  1.0002 -0.4517 -0.0274
 1566TIP3    H2 4705   3.058   1.606   1.018 -1.0216  0.8151 -0.7275
 1567TIP3   OH2 4706   1.113   0.632   4.133 -0.1147  0.1395  0.3219
 1567TIP3    H1 4707   1.065   0.549   4.128  0.1664  0.0573 -2.0334
 1567TIP3    H2 4708   1.045   0.699   4.124 -0.1234  0.1158  0.2129
 1568TIP3   OH2 4709   5.242   2.543   2.254  0.0868 -0.0529  0.4885
 1568TIP3    H1 4710   5.170   2.491   2.220 -1.0661  2.0494 -0.4517
 1568TIP3    H2 4711   5.278   2.588   2.177  2.8486 -1.4568  0.8185
 1569TIP3   OH2 4712   4.819   5.808   1.707 -0.0018  0.2974 -0.4886
 1569TIP3    H1 4713   4.763   5.879   1.676 -0.2944 -0.5526 -2.0457
 1569TIP3    H2 4714   4.828   5.823   1.801 -2.2976  0.8495 -0.3058
 1570TIP3   OH2 4715   5.439   2.739   3.020  0.1345  0.3166  0.5503
 1570TIP3    H1 4716   5.449   2.829   2.988  0.8734  0.0754  0.0725
 1570TIP3    H2 4717   5.346   2.720   3.008  0.2516  0.4912 -0.7888
 1571TIP3   OH2 4718   2.944   2.453   1.710  0.4569 -0.8511  0.2038
 1571TIP3    H1 4719   2.980   2.541   1.721 -1.4640 -0.0492  0.4493
 1571TIP3    H2 4720   2.952   2.413   1.797  0.6366 -0.6322  0.2896
 1572TIP3   OH2 4721   2.870   4.423   4.177 -0.1091 -0.5621 -0.0664
 1572TIP3    H1 4722   2.785   4.429   4.221 -0.5445  1.4051 -1.0761
 1572TIP3    H2 4723   2.933   4.455   4.241 -0.6933  1.9625 -0.6586
 1573TIP3   OH2 4724   0.632   1.440   0.457 -0.3168  0.3561 -0.1068
 1573TIP3    H1 4725   0.606   1.472   0.371  0.1329 -1.6431 -1.0268
 1573TIP3    H2 4726   0.589   1.501   0.518 -0.5566  1.8815 -1.7008
 1574TIP3   OH2 4727   0.924   2.997   1.730 -0.6338  0.8266 -0.0006
 1574TIP3    H1 4728   1.018   3.003   1.712 -0.7092  0.9700 -0.3719
 1574TIP3    H2 4729   0.895   3.088   1.735 -0.6183  0.7919  0.8824
 1575TIP3   OH2 4730   1.922   1.370   2.052  0.1324  0.2104  0.0273
 1575TIP3    H1 4731   1.884   1.392   1.967  0.8928  1.3665 -0.0283
 1575TIP3    H2 4732   1.974   1.292   2.035 -1.5964 -0.9812 -0.0420
 1576TIP3   OH2 4733   0.183   5.245   2.882  0.0624 -0.4637 -0.4204
 1576TIP3    H1 4734   0.245   5.317   2.880  2.0355 -2.0856 -0.5933
 1576TIP3    H2 4735   0.097   5.288   2.885  1.1786  1.8622  1.4620
 1577TIP3   OH2 4736   3.663   3.465   0.273  0.0308  0.6236  0.1694
 1577TIP3    H1 4737   3.736   3.519   0.303  0.6914 -0.5301  0.7381
 1577TIP3    H2 4738   3.661   3.391   0.334  0.9127 -1.4124 -2.0676
 1578TIP3   OH2 4739   2.550   2.011   3.193 -0.1507 -0.3267  0.1407
 1578TIP3    H1 4740   2.583   2.010   3.283 -2.1621  0.7956  0.9645
 1578TIP3    H2 4741   2.521   1.922   3.178  0.4883 -0.6018  0.4850
 1579TIP3   OH2 4742   1.384   2.968   3.912 -0.0550  0.3596  0.4924
 1579TIP3    H1 4743   1.427   3.008   3.836  1.4923 -0.9951  0.6041
 1579TIP3    H2 4744   1.391   2.874   3.896 -0.4681  0.0756  1.9151
 1580TIP3   OH2 4745   2.245   2.569   2.549 -0.5761  0.8388  0.1173
 1580TIP3    H1 4746   2.176   2.532   2.494 -0.5433  0.5079  0.2978
 1580TIP3    H2 4747   2.263   2.655   2.510 -0.4912  0.5738 -0.4412
 1581TIP3   OH2 4748   0.196   1.143   2.536 -0.3794  0.6404  0.2799
 1581TIP3    H1 4749   0.159   1.224   2.502  1.6625  0.7067 -2.0214
 1581TIP3    H2 4750   0.290   1.152   2.524  0.3259 -0.4161  3.8277
 1582TIP3   OH2 4751   5.649   2.228   0.848 -0.4219  0.4559 -0.1988
 1582TIP3    H1 4752   5.635   2.169   0.922  0.3237  0.8506  0.2702
 1582TIP3    H2 4753   5.581   2.295   0.858  3.0061  3.9408  3.6608
 1583TIP3   OH2 4754   5.472   3.285   0.119 -0.3273 -0.0020  0.1131
 1583TIP3    H1 4755   5.382   3.317   0.131  0.3279  1.7194  0.7724
 1583TIP3    H2 4756   5.473   3.251   0.030 -0.9821  2.5128 -0.9645
 1584TIP3   OH2 4757   2.394   2.202   4.708 -0.4532 -0.4545  0.1218
 1584TIP3    H1 4758   2.413   2.144   4.782 -1.0828 -2.0086 -0.8662
 1584TIP3    H2 4759   2.298   2.206   4.706 -0.4595 -0.8943 -0.9296
 1585TIP3   OH2 4760   0.491   1.016   0.950  0.1036 -0.3578 -0.3366
 1585TIP3    H1 4761   0.514   0.975   1.033  1.2630  0.4079 -0.2624
 1585TIP3    H2 4762   0.396   1.005   0.944  0.3144 -2.8888 -0.2617
 1586TIP3   OH2 4763   2.591   5.115   4.170 -0.6181  1.0109 -0.1460
 1586TIP3    H1 4764   2.556   5.041   4.120  0.7211 -0.1960  0.6129
 1586TIP3    H2 4765   2.680   5.088   4.192 -0.1959  2.7444  0.4203
 1587TIP3   OH2 4766   4.271   3.801   0.559  0.0125  0.0831 -0.2368
 1587TIP3    H1 4767   4.256   3.727   0.618  0.9226 -0.4441 -0.6506
 1587TIP3    H2 4768   4.183   3.832   0.537 -0.3426  0.1669  1.2288
 1588TIP3   OH2 4769   4.169   4.471   2.147  0.1709  0.0529 -0.0199
 1588TIP3    H1 4770   4.128   4.550   2.113 -1.6629 -0.7657  0.1240
 1588TIP3    H2 4771   4.245   4.457   2.091  0.7035  2.0410  0.1359
 1589TIP3   OH2 4772   4.671   1.170   4.986  0.6025 -0.0767 -0.4045
 1589TIP3    H1 4773   4.693   1.096   4.929 -2.3702 -1.1663 -0.3243
 1589TIP3    H2 4774   4.626   1.232   4.929 -0.0126  0.0409  0.1895
 1590TIP3   OH2 4775   5.912   0.397   4.559 -0.0916 -0.3176  0.1868
 1590TIP3    H1 4776   5.946   0.458   4.493 -0.2740 -0.2661  0.1397
 1590TIP3    H2 4777   5.852   0.450   4.611  1.1329  0.0185  1.3058
 1591TIP3   OH2 4778   5.200   5.186   0.813  0.1132 -0.7341  0.5697
 1591TIP3    H1 4779   5.172   5.185   0.905  0.8074  1.3633  0.8661
 1591TIP3    H2 4780   5.125   5.223   0.766  0.5132  0.1885  0.6326
 1592TIP3   OH2 4781   1.236   2.635   0.770 -0.1308  0.2428 -0.1077
 1592TIP3    H1 4782   1.184   2.555   0.775  1.2569 -0.8672 -1.9144
 1592TIP3    H2 4783   1.320   2.606   0.733  0.2335  2.6020 -1.3199
 1593TIP3   OH2 4784   0.363   0.397   0.916  0.2839 -0.2228 -0.4565
 1593TIP3    H1 4785   0.305   0.354   0.852  1.2847  0.6627 -2.0300
 1593TIP3    H2 4786   0.443   0.344   0.915  0.1449 -0.4689  0.4412
 1594TIP3   OH2 4787   0.733   1.835   2.032 -0.0109  0.2122 -0.7600
 1594TIP3    H1 4788   0.710   1.762   2.090 -0.3415  0.5198 -0.5008
 1594TIP3    H2 4789   0.829   1.837   2.034  0.0217 -0.4574 -1.0794
 1595TIP3   OH2 4790   0.088   1.377   2.356 -0.0204 -1.2245 -0.5997
 1595TIP3    H1 4791   0.163   1.432   2.333 -0.3993 -0.7196 -0.6448
 1595TIP3    H2 4792   0.085   1.310   2.287 -1.6209  0.7271 -2.5787
 1596TIP3   OH2 4793   2.653   4.451   0.399 -0.0307  0.7143  0.1373
 1596TIP3    H1 4794   2.737   4.457   0.353  0.9088 -0.0969  1.6387
 1596TIP3    H2 4795   2.660   4.516   0.469 -0.4125  0.2127  0.6434
 1597TIP3   OH2 4796   5.214   4.661   2.427  0.2646 -0.2625 -0.0919
 1597TIP3    H1 4797   5.283   4.727   2.430 -0.0884  0.2530 -1.9754
 1597TIP3    H2 4798   5.203   4.641   2.334 -1.5654 -0.9040  0.2100
 1598TIP3   OH2 4799   5.792   2.414   1.372 -0.6459  0.0171  0.0744
 1598TIP3    H1 4800   5.846   2.345   1.332 -0.0618 -0.5966  1.8102
 1598TIP3    H2 4801   5.823   2.495   1.331 -0.9137 -0.6523 -1.5472
 1599TIP3   OH2 4802   4.754   1.597   3.785  0.3834  0.2336  0.0057
 1599TIP3    H1 4803   4.732   1.581   3.693 -2.1741 -0.6918  0.6982
 1599TIP3    H2 4804   4.813   1.525   3.807 -1.7095 -1.6121 -0.0706
 1600TIP3   OH2 4805   0.673   4.990   1.141  0.3038 -0.1474  0.0639
 1600TIP3    H1 4806   0.588   5.027   1.167  1.3362  0.7331  2.4799
 1600TIP3    H2 4807   0.709   5.052   1.078  0.0638  0.6240  0.6707
 1601TIP3   OH2 4808   5.493   5.551   2.414  0.5417  0.0208  0.6958
 1601TIP3    H1 4809   5.402   5.548   2.442  0.5265  1.6920  0.9342
 1601TIP3    H2 4810   5.542   5.513   2.487  0.1409  0.3974  1.1687
 1602TIP3   OH2 4811   1.500   2.498   0.218  0.1536 -0.6533 -0.1045
 1602TIP3    H1 4812   1.409   2.479   0.241 -0.1292 -1.0597 -1.4632
 1602TIP3    H2 4813   1.496   2.582   0.172  0.7968  0.4898  1.8223
 1603TIP3   OH2 4814   0.131   4.232   1.218 -0.4081  0.5405 -0.3415
 1603TIP3    H1 4815   0.154   4.244   1.311 -0.9353  1.7828 -0.3423
 1603TIP3    H2 4816   0.038   4.209   1.219  0.1489 -1.9514 -0.4643
 1604TIP3   OH2 4817   3.927   0.919   2.206 -0.6813  0.3545  0.3159
 1604TIP3    H1 4818   3.986   0.990   2.182 -1.7988  0.7268 -1.5647
 1604TIP3    H2 4819   3.977   0.839   2.187 -0.5626  0.6633 -0.7492
 1605TIP3   OH2 4820   2.947   0.135   0.193  0.0031  0.2829 -0.5584
 1605TIP3    H1 4821   2.872   0.188   0.220  0.5335  0.7849 -0.0324
 1605TIP3    H2 4822   2.959   0.154   0.101 -1.6393 -1.2062 -1.1375
 1606TIP3   OH2 4823   0.073   2.982   3.577 -0.5689  0.0415  0.6597
 1606TIP3    H1 4824   0.061   3.060   3.631  0.0351  0.1484  0.6455
 1606TIP3    H2 4825  -0.004   2.927   3.596 -0.1585 -0.1162  1.9500
 1607TIP3   OH2 4826   3.871   0.510   0.097 -0.8038 -0.4667 -0.0040
 1607TIP3    H1 4827   3.884   0.600   0.127  0.2940 -0.6210  0.0083
 1607TIP3    H2 4828   3.777   0.494   0.109 -1.1276  0.8848 -0.5988
 1608TIP3   OH2 4829   4.368   0.929   3.749 -0.2870 -0.0221 -0.3078
 1608TIP3    H1 4830   4.349   0.892   3.836  2.1645 -2.2679 -0.6095
 1608TIP3    H2 4831   4.285   0.921   3.701 -0.7184 -2.1843  0.6875
 1609TIP3   OH2 4832   4.708   1.418   4.593 -0.1840  0.3073 -1.0053
 1609TIP3    H1 4833   4.681   1.467   4.671  0.3573  1.1229 -1.3140
 1609TIP3    H2 4834   4.791   1.458   4.567  1.4004 -2.1452 -0.0477
 1610TIP3   OH2 4835   3.786   0.211   1.211  0.0365  0.0587  0.2887
 1610TIP3    H1 4836   3.690   0.207   1.210  0.0774 -1.9237 -0.3444
 1610TIP3    H2 4837   3.809   0.254   1.129 -0.2958 -2.1316 -1.0226
 1611TIP3   OH2 4838   2.524   3.124   0.791  0.5350 -0.0123 -0.0797
 1611TIP3    H1 4839   2.483   3.169   0.717 -1.0425  1.7251  1.7147
 1611TIP3    H2 4840   2.492   3.034   0.785  0.7102  0.0062 -1.6592
 1612TIP3   OH2 4841   1.768   1.368   0.818  0.2389  0.0579 -0.4633
 1612TIP3    H1 4842   1.861   1.390   0.829  0.2978 -0.0463 -0.7269
 1612TIP3    H2 4843   1.759   1.282   0.859 -0.4396  1.4225  2.4219
 1613TIP3   OH2 4844   1.543   3.982   0.193 -0.3848  0.7213 -0.7744
 1613TIP3    H1 4845   1.502   4.007   0.276 -1.3769  0.8237 -1.2667
 1613TIP3    H2 4846   1.473   3.993   0.128 -0.6787 -2.5226 -1.1719
 1614TIP3   OH2 4847   0.341   4.406   0.844 -0.2196 -0.3212 -0.0580
 1614TIP3    H1 4848   0.416   4.449   0.885 -0.1038  0.0959 -0.6796
 1614TIP3    H2 4849   0.266   4.461   0.867 -0.0729  0.2289 -0.8450
 1615TIP3   OH2 4850   3.963   1.098   3.932  0.1184  0.3821 -0.1710
 1615TIP3    H1 4851   3.970   1.004   3.947 -0.0166  0.4694  0.5145
 1615TIP3    H2 4852   4.015   1.137   4.002  1.2674  0.8021 -1.2263
 1616TIP3   OH2 4853   1.067   5.397   0.870 -0.0237  0.5423  0.3129
 1616TIP3    H1 4854   1.061   5.475   0.815  0.2199 -0.7711 -1.7073
 1616TIP3    H2 4855   1.151   5.406   0.915  0.8664  0.6627 -1.2749
 1617TIP3   OH2 4856   1.990   0.797   2.082  0.6434 -0.1763 -0.9527
 1617TIP3    H1 4857   1.977   0.812   2.176  1.3151 -1.3120 -0.6607
 1617TIP3    H2 4858   2.083   0.776   2.074  0.4778 -0.6121 -1.7968
 1618TIP3   OH2 4859   4.550   4.409   0.757 -0.3192 -0.4642  0.8626
 1618TIP3    H1 4860   4.500   4.488   0.737  0.3486 -0.5812 -1.5598
 1618TIP3    H2 4861   4.498   4.338   0.719  0.8407 -0.7595 -0.2362
 1619TIP3   OH2 4862   2.741   2.611   1.213 -0.4032  0.1710  0.0318
 1619TIP3    H1 4863   2.737   2.527   1.258 -0.0051  0.8899  1.4906
 1619TIP3    H2 4864   2.833   2.623   1.192 -0.2580  0.7879  0.9619
 1620TIP3   OH2 4865   5.806   1.824   0.768  0.3466 -0.3044 -0.2293
 1620TIP3    H1 4866   5.889   1.780   0.755  0.5472 -0.9659  2.5600
 1620TIP3    H2 4867   5.828   1.900   0.823 -0.6723  0.4512 -0.8318
 1621TIP3   OH2 4868   4.430   4.491   4.734  0.0577  0.1622  0.4309
 1621TIP3    H1 4869   4.397   4.405   4.709  0.3491 -0.2440  1.4144
 1621TIP3    H2 4870   4.357   4.532   4.781  0.2199  0.1082  0.7290
 1622TIP3   OH2 4871   3.493   2.086   4.989  0.6015 -0.8942  0.0201
 1622TIP3    H1 4872   3.475   2.003   4.945  1.2118 -1.1615  0.2643
 1622TIP3    H2 4873   3.552   2.063   5.060 -0.3711 -0.4709  0.9980
 1623TIP3   OH2 4874   2.889   0.790   3.590 -0.3095 -0.1776  0.5593
 1623TIP3    H1 4875   2.950   0.833   3.529 -0.0498  0.8791  1.5314
 1623TIP3    H2 4876   2.824   0.858   3.610 -2.3250 -1.5075 -1.0672
 1624TIP3   OH2 4877   3.064   0.996   4.887  0.7538 -0.1719 -0.0175
 1624TIP3    H1 4878   3.024   0.909   4.884 -1.0966  0.5934  1.0415
 1624TIP3    H2 4879   3.018   1.046   4.818  0.7732  0.3627  0.3497
 1625TIP3   OH2 4880   0.249   3.451   1.604  0.6001  0.0988  0.1232
 1625TIP3    H1 4881   0.171   3.397   1.595  0.8368 -0.3350  0.5935
 1625TIP3    H2 4882   0.308   3.419   1.536 -0.7364  2.4834 -2.3540
 1626TIP3   OH2 4883   0.623   0.811   4.851  0.0034 -0.2999  0.1474
 1626TIP3    H1 4884   0.533   0.840   4.835  0.1084  0.9871  1.6230
 1626TIP3    H2 4885   0.670   0.890   4.877  1.6958 -0.8671 -0.9930
 1627TIP3   OH2 4886   0.170   5.541   3.622  0.3267 -0.2728  0.0285
 1627TIP3    H1 4887   0.126   5.487   3.555 -3.0018  2.4149 -0.2326
 1627TIP3    H2 4888   0.194   5.621   3.576 -2.3168  1.7724  1.8974
 1628TIP3   OH2 4889   2.333   1.969   2.450 -0.7677 -0.6993  0.0643
 1628TIP3    H1 4890   2.389   1.896   2.477  0.4650 -0.2467 -1.1539
 1628TIP3    H2 4891   2.260   1.928   2.406 -0.2097 -1.2242 -0.3848
 1629TIP3   OH2 4892   1.991   0.666   0.197 -0.0449  1.0238  0.1578
 1629TIP3    H1 4893   2.025   0.578   0.185  1.3229  1.6762 -0.9573
 1629TIP3    H2 4894   1.993   0.706   0.110 -0.4384  2.2303  0.6696
 1630TIP3   OH2 4895   2.275   0.793   1.435 -0.1680  0.1481 -0.0763
 1630TIP3    H1 4896   2.195   0.845   1.428  0.7396  2.1884  3.0044
 1630TIP3    H2 4897   2.246   0.711   1.475 -1.0477 -0.2079 -1.3814
 1631TIP3   OH2 4898   5.660   2.291   4.229 -0.2603 -0.1484 -0.4503
 1631TIP3    H1 4899   5.617   2.351   4.168  1.5853  0.2455 -1.4479
 1631TIP3    H2 4900   5.646   2.331   4.315  0.4767  1.4811 -1.0375
 1632TIP3   OH2 4901   4.121   5.976   2.374 -0.6874  0.2899  0.6651
 1632TIP3    H1 4902   4.092   6.063   2.347  0.8790  1.1583  1.6621
 1632TIP3    H2 4903   4.048   5.918   2.350 -0.8071  1.4571 -2.2424
 1633TIP3   OH2 4904   1.882   5.256   1.222  0.2416 -0.6044 -0.4345
 1633TIP3    H1 4905   1.849   5.247   1.312  3.8288  0.9654  1.2485
 1633TIP3    H2 4906   1.820   5.316   1.180  0.4950  1.7662  2.2999
 1634TIP3   OH2 4907   1.189   5.051   1.951 -0.0304  0.0625 -0.2656
 1634TIP3    H1 4908   1.244   5.111   1.901 -2.1238  1.0832 -1.4818
 1634TIP3    H2 4909   1.140   5.002   1.885 -2.8327  1.3911  0.6718
 1635TIP3   OH2 4910   4.319   4.666   1.702  0.7657 -0.1478  0.0002
 1635TIP3    H1 4911   4.403   4.703   1.727  0.9035 -0.1829 -0.4037
 1635TIP3    H2 4912   4.254   4.715   1.752  0.7227  2.3213 -2.2556
 1636TIP3   OH2 4913   2.791   0.110   0.736 -0.2774  0.3038  0.1874
 1636TIP3    H1 4914   2.728   0.043   0.763  2.3933 -1.8044  1.6764
 1636TIP3    H2 4915   2.783   0.179   0.803  0.4882 -0.9945  1.6752
 1637TIP3   OH2 4916   3.892   1.037   0.537  0.4003 -0.3747  0.3474
 1637TIP3    H1 4917   3.906   1.129   0.557 -0.4904 -0.7328  3.1561
 1637TIP3    H2 4918   3.937   0.990   0.608 -1.3102 -1.9843  0.4634
 1638TIP3   OH2 4919   2.163   4.531   2.036 -0.1581 -0.6046  0.0740
 1638TIP3    H1 4920   2.113   4.609   2.011 -0.3416 -0.8271 -0.2740
 1638TIP3    H2 4921   2.141   4.517   2.128  1.1254  0.6753  0.6081
 1639TIP3   OH2 4922   0.516   3.610   3.755  0.6036  0.3276  0.3258
 1639TIP3    H1 4923   0.478   3.545   3.815 -1.6670  0.9725 -0.3127
 1639TIP3    H2 4924   0.537   3.561   3.676  1.3896 -0.0887  0.7815
 1640TIP3   OH2 4925   4.613   4.050   1.242 -0.2312  0.6670 -0.1635
 1640TIP3    H1 4926   4.551   4.080   1.308 -0.1322 -1.0994  0.8158
 1640TIP3    H2 4927   4.562   3.991   1.186  0.2172  0.2967 -0.1968
 1641TIP3   OH2 4928   5.715   1.139   0.936 -0.1357  0.2660  0.5407
 1641TIP3    H1 4929   5.772   1.064   0.950 -1.3691 -1.1758 -1.5777
 1641TIP3    H2 4930   5.764   1.196   0.876 -1.1898 -1.4963 -2.1744
 1642TIP3   OH2 4931   6.085   5.241   3.979  0.4039  0.4073  0.1937
 1642TIP3    H1 4932   6.081   5.145   3.980 -0.2470  0.4345  0.5444
 1642TIP3    H2 4933   6.009   5.268   3.929 -0.1252  0.7657  1.1629
 1643TIP3   OH2 4934   0.284   1.634   1.004  0.2350 -0.2508 -0.3603
 1643TIP3    H1 4935   0.281   1.541   0.983  1.3673 -0.1328 -1.1116
 1643TIP3    H2 4936   0.377   1.656   1.003 -0.0834  1.2645 -1.9417
 1644TIP3   OH2 4937   5.014   5.974   3.885 -0.2603 -0.3625 -0.4755
 1644TIP3    H1 4938   5.009   5.952   3.978 -0.7749  1.0956 -0.1341
 1644TIP3    H2 4939   5.095   6.023   3.875 -0.8137  0.5726 -0.5324
 1645TIP3   OH2 4940   1.082   2.168   4.331 -0.5448 -0.2832  0.3609
 1645TIP3    H1 4941   1.168   2.207   4.340 -0.3156 -0.8545  0.7078
 1645TIP3    H2 4942   1.028   2.236   4.291  0.1570 -0.0494 -0.1951
 1646TIP3   OH2 4943   4.929   0.422   0.856 -0.7534  0.2685 -0.3778
 1646TIP3    H1 4944   4.954   0.367   0.931 -0.5848 -0.0530 -0.6688
 1646TIP3    H2 4945   4.835   0.410   0.847 -0.6438 -0.3573 -0.7439
 1647TIP3   OH2 4946   3.187   2.441   2.439  0.1780 -0.3140 -0.0752
 1647TIP3    H1 4947   3.135   2.427   2.359  2.2200 -0.7669 -1.4019
 1647TIP3    H2 4948   3.181   2.358   2.486 -0.2743 -0.3648 -0.2107
 1648TIP3   OH2 4949   5.034   2.467   2.068 -0.1902 -0.0193  0.2545
 1648TIP3    H1 4950   5.025   2.401   2.137 -0.7677 -1.8350 -1.4677
 1648TIP3    H2 4951   4.958   2.454   2.012  1.1177  0.1974 -1.6736
 1649TIP3   OH2 4952   2.327   2.620   3.853  0.3504  0.0222  0.2133
 1649TIP3    H1 4953   2.364   2.607   3.940 -2.1968  2.6099  1.8320
 1649TIP3    H2 4954   2.235   2.639   3.868 -0.3460 -0.1282 -3.1307
 1650TIP3   OH2 4955   4.527   5.564   3.228  0.1087 -0.0691  0.3204
 1650TIP3    H1 4956   4.620   5.577   3.245  0.3060 -1.4473  0.3926
 1650TIP3    H2 4957   4.503   5.489   3.282 -0.1151 -2.2428 -2.5128
 1651TIP3   OH2 4958   5.558   3.866   4.757 -0.1335  0.6045  0.5968
 1651TIP3    H1 4959   5.537   3.917   4.835  0.2131  0.0300  1.0720
 1651TIP3    H2 4960   5.475   3.856   4.711 -0.2696  1.2765  0.6894
 1652TIP3   OH2 4961   4.134   1.415   1.839 -0.2987 -0.1038  0.0804
 1652TIP3    H1 4962   4.164   1.503   1.863 -1.0645  0.3244 -0.4786
 1652TIP3    H2 4963   4.052   1.430   1.792 -0.0419 -1.0588 -0.7134
 1653TIP3   OH2 4964   2.521   4.073   1.336  0.3462  0.1265 -0.1837
 1653TIP3    H1 4965   2.430   4.091   1.358  0.6323  0.7338  0.5460
 1653TIP3    H2 4966   2.568   4.084   1.418  1.2760  1.2570 -0.8367
 1654TIP3   OH2 4967   0.273   1.115   3.542  0.2361 -0.1670 -0.3950
 1654TIP3    H1 4968   0.317   1.170   3.607  0.2796 -2.1928  1.3641
 1654TIP3    H2 4969   0.216   1.058   3.592  0.7145 -2.2297 -2.0536
 1655TIP3   OH2 4970   4.387   3.629   2.086 -0.6662 -0.1043 -0.3169
 1655TIP3    H1 4971   4.443   3.564   2.042 -0.3146 -0.0719  0.0716
 1655TIP3    H2 4972   4.311   3.638   2.028 -1.2702 -1.6942  0.1580
 1656TIP3   OH2 4973   4.232   1.788   4.050 -0.5486 -0.3629  0.1386
 1656TIP3    H1 4974   4.307   1.788   3.991  0.1185 -0.2962  0.9725
 1656TIP3    H2 4975   4.156   1.797   3.992  0.0800 -0.4244 -0.7133
 1657TIP3   OH2 4976   5.834   2.709   4.243  0.0738 -0.4262 -0.2685
 1657TIP3    H1 4977   5.876   2.624   4.236 -0.6532 -0.8577  0.4805
 1657TIP3    H2 4978   5.745   2.690   4.274  0.2975  0.6790  1.1578
 1658TIP3   OH2 4979   5.149   2.611   4.906 -0.3293  0.2045  0.6276
 1658TIP3    H1 4980   5.109   2.688   4.947 -0.5940 -0.2243  1.1920
 1658TIP3    H2 4981   5.212   2.580   4.971  0.3708  0.4176  0.0634
 1659TIP3   OH2 4982   1.225   5.666   1.262 -0.2554 -0.6017 -0.0422
 1659TIP3    H1 4983   1.285   5.597   1.287  1.5354  0.9326  0.1207
 1659TIP3    H2 4984   1.175   5.686   1.341  0.3915 -0.5926  0.3676
 1660TIP3   OH2 4985   3.518   5.782   1.517  0.5459  1.0189 -0.3102
 1660TIP3    H1 4986   3.537   5.701   1.565 -0.6064  0.8940 -0.0416
 1660TIP3    H2 4987   3.462   5.833   1.576 -1.1590  0.7349 -1.6001
 1661TIP3   OH2 4988   5.054   2.893   3.302  0.4616  0.3256 -0.1905
 1661TIP3    H1 4989   5.088   2.809   3.272  1.3143  0.3837  0.5825
 1661TIP3    H2 4990   4.994   2.870   3.373  1.1424  0.3967  0.4156
 1662TIP3   OH2 4991   2.506   2.157   4.290 -0.1878 -0.6833 -0.2487
 1662TIP3    H1 4992   2.532   2.235   4.240  0.2793  0.3600  1.5482
 1662TIP3    H2 4993   2.422   2.132   4.251 -0.6814  1.1217 -0.4553
 1663TIP3   OH2 4994   0.314   4.812   0.893  0.2764  0.2399 -0.2167
 1663TIP3    H1 4995   0.274   4.869   0.959 -0.5146 -0.9893  0.3973
 1663TIP3    H2 4996   0.246   4.749   0.871  0.8803 -0.0041 -1.4631
 1664TIP3   OH2 4997   1.102   4.479   4.942 -0.2092 -0.4257 -0.0913
 1664TIP3    H1 4998   1.067   4.429   4.868 -1.4742  0.4657 -0.1203
 1664TIP3    H2 4999   1.069   4.568   4.929  0.3973 -0.0261  0.9996
 1665TIP3   OH2 5000   3.110   5.066   3.049 -0.4918 -0.8160  0.1241
 1665TIP3    H1 5001   3.196   5.071   3.007 -0.3081 -0.6917  0.5119
 1665TIP3    H2 5002   3.078   4.978   3.029 -0.0517 -1.0448  0.4140
 1666TIP3   OH2 5003   1.624   0.351   4.738  0.4523 -0.6887 -0.1884
 1666TIP3    H1 5004   1.594   0.402   4.662 -1.6879 -2.6749 -0.8211
 1666TIP3    H2 5005   1.650   0.267   4.700 -0.9949 -1.8466  1.2565
 1667TIP3   OH2 5006   5.003   2.721   3.862 -0.1732  0.4368 -0.3737
 1667TIP3    H1 5007   5.032   2.675   3.941 -0.3100 -0.0916 -0.6237
 1667TIP3    H2 5008   5.027   2.661   3.791  0.2940  1.0765 -0.7629
 1668TIP3   OH2 5009   3.083   0.733   2.382 -0.1829 -0.5140  0.3927
 1668TIP3    H1 5010   3.066   0.683   2.462 -0.6944 -0.1156  0.5314
 1668TIP3    H2 5011   3.081   0.667   2.312 -1.6692 -0.5802  0.4762
 1669TIP3   OH2 5012   2.846   3.700   0.126  0.2903 -0.2494  0.0278
 1669TIP3    H1 5013   2.818   3.652   0.049  0.7644 -0.0454 -0.2775
 1669TIP3    H2 5014   2.766   3.714   0.177 -0.1295  0.2118 -0.7570
 1670TIP3   OH2 5015   0.963   0.740   3.540  0.0496 -0.2187 -0.4427
 1670TIP3    H1 5016   0.871   0.714   3.530  0.1528 -0.0674 -2.1806
 1670TIP3    H2 5017   1.006   0.663   3.577 -0.8739 -0.0586  1.0562
 1671TIP3   OH2 5018   2.028   1.457   0.834  0.1547 -0.4007 -0.1172
 1671TIP3    H1 5019   2.074   1.465   0.917  0.4820  1.4018 -0.4237
 1671TIP3    H2 5020   2.040   1.543   0.792 -3.0629  0.0275 -0.4206
 1672TIP3   OH2 5021   6.076   4.812   5.099 -0.3459  0.2236 -0.7224
 1672TIP3    H1 5022   5.990   4.785   5.067 -0.8998 -0.2411  1.0675
 1672TIP3    H2 5023   6.113   4.864   5.027 -1.4408 -0.8922 -2.1481
 1673TIP3   OH2 5024   4.743   2.163   1.120  0.2827 -0.2981 -0.0026
 1673TIP3    H1 5025   4.682   2.193   1.053  1.2648 -0.3652 -0.9558
 1673TIP3    H2 5026   4.723   2.217   1.197 -0.1416  0.5454 -0.6864
 1674TIP3   OH2 5027   3.799   1.842   1.789 -0.6789 -0.0552 -0.3564
 1674TIP3    H1 5028   3.799   1.831   1.884  0.1256  3.5479  0.2062
 1674TIP3    H2 5029   3.706   1.837   1.765 -1.1372  1.0564  1.0082
 1675TIP3   OH2 5030   3.709   2.720   1.885 -0.3695 -0.6668 -0.1478
 1675TIP3    H1 5031   3.699   2.656   1.814 -0.4141 -0.3534 -0.4255
 1675TIP3    H2 5032   3.798   2.705   1.918 -0.3766 -0.8657 -0.2150
 1676TIP3   OH2 5033   1.247   4.085   2.302  0.7688 -0.1713  0.3200
 1676TIP3    H1 5034   1.250   4.175   2.268 -0.5042 -0.1045  0.3210
 1676TIP3    H2 5035   1.177   4.043   2.252 -2.4814  0.4460  3.8678
 1677TIP3   OH2 5036   2.587   1.030   4.958  0.3390 -0.1794  0.0734
 1677TIP3    H1 5037   2.637   1.108   4.982  0.5708  0.1716 -1.4764
 1677TIP3    H2 5038   2.640   0.986   4.892 -1.1779  0.0038 -1.3331
 1678TIP3   OH2 5039   5.594   5.465   4.096 -0.0435  0.1898  0.6493
 1678TIP3    H1 5040   5.636   5.538   4.142  2.6257 -0.5750 -0.4090
 1678TIP3    H2 5041   5.607   5.484   4.004 -1.0333 -0.7129  0.2999
 1679TIP3   OH2 5042   6.054   3.162   0.736  0.1536 -0.0598  0.3336
 1679TIP3    H1 5043   6.023   3.207   0.657 -1.5593 -1.1523  0.3495
 1679TIP3    H2 5044   6.078   3.075   0.706 -1.1638 -0.7140  1.1058
 1680TIP3   OH2 5045   3.000   1.172   4.197 -0.1114 -0.5986  0.7801
 1680TIP3    H1 5046   3.006   1.268   4.206 -0.9812 -0.6169  1.8038
 1680TIP3    H2 5047   2.931   1.159   4.133 -0.0205 -0.5442  0.6698
 1681TIP3   OH2 5048   5.623   3.772   2.318  0.8213 -0.4487 -1.3458
 1681TIP3    H1 5049   5.642   3.740   2.230  1.0721  0.6640 -1.7200
 1681TIP3    H2 5050   5.565   3.847   2.304  2.0705  0.6841 -0.6743
 1682TIP3   OH2 5051   3.874   0.482   0.805  0.2976 -0.1339 -0.1628
 1682TIP3    H1 5052   3.936   0.531   0.859  1.0606 -0.8869 -0.3299
 1682TIP3    H2 5053   3.921   0.468   0.722  0.1690 -1.2847 -0.0540
 1683TIP3   OH2 5054   0.784   0.185   3.414 -0.0730  0.3996  0.5304
 1683TIP3    H1 5055   0.808   0.117   3.351 -0.8082  1.8843 -1.4275
 1683TIP3    H2 5056   0.689   0.191   3.409 -0.1531  0.5745  1.8016
 1684TIP3   OH2 5057   0.352   0.457   1.171 -0.8362 -0.0800  0.4464
 1684TIP3    H1 5058   0.369   0.435   1.079  0.1924 -2.4840  1.1382
 1684TIP3    H2 5059   0.416   0.525   1.191 -2.2681  1.8083 -1.0491
 1685TIP3   OH2 5060   5.293   0.914   0.074  0.3014 -0.3577  0.5843
 1685TIP3    H1 5061   5.350   0.917  -0.002  0.3119  1.0366  0.6162
 1685TIP3    H2 5062   5.307   0.998   0.118 -0.5816 -0.6466  1.4725
 1686TIP3   OH2 5063   5.348   0.963   0.443 -0.2289 -0.2405  0.3054
 1686TIP3    H1 5064   5.339   1.008   0.359  0.1273  0.8274  0.8113
 1686TIP3    H2 5065   5.287   1.010   0.501 -1.7650 -2.0527  0.2566
 1687TIP3   OH2 5066   5.682   0.835   0.810 -0.3487 -0.1554  0.0501
 1687TIP3    H1 5067   5.646   0.747   0.816 -1.6795  0.4515  1.8208
 1687TIP3    H2 5068   5.773   0.825   0.840  0.6198 -1.4227 -2.9519
 1688TIP3   OH2 5069   5.275   2.407   3.517  0.0841  0.2048 -0.1588
 1688TIP3    H1 5070   5.336   2.442   3.452 -0.2943 -1.7716 -1.6473
 1688TIP3    H2 5071   5.331   2.372   3.586  0.5790  0.0720 -0.6212
 1689TIP3   OH2 5072   2.991   3.082   0.200  0.3582 -0.4948 -0.4609
 1689TIP3    H1 5073   3.070   3.032   0.223 -0.7506 -1.4993  1.4411
 1689TIP3    H2 5074   2.983   3.148   0.269  0.4594  0.7651 -1.6134
 1690TIP3   OH2 5075   5.661   5.066   0.379 -0.3616 -0.2456 -0.5724
 1690TIP3    H1 5076   5.614   4.983   0.382  0.4514 -0.6807  0.9096
 1690TIP3    H2 5077   5.593   5.131   0.359 -1.5223 -0.9139  0.9914
 1691TIP3   OH2 5078   3.097   0.298   4.312  0.2889 -0.4006 -0.3834
 1691TIP3    H1 5079   3.120   0.391   4.315 -1.0937  0.0846 -2.5913
 1691TIP3    H2 5080   3.016   0.295   4.261  0.9719 -2.9110 -1.4691
 1692TIP3   OH2 5081   0.647   1.921   3.498 -0.4483  0.8312  0.1778
 1692TIP3    H1 5082   0.682   1.853   3.555 -3.2612 -1.5151 -0.6664
 1692TIP3    H2 5083   0.655   2.002   3.548  0.2753 -0.5833  2.4589
 1693TIP3   OH2 5084   0.216   3.843   0.620 -0.2128 -0.4037 -0.2611
 1693TIP3    H1 5085   0.167   3.777   0.670  0.2695 -0.9319 -0.4795
 1693TIP3    H2 5086   0.148   3.901   0.584 -0.5288  0.4546  1.6258
 1694TIP3   OH2 5087   0.594   5.289   4.985 -0.3857 -0.1000  0.1885
 1694TIP3    H1 5088   0.602   5.283   5.080  1.6069 -0.0134  0.0673
 1694TIP3    H2 5089   0.530   5.222   4.962  0.6725 -1.5913  1.4091
 1695TIP3   OH2 5090   1.980   1.353   2.529  0.1274 -0.2580 -0.1511
 1695TIP3    H1 5091   1.971   1.341   2.623  0.7018  0.7553  0.0606
 1695TIP3    H2 5092   2.075   1.352   2.514  0.0267 -0.9075 -0.7972
 1696TIP3   OH2 5093   3.481   2.386   1.859 -0.1123 -0.5223 -0.3509
 1696TIP3    H1 5094   3.450   2.447   1.926  0.7537 -1.2500  0.7478
 1696TIP3    H2 5095   3.404   2.368   1.805 -0.6179  0.7493 -0.0884
 1697TIP3   OH2 5096   1.592   4.564   1.362  0.6979  0.3467 -0.1372
 1697TIP3    H1 5097   1.626   4.500   1.424 -0.0273 -0.6068 -0.6900
 1697TIP3    H2 5098   1.531   4.515   1.308  0.5484  1.3871 -0.9542
 1698TIP3   OH2 5099   2.827   5.810   1.816  0.1358  0.0479  0.1693
 1698TIP3    H1 5100   2.819   5.776   1.905 -0.0221  1.6255  0.7870
 1698TIP3    H2 5101   2.746   5.858   1.801  0.1325 -0.2542 -0.8723
 1699TIP3   OH2 5102   3.835   2.853   2.614  0.2659  0.4967 -0.1804
 1699TIP3    H1 5103   3.804   2.767   2.641 -1.4707  1.8152  2.4675
 1699TIP3    H2 5104   3.930   2.849   2.622  0.0854 -0.5958  1.9011
 1700TIP3   OH2 5105   6.029   4.224   0.675  0.1908  0.0613  0.2078
 1700TIP3    H1 5106   6.021   4.150   0.615 -0.0881  1.3863 -1.4842
 1700TIP3    H2 5107   6.120   4.251   0.668 -0.0771  0.8464 -0.4437
 1701TIP3   OH2 5108   4.924   4.158   5.190  0.2635  0.2959 -0.3948
 1701TIP3    H1 5109   4.996   4.219   5.175 -0.6820  1.3008 -0.9334
 1701TIP3    H2 5110   4.882   4.149   5.105 -1.0669  0.7829  0.1862
 1702TIP3   OH2 5111   5.793   5.715   4.775 -0.2666  0.5449 -0.2307
 1702TIP3    H1 5112   5.701   5.737   4.792 -0.7740 -1.7291  0.2839
 1702TIP3    H2 5113   5.789   5.645   4.711  1.0549 -0.2620  0.5403
 1703TIP3   OH2 5114   1.169   3.168   4.720  0.0596 -0.2017 -0.1259
 1703TIP3    H1 5115   1.243   3.107   4.726 -1.1124 -1.5377  1.5462
 1703TIP3    H2 5116   1.130   3.149   4.635  0.7825 -0.4686 -0.4104
 1704TIP3   OH2 5117   1.597   3.479   4.861  0.5560  0.1828  0.4760
 1704TIP3    H1 5118   1.600   3.411   4.794  1.8200 -1.0230  1.6867
 1704TIP3    H2 5119   1.504   3.487   4.882  0.4141 -1.6889  0.7704
 1705TIP3   OH2 5120   0.458   2.669   0.238 -0.3488 -0.3728 -0.2010
 1705TIP3    H1 5121   0.375   2.635   0.271 -0.5657  0.9467  0.6902
 1705TIP3    H2 5122   0.443   2.681   0.145 -0.7785 -1.1784 -0.2533
 1706TIP3   OH2 5123   0.394   5.451   4.771 -0.5054  0.1498  0.5188
 1706TIP3    H1 5124   0.341   5.509   4.716  0.2252  0.6344  0.3089
 1706TIP3    H2 5125   0.337   5.428   4.844 -1.0355  0.5878  0.2507
 1707TIP3   OH2 5126   5.188   1.785   0.724  0.0072 -0.4399  0.6144
 1707TIP3    H1 5127   5.190   1.810   0.631 -3.5927 -1.5204  0.0658
 1707TIP3    H2 5128   5.226   1.697   0.727  1.3960  0.1375  0.4390
 1708TIP3   OH2 5129   0.501   0.249   3.421 -1.1421  0.5054 -0.0970
 1708TIP3    H1 5130   0.421   0.248   3.473 -0.4914 -0.4272  0.9219
 1708TIP3    H2 5131   0.528   0.341   3.421 -1.2784  0.5639  1.0381
 1709TIP3   OH2 5132   2.158   1.588   3.727  0.0469  0.4200 -0.6603
 1709TIP3    H1 5133   2.152   1.671   3.775 -1.2248 -0.3268  0.5493
 1709TIP3    H2 5134   2.092   1.532   3.768  0.2977 -0.9206 -2.0123
 1710TIP3   OH2 5135   5.891   4.019   4.371  0.7312 -0.1633 -0.1158
 1710TIP3    H1 5136   5.825   3.968   4.325  0.9024  0.3930 -0.9998
 1710TIP3    H2 5137   5.893   3.982   4.459 -1.6291  0.5780  0.3199
 1711TIP3   OH2 5138   3.140   3.901   0.339  0.1584 -0.2077  0.1781
 1711TIP3    H1 5139   3.177   3.944   0.416 -1.5813  0.0062  0.9386
 1711TIP3    H2 5140   3.056   3.867   0.369 -0.2217 -0.7829 -1.4449
 1712TIP3   OH2 5141   6.290   0.438   3.791  0.4541  0.0492  0.1436
 1712TIP3    H1 5142   6.280   0.434   3.886 -1.1915 -0.2408 -0.0252
 1712TIP3    H2 5143   6.305   0.348   3.764  0.6787  0.0990  0.0977
 1713TIP3   OH2 5144   4.872   3.853   4.218  0.0415 -0.5499 -0.6126
 1713TIP3    H1 5145   4.945   3.843   4.157  0.0130  0.2629 -0.7884
 1713TIP3    H2 5146   4.908   3.825   4.302  0.6025 -0.0575 -0.6765
 1714TIP3   OH2 5147   1.389   3.584   1.504  0.0455  0.0815  0.2382
 1714TIP3    H1 5148   1.320   3.649   1.509  1.7813  2.1882 -1.3257
 1714TIP3    H2 5149   1.440   3.597   1.584  0.7276  1.1338 -0.3397
 1715TIP3   OH2 5150   2.575   0.033   0.430  0.0325 -0.0705 -0.5619
 1715TIP3    H1 5151   2.518   0.034   0.353 -0.4051  0.0566 -0.2409
 1715TIP3    H2 5152   2.522  -0.008   0.498  0.0242  0.8015 -0.0299
 1716TIP3   OH2 5153   2.879   2.177   1.214  0.6789  0.9965 -0.0567
 1716TIP3    H1 5154   2.823   2.137   1.281 -0.7055 -1.3299 -2.3968
 1716TIP3    H2 5155   2.818   2.227   1.159  0.7493 -1.3930 -2.5129
 1717TIP3   OH2 5156   3.846   0.977   4.576  0.1556  0.1092 -0.2971
 1717TIP3    H1 5157   3.913   0.968   4.644  1.0719  1.3658 -1.0040
 1717TIP3    H2 5158   3.827   0.887   4.549  0.0590 -0.3962  1.3234
 1718TIP3   OH2 5159   4.778   3.139   0.392  0.2577  0.1111 -0.1583
 1718TIP3    H1 5160   4.755   3.152   0.484 -0.2925 -1.0811 -0.1075
 1718TIP3    H2 5161   4.822   3.220   0.367 -0.2906  0.7719  0.9312
 1719TIP3   OH2 5162   5.269   3.524   4.614 -0.0518 -0.6945  0.0655
 1719TIP3    H1 5163   5.212   3.480   4.676 -1.0792  0.0032 -0.3607
 1719TIP3    H2 5164   5.356   3.490   4.633 -0.2165 -0.0360  2.3168
 1720TIP3   OH2 5165   0.198   2.787   0.806 -0.2149  0.1286  0.3190
 1720TIP3    H1 5166   0.145   2.763   0.730  1.5582 -0.0489 -0.9230
 1720TIP3    H2 5167   0.224   2.703   0.844 -1.7358  0.2087  1.6540
 1721TIP3   OH2 5168   0.502   1.385  -0.009  0.9100  0.2802 -1.0595
 1721TIP3    H1 5169   0.578   1.431   0.027 -0.2844  0.9777  0.6907
 1721TIP3    H2 5170   0.427   1.429   0.029 -0.3562 -1.3501 -1.5508
 1722TIP3   OH2 5171   5.554   3.452   1.659  0.6690  0.2007 -0.0888
 1722TIP3    H1 5172   5.518   3.395   1.727  0.0807  0.6037 -0.0519
 1722TIP3    H2 5173   5.563   3.395   1.582  0.0587  0.0595 -0.0620
 1723TIP3   OH2 5174   2.440   3.460   0.367 -0.6202 -0.2358 -0.0668
 1723TIP3    H1 5175   2.394   3.502   0.440  0.2610 -0.9800  0.9511
 1723TIP3    H2 5176   2.386   3.480   0.290 -1.0043  1.4914  0.5959
 1724TIP3   OH2 5177   3.895   3.044   3.373  0.2044  0.1187 -0.2072
 1724TIP3    H1 5178   3.931   3.106   3.310  1.0489  0.3653  0.4903
 1724TIP3    H2 5179   3.802   3.040   3.353  0.4619  0.1520 -1.4882
 1725TIP3   OH2 5180   1.549   1.904   4.899 -0.1224 -0.4835  0.1965
 1725TIP3    H1 5181   1.625   1.918   4.955 -1.6489  0.8494  2.0724
 1725TIP3    H2 5182   1.575   1.938   4.814  1.4865 -0.4246  0.6795
 1726TIP3   OH2 5183   0.850   3.780   3.856 -0.1106  0.0254  0.0421
 1726TIP3    H1 5184   0.906   3.703   3.849 -0.6971 -0.3017 -1.3915
 1726TIP3    H2 5185   0.884   3.828   3.932  0.9731 -1.0616  0.2693
 1727TIP3   OH2 5186   1.092   4.421   2.668  0.0193  0.4391 -0.3620
 1727TIP3    H1 5187   1.140   4.457   2.593 -0.2197  0.9026 -0.2956
 1727TIP3    H2 5188   1.140   4.341   2.690  1.9048  1.8185  0.8709
 1728TIP3   OH2 5189   5.046   4.300   1.927 -0.1347 -0.1709 -0.4005
 1728TIP3    H1 5190   4.973   4.358   1.903 -0.8077 -1.0517 -0.5642
 1728TIP3    H2 5191   5.031   4.280   2.019  1.0011  1.1669  0.1006
 1729TIP3   OH2 5192   5.439   5.246   3.235  0.1452  0.0989  0.2478
 1729TIP3    H1 5193   5.410   5.259   3.325 -0.3889  1.1353 -0.0465
 1729TIP3    H2 5194   5.362   5.211   3.190  0.7703 -1.5643  0.4390
 1730TIP3   OH2 5195   1.457   5.656   4.118 -0.0243  0.6549  0.0103
 1730TIP3    H1 5196   1.526   5.662   4.184  1.1020 -0.8054 -0.9633
 1730TIP3    H2 5197   1.390   5.718   4.148  0.4533  0.1077  2.4729
 1731TIP3   OH2 5198   0.732   5.554   0.212  0.7004  0.1083 -0.1499
 1731TIP3    H1 5199   0.729   5.527   0.120  0.9701 -1.0486  0.1540
 1731TIP3    H2 5200   0.735   5.649   0.210 -1.3243  0.2068 -1.3019
 1732TIP3   OH2 5201   4.676   0.332   5.111  0.0692 -0.0163 -0.6573
 1732TIP3    H1 5202   4.700   0.282   5.033 -2.0522  2.3269 -2.9560
 1732TIP3    H2 5203   4.603   0.284   5.149  0.9747 -1.0532 -0.1733
 1733TIP3   OH2 5204   4.068   3.452   1.475 -0.2769  0.0804  0.1757
 1733TIP3    H1 5205   3.998   3.388   1.473  0.3267 -0.6392 -2.6499
 1733TIP3    H2 5206   4.024   3.536   1.461 -0.6117 -0.4278 -2.1983
 1734TIP3   OH2 5207   2.680   2.530   2.377  0.0550  0.4315 -0.7991
 1734TIP3    H1 5208   2.635   2.458   2.421 -1.6721  0.7823 -1.8784
 1734TIP3    H2 5209   2.716   2.491   2.297  1.2111  0.2788 -0.2214
 1735TIP3   OH2 5210   0.352   2.026   2.480 -0.2777 -0.4413  0.0270
 1735TIP3    H1 5211   0.364   2.078   2.559  1.9422 -0.2082 -0.3967
 1735TIP3    H2 5212   0.397   1.944   2.498 -0.9399 -0.9355 -0.5140
 1736TIP3   OH2 5213   0.005   5.215   2.459 -0.3210  0.6346  1.3715
 1736TIP3    H1 5214   0.078   5.158   2.434 -1.5931 -0.3826 -0.2377
 1736TIP3    H2 5215   0.033   5.303   2.432  0.3867  0.2972  0.9597
 1737TIP3   OH2 5216   4.352   1.866   2.592 -0.5928 -0.7710  0.2218
 1737TIP3    H1 5217   4.436   1.828   2.615 -0.4609 -0.8144 -0.3205
 1737TIP3    H2 5218   4.365   1.961   2.602 -0.3144 -0.7419 -0.3863
 1738TIP3   OH2 5219   1.114   1.610   1.251 -0.2095  0.5986  0.0527
 1738TIP3    H1 5220   1.048   1.629   1.318  0.6765  0.5570  0.9726
 1738TIP3    H2 5221   1.077   1.644   1.170 -0.9510  1.4149  0.7130
 1739TIP3   OH2 5222   5.274   0.871   4.016  0.5586 -0.4345  0.0541
 1739TIP3    H1 5223   5.270   0.825   4.100  2.5759  0.8354  0.9184
 1739TIP3    H2 5224   5.192   0.849   3.972 -0.4815 -1.2634  2.2972
 1740TIP3   OH2 5225   5.893   2.444   2.859 -0.8635  0.3049  0.0584
 1740TIP3    H1 5226   5.921   2.531   2.890 -0.7619  0.9739 -1.8043
 1740TIP3    H2 5227   5.973   2.404   2.825 -1.2672  0.2777 -0.8676
 1741TIP3   OH2 5228   0.806   2.216   0.632  0.8987 -0.3211 -0.1745
 1741TIP3    H1 5229   0.824   2.166   0.552 -0.4201 -1.2705  0.0846
 1741TIP3    H2 5230   0.713   2.237   0.626  1.2220  1.3567  0.1752
 1742TIP3   OH2 5231   5.263   4.395   2.446  0.0979 -0.3976 -0.0204
 1742TIP3    H1 5232   5.346   4.425   2.483  1.4196 -1.2514 -2.1080
 1742TIP3    H2 5233   5.217   4.475   2.421  1.2171  0.0499 -0.7017
 1743TIP3   OH2 5234   1.876   1.546   1.542 -0.4328  0.2620  0.2165
 1743TIP3    H1 5235   1.856   1.491   1.466 -0.5567 -0.4518  0.7681
 1743TIP3    H2 5236   1.920   1.623   1.504  1.3425 -1.0004 -0.3868
 1744TIP3   OH2 5237   1.290   5.180   4.584 -0.0781 -0.0605  0.2856
 1744TIP3    H1 5238   1.295   5.230   4.666  0.4642 -0.5341  0.5507
 1744TIP3    H2 5239   1.381   5.172   4.556 -0.2448 -0.1118 -0.2425
 1745TIP3   OH2 5240   5.888   4.582   2.728  0.5631  0.5192  0.4804
 1745TIP3    H1 5241   5.904   4.526   2.652  0.5464  1.4913 -0.2604
 1745TIP3    H2 5242   5.851   4.523   2.794  1.5624 -0.5531  0.1214
 1746TIP3   OH2 5243   4.143   1.621   1.457 -0.1102 -0.2404  0.3138
 1746TIP3    H1 5244   4.136   1.609   1.363  1.6605  0.1021  0.1028
 1746TIP3    H2 5245   4.054   1.642   1.486 -0.3514  1.6700 -1.5829
 1747TIP3   OH2 5246   3.845   3.281   1.319 -0.0229 -0.0175  0.6124
 1747TIP3    H1 5247   3.774   3.343   1.336 -0.6151 -0.3698 -0.4418
 1747TIP3    H2 5248   3.805   3.215   1.262  1.1839 -0.1393 -0.1285
 1748TIP3   OH2 5249   1.814   3.770   5.167  0.3996  0.3456  0.6464
 1748TIP3    H1 5250   1.783   3.795   5.080  0.9245 -2.3064 -0.3848
 1748TIP3    H2 5251   1.756   3.699   5.194 -0.4779  1.8397  3.0437
 1749TIP3   OH2 5252   5.314   3.986   4.138  0.1063  0.2486 -0.0435
 1749TIP3    H1 5253   5.263   3.912   4.170 -1.0454  1.1999  0.3770
 1749TIP3    H2 5254   5.252   4.059   4.135  1.7067  1.7805  1.7084
 1750TIP3   OH2 5255   3.362   3.305   3.862  0.3441  0.2783 -0.3216
 1750TIP3    H1 5256   3.298   3.240   3.889 -0.4105  1.3771  0.6316
 1750TIP3    H2 5257   3.443   3.256   3.849  0.1572 -0.6793  1.7261
 1751TIP3   OH2 5258   2.247   1.284   2.465  0.0571  0.2212 -0.8931
 1751TIP3    H1 5259   2.231   1.200   2.421  0.0314 -1.8290  2.6745
 1751TIP3    H2 5260   2.332   1.313   2.431 -0.7649 -0.1828 -3.5609
 1752TIP3   OH2 5261   6.019   5.941   2.335  1.0132  0.4597 -0.6587
 1752TIP3    H1 5262   5.941   5.901   2.374  1.8363 -0.4775  0.0755
 1752TIP3    H2 5263   6.006   6.035   2.346 -0.7365  0.4305 -1.9737
 1753TIP3   OH2 5264   3.315   3.566   2.112  0.1545  0.7269 -0.2375
 1753TIP3    H1 5265   3.360   3.591   2.193  1.0143 -0.7868 -0.2071
 1753TIP3    H2 5266   3.379   3.514   2.064 -1.2308 -0.7311 -0.6214
 1754TIP3   OH2 5267   6.019   1.352   0.622  0.3950  0.2273  0.5868
 1754TIP3    H1 5268   5.931   1.355   0.660 -0.3416 -0.0874 -1.0191
 1754TIP3    H2 5269   6.023   1.267   0.578  0.6015  1.1954 -1.3670
 1755TIP3   OH2 5270   1.938   4.297   2.861 -0.0144 -0.1501 -0.4344
 1755TIP3    H1 5271   1.878   4.266   2.793  0.0585 -0.3760 -0.3977
 1755TIP3    H2 5272   1.891   4.367   2.905 -0.3571 -0.5096 -0.2252
 1756TIP3   OH2 5273   1.784   1.465   0.319 -0.1178  0.7476 -0.0328
 1756TIP3    H1 5274   1.744   1.448   0.405  0.1341  0.3648  0.0108
 1756TIP3    H2 5275   1.877   1.478   0.338  0.1500 -0.5480 -0.3752
 1757TIP3   OH2 5276   4.306   3.709   2.592 -0.6770 -0.1586 -0.3172
 1757TIP3    H1 5277   4.320   3.703   2.498  2.6409 -1.2872  0.0956
 1757TIP3    H2 5278   4.227   3.762   2.602  1.2089  3.8220 -3.6610
 1758TIP3   OH2 5279   0.603   1.569   2.390 -0.4260  0.1671 -0.5615
 1758TIP3    H1 5280   0.679   1.514   2.369 -0.6616 -0.2592 -0.3107
 1758TIP3    H2 5281   0.631   1.658   2.368 -0.3503 -0.1551 -1.7927
 1759TIP3   OH2 5282   2.816   1.832   1.519 -0.0172 -0.2144  0.5207
 1759TIP3    H1 5283   2.780   1.782   1.593 -0.4638  0.6981  0.9412
 1759TIP3    H2 5284   2.752   1.820   1.449 -0.9406  0.9627  1.0980
 1760TIP3   OH2 5285   1.390   0.036   4.643 -0.1485  0.1905 -0.1367
 1760TIP3    H1 5286   1.482   0.045   4.616 -0.4759  0.3965 -1.2385
 1760TIP3    H2 5287   1.380  -0.057   4.662 -0.0622 -0.0907 -1.3898
 1761TIP3   OH2 5288   4.410   4.517   1.349  0.2334 -0.2311  0.2783
 1761TIP3    H1 5289   4.416   4.602   1.393 -1.2527 -0.5791  1.2195
 1761TIP3    H2 5290   4.403   4.539   1.256 -0.6099  0.7145  0.5435
 1762TIP3   OH2 5291   0.230   2.427   1.789 -0.6982 -0.1540 -0.2966
 1762TIP3    H1 5292   0.199   2.431   1.879 -1.9426  0.8869 -0.7504
 1762TIP3    H2 5293   0.190   2.348   1.753 -0.4254 -0.4168 -0.0342
 1763TIP3   OH2 5294   2.028   4.394   2.235  0.2400  0.0515  0.3952
 1763TIP3    H1 5295   2.095   4.327   2.223  2.2971  2.1864 -0.8074
 1763TIP3    H2 5296   1.946   4.345   2.242  1.7434 -2.6075  0.7312
 1764TIP3   OH2 5297   4.719   3.045   2.747  0.2853  0.4820  0.3872
 1764TIP3    H1 5298   4.794   3.016   2.694  0.0799  0.5219  0.0697
 1764TIP3    H2 5299   4.666   3.097   2.687 -0.6580 -0.5993  0.2379
 1765TIP3   OH2 5300   5.667   5.384   3.160 -0.3064  0.1837  0.1869
 1765TIP3    H1 5301   5.603   5.317   3.182 -0.5620 -0.6380 -2.6444
 1765TIP3    H2 5302   5.624   5.467   3.184 -0.3273 -0.5234  2.9252
 1766TIP3   OH2 5303   6.060   4.404   4.110 -0.3577  0.4996 -0.0077
 1766TIP3    H1 5304   6.113   4.325   4.096 -0.4890  0.3876  0.1299
 1766TIP3    H2 5305   6.032   4.398   4.201 -1.5651 -0.0168 -0.4048
 1767TIP3   OH2 5306   3.531   0.150   1.155  0.4926  0.2556 -0.6755
 1767TIP3    H1 5307   3.483   0.162   1.074  1.2375  2.1473 -0.9119
 1767TIP3    H2 5308   3.522   0.057   1.176  0.0003 -0.2039 -2.7224
 1768TIP3   OH2 5309   4.774   2.420   3.926 -0.0807 -0.4056 -0.6500
 1768TIP3    H1 5310   4.823   2.414   3.843 -0.7984 -1.1945 -1.0378
 1768TIP3    H2 5311   4.683   2.432   3.899 -0.1761  0.5120  0.0540
 1769TIP3   OH2 5312   1.739   5.254   2.052  0.4867 -0.1728  0.4027
 1769TIP3    H1 5313   1.823   5.212   2.035  0.2787  0.1065 -1.5411
 1769TIP3    H2 5314   1.757   5.348   2.047  0.2323 -0.0891  0.9627
 1770TIP3   OH2 5315   5.843   4.566   1.198 -0.3994  0.0872  0.4761
 1770TIP3    H1 5316   5.830   4.473   1.217 -1.4303  0.1330  0.0917
 1770TIP3    H2 5317   5.932   4.584   1.226 -0.4060 -0.8626  1.1704
 1771TIP3   OH2 5318   5.660   4.081   1.612 -0.8290  0.2115  0.1156
 1771TIP3    H1 5319   5.726   4.015   1.589  0.7790  0.9846  2.1922
 1771TIP3    H2 5320   5.585   4.030   1.641 -0.0602 -0.7227  0.5259
 1772TIP3   OH2 5321   4.235   0.165   4.490  0.0504  0.1424  0.0209
 1772TIP3    H1 5322   4.274   0.146   4.404  1.4893 -2.1212  1.0710
 1772TIP3    H2 5323   4.141   0.168   4.473  0.3493  0.6479 -1.7751
 1773TIP3   OH2 5324   4.447   5.069   4.186 -0.0641 -0.0832  0.5216
 1773TIP3    H1 5325   4.373   5.029   4.232 -0.2753 -0.7395 -0.3429
 1773TIP3    H2 5326   4.455   5.017   4.106 -0.1589  1.4174 -0.5124
 1774TIP3   OH2 5327   2.059   5.329   2.704 -0.2802  0.4726 -0.0051
 1774TIP3    H1 5328   2.042   5.247   2.749  1.1795  0.1389 -0.0161
 1774TIP3    H2 5329   2.025   5.315   2.615 -1.3911  0.4413  0.4028
 1775TIP3   OH2 5330   5.602   0.166   1.717 -0.3906  0.7159  0.4034
 1775TIP3    H1 5331   5.677   0.183   1.660  0.9855 -1.0835  1.5515
 1775TIP3    H2 5332   5.552   0.099   1.671  1.1849 -1.3782  1.5668
 1776TIP3   OH2 5333   1.055   0.872   2.951 -0.6916 -0.0692 -0.4653
 1776TIP3    H1 5334   1.060   0.875   3.046 -0.0187  0.3294 -0.5079
 1776TIP3    H2 5335   0.961   0.870   2.932 -0.8340 -1.4338  0.2342
 1777TIP3   OH2 5336   4.425   1.981   3.739  0.0500 -0.1288 -0.1108
 1777TIP3    H1 5337   4.468   2.065   3.754  2.7564 -1.6221  1.2422
 1777TIP3    H2 5338   4.496   1.919   3.729 -1.7923 -2.6967  1.4253
 1778TIP3   OH2 5339   0.705   0.481   0.383 -0.0595 -0.4322 -0.1646
 1778TIP3    H1 5340   0.635   0.497   0.447  0.2535 -0.1523  0.1118
 1778TIP3    H2 5341   0.748   0.565   0.374 -0.5371 -0.2909 -1.2825
 1779TIP3   OH2 5342   4.466   2.433   2.118  0.1868  0.2114 -0.0312
 1779TIP3    H1 5343   4.385   2.390   2.146 -1.7265  1.7555 -2.7726
 1779TIP3    H2 5344   4.511   2.367   2.067 -0.3246 -0.0526 -0.1493
 1780TIP3   OH2 5345   3.566   1.003   4.428 -0.0286  0.4815  0.1694
 1780TIP3    H1 5346   3.660   1.004   4.410 -0.2045  2.1715 -0.9212
 1780TIP3    H2 5347   3.540   1.096   4.426 -1.6544  0.0704  0.7651
 1781TIP3   OH2 5348   1.747   4.397   2.401  0.2580 -0.3665 -0.2799
 1781TIP3    H1 5349   1.798   4.471   2.435  0.1641 -0.1668 -0.5720
 1781TIP3    H2 5350   1.658   4.430   2.395  0.1250 -0.6613  0.0585
 1782TIP3   OH2 5351   5.949   2.791   2.634 -0.0273 -0.6873 -0.9712
 1782TIP3    H1 5352   6.027   2.739   2.652  0.1812 -0.5286 -1.4120
 1782TIP3    H2 5353   5.882   2.727   2.612 -0.1416 -0.8521 -0.1748
 1783TIP3   OH2 5354   3.107   1.821   0.815  0.0230 -0.0188 -0.8921
 1783TIP3    H1 5355   3.182   1.879   0.825 -1.9111  2.3984  0.8005
 1783TIP3    H2 5356   3.046   1.848   0.884 -1.4209 -3.5124 -0.6106
 1784TIP3   OH2 5357   4.963   4.919   0.327  0.1590 -0.3563  0.1802
 1784TIP3    H1 5358   5.046   4.949   0.363  1.0248 -1.2842 -0.9435
 1784TIP3    H2 5359   4.988   4.855   0.259 -1.3818  0.6206 -1.3970
 1785TIP3   OH2 5360   2.532   1.670   1.582 -0.0344 -0.3549 -0.1062
 1785TIP3    H1 5361   2.457   1.616   1.558  0.3380 -0.6388 -0.6678
 1785TIP3    H2 5362   2.534   1.740   1.516  0.5451 -0.7024 -0.4724
 1786TIP3   OH2 5363   2.425   0.360   2.239 -0.1073 -0.0838 -0.2539
 1786TIP3    H1 5364   2.408   0.270   2.266  1.2501 -0.0657  0.7386
 1786TIP3    H2 5365   2.409   0.413   2.317 -1.7022  0.6588 -1.0457
 1787TIP3   OH2 5366   5.688   5.139   0.799  0.5493 -0.6785  0.2776
 1787TIP3    H1 5367   5.633   5.216   0.787  1.2082 -0.1574  0.5304
 1787TIP3    H2 5368   5.749   5.141   0.724  1.2808 -0.3318  0.8686
 1788TIP3   OH2 5369   6.270   5.123   4.693 -0.1641  0.2082 -0.4441
 1788TIP3    H1 5370   6.241   5.163   4.611  0.4354  1.2433 -0.1778
 1788TIP3    H2 5371   6.344   5.177   4.720  0.8247 -1.2259 -0.1632
 1789TIP3   OH2 5372   2.695   2.626   0.263 -0.3640 -0.1815 -0.2990
 1789TIP3    H1 5373   2.677   2.548   0.211  0.7089  0.2338 -1.3449
 1789TIP3    H2 5374   2.619   2.682   0.248 -1.3852 -1.1938  0.8730
 1790TIP3   OH2 5375   0.435   3.097   1.642  0.3427 -0.3785  0.1687
 1790TIP3    H1 5376   0.436   3.108   1.737 -2.0203 -1.5583  0.4037
 1790TIP3    H2 5377   0.389   3.014   1.628  1.6041 -0.7773 -1.9922
 1791TIP3   OH2 5378   2.438   4.174   4.670 -0.4415  0.2298  0.3792
 1791TIP3    H1 5379   2.502   4.210   4.731  0.8637  0.2080 -0.9046
 1791TIP3    H2 5380   2.491   4.124   4.608 -1.4302  1.9141 -1.9599
 1792TIP3   OH2 5381   6.212   0.913   3.014 -0.2034  0.0653  0.0956
 1792TIP3    H1 5382   6.128   0.958   3.020 -0.2054 -0.0034  0.5988
 1792TIP3    H2 5383   6.268   0.972   2.964 -0.2995  0.4820  0.4838
 1793TIP3   OH2 5384   1.064   1.642   4.050 -0.1623 -0.6802  0.3417
 1793TIP3    H1 5385   1.130   1.573   4.058  0.5545 -0.1706 -0.9244
 1793TIP3    H2 5386   0.988   1.608   4.098  0.6690 -1.7001  0.9919
 1794TIP3   OH2 5387   3.412   0.196   5.047 -0.2873 -0.1945  0.9181
 1794TIP3    H1 5388   3.445   0.250   4.975 -0.7560 -0.2367  0.6730
 1794TIP3    H2 5389   3.455   0.111   5.035  0.3316  0.0671  1.2165
 1795TIP3   OH2 5390   6.037   4.556   3.023  0.0230 -0.1846 -0.3116
 1795TIP3    H1 5391   5.993   4.641   3.028 -2.6394 -1.4881  3.3493
 1795TIP3    H2 5392   6.123   4.570   3.063  0.4331  1.1161 -1.5843
 1796TIP3   OH2 5393   0.968   1.239   4.454 -0.1530  0.2099  0.1484
 1796TIP3    H1 5394   1.016   1.157   4.443 -0.8278 -0.2745  0.7212
 1796TIP3    H2 5395   1.033   1.307   4.438  0.1237 -0.4138 -1.6285
 1797TIP3   OH2 5396   3.330   2.324   4.960 -0.1305  0.6838 -0.4915
 1797TIP3    H1 5397   3.395   2.257   4.940  1.9959  2.4650  0.0106
 1797TIP3    H2 5398   3.379   2.392   5.006 -2.5654  1.7691  0.6770
 1798TIP3   OH2 5399   1.981   5.459   1.757 -0.4881  0.4030  0.1381
 1798TIP3    H1 5400   1.980   5.382   1.699  0.2745 -1.0773  2.0002
 1798TIP3    H2 5401   1.959   5.532   1.699 -0.9493 -1.1522 -1.7735
 1799TIP3   OH2 5402   0.777   5.361   3.045 -0.0206 -0.3008  0.0228
 1799TIP3    H1 5403   0.766   5.380   3.138  0.7904 -1.6046  0.4028
 1799TIP3    H2 5404   0.814   5.442   3.009 -1.8711  0.8275  0.4648
 1800TIP3   OH2 5405   0.832   2.641   1.515 -0.0665  0.2712 -0.3425
 1800TIP3    H1 5406   0.831   2.730   1.480  1.1460  0.5441  0.2612
 1800TIP3    H2 5407   0.804   2.650   1.606  2.8000  0.5034  0.6086
 1801TIP3   OH2 5408   0.383   2.534   1.566 -0.2465 -0.0077 -0.1127
 1801TIP3    H1 5409   0.470   2.529   1.606 -0.1829 -0.9369 -0.3489
 1801TIP3    H2 5410   0.324   2.498   1.633 -0.1357 -1.6076 -0.8287
 1802TIP3   OH2 5411   5.019   1.530   1.130  0.0866 -0.2533  0.3354
 1802TIP3    H1 5412   5.077   1.457   1.152 -0.8294 -0.5963  1.7980
 1802TIP3    H2 5413   4.945   1.520   1.190 -0.5091  1.3432 -0.0819
 1803TIP3   OH2 5414   2.103   2.289   2.752 -0.1152  0.2021 -0.2937
 1803TIP3    H1 5415   2.139   2.264   2.667  1.2564 -1.1035  0.5967
 1803TIP3    H2 5416   2.178   2.324   2.800  0.2248 -2.8658  1.7289
 1804TIP3   OH2 5417   0.579   0.334   4.726 -0.1805  0.3267 -0.5054
 1804TIP3    H1 5418   0.530   0.355   4.806 -0.2789  0.3555 -0.5717
 1804TIP3    H2 5419   0.558   0.242   4.709 -0.1370  0.3127 -0.4814
 1805TIP3   OH2 5420   3.598   2.060   1.819 -0.2644 -0.5907  0.4345
 1805TIP3    H1 5421   3.504   2.051   1.833 -0.1852  0.2915  1.6814
 1805TIP3    H2 5422   3.608   2.065   1.724 -1.3696 -1.6247  0.2365
 1806TIP3   OH2 5423   6.304   4.793   3.603 -0.2671 -0.1927  0.1291
 1806TIP3    H1 5424   6.352   4.727   3.553 -0.4962 -1.3446  1.3773
 1806TIP3    H2 5425   6.367   4.825   3.667 -0.3134  0.4517 -0.1351
 1807TIP3   OH2 5426   2.242   3.579   3.256 -0.4078  0.3605 -0.7281
 1807TIP3    H1 5427   2.322   3.600   3.304 -0.8717 -1.1172  0.7956
 1807TIP3    H2 5428   2.259   3.494   3.217 -1.6675 -0.6342  0.7752
 1808TIP3   OH2 5429   1.852   0.059   4.143  0.1063  0.1854  0.2635
 1808TIP3    H1 5430   1.821   0.100   4.062  0.0586  0.2624  0.3208
 1808TIP3    H2 5431   1.820  -0.031   4.139  0.2744  0.1334  0.1028
 1809TIP3   OH2 5432   4.952   2.519   5.107 -0.2201 -0.0488 -0.2413
 1809TIP3    H1 5433   5.008   2.557   5.039 -1.1783  0.2277 -0.8966
 1809TIP3    H2 5434   4.918   2.438   5.068  1.1229 -1.1780  0.8271
 1810TIP3   OH2 5435   1.391   1.982   0.984  0.4741  0.1995 -0.5612
 1810TIP3    H1 5436   1.303   2.014   1.006  0.9603  1.5726 -0.5350
 1810TIP3    H2 5437   1.427   1.951   1.067  0.8182  1.6711 -0.1416
 1811TIP3   OH2 5438   3.276   0.870   4.714  0.2815 -0.2565 -0.3128
 1811TIP3    H1 5439   3.217   0.944   4.728  0.8193  0.2199 -0.5295
 1811TIP3    H2 5440   3.358   0.897   4.754  0.4746 -0.7599 -0.3569
 1812TIP3   OH2 5441   2.936   2.593   4.542  0.0724  0.5012  0.0949
 1812TIP3    H1 5442   2.930   2.512   4.492  3.1180  0.2412 -0.0260
 1812TIP3    H2 5443   2.862   2.589   4.603 -1.8400 -0.6939 -2.1324
 1813TIP3   OH2 5444   5.972   4.751   4.360 -0.8251  0.2752 -0.1603
 1813TIP3    H1 5445   5.887   4.760   4.402 -0.7457  0.0769  0.0470
 1813TIP3    H2 5446   5.953   4.753   4.266 -1.1190 -0.3098 -0.1183
 1814TIP3   OH2 5447   2.284   3.939   4.282 -0.2015 -0.1530 -0.1252
 1814TIP3    H1 5448   2.310   3.991   4.358 -2.4828 -0.0386  0.6440
 1814TIP3    H2 5449   2.243   4.001   4.222 -2.9591 -0.9034  0.8068
 1815TIP3   OH2 5450   2.952   0.201   3.840 -0.1716  0.6956  0.2640
 1815TIP3    H1 5451   2.998   0.278   3.807  1.5868 -0.0400  0.9033
 1815TIP3    H2 5452   2.919   0.228   3.926  2.1170  0.2294  1.3744
 1816TIP3   OH2 5453   1.787   0.350   2.610 -0.2767 -0.3963  0.1367
 1816TIP3    H1 5454   1.789   0.333   2.515  2.3770 -1.8590  0.3647
 1816TIP3    H2 5455   1.718   0.292   2.642 -1.0235 -0.0884 -0.8479
 1817TIP3   OH2 5456   2.935   4.030   1.433  0.5948 -0.3010  0.4529
 1817TIP3    H1 5457   2.910   3.950   1.387  0.4361 -0.0970  0.1797
 1817TIP3    H2 5458   2.948   4.095   1.363 -2.3542  0.7837  0.7902
 1818TIP3   OH2 5459   1.471   4.013   4.335 -0.0387 -0.3821  0.4963
 1818TIP3    H1 5460   1.457   3.968   4.252  0.7641  0.9387 -0.4012
 1818TIP3    H2 5461   1.383   4.036   4.365 -0.2912  1.3174 -1.3054
 1819TIP3   OH2 5462   6.106   2.120   2.363  0.2521  0.5664  0.5107
 1819TIP3    H1 5463   6.048   2.168   2.422 -2.0697 -0.9764 -0.3469
 1819TIP3    H2 5464   6.047   2.076   2.302  2.4328 -0.0548 -1.2977
 1820TIP3   OH2 5465   4.904   4.945   5.088 -0.0316  0.0356 -0.6057
 1820TIP3    H1 5466   4.995   4.917   5.078  0.1220  0.8660 -1.7672
 1820TIP3    H2 5467   4.860   4.870   5.128  1.1934 -0.3090  0.1478
 1821TIP3   OH2 5468   2.788   3.579   3.588 -0.1037 -0.7752  0.2967
 1821TIP3    H1 5469   2.806   3.491   3.556  1.4309  0.0063 -1.1636
 1821TIP3    H2 5470   2.746   3.566   3.673 -0.5705 -2.9010 -0.2047
 1822TIP3   OH2 5471   3.303   5.488   2.604 -0.0247 -0.0851  0.4761
 1822TIP3    H1 5472   3.362   5.488   2.529 -0.6324 -1.4829 -0.0517
 1822TIP3    H2 5473   3.347   5.432   2.668 -1.2041 -2.0482 -0.3400
 1823TIP3   OH2 5474   6.245   2.511   2.032 -0.0159  0.0086 -0.0416
 1823TIP3    H1 5475   6.181   2.458   2.080 -0.0886 -0.2318 -0.3967
 1823TIP3    H2 5476   6.321   2.454   2.023 -0.3614 -0.3204 -1.0717
 1824TIP3   OH2 5477   0.649   1.444   3.198 -0.1417 -0.2726  0.7083
 1824TIP3    H1 5478   0.696   1.523   3.226 -0.4434  0.5191 -0.8576
 1824TIP3    H2 5479   0.710   1.399   3.140 -0.5333 -0.3478  0.3473
 1825TIP3   OH2 5480   0.944   3.356   3.660  0.4124 -0.0712  0.1068
 1825TIP3    H1 5481   0.922   3.371   3.567 -0.2927 -0.8804  0.1260
 1825TIP3    H2 5482   0.980   3.268   3.662 -0.4582 -0.4232  0.7349
 1826TIP3   OH2 5483   2.021   0.520   5.012 -0.1551 -0.7766 -0.0232
 1826TIP3    H1 5484   1.948   0.486   5.064  0.2743 -0.8450  0.5452
 1826TIP3    H2 5485   2.063   0.585   5.069 -2.2820  2.4963 -1.8204
 1827TIP3   OH2 5486   4.170   2.913   5.182 -0.2300 -0.3809  0.0439
 1827TIP3    H1 5487   4.245   2.915   5.122  0.6282  1.3478  1.0818
 1827TIP3    H2 5488   4.100   2.871   5.132  1.0245 -0.7766 -1.4568
 1828TIP3   OH2 5489   1.612   3.091   4.978  0.5989  0.5032  0.3114
 1828TIP3    H1 5490   1.543   3.120   5.038  0.1295 -1.7015  0.9502
 1828TIP3    H2 5491   1.657   3.021   5.026  0.5105 -1.0183 -1.6906
 1829TIP3   OH2 5492   6.327   2.095   1.688  0.0948  0.5627 -1.0918
 1829TIP3    H1 5493   6.259   2.129   1.746 -2.0588  0.1611 -3.2290
 1829TIP3    H2 5494   6.355   2.170   1.637  1.9701  0.9109  0.3414
 1830TIP3   OH2 5495   2.203   2.672   4.332  0.2250  0.4524  0.3937
 1830TIP3    H1 5496   2.134   2.606   4.341  1.2120 -0.7519 -0.3935
 1830TIP3    H2 5497   2.181   2.739   4.396 -0.1719 -1.2667  2.1886
 1831TIP3   OH2 5498   3.340   1.126   0.532  0.2610  0.1281 -0.8092
 1831TIP3    H1 5499   3.257   1.173   0.540  0.1413  0.4341 -3.0509
 1831TIP3    H2 5500   3.334   1.054   0.595 -1.7257  0.1145 -0.9605
 1832TIP3   OH2 5501   0.490   3.445   1.067 -0.1990 -0.0268  0.1828
 1832TIP3    H1 5502   0.492   3.528   1.020  0.2381  0.2595  0.6924
 1832TIP3    H2 5503   0.430   3.390   1.017  1.1866 -0.1723 -1.4300
 1833TIP3   OH2 5504   6.016   1.658   4.858 -0.5397 -0.0114  0.3757
 1833TIP3    H1 5505   6.011   1.573   4.815 -0.8362 -0.2819  0.9316
 1833TIP3    H2 5506   6.102   1.659   4.899 -0.6683 -0.1895  0.6557
 1834TIP3   OH2 5507   5.686   2.155   0.332 -0.8396  0.1690  0.4824
 1834TIP3    H1 5508   5.652   2.229   0.383 -2.5275 -0.2200 -0.0120
 1834TIP3    H2 5509   5.713   2.091   0.398 -0.7887  0.6063  0.8939
 1835TIP3   OH2 5510   3.291   1.387   0.315  0.9625 -0.1507  0.4240
 1835TIP3    H1 5511   3.272   1.364   0.406  2.4890 -1.2409  0.5204
 1835TIP3    H2 5512   3.268   1.308   0.265  1.6628 -0.1648  0.1043
 1836TIP3   OH2 5513   2.403   3.073   4.014  0.0371  0.0869  0.0745
 1836TIP3    H1 5514   2.484   3.038   4.052 -0.1113 -0.2682  0.0628
 1836TIP3    H2 5515   2.337   3.007   4.033  0.1120 -0.4603 -1.4596
 1837TIP3   OH2 5516   4.225   0.152   4.818  0.4679  0.2185 -0.1729
 1837TIP3    H1 5517   4.200   0.084   4.756 -1.4673 -0.5623  1.3300
 1837TIP3    H2 5518   4.144   0.202   4.833  0.6560 -0.0817  2.2059
 1838TIP3   OH2 5519   2.325   2.539   2.182 -0.2115 -0.0134  0.0266
 1838TIP3    H1 5520   2.266   2.476   2.140  0.6028 -1.6737  1.2370
 1838TIP3    H2 5521   2.322   2.516   2.275  0.6088  1.3432  0.4151
 1839TIP3   OH2 5522   5.806   1.811   4.776  0.3562 -0.0916 -0.3650
 1839TIP3    H1 5523   5.891   1.780   4.806 -0.5052 -2.0709  0.1752
 1839TIP3    H2 5524   5.743   1.773   4.837 -1.0914 -0.5701 -2.0566
 1840TIP3   OH2 5525   2.636   0.018   2.266  0.2570  0.4354  0.2023
 1840TIP3    H1 5526   2.731   0.028   2.258  0.1667  1.0321 -0.1725
 1840TIP3    H2 5527   2.600   0.076   2.199 -0.3247 -2.4571 -2.2298
 1841TIP3   OH2 5528   4.198   4.878   4.853 -0.4470  0.2225 -0.2907
 1841TIP3    H1 5529   4.134   4.912   4.790 -0.1788  0.9039 -0.2063
 1841TIP3    H2 5530   4.156   4.890   4.939 -1.0815 -1.2890 -0.3463
 1842TIP3   OH2 5531   5.376   5.757   2.691  0.1825 -0.0963  0.4737
 1842TIP3    H1 5532   5.465   5.726   2.710  0.5889  1.9380  2.1817
 1842TIP3    H2 5533   5.319   5.690   2.730  0.9382 -0.9677  0.1365
 1843TIP3   OH2 5534   5.916   3.562   4.821  0.3039  0.0436 -0.2738
 1843TIP3    H1 5535   5.901   3.632   4.884 -1.3943  0.0950 -0.6886
 1843TIP3    H2 5536   5.831   3.520   4.811  1.3236 -2.2635  0.1415
 1844TIP3   OH2 5537   2.957   2.195   0.043 -0.4170 -0.4812 -0.3730
 1844TIP3    H1 5538   3.011   2.266   0.077  0.0345 -0.6460 -0.7363
 1844TIP3    H2 5539   2.929   2.225  -0.044 -2.0750  0.2057  0.3447
 1845TIP3   OH2 5540   5.020   5.778   0.122 -0.4426  0.0753  0.0398
 1845TIP3    H1 5541   5.020   5.686   0.098 -0.3067 -0.0600  0.5390
 1845TIP3    H2 5542   5.000   5.779   0.216  0.2111  0.5042  0.1883
 1846TIP3   OH2 5543   1.722   4.498   2.944  0.5112 -0.3322  0.0503
 1846TIP3    H1 5544   1.627   4.498   2.948  0.4255  3.1439  1.7682
 1846TIP3    H2 5545   1.743   4.563   2.877  1.5117  2.0231  2.4798
 1847TIP3   OH2 5546   3.028   1.475   4.162  0.3599 -0.4243 -0.4311
 1847TIP3    H1 5547   3.058   1.545   4.220 -1.9554 -0.5772  1.0760
 1847TIP3    H2 5548   2.997   1.520   4.083 -1.1821  0.3410  0.5512
 1848TIP3   OH2 5549   1.238   5.775   5.062  0.1727 -0.4703 -0.4591
 1848TIP3    H1 5550   1.206   5.837   5.127 -1.9280 -1.8461 -0.0950
 1848TIP3    H2 5551   1.334   5.776   5.073 -0.0200  0.5419  1.5150
 1849TIP3   OH2 5552   0.571   2.261   1.690  0.0933 -0.1291 -0.3284
 1849TIP3    H1 5553   0.607   2.307   1.765  0.8812 -0.2269 -0.6394
 1849TIP3    H2 5554   0.646   2.243   1.634 -0.5326  0.2587 -1.3155
 1850TIP3   OH2 5555   4.732   4.026   0.784 -0.3950 -0.2829 -0.5673
 1850TIP3    H1 5556   4.707   4.066   0.701 -1.4116  0.3690  0.0403
 1850TIP3    H2 5557   4.662   4.049   0.845  0.6609 -0.1714  0.6541
 1851TIP3   OH2 5558   3.110   2.829   2.399  0.1844  0.4664 -0.0660
 1851TIP3    H1 5559   3.051   2.793   2.333 -0.8653  0.5528  0.7961
 1851TIP3    H2 5560   3.197   2.817   2.362 -0.3574  0.2263 -1.3181
 1852TIP3   OH2 5561   1.002   3.545   4.715 -0.6752 -0.3136 -0.1645
 1852TIP3    H1 5562   0.963   3.592   4.641  1.0085  0.7899 -0.3971
 1852TIP3    H2 5563   1.079   3.502   4.677 -1.4556 -2.2476  0.3310
 1853TIP3   OH2 5564   1.540   4.833   1.277  0.1557  0.7753  0.1872
 1853TIP3    H1 5565   1.478   4.872   1.339 -2.1486 -0.5802 -1.1322
 1853TIP3    H2 5566   1.550   4.743   1.306 -0.4122  0.3194 -0.9910
 1854TIP3   OH2 5567   1.762   5.752   2.688  0.2191  0.4160  0.1838
 1854TIP3    H1 5568   1.731   5.667   2.719  0.6647  0.8486  1.8967
 1854TIP3    H2 5569   1.687   5.789   2.640 -0.7591  0.0161  1.3700
 1855TIP3   OH2 5570   4.025   0.072   2.401  0.3481 -0.5661  0.0344
 1855TIP3    H1 5571   4.011   0.089   2.494  1.2997  0.0075  0.0843
 1855TIP3    H2 5572   3.937   0.062   2.365 -0.0953  0.7144  0.7098
 1856TIP3   OH2 5573   4.794   5.698   4.249  0.3224  0.3047  0.3058
 1856TIP3    H1 5574   4.826   5.623   4.300 -1.7190 -1.1458 -0.3835
 1856TIP3    H2 5575   4.703   5.675   4.228 -0.3465  2.9439 -0.0655
 1857TIP3   OH2 5576   0.412   2.860   3.996  0.1797 -0.1841  0.6922
 1857TIP3    H1 5577   0.434   2.794   3.930 -0.1310 -1.0690  1.4651
 1857TIP3    H2 5578   0.317   2.870   3.989 -0.1854 -1.8865  2.4484
 1858TIP3   OH2 5579   1.099   2.440   4.211  0.1439 -0.6164  0.3796
 1858TIP3    H1 5580   1.163   2.406   4.273  0.6189 -0.1185  0.1677
 1858TIP3    H2 5581   1.078   2.528   4.244  0.2018 -0.4534 -0.0198
 1859TIP3   OH2 5582   3.434   2.643   2.867 -0.1717 -0.0899  0.2730
 1859TIP3    H1 5583   3.497   2.571   2.861  0.2274  0.2038  0.8652
 1859TIP3    H2 5584   3.408   2.661   2.777  0.6578 -0.1625  0.0209
 1860TIP3   OH2 5585   4.548   1.079   5.209 -0.1156  0.3433  0.4598
 1860TIP3    H1 5586   4.592   1.105   5.128 -0.7604  0.2053  0.0607
 1860TIP3    H2 5587   4.519   0.989   5.193 -2.4984  1.1285 -0.1669
 1861TIP3   OH2 5588   0.755   1.212   1.212  0.2905 -0.0489  0.5924
 1861TIP3    H1 5589   0.821   1.261   1.261  1.0750 -0.4142 -0.0827
 1861TIP3    H2 5590   0.800   1.134   1.181 -0.0236  0.4152 -1.1402
 1862TIP3   OH2 5591   3.721   5.797   0.323  0.0929  0.2462 -0.3911
 1862TIP3    H1 5592   3.730   5.885   0.361  0.3852  0.5369 -1.1201
 1862TIP3    H2 5593   3.777   5.742   0.379 -1.0078  0.2804  0.7878
 1863TIP3   OH2 5594   4.148   1.463   1.056  0.2804  0.3681  0.4222
 1863TIP3    H1 5595   4.207   1.433   1.125  1.8983 -0.4040 -1.2079
 1863TIP3    H2 5596   4.087   1.521   1.101  1.2086 -0.1525  2.5010
 1864TIP3   OH2 5597   4.194   5.706   1.452  0.2089  0.0376  1.0064
 1864TIP3    H1 5598   4.212   5.780   1.394 -1.2443 -0.5451 -0.2763
 1864TIP3    H2 5599   4.276   5.692   1.499  1.4038  0.6892 -0.7511
 1865TIP3   OH2 5600   3.365   1.956   0.507  0.8073  0.5064 -0.4024
 1865TIP3    H1 5601   3.374   2.036   0.456 -1.3089  1.1525  0.1217
 1865TIP3    H2 5602   3.367   1.984   0.598 -2.4355  0.4311 -0.1891
 1866TIP3   OH2 5603   1.496   5.826   2.642 -0.1128 -0.2312 -0.2844
 1866TIP3    H1 5604   1.422   5.876   2.608  1.2603  0.5477 -2.3692
 1866TIP3    H2 5605   1.530   5.878   2.715 -0.0881  0.7314 -0.9694
 1867TIP3   OH2 5606   4.736   3.340   2.366  0.2700 -0.2477 -0.0922
 1867TIP3    H1 5607   4.689   3.402   2.421 -1.8779 -0.7171 -1.2900
 1867TIP3    H2 5608   4.810   3.312   2.419 -0.7014  0.6610  1.8419
 1868TIP3   OH2 5609   5.348   2.068   2.654  0.1073  0.0109  0.5763
 1868TIP3    H1 5610   5.255   2.069   2.632  0.5163 -0.8972 -1.4182
 1868TIP3    H2 5611   5.382   2.153   2.626  0.2071 -0.3404 -0.4027
 1869TIP3   OH2 5612   3.262   3.694   4.069 -0.1577 -0.3452 -0.8312
 1869TIP3    H1 5613   3.316   3.727   3.997  1.4656  0.6794  0.7845
 1869TIP3    H2 5614   3.247   3.602   4.046  0.0322  0.0234 -2.6257
 1870TIP3   OH2 5615   4.433   4.547   5.111 -0.3237 -0.6442  0.4485
 1870TIP3    H1 5616   4.359   4.566   5.053  2.0634  1.8458 -2.0515
 1870TIP3    H2 5617   4.445   4.452   5.102 -1.3449 -0.6473 -1.5025
 1871TIP3   OH2 5618   4.540   1.447   0.102  0.9980  0.2762  0.8033
 1871TIP3    H1 5619   4.553   1.421   0.193 -1.0380 -1.2653  0.7135
 1871TIP3    H2 5620   4.615   1.410   0.055  0.7735 -1.1098  1.4907
 1872TIP3   OH2 5621   4.023   5.257   4.397  0.1254 -0.1424  0.3836
 1872TIP3    H1 5622   4.110   5.229   4.425  1.2784  2.1303 -0.7369
 1872TIP3    H2 5623   4.008   5.212   4.314 -0.0111 -0.9098  0.8121
 1873TIP3   OH2 5624   1.151   1.939   3.662 -0.1671 -0.3827 -0.3889
 1873TIP3    H1 5625   1.103   1.986   3.730 -1.6138  1.1046 -2.3315
 1873TIP3    H2 5626   1.221   1.894   3.710 -0.8345  0.9239  2.0172
 1874TIP3   OH2 5627   0.641   2.779   0.425 -0.2870  0.1100 -0.1851
 1874TIP3    H1 5628   0.656   2.873   0.434  2.2957 -0.1214 -1.2226
 1874TIP3    H2 5629   0.566   2.772   0.366  0.2993  1.5646 -1.1573
 1875TIP3   OH2 5630   2.778   5.930   0.625 -0.0514  0.2249 -0.1829
 1875TIP3    H1 5631   2.694   5.926   0.670  0.8476 -1.5020  1.5216
 1875TIP3    H2 5632   2.812   6.018   0.646 -0.6799  0.3019  0.5577
 1876TIP3   OH2 5633   6.260   1.834   4.229 -0.3028 -0.1547 -0.3141
 1876TIP3    H1 5634   6.318   1.901   4.265 -1.4083 -0.1740  1.5977
 1876TIP3    H2 5635   6.204   1.808   4.302  0.8392 -4.0749 -0.6298
 1877TIP3   OH2 5636   1.065   1.902   3.937 -0.1709  0.4138  0.5985
 1877TIP3    H1 5637   1.115   1.928   4.014  0.1510  0.1102  0.4945
 1877TIP3    H2 5638   1.057   1.807   3.944  0.6610  0.2727 -0.2125
 1878TIP3   OH2 5639   5.483   5.275   1.103 -0.1423  0.2747  0.5345
 1878TIP3    H1 5640   5.496   5.319   1.019 -0.5309 -0.3905  0.1165
 1878TIP3    H2 5641   5.517   5.186   1.089 -1.0816 -0.1360  0.7796
 1879TIP3   OH2 5642   1.413   2.233   1.907  0.3334  0.9187  0.0566
 1879TIP3    H1 5643   1.341   2.269   1.855  0.4310 -1.1702 -1.6833
 1879TIP3    H2 5644   1.395   2.139   1.911  0.8501  0.8533  3.0916
 1880TIP3   OH2 5645   1.475   4.848   1.963 -0.0369  0.1941 -0.1342
 1880TIP3    H1 5646   1.404   4.784   1.955 -0.7138  0.6371  1.8150
 1880TIP3    H2 5647   1.461   4.908   1.890 -0.5603 -0.7648 -0.8463
 1881TIP3   OH2 5648   1.467   1.239   3.744  0.8440  0.5197  0.0550
 1881TIP3    H1 5649   1.435   1.296   3.674 -0.1371 -2.6494 -2.3377
 1881TIP3    H2 5650   1.552   1.207   3.712  0.3315 -1.0690  0.2010
 1882TIP3   OH2 5651   0.884   2.282   3.033  0.9266 -0.1078  0.0163
 1882TIP3    H1 5652   0.878   2.283   3.128  0.7556  1.2809  0.0007
 1882TIP3    H2 5653   0.858   2.193   3.008 -0.1440 -0.1388  1.1903
 1883TIP3   OH2 5654   6.068   1.112   3.975 -0.3254  0.3744  0.0893
 1883TIP3    H1 5655   6.037   1.049   3.910 -0.7159  0.8392 -0.1854
 1883TIP3    H2 5656   6.107   1.182   3.922  1.3611 -0.2698  0.4234
 1884TIP3   OH2 5657   3.028   1.917   0.046  0.2986  0.0171 -0.0908
 1884TIP3    H1 5658   3.003   2.009   0.049  0.6623  0.1293 -0.3687
 1884TIP3    H2 5659   3.000   1.881   0.130 -1.2194  0.0195 -0.5737
 1885TIP3   OH2 5660   3.379   5.713   4.692 -0.4539 -0.4060 -0.3877
 1885TIP3    H1 5661   3.292   5.672   4.684 -0.5912  0.0606 -1.3198
 1885TIP3    H2 5662   3.368   5.801   4.656  0.0159  0.2441  0.9685
 1886TIP3   OH2 5663   3.851   1.644   0.471  0.4576  0.2762  0.6052
 1886TIP3    H1 5664   3.868   1.648   0.377  0.8195  1.2537  0.7073
 1886TIP3    H2 5665   3.864   1.552   0.494  0.1530 -0.0117 -0.3376
 1887TIP3   OH2 5666   0.191   4.591   4.997  0.1902 -0.1596 -0.5352
 1887TIP3    H1 5667   0.228   4.507   5.023  2.1439  0.6316 -0.6101
 1887TIP3    H2 5668   0.117   4.604   5.057  0.5799 -1.3858  0.2430
 1888TIP3   OH2 5669   6.197   3.911   3.717 -0.4701  0.2207 -0.4823
 1888TIP3    H1 5670   6.158   3.919   3.804  0.5479  1.2832 -0.0956
 1888TIP3    H2 5671   6.229   3.821   3.713 -1.8335 -0.2887 -0.3435
 1889TIP3   OH2 5672   0.406   0.677   5.040 -0.0662  0.0420 -0.4530
 1889TIP3    H1 5673   0.501   0.692   5.045 -0.0267 -0.2536 -0.2406
 1889TIP3    H2 5674   0.388   0.663   4.947 -0.4738  3.6455 -1.0527
 1890TIP3   OH2 5675   4.707   5.818   2.676 -0.1841  0.1899 -0.6863
 1890TIP3    H1 5676   4.689   5.729   2.644 -2.0335  1.0972 -2.3527
 1890TIP3    H2 5677   4.639   5.835   2.741  1.9323 -0.6096  1.9398
 1891TIP3   OH2 5678   6.015   0.268   0.059 -0.3139  0.2394 -0.3850
 1891TIP3    H1 5679   6.008   0.240  -0.032 -2.3386 -0.6525 -0.0142
 1891TIP3    H2 5680   5.982   0.358   0.059 -0.0228  0.3496 -0.5602
 1892TIP3   OH2 5681   4.618   4.163   2.042  0.8677 -0.2736  0.3394
 1892TIP3    H1 5682   4.648   4.157   2.133 -0.3997 -0.3643  0.7628
 1892TIP3    H2 5683   4.590   4.254   2.032 -0.2639 -0.5886  0.4669
 1893TIP3   OH2 5684   2.600   3.675   0.694 -0.4974 -0.3488  0.0133
 1893TIP3    H1 5685   2.652   3.597   0.714 -1.0730 -0.8385 -0.3526
 1893TIP3    H2 5686   2.566   3.703   0.779 -0.1605 -0.3989  0.1687
 1894TIP3   OH2 5687   2.315   2.300   0.550 -0.0172 -0.4491  0.0783
 1894TIP3    H1 5688   2.294   2.366   0.484  0.1954 -1.8431 -1.4487
 1894TIP3    H2 5689   2.410   2.290   0.544 -0.1767 -1.7227 -0.5509
 1895TIP3   OH2 5690   0.349   3.439   0.260 -0.2943  0.7525 -0.4294
 1895TIP3    H1 5691   0.326   3.531   0.271  2.1455  1.2948  0.9761
 1895TIP3    H2 5692   0.412   3.438   0.187 -0.3985  0.1798 -0.5180
 1896TIP3   OH2 5693   1.963   3.755   4.900 -0.0402  0.3041 -0.2953
 1896TIP3    H1 5694   2.008   3.802   4.829  1.1613  2.2666  1.6425
 1896TIP3    H2 5695   2.033   3.706   4.944 -0.6003 -0.1457  0.1032
 1897TIP3   OH2 5696   5.568   1.685   4.114 -0.2177  0.6807  0.6238
 1897TIP3    H1 5697   5.652   1.730   4.116  2.3451 -3.4994  1.6676
 1897TIP3    H2 5698   5.541   1.686   4.022  0.0075  3.4961  0.5250
 1898TIP3   OH2 5699   6.303   2.173   0.318 -0.0043 -0.0813  0.1991
 1898TIP3    H1 5700   6.270   2.090   0.283  0.9023 -0.1840 -0.4535
 1898TIP3    H2 5701   6.237   2.200   0.382 -1.1331 -0.4949 -0.7462
 1899TIP3   OH2 5702   4.882   0.814   4.082 -0.3432 -0.1725 -0.1818
 1899TIP3    H1 5703   4.928   0.786   4.003 -2.3207 -0.4089 -1.3185
 1899TIP3    H2 5704   4.869   0.908   4.069 -1.0397 -0.2879 -0.3610
 1900TIP3   OH2 5705   2.110   1.817   1.138  0.4930  0.1991  0.2688
 1900TIP3    H1 5706   2.034   1.829   1.080  0.2220  2.9982  1.0740
 1900TIP3    H2 5707   2.172   1.767   1.085 -1.4831 -1.3246 -0.7640
 1901TIP3   OH2 5708   4.794   1.091   1.502  0.2061 -0.2696 -0.3384
 1901TIP3    H1 5709   4.715   1.060   1.546  1.0165 -0.1096  1.2781
 1901TIP3    H2 5710   4.866   1.048   1.548  1.1255  0.4807 -1.0352
 1902TIP3   OH2 5711   1.313   2.827   0.492 -0.3565  0.2467  0.2130
 1902TIP3    H1 5712   1.380   2.832   0.424 -0.2424  0.1030  0.3159
 1902TIP3    H2 5713   1.339   2.754   0.547  0.2151  1.1304  1.1382
 1903TIP3   OH2 5714   1.260   2.484   0.391  0.1286  0.1454  0.5530
 1903TIP3    H1 5715   1.337   2.507   0.443  1.2185  0.1996 -0.9987
 1903TIP3    H2 5716   1.239   2.394   0.417  0.3578  0.3279  1.3971
 1904TIP3   OH2 5717   5.981   3.001   2.792 -0.2305 -0.0650 -0.1963
 1904TIP3    H1 5718   5.958   2.935   2.727  0.3873 -0.9227  0.4379
 1904TIP3    H2 5719   6.028   3.069   2.743 -1.8487  0.4850 -1.0584
 1905TIP3   OH2 5720   3.811   4.797   2.679 -0.2112 -0.1346 -0.2171
 1905TIP3    H1 5721   3.842   4.735   2.612  2.1347 -2.0212  2.3561
 1905TIP3    H2 5722   3.875   4.868   2.677  0.0849 -0.3851  0.2514
 1906TIP3   OH2 5723   4.582   2.857   2.921  0.0734  0.3553 -0.5892
 1906TIP3    H1 5724   4.603   2.909   2.999  2.3203 -0.8747 -0.2959
 1906TIP3    H2 5725   4.651   2.880   2.858 -1.3299  0.8274 -2.0112
 1907TIP3   OH2 5726   1.630   3.568   1.659  0.0535 -0.0595  0.3262
 1907TIP3    H1 5727   1.701   3.601   1.713  0.8078  1.4084 -1.4537
 1907TIP3    H2 5728   1.611   3.481   1.695  1.6056  0.1905  1.8792
 1908TIP3   OH2 5729   1.197   4.902   3.027 -0.2942  0.5916 -0.3204
 1908TIP3    H1 5730   1.178   4.996   3.028 -0.6308  0.5206  0.1493
 1908TIP3    H2 5731   1.126   4.862   3.078  1.1769  0.3263  1.5857
 1909TIP3   OH2 5732   3.939   4.315   2.940 -0.3398 -0.2318 -0.0793
 1909TIP3    H1 5733   3.959   4.408   2.949  0.8292 -0.4044 -0.7472
 1909TIP3    H2 5734   3.857   4.304   2.988 -0.3841  1.0957  0.1943
 1910TIP3   OH2 5735   5.413   5.569   1.195 -0.2105  0.6798 -0.5376
 1910TIP3    H1 5736   5.430   5.478   1.167 -0.5991  0.2123  0.7022
 1910TIP3    H2 5737   5.500   5.605   1.213 -0.1168  0.2118 -0.0187
 1911TIP3   OH2 5738   3.798   0.854   3.347  0.3806  0.4360  0.0194
 1911TIP3    H1 5739   3.794   0.816   3.435  0.6761 -0.4845 -0.3533
 1911TIP3    H2 5740   3.889   0.883   3.339  0.2315  0.9527  0.1921
 1912TIP3   OH2 5741   0.660   1.052   3.092 -0.2569 -0.2136 -0.2274
 1912TIP3    H1 5742   0.750   1.022   3.105  0.4274  1.8559  0.0981
 1912TIP3    H2 5743   0.648   1.123   3.154 -1.5765  0.6297 -1.3641
 1913TIP3   OH2 5744   4.484   4.117   0.922 -0.0102 -0.1737 -0.0128
 1913TIP3    H1 5745   4.502   4.143   1.012 -1.3883 -1.0849  0.5529
 1913TIP3    H2 5746   4.399   4.156   0.902  0.9594  1.2861 -1.4639
 1914TIP3   OH2 5747   4.321   3.991   2.380 -0.4100 -0.4499 -0.1919
 1914TIP3    H1 5748   4.249   4.038   2.422 -1.7891 -2.4540 -0.2142
 1914TIP3    H2 5749   4.328   4.032   2.294  1.3210  2.5450  1.2219
 1915TIP3   OH2 5750   6.361   4.852   4.945 -0.7994 -0.3587  0.4259
 1915TIP3    H1 5751   6.282   4.900   4.920  0.3072  2.2829  1.6267
 1915TIP3    H2 5752   6.400   4.825   4.862 -0.5209  2.5336 -0.4689
 1916TIP3   OH2 5753   4.942   5.914   4.142 -0.0619 -0.2084 -0.4197
 1916TIP3    H1 5754   4.912   5.826   4.167 -1.0252  0.3943  0.6465
 1916TIP3    H2 5755   4.890   5.973   4.196  0.5611  1.0323 -1.1353
 1917TIP3   OH2 5756   2.632   1.536   3.191 -0.2413 -0.2737 -0.0994
 1917TIP3    H1 5757   2.629   1.588   3.111 -0.9448 -1.6737 -1.0236
 1917TIP3    H2 5758   2.708   1.478   3.179  0.4542  0.4109  0.8507
 1918TIP3   OH2 5759   0.043   4.957   0.814  0.0415  0.5519 -0.1033
 1918TIP3    H1 5760   0.001   4.914   0.889 -1.2596 -0.5258 -1.4045
 1918TIP3    H2 5761   0.062   5.045   0.846 -0.1749  0.0178  1.6050
 1919TIP3   OH2 5762   1.230   3.087   0.545  0.0743  0.0062  0.6995
 1919TIP3    H1 5763   1.289   3.115   0.615  0.0745 -0.3972  0.8644
 1919TIP3    H2 5764   1.268   3.005   0.513  1.2884  1.2115 -1.2364
 1920TIP3   OH2 5765   3.874   4.336   0.508 -0.2873 -0.0822 -0.5653
 1920TIP3    H1 5766   3.803   4.294   0.459  0.3501 -0.9439 -0.7788
 1920TIP3    H2 5767   3.910   4.401   0.447 -0.7624  0.2254 -0.5238
 1921TIP3   OH2 5768   5.800   0.122   4.390  0.3928 -0.5597 -0.0212
 1921TIP3    H1 5769   5.810   0.160   4.477 -0.2376 -0.1371 -0.1263
 1921TIP3    H2 5770   5.725   0.168   4.352 -0.3491 -1.8395 -0.1869
 1922TIP3   OH2 5771   3.738   2.061   1.356  0.1737  0.2848 -0.3232
 1922TIP3    H1 5772   3.811   2.078   1.415  0.0563 -0.8748  0.1910
 1922TIP3    H2 5773   3.770   1.993   1.298  0.1708  1.1847 -1.4015
 1923TIP3   OH2 5774   2.339   3.313   3.164  0.0985 -0.4168  0.1942
 1923TIP3    H1 5775   2.286   3.283   3.238  0.7152 -0.5793  0.5784
 1923TIP3    H2 5776   2.302   3.269   3.088 -1.5657  0.9680  0.1332
 1924TIP3   OH2 5777   4.786   1.066   2.394 -0.4540  0.1141 -0.0691
 1924TIP3    H1 5778   4.710   1.051   2.451  1.4200 -0.7270  2.4350
 1924TIP3    H2 5779   4.776   1.002   2.324 -2.5867  0.7879 -0.4537
 1925TIP3   OH2 5780   1.755   4.898   1.843 -0.5453  0.2767  0.3078
 1925TIP3    H1 5781   1.661   4.897   1.827 -0.3885 -2.6172 -1.2275
 1925TIP3    H2 5782   1.763   4.886   1.938 -1.7908 -0.9933  0.2896
 1926TIP3   OH2 5783   1.113   0.187   4.743  0.4686  0.0981 -0.0776
 1926TIP3    H1 5784   1.175   0.205   4.813  0.8810 -1.0748 -0.1259
 1926TIP3    H2 5785   1.160   0.130   4.683 -0.7722 -1.1261  0.0724
 1927TIP3   OH2 5786   5.785   5.004   1.861  0.2506 -0.6882 -0.0826
 1927TIP3    H1 5787   5.871   5.028   1.828 -0.7056  2.4870 -0.6207
 1927TIP3    H2 5788   5.728   5.005   1.784 -0.7320 -0.0010  0.6154
 1928TIP3   OH2 5789   1.531   2.242   3.680  0.2117  0.3658 -0.0751
 1928TIP3    H1 5790   1.563   2.312   3.623  0.5832  0.4068  0.1778
 1928TIP3    H2 5791   1.600   2.176   3.679  0.1382  0.2810  0.1776
 1929TIP3   OH2 5792   3.751   2.429   1.473 -0.6447 -0.7675  1.0191
 1929TIP3    H1 5793   3.782   2.518   1.456  1.5152 -1.7378 -0.5981
 1929TIP3    H2 5794   3.658   2.431   1.452 -0.1410  0.5819 -1.4005
 1930TIP3   OH2 5795   5.527   0.409   1.803  0.2576 -0.0882  0.1961
 1930TIP3    H1 5796   5.557   0.327   1.764  2.0984  0.5153  0.2700
 1930TIP3    H2 5797   5.461   0.441   1.741  1.1393 -0.5221 -1.0061
 1931TIP3   OH2 5798   4.832   0.687   2.047  0.2017 -0.4248  0.0091
 1931TIP3    H1 5799   4.826   0.607   1.994  1.4812 -1.5325  1.4298
 1931TIP3    H2 5800   4.790   0.754   1.994 -0.4002 -1.9117 -1.4988
 1932TIP3   OH2 5801   3.995   2.794   3.420 -0.2131  0.0002  0.5201
 1932TIP3    H1 5802   3.984   2.889   3.414  2.7397  0.3335 -1.4930
 1932TIP3    H2 5803   3.994   2.764   3.329 -0.3462 -1.8116  1.0801
 1933TIP3   OH2 5804   5.505   3.153   5.176 -0.2479 -0.0983 -0.0384
 1933TIP3    H1 5805   5.566   3.200   5.119 -0.8986  0.6443 -0.1455
 1933TIP3    H2 5806   5.477   3.078   5.124  0.0513 -0.0648 -0.2500
 1934TIP3   OH2 5807   1.729   1.398   3.808 -0.0894  0.1481  0.0958
 1934TIP3    H1 5808   1.660   1.444   3.856  0.5916  0.6044  0.6675
 1934TIP3    H2 5809   1.716   1.306   3.831  0.0382  0.3270  0.9367
 1935TIP3   OH2 5810   4.578   2.134   3.213  0.2667  0.2763  0.1876
 1935TIP3    H1 5811   4.629   2.055   3.231 -1.4721 -0.5677  1.8290
 1935TIP3    H2 5812   4.601   2.158   3.124  1.3661 -1.7013 -0.1237
 1936TIP3   OH2 5813   0.913   2.218   2.643  0.4593 -0.0038  0.0628
 1936TIP3    H1 5814   0.942   2.204   2.553  2.7161  1.3846  0.4963
 1936TIP3    H2 5815   0.872   2.304   2.642 -0.5580 -0.4708  0.1702
 1937TIP3   OH2 5816   3.007   2.093   2.076 -0.4626 -0.2599  0.2617
 1937TIP3    H1 5817   3.098   2.121   2.076 -0.6905  0.5838  1.1828
 1937TIP3    H2 5818   3.009   2.000   2.054  0.5302 -0.0270 -0.6650
 1938TIP3   OH2 5819   4.856   3.034   4.940 -0.4049 -0.2789  0.4192
 1938TIP3    H1 5820   4.927   3.070   4.888 -1.0613 -0.4872 -0.6582
 1938TIP3    H2 5821   4.798   2.993   4.876 -0.2502 -2.2919  1.5005
 1939TIP3   OH2 5822   1.800   2.195   2.393  0.3972  0.3423 -0.2098
 1939TIP3    H1 5823   1.708   2.218   2.407  0.3886 -0.2063  0.7341
 1939TIP3    H2 5824   1.819   2.128   2.459  1.7592  1.2033  0.3271
 1940TIP3   OH2 5825   3.991   5.104   4.798 -0.0892 -0.8720  0.1013
 1940TIP3    H1 5826   3.930   5.119   4.725  1.1282 -2.1251 -1.2455
 1940TIP3    H2 5827   4.075   5.135   4.765  0.4946 -1.5305  0.9385
 1941TIP3   OH2 5828   1.899   5.101   1.713 -0.2309  0.0592 -0.3448
 1941TIP3    H1 5829   1.835   5.131   1.648 -0.3312  0.7141  0.0445
 1941TIP3    H2 5830   1.858   5.026   1.756 -0.6942  0.4105 -0.1722
 1942TIP3   OH2 5831   5.791   4.981   1.090 -0.0349 -0.0299  0.1167
 1942TIP3    H1 5832   5.811   5.026   1.008  1.4260  0.4307  0.6854
 1942TIP3    H2 5833   5.866   4.924   1.105  0.3189  0.7932  1.7249
 1943TIP3   OH2 5834   5.093   1.735   3.326  0.3238  0.0959 -0.3581
 1943TIP3    H1 5835   5.147   1.657   3.309 -0.1487 -0.3209  0.0164
 1943TIP3    H2 5836   5.118   1.797   3.258  1.3119 -0.0695 -0.1600
 1944TIP3   OH2 5837   5.435   1.831   0.900 -0.2443 -0.9236 -0.5624
 1944TIP3    H1 5838   5.349   1.790   0.908 -0.9460  0.7743  1.7376
 1944TIP3    H2 5839   5.428   1.891   0.826 -1.5729  0.2517  0.4615
 1945TIP3   OH2 5840   1.769   3.295   2.942 -0.5718 -0.4806  0.2836
 1945TIP3    H1 5841   1.765   3.251   3.026  0.4923 -0.2612  0.4691
 1945TIP3    H2 5842   1.679   3.320   2.923 -0.9689 -1.3965  0.8828
 1946TIP3   OH2 5843   3.190   1.234   4.522 -0.2241  0.3711  0.0305
 1946TIP3    H1 5844   3.175   1.242   4.428  1.6357  0.9857 -0.2518
 1946TIP3    H2 5845   3.102   1.235   4.561 -1.0086  0.2982 -1.6722
 1947TIP3   OH2 5846   2.977   3.243   1.577 -0.2710 -0.3270  0.2202
 1947TIP3    H1 5847   2.886   3.264   1.600 -0.7761 -0.0560 -1.8505
 1947TIP3    H2 5848   3.029   3.308   1.624 -1.2556  0.4620  0.2479
 1948TIP3   OH2 5849   4.200   1.249   0.224  0.1079 -0.2495  0.2251
 1948TIP3    H1 5850   4.280   1.248   0.277 -0.0024  0.0071  0.3989
 1948TIP3    H2 5851   4.164   1.337   0.236  1.5177  0.8312 -2.4300
 1949TIP3   OH2 5852   2.619   4.036   2.208 -0.2830  0.5350 -0.4692
 1949TIP3    H1 5853   2.602   4.047   2.302 -0.0052  1.5212 -0.5271
 1949TIP3    H2 5854   2.686   4.100   2.188 -0.5290  0.5101 -1.4034
 1950TIP3   OH2 5855   4.966   3.166   0.167 -0.0519 -0.1528  0.3550
 1950TIP3    H1 5856   4.894   3.227   0.150 -1.0143 -1.4523 -0.3823
 1950TIP3    H2 5857   5.038   3.222   0.198 -0.0845  1.6995 -2.5385
 1951TIP3   OH2 5858   2.716   1.759   0.788 -0.9773 -0.1317  0.3155
 1951TIP3    H1 5859   2.647   1.693   0.777  0.5849 -1.9465  0.9697
 1951TIP3    H2 5860   2.796   1.716   0.758  0.2481  1.1441  1.6199
 1952TIP3   OH2 5861   3.724   3.617   0.615 -0.1907  0.1778  0.1330
 1952TIP3    H1 5862   3.720   3.573   0.700 -2.5924  0.9106  0.4777
 1952TIP3    H2 5863   3.757   3.705   0.636  3.5508 -0.9181 -0.4092
 1953TIP3   OH2 5864   5.494   1.837   3.554  0.0164 -0.0405  0.9813
 1953TIP3    H1 5865   5.548   1.852   3.632  1.1403  0.1257  0.2031
 1953TIP3    H2 5866   5.551   1.862   3.481 -0.6249 -1.2386  0.0421
 1954TIP3   OH2 5867   5.991   3.517  -0.006  0.0800  0.1606 -0.4990
 1954TIP3    H1 5868   5.973   3.432  -0.046  1.2988 -0.0122 -0.7123
 1954TIP3    H2 5869   5.925   3.525   0.063 -0.6938 -0.4916 -1.1545
 1955TIP3   OH2 5870   1.170   3.372   3.192  0.0887  0.2974  0.1282
 1955TIP3    H1 5871   1.080   3.356   3.222  0.1022  0.6012  0.3379
 1955TIP3    H2 5872   1.161   3.444   3.129  0.1894  0.3614  0.1863
 1956TIP3   OH2 5873   5.017   3.204   1.584 -0.0847 -0.1065  0.6285
 1956TIP3    H1 5874   4.964   3.142   1.534 -0.0026 -0.1572  0.6027
 1956TIP3    H2 5875   5.100   3.158   1.598 -0.4016 -0.4270  1.5494
 1957TIP3   OH2 5876   2.608   3.355   4.053  0.7555  0.0346  0.0322
 1957TIP3    H1 5877   2.557   3.285   4.093 -1.6300  1.8367  0.3582
 1957TIP3    H2 5878   2.690   3.313   4.027 -0.9637 -3.1284 -0.7973
 1958TIP3   OH2 5879   3.673   0.388   3.543  0.7006  0.6454  0.3523
 1958TIP3    H1 5880   3.629   0.465   3.507 -1.6750 -0.6565  0.2654
 1958TIP3    H2 5881   3.749   0.375   3.486 -0.3089  1.4311 -1.2608
 1959TIP3   OH2 5882   4.398   2.419   3.206 -0.0590 -0.5414  0.2716
 1959TIP3    H1 5883   4.356   2.348   3.157  0.3558 -0.0630 -0.7959
 1959TIP3    H2 5884   4.479   2.437   3.159 -0.1412  0.6280  0.5397
 1960TIP3   OH2 5885   6.045   4.113   2.483  0.4266  0.6924 -0.3093
 1960TIP3    H1 5886   6.076   4.112   2.392 -0.0686 -1.3892 -0.5209
 1960TIP3    H2 5887   5.980   4.042   2.486  1.7793 -0.5902  2.0975
 1961TIP3   OH2 5888   6.186   2.031   4.849  0.0240  0.8676  0.2289
 1961TIP3    H1 5889   6.261   1.998   4.898  0.6636  0.9461 -0.6720
 1961TIP3    H2 5890   6.170   2.118   4.885  0.5616  0.9741  0.2181
 1962TIP3   OH2 5891   2.267   1.759   4.868 -0.1510 -0.8426  0.3895
 1962TIP3    H1 5892   2.275   1.796   4.780 -1.1655 -0.1380  0.5748
 1962TIP3    H2 5893   2.357   1.741   4.895  0.3744  1.2664  0.1842
 1963TIP3   OH2 5894   4.112   4.702   2.706 -0.8004  0.0289 -0.7923
 1963TIP3    H1 5895   4.159   4.648   2.643 -1.5741 -0.2903 -1.1087
 1963TIP3    H2 5896   4.154   4.788   2.701  0.6539 -0.5963 -0.0688
 1964TIP3   OH2 5897   0.875   5.812   2.758 -0.1810  0.1168  0.3912
 1964TIP3    H1 5898   0.943   5.750   2.734 -1.1896 -0.8781 -0.0165
 1964TIP3    H2 5899   0.912   5.898   2.737  0.9906 -0.3893  0.3282
 1965TIP3   OH2 5900   3.896   1.671   0.165 -0.0980  0.0419 -0.0227
 1965TIP3    H1 5901   3.831   1.606   0.140  0.2005 -0.5417  0.6682
 1965TIP3    H2 5902   3.954   1.678   0.089 -0.1389 -0.5017 -0.1119
 1966TIP3   OH2 5903   2.484   3.746   1.389 -0.3158  0.2510  0.7564
 1966TIP3    H1 5904   2.535   3.731   1.309  0.4405  1.3032  1.0142
 1966TIP3    H2 5905   2.393   3.739   1.361 -0.0703  0.9304 -0.2877
 1967TIP3   OH2 5906   5.359   2.838   1.057 -0.3824  0.3286 -0.7634
 1967TIP3    H1 5907   5.327   2.813   0.970  1.9708 -3.1015 -0.8529
 1967TIP3    H2 5908   5.441   2.885   1.041 -1.3586  2.2737 -0.3644
 1968TIP3   OH2 5909   0.955   1.830   2.978 -0.4723  0.0445 -0.5218
 1968TIP3    H1 5910   1.031   1.866   3.024  1.1309 -1.0370 -2.1629
 1968TIP3    H2 5911   0.942   1.889   2.904 -1.2796  0.2561 -0.2138
 1969TIP3   OH2 5912   6.303   2.937   1.106  0.3529  0.4374 -0.0727
 1969TIP3    H1 5913   6.302   2.996   1.182 -0.8705 -0.7584  0.8635
 1969TIP3    H2 5914   6.352   2.860   1.136  0.3178  0.1756 -0.6788
 1970TIP3   OH2 5915   1.120   3.509   2.963 -0.1003 -0.1976  0.5966
 1970TIP3    H1 5916   1.053   3.442   2.950 -0.8676  0.4028  1.3433
 1970TIP3    H2 5917   1.195   3.479   2.912 -0.9757 -0.8231 -0.3490
 1971TIP3   OH2 5918   1.420   4.356   1.597  0.4662 -0.0837 -0.1593
 1971TIP3    H1 5919   1.398   4.311   1.516  1.0305 -1.5919  0.4952
 1971TIP3    H2 5920   1.516   4.363   1.596  0.3711  2.0174 -0.6862
 1972TIP3   OH2 5921   2.636   0.388   0.674 -0.0344 -0.2770  0.2735
 1972TIP3    H1 5922   2.596   0.378   0.587  0.4592  2.3173 -0.3397
 1972TIP3    H2 5923   2.615   0.306   0.720 -1.7354 -1.0361 -1.7025
 1973TIP3   OH2 5924   3.528   2.234   0.533  0.1914 -0.1185 -0.0648
 1973TIP3    H1 5925   3.597   2.251   0.596  0.3324  0.4409 -0.3647
 1973TIP3    H2 5926   3.480   2.317   0.526  1.7142  0.6635 -2.5770
 1974TIP3   OH2 5927   5.098   3.811   0.516 -0.0195  0.3010  0.1113
 1974TIP3    H1 5928   5.097   3.760   0.597  2.2905  1.3719  0.9013
 1974TIP3    H2 5929   5.066   3.898   0.541  1.4963  0.8844  0.1030
 1975TIP3   OH2 5930   6.097   1.763   3.079 -0.0954 -0.0809 -0.0438
 1975TIP3    H1 5931   6.156   1.722   3.143 -0.9803  0.4547  1.1377
 1975TIP3    H2 5932   6.011   1.761   3.121 -0.1868  3.0011  0.1078
 1976TIP3   OH2 5933   2.512   4.251   0.292  0.0942 -0.5448  0.7596
 1976TIP3    H1 5934   2.566   4.318   0.333 -0.0926 -0.1171  0.3296
 1976TIP3    H2 5935   2.451   4.223   0.360 -0.8746  0.8677  0.5307
 1977TIP3   OH2 5936   0.648   4.367   2.587  0.6419  0.3374 -0.0085
 1977TIP3    H1 5937   0.634   4.285   2.634 -1.4528 -0.7908 -2.3685
 1977TIP3    H2 5938   0.721   4.348   2.527  0.1525  0.1955 -0.5594
 1978TIP3   OH2 5939   3.757   0.732   0.808 -0.1356 -0.0277 -0.1494
 1978TIP3    H1 5940   3.773   0.638   0.809  3.0666  0.4096  0.8599
 1978TIP3    H2 5941   3.754   0.756   0.716 -0.6675 -1.0615 -0.4100
 1979TIP3   OH2 5942   6.275   1.307   4.087  0.0096  0.1850 -0.4042
 1979TIP3    H1 5943   6.194   1.267   4.119  0.7188  0.1661  1.5393
 1979TIP3    H2 5944   6.246   1.386   4.042 -1.1385 -0.3416 -0.6490
 1980TIP3   OH2 5945   6.009   1.940   1.597 -0.1044  0.5591 -0.5778
 1980TIP3    H1 5946   6.064   1.929   1.674  0.7725 -0.4267 -1.3143
 1980TIP3    H2 5947   5.921   1.917   1.626  0.1803  0.4214  0.1773
 1981TIP3   OH2 5948   4.076   2.953   4.411  0.4368  0.2169 -0.0501
 1981TIP3    H1 5949   4.068   2.951   4.315 -1.4224  2.1334 -0.0147
 1981TIP3    H2 5950   4.095   3.045   4.431 -2.4562  0.5798  1.5404
 1982TIP3   OH2 5951   1.091   5.870   3.349  0.2124  0.5089  0.1658
 1982TIP3    H1 5952   1.035   5.799   3.317  0.3040 -0.8520  2.7468
 1982TIP3    H2 5953   1.155   5.882   3.279  0.2985 -2.1128 -0.3329
 1983TIP3   OH2 5954   1.907   3.827   4.374 -0.4180  0.0207 -0.0358
 1983TIP3    H1 5955   1.994   3.862   4.394  0.0316 -0.9638 -0.2088
 1983TIP3    H2 5956   1.884   3.868   4.290  0.5402 -0.8377 -0.7430
 1984TIP3   OH2 5957   2.802   5.050   3.920 -0.5146 -0.0218 -0.0187
 1984TIP3    H1 5958   2.732   5.063   3.857 -0.0518  0.3865 -0.4626
 1984TIP3    H2 5959   2.790   4.961   3.953  0.8309 -1.3011 -2.6991
 1985TIP3   OH2 5960   5.510   5.762   4.809 -0.4037 -0.1459  0.3061
 1985TIP3    H1 5961   5.427   5.717   4.822  0.8396 -2.7921 -0.3401
 1985TIP3    H2 5962   5.527   5.805   4.892 -1.5256 -1.0920  1.0542
 1986TIP3   OH2 5963   0.118   1.840   0.886  0.3033 -0.8606 -0.2754
 1986TIP3    H1 5964   0.056   1.871   0.952 -1.4437 -1.0428 -1.7365
 1986TIP3    H2 5965   0.165   1.768   0.928  0.1931 -0.1072  1.1763
 1987TIP3   OH2 5966   1.638   5.045   3.733  0.3938  0.3550 -0.0694
 1987TIP3    H1 5967   1.568   4.993   3.695  0.2796 -0.1277  0.7724
 1987TIP3    H2 5968   1.648   5.011   3.822  1.4638  0.6421 -0.0604
 1988TIP3   OH2 5969   0.665   3.754   0.211  0.4223 -0.4318 -0.0992
 1988TIP3    H1 5970   0.656   3.664   0.181  2.1638 -0.7416  0.1785
 1988TIP3    H2 5971   0.681   3.804   0.131  0.3149 -0.5149 -0.1724
 1989TIP3   OH2 5972   6.061   4.250   3.626  0.1582  0.6647  0.1251
 1989TIP3    H1 5973   6.086   4.193   3.553  1.2359  1.4000 -0.1028
 1989TIP3    H2 5974   5.983   4.295   3.595  0.2019  0.4540 -0.3032
 1990TIP3   OH2 5975   4.233   2.079   1.507 -0.4470 -0.0990  0.3139
 1990TIP3    H1 5976   4.246   1.997   1.458  1.2896 -0.1647  0.8103
 1990TIP3    H2 5977   4.242   2.148   1.441  0.6987 -0.2320  0.3040
 1991TIP3   OH2 5978   1.428   4.254   3.829 -0.1904  0.1563 -0.0467
 1991TIP3    H1 5979   1.426   4.244   3.924 -1.9117  0.7110  0.0157
 1991TIP3    H2 5980   1.513   4.295   3.811  0.4338 -0.5418  1.1672
 1992TIP3   OH2 5981   1.476   4.881   3.322 -0.3862 -0.3367 -0.1183
 1992TIP3    H1 5982   1.435   4.958   3.361  0.1044 -0.2055  0.1483
 1992TIP3    H2 5983   1.559   4.914   3.287 -0.4395 -0.6277 -0.5124
 1993TIP3   OH2 5984   5.039   1.062   3.167  0.5066 -0.6207 -0.2526
 1993TIP3    H1 5985   5.003   1.048   3.079  1.7402 -1.3033 -0.6690
 1993TIP3    H2 5986   5.134   1.064   3.154  0.6471  1.6146  0.7468
 1994TIP3   OH2 5987   0.059   4.692   2.981 -1.0014  0.5368 -0.2332
 1994TIP3    H1 5988   0.145   4.690   3.023 -0.2204 -1.1540 -1.7226
 1994TIP3    H2 5989   0.055   4.777   2.938  0.2502  0.3758 -0.7076
 1995TIP3   OH2 5990   3.154   3.470   0.956 -0.5184  0.2537 -0.1120
 1995TIP3    H1 5991   3.098   3.411   0.906 -0.0511 -0.5706  0.3228
 1995TIP3    H2 5992   3.214   3.508   0.891  0.7576 -1.5784 -0.0749
 1996TIP3   OH2 5993   5.530   0.721   3.070 -0.5867 -0.3262  0.0822
 1996TIP3    H1 5994   5.590   0.705   2.997 -0.3559 -1.5991  0.5306
 1996TIP3    H2 5995   5.451   0.756   3.029  0.1016  0.4779 -0.6042
 1997TIP3   OH2 5996   2.256   2.703   0.626 -0.0692 -0.5479  0.0055
 1997TIP3    H1 5997   2.298   2.678   0.543  0.0131  1.1572 -0.5042
 1997TIP3    H2 5998   2.177   2.649   0.630  0.7968 -1.8745 -0.3328
 1998TIP3   OH2 5999   0.701   0.066   4.583 -0.2494 -0.5277  0.2944
 1998TIP3    H1 6000   0.717   0.096   4.672  1.0509  0.0641 -0.1134
 1998TIP3    H2 6001   0.766  -0.004   4.569 -2.3663 -2.6986  0.7853
 1999TIP3   OH2 6002   0.143   1.742   2.626 -0.2041 -0.2031  0.3594
 1999TIP3    H1 6003   0.121   1.705   2.712 -1.2398 -2.3091 -0.7475
 1999TIP3    H2 6004   0.239   1.744   2.625 -0.1294 -1.9216  0.8890
 2000TIP3   OH2 6005   2.815   5.213   4.669  0.1767  0.2906 -0.4476
 2000TIP3    H1 6006   2.839   5.120   4.660 -0.5276  0.0563  0.0468
 2000TIP3    H2 6007   2.845   5.253   4.587  2.1985  0.0182  0.0989
 2001TIP3   OH2 6008   3.084   3.557   3.267 -0.2450  0.3092 -0.9580
 2001TIP3    H1 6009   3.122   3.550   3.355  0.7898 -0.2483 -1.4293
 2001TIP3    H2 6010   2.995   3.525   3.277  0.2323 -0.8836 -0.3341
 2002TIP3   OH2 6011   3.141   5.723   2.482  0.3401  0.0351  0.0057
 2002TIP3    H1 6012   3.217   5.670   2.507 -1.0177 -2.6441 -1.1032
 2002TIP3    H2 6013   3.089   5.728   2.562  0.7321  0.1464  0.2557
 2003TIP3   OH2 6014   6.283   2.863   1.542  0.5699  0.5864  0.2912
 2003TIP3    H1 6015   6.325   2.778   1.536 -0.1970  0.0873  1.5846
 2003TIP3    H2 6016   6.326   2.907   1.615 -0.1034  0.6626  0.6569
 2004TIP3   OH2 6017   4.299   4.992   0.630 -0.2009  0.7846  0.1593
 2004TIP3    H1 6018   4.234   5.054   0.663  0.4079  1.4631  0.1191
 2004TIP3    H2 6019   4.322   4.939   0.707 -0.0802  1.1973  0.4149
 2005TIP3   OH2 6020   5.256   5.337   3.964 -0.0832 -0.7259 -0.5288
 2005TIP3    H1 6021   5.343   5.333   4.004  0.0370  0.7931 -0.6038
 2005TIP3    H2 6022   5.274   5.339   3.870 -0.1055  0.8531 -0.5277
 2006TIP3   OH2 6023   2.556   5.879   3.581  0.4992  0.1479  0.1898
 2006TIP3    H1 6024   2.621   5.873   3.651  1.0834 -3.4515 -0.4194
 2006TIP3    H2 6025   2.608   5.878   3.500 -0.2092 -1.3014 -0.2868
 2007TIP3   OH2 6026   6.199   1.230   2.369  0.6942 -0.2540  0.5946
 2007TIP3    H1 6027   6.265   1.299   2.366 -1.8801  2.4044  0.9584
 2007TIP3    H2 6028   6.164   1.227   2.280  0.2318 -0.5046  0.7818
 2008TIP3   OH2 6029   4.932   1.599   1.632  0.0047 -0.0552 -0.2401
 2008TIP3    H1 6030   4.874   1.524   1.617 -0.6230  0.1285  1.0783
 2008TIP3    H2 6031   4.873   1.667   1.665  0.7336  0.6687 -0.4189
 2009TIP3   OH2 6032   2.098   5.473   4.064  0.3397 -0.0929 -0.2227
 2009TIP3    H1 6033   2.014   5.519   4.073 -0.5996 -1.9430  1.1024
 2009TIP3    H2 6034   2.164   5.542   4.076 -0.9639  1.2757 -0.5198
 2010TIP3   OH2 6035   1.278   1.141   3.262  0.2591  0.1975 -0.0309
 2010TIP3    H1 6036   1.324   1.221   3.289 -0.4814  0.0755  1.7184
 2010TIP3    H2 6037   1.191   1.148   3.302  0.2271 -1.5345  0.3038
 2011TIP3   OH2 6038   4.281   1.282   2.032 -0.1459  0.3706  0.4791
 2011TIP3    H1 6039   4.237   1.335   1.966 -1.5766  0.0096  1.1131
 2011TIP3    H2 6040   4.216   1.217   2.058  0.9836 -0.5930  0.9959
 2012TIP3   OH2 6041   2.265   1.179   1.872 -0.0194 -0.5089  0.1519
 2012TIP3    H1 6042   2.177   1.162   1.905  0.7368 -3.3276  1.0251
 2012TIP3    H2 6043   2.317   1.198   1.950  0.2300  0.9578 -0.3395
 2013TIP3   OH2 6044   5.193   3.296   5.089 -0.1640  0.3362 -0.1079
 2013TIP3    H1 6045   5.235   3.245   5.021 -0.6727 -1.2729  0.7447
 2013TIP3    H2 6046   5.265   3.341   5.134  0.5532 -1.3384  0.4887
 2014TIP3   OH2 6047   5.164   1.511   0.330  0.3544 -0.4357 -0.8978
 2014TIP3    H1 6048   5.136   1.558   0.409  1.7661  0.6658 -1.0176
 2014TIP3    H2 6049   5.197   1.427   0.363  0.7046 -0.0859 -0.3436
 2015TIP3   OH2 6050   0.606   2.557   1.875 -0.7450 -0.2553 -0.3221
 2015TIP3    H1 6051   0.674   2.490   1.874 -0.7760 -0.3181  0.4687
 2015TIP3    H2 6052   0.642   2.630   1.826  0.1884 -0.0200  0.6823
 2016TIP3   OH2 6053   3.179   0.405   4.889  0.0988  0.1895  0.1245
 2016TIP3    H1 6054   3.274   0.404   4.876  0.1061 -0.4533  0.1741
 2016TIP3    H2 6055   3.142   0.397   4.802  0.0986 -0.1558  0.1557
 2017TIP3   OH2 6056   1.639   2.769   0.700 -0.8187  0.2042 -0.2773
 2017TIP3    H1 6057   1.695   2.736   0.771 -0.0694  1.2102 -0.3757
 2017TIP3    H2 6058   1.650   2.864   0.704 -2.4688  0.4168 -0.3656
 2018TIP3   OH2 6059   1.718   2.427   0.965  0.1063 -0.0980  0.4171
 2018TIP3    H1 6060   1.671   2.366   1.022 -1.3126  0.7778  0.2124
 2018TIP3    H2 6061   1.754   2.493   1.024 -0.6386  0.3369  0.3937
 2019TIP3   OH2 6062   3.953   0.035   2.682 -0.0091 -0.2937  0.2616
 2019TIP3    H1 6063   3.945  -0.051   2.723  0.2913  0.6639  2.5375
 2019TIP3    H2 6064   3.871   0.080   2.704  0.8116  0.7881  1.2842
 2020TIP3   OH2 6065   1.851   5.241   4.081  0.1039 -0.3892 -0.3102
 2020TIP3    H1 6066   1.794   5.180   4.126 -0.3056  0.0171 -0.2725
 2020TIP3    H2 6067   1.940   5.208   4.098 -0.1488 -1.5114 -1.1024
 2021TIP3   OH2 6068   5.699   2.211   3.848  0.2680 -0.4046 -0.2990
 2021TIP3    H1 6069   5.765   2.226   3.780  0.5128  1.3968  0.2757
 2021TIP3    H2 6070   5.639   2.285   3.840 -0.9279 -1.3077  0.0703
 2022TIP3   OH2 6071   3.632   3.256   5.186 -0.8766 -0.1608 -0.2094
 2022TIP3    H1 6072   3.605   3.345   5.164 -1.0019  0.1778  1.2634
 2022TIP3    H2 6073   3.565   3.200   5.146 -0.7946  0.3891 -1.1456
 2023TIP3   OH2 6074   2.048   3.455   0.683 -0.6053 -0.4437 -0.9011
 2023TIP3    H1 6075   1.958   3.423   0.690 -0.7282 -0.0105 -0.4158
 2023TIP3    H2 6076   2.083   3.412   0.605 -0.2785 -2.8806  0.5038
 2024TIP3   OH2 6077   5.479   1.316   1.368  0.3566 -0.1217  0.0150
 2024TIP3    H1 6078   5.480   1.370   1.448 -1.3688  1.0668 -0.6939
 2024TIP3    H2 6079   5.570   1.317   1.337  0.4391  2.3276  0.1181
 2025TIP3   OH2 6080   2.782   3.336   1.741 -0.2812  0.0537 -0.4894
 2025TIP3    H1 6081   2.708   3.388   1.771 -0.3962  0.5731 -1.6635
 2025TIP3    H2 6082   2.824   3.307   1.822 -1.3632  0.3067  0.1887
 2026TIP3   OH2 6083   0.820   5.918   4.240 -0.1668 -0.7295  0.0516
 2026TIP3    H1 6084   0.801   5.841   4.186 -0.0139 -1.4169  0.9668
 2026TIP3    H2 6085   0.810   5.888   4.330  1.4777 -0.0949  0.4668
 2027TIP3   OH2 6086   0.201   2.758   2.492  0.1789  0.4699 -0.4997
 2027TIP3    H1 6087   0.236   2.674   2.523 -0.4986  0.4699  0.3017
 2027TIP3    H2 6088   0.196   2.812   2.570 -1.0635  0.6507 -0.6841
 2028TIP3   OH2 6089   0.688   3.160   4.576 -0.1704  0.0725  0.0192
 2028TIP3    H1 6090   0.667   3.182   4.485 -0.0172  0.6305  0.1125
 2028TIP3    H2 6091   0.783   3.160   4.579 -0.1741  0.4647  0.2688
 2029TIP3   OH2 6092   0.724   4.260   2.866  0.3233 -0.6211 -0.0022
 2029TIP3    H1 6093   0.725   4.347   2.904  0.2095 -0.9141  0.6731
 2029TIP3    H2 6094   0.808   4.221   2.891 -0.0598 -1.0802  0.5700
 2030TIP3   OH2 6095   6.296   4.953   3.176  0.2210 -0.5890 -0.0864
 2030TIP3    H1 6096   6.364   4.968   3.241 -0.0936  0.0991  0.0980
 2030TIP3    H2 6097   6.338   4.971   3.092  0.0260  0.8189  0.0872
 2031TIP3   OH2 6098   0.951   2.284   4.622 -0.2033 -0.5733 -0.0169
 2031TIP3    H1 6099   0.890   2.352   4.593 -0.5795 -0.7924  0.2474
 2031TIP3    H2 6100   0.972   2.234   4.544  0.9508  0.5181 -0.4437
 2032TIP3   OH2 6101   2.477   5.407   1.895  0.0231  0.2922 -0.0094
 2032TIP3    H1 6102   2.390   5.399   1.934  0.4715  0.9851  1.1916
 2032TIP3    H2 6103   2.462   5.396   1.801 -0.8291 -3.7660  0.3894
 2033TIP3   OH2 6104   5.301   0.919   5.099 -0.1901 -0.3731  0.5428
 2033TIP3    H1 6105   5.242   0.930   5.025 -0.2258 -0.1325  0.6062
 2033TIP3    H2 6106   5.248   0.872   5.164 -0.0719 -0.8305  0.3147
 2034TIP3   OH2 6107   2.589   0.746   2.243  0.7246 -0.1729 -0.3711
 2034TIP3    H1 6108   2.544   0.707   2.168 -0.5888 -0.1490  0.3738
 2034TIP3    H2 6109   2.644   0.814   2.205  0.4178 -0.4563 -1.3545
 2035TIP3   OH2 6110   4.153   3.383   1.067  0.0154  0.2460 -0.3248
 2035TIP3    H1 6111   4.169   3.345   1.154  1.3016  1.3511 -0.0478
 2035TIP3    H2 6112   4.165   3.477   1.080  3.7088  0.2203 -2.3724
 2036TIP3   OH2 6113   1.862   2.872   4.131 -0.4170 -0.0351 -0.4286
 2036TIP3    H1 6114   1.815   2.801   4.174 -0.1941 -0.6095 -1.1022
 2036TIP3    H2 6115   1.799   2.943   4.124 -0.8420 -0.4032 -0.3394
 2037TIP3   OH2 6116   2.540   3.341   2.523 -0.1258  0.3748  0.5983
 2037TIP3    H1 6117   2.463   3.288   2.500 -0.3827  0.2096  1.7622
 2037TIP3    H2 6118   2.589   3.286   2.584  0.7508  0.6178  0.1248
 2038TIP3   OH2 6119   0.425   3.255   4.193 -0.0692  0.2382 -0.1612
 2038TIP3    H1 6120   0.455   3.172   4.229  1.5532  2.0423  3.1265
 2038TIP3    H2 6121   0.494   3.282   4.133  0.1127 -0.1112 -0.1082
 2039TIP3   OH2 6122   4.542   2.512   3.774  0.6533 -0.1461 -0.2755
 2039TIP3    H1 6123   4.485   2.581   3.810 -2.7448 -1.7667 -2.0983
 2039TIP3    H2 6124   4.577   2.550   3.693  1.4900  0.5569  0.4027
 2040TIP3   OH2 6125   3.188   3.997   1.258  0.2267 -0.8799 -0.5071
 2040TIP3    H1 6126   3.125   4.056   1.217 -1.8167 -1.2927  1.8169
 2040TIP3    H2 6127   3.166   3.911   1.222 -1.5279 -1.2341  1.2536
 2041TIP3   OH2 6128   2.739   4.576   1.001 -0.1517 -0.5238  0.2173
 2041TIP3    H1 6129   2.698   4.525   0.932  0.1195 -0.6927  0.1797
 2041TIP3    H2 6130   2.833   4.557   0.993 -0.0037  0.2836 -0.0508
 2042TIP3   OH2 6131   2.332   0.996   2.106 -0.0175 -0.2977 -0.3704
 2042TIP3    H1 6132   2.383   0.928   2.062  0.1847 -0.5460  0.2349
 2042TIP3    H2 6133   2.378   1.011   2.188 -1.8893 -1.8705  1.0963
 2043TIP3   OH2 6134   0.339   5.784   1.164 -0.6687 -0.6645 -0.3727
 2043TIP3    H1 6135   0.372   5.861   1.118 -2.7000 -0.6274 -1.8888
 2043TIP3    H2 6136   0.418   5.740   1.196  0.6031  1.4387 -0.3955
 2044TIP3   OH2 6137   4.149   5.561   1.784 -0.1229  0.4933  0.5300
 2044TIP3    H1 6138   4.081   5.493   1.786 -0.7348  1.1009  1.6309
 2044TIP3    H2 6139   4.102   5.641   1.762  0.7073  0.4748 -1.4701
 2045TIP3   OH2 6140   5.672   1.828   2.916  0.1371  0.1942  0.2779
 2045TIP3    H1 6141   5.639   1.817   2.827 -2.1491  1.7033  0.8630
 2045TIP3    H2 6142   5.693   1.922   2.923  3.8894 -0.4564  0.2738
 2046TIP3   OH2 6143   2.497   2.150   2.937 -0.5362 -0.0540 -0.3730
 2046TIP3    H1 6144   2.554   2.123   3.009 -1.1096 -0.5862 -0.1166
 2046TIP3    H2 6145   2.413   2.110   2.956 -0.3999 -1.1990 -1.9336
 2047TIP3   OH2 6146   3.813   1.379   3.603 -0.2690  0.1575 -0.1617
 2047TIP3    H1 6147   3.813   1.472   3.628  0.2522  0.4076 -1.0724
 2047TIP3    H2 6148   3.896   1.345   3.636  0.1183  0.3282 -0.9423
 2048TIP3   OH2 6149   2.389   1.037   1.646 -0.4423 -0.1325  0.0872
 2048TIP3    H1 6150   2.313   0.991   1.681 -1.7419  1.5985 -0.3176
 2048TIP3    H2 6151   2.389   1.121   1.692  1.5392 -0.2666  0.4264
 2049TIP3   OH2 6152   2.436   3.233   4.704  0.1946  0.4728  0.3604
 2049TIP3    H1 6153   2.392   3.150   4.689  1.9374 -0.2898 -0.9034
 2049TIP3    H2 6154   2.369   3.299   4.685 -0.5027 -0.6291 -1.2980
 2050TIP3   OH2 6155   4.593   0.503   1.896  0.8665 -0.0613 -0.7075
 2050TIP3    H1 6156   4.588   0.426   1.954  0.5443 -0.1305 -0.8288
 2050TIP3    H2 6157   4.687   0.518   1.885  1.0425  1.4726  1.8771
 2051TIP3   OH2 6158   2.684   5.371   3.038 -0.0025 -0.3757 -0.1700
 2051TIP3    H1 6159   2.774   5.366   3.071 -0.3466 -1.1968  0.6518
 2051TIP3    H2 6160   2.629   5.349   3.112 -0.9363  0.7648 -0.4867
 2052TIP3   OH2 6161   0.363   4.131   0.934  0.5542  0.2216 -0.3454
 2052TIP3    H1 6162   0.440   4.117   0.878  1.0648  0.6678  0.2242
 2052TIP3    H2 6163   0.341   4.223   0.922  0.1205  0.0970 -0.4933
 2053TIP3   OH2 6164   5.218   4.990   3.360 -0.4233  0.3827  0.1954
 2053TIP3    H1 6165   5.227   4.943   3.277 -0.6852  0.6384  0.0187
 2053TIP3    H2 6166   5.170   5.069   3.337  0.7976  1.1903  0.3330
 2054TIP3   OH2 6167   3.792   5.892   1.568 -0.0780  0.1415 -0.1360
 2054TIP3    H1 6168   3.838   5.941   1.500  1.2102 -1.0740 -0.1912
 2054TIP3    H2 6169   3.702   5.887   1.537  0.0965  1.1389 -0.8583
 2055TIP3   OH2 6170   5.682   4.469   0.031  0.5920  0.2253 -0.2130
 2055TIP3    H1 6171   5.605   4.470   0.087  0.1366  2.5152 -0.7514
 2055TIP3    H2 6172   5.710   4.378   0.029 -1.1618 -0.3988  1.2618
 2056TIP3   OH2 6173   4.192   5.221   1.956  0.0429 -0.2260 -0.7101
 2056TIP3    H1 6174   4.162   5.280   2.024 -0.6555  0.2593 -1.4143
 2056TIP3    H2 6175   4.275   5.258   1.927 -0.6448  0.7550 -1.5202
 2057TIP3   OH2 6176   2.650   1.337   1.008  0.3841 -0.3823 -0.0737
 2057TIP3    H1 6177   2.703   1.297   0.939 -0.4906 -0.1961 -0.8708
 2057TIP3    H2 6178   2.714   1.369   1.071  1.2956  0.7253 -1.4911
 2058TIP3   OH2 6179   1.230   1.599   0.825 -0.2350  0.0866 -0.2166
 2058TIP3    H1 6180   1.178   1.519   0.816  0.1499 -0.2572  0.5037
 2058TIP3    H2 6181   1.187   1.646   0.896  0.4623 -0.2289  0.4272
 2059TIP3   OH2 6182   4.674   5.625   0.093  0.4440 -0.1312 -0.1427
 2059TIP3    H1 6183   4.641   5.537   0.112  2.2790 -0.8157  0.0121
 2059TIP3    H2 6184   4.769   5.617   0.096  0.7138  1.3863 -2.3120
 2060TIP3   OH2 6185   5.814   2.754   1.098  0.3950  0.1113  0.5955
 2060TIP3    H1 6186   5.808   2.838   1.053  0.7000  1.5709  3.0856
 2060TIP3    H2 6187   5.796   2.775   1.190 -2.8128 -3.0313  0.9363
 2061TIP3   OH2 6188   5.159   4.704   1.305  0.3865  0.9905  0.5741
 2061TIP3    H1 6189   5.071   4.728   1.335  0.0443 -0.3915  0.7401
 2061TIP3    H2 6190   5.211   4.701   1.385  0.6635  2.0089  0.4548
 2062TIP3   OH2 6191   3.585   5.316   0.621 -0.2019 -0.2943 -0.4046
 2062TIP3    H1 6192   3.645   5.289   0.691 -0.8549 -0.1750  0.2084
 2062TIP3    H2 6193   3.603   5.255   0.550  1.2054  0.2321 -0.5306
 2063TIP3   OH2 6194   2.067   1.869   4.297 -0.6038 -0.1568 -0.1491
 2063TIP3    H1 6195   2.045   1.800   4.359 -1.6499 -0.1948 -0.5407
 2063TIP3    H2 6196   2.041   1.833   4.211 -1.2543  0.7400 -0.3444
 2064TIP3   OH2 6197   5.024   5.538   0.348  0.0879  0.2199 -0.1742
 2064TIP3    H1 6198   5.045   5.511   0.258  0.0284 -0.6630  0.0693
 2064TIP3    H2 6199   4.936   5.505   0.363 -0.7207  2.1131 -0.4687
 2065TIP3   OH2 6200   4.323   0.291   1.714  0.0601  0.1394 -0.2923
 2065TIP3    H1 6201   4.279   0.333   1.789 -0.5090 -0.5520 -0.2272
 2065TIP3    H2 6202   4.282   0.205   1.708  0.2984  0.0858 -1.2373
 2066TIP3   OH2 6203   6.094   4.086   1.654 -0.2337 -0.7027 -0.0208
 2066TIP3    H1 6204   6.030   4.039   1.707  0.0860 -0.3955  0.6447
 2066TIP3    H2 6205   6.179   4.061   1.690 -0.0431  0.0051  0.0353
 2067TIP3   OH2 6206   0.405   5.609   0.087 -0.7004 -0.1576  0.4405
 2067TIP3    H1 6207   0.486   5.597   0.037 -1.1142  1.3279 -0.6786
 2067TIP3    H2 6208   0.358   5.526   0.077 -0.3607 -0.2221 -0.9241
 2068TIP3   OH2 6209   2.087   2.073   1.704  0.6452  0.0040  0.0334
 2068TIP3    H1 6210   2.001   2.086   1.664  0.3487 -0.9417  0.3258
 2068TIP3    H2 6211   2.107   1.981   1.686  1.5882  0.2147 -0.0125
 2069TIP3   OH2 6212   0.269   5.536   2.549  0.0118 -0.1262 -0.3877
 2069TIP3    H1 6213   0.271   5.614   2.605  1.1426 -0.5080  0.1511
 2069TIP3    H2 6214   0.308   5.564   2.467  5.4137 -1.1705  1.4043
 2070TIP3   OH2 6215   3.997   3.146   2.579  0.0711 -0.6664  0.2114
 2070TIP3    H1 6216   3.913   3.112   2.549 -0.0519 -0.9652  0.8803
 2070TIP3    H2 6217   4.052   3.068   2.588  0.3624 -0.4911 -0.0318
 2071TIP3   OH2 6218   1.015   2.267   0.253  0.1768 -1.2079 -0.2924
 2071TIP3    H1 6219   0.997   2.202   0.321  0.8348 -1.5835 -0.4749
 2071TIP3    H2 6220   0.950   2.249   0.185  1.1176 -2.4914 -0.9008
 2072TIP3   OH2 6221   3.238   5.552   2.966 -0.1991  0.2500 -0.1337
 2072TIP3    H1 6222   3.325   5.514   2.959 -0.5067 -0.3178 -0.9954
 2072TIP3    H2 6223   3.228   5.573   3.059  0.6306 -0.2004  0.0601
 2073TIP3   OH2 6224   4.625   5.615   0.516 -0.0753  0.4406  0.3831
 2073TIP3    H1 6225   4.604   5.701   0.480 -1.1711  0.6919  1.5936
 2073TIP3    H2 6226   4.693   5.632   0.581  0.7759  0.1799 -0.4122
 2074TIP3   OH2 6227   4.151   5.559   1.208  0.0319  0.2433 -0.0787
 2074TIP3    H1 6228   4.218   5.618   1.243 -1.0712  1.4031  0.1633
 2074TIP3    H2 6229   4.068   5.593   1.244 -0.6679 -1.3421 -0.0913
 2075TIP3   OH2 6230   2.579   1.254   0.548 -0.2197 -0.4188  0.0378
 2075TIP3    H1 6231   2.555   1.307   0.472  0.2704  0.2457  0.3391
 2075TIP3    H2 6232   2.496   1.232   0.590 -0.4092  0.3044  0.0420
 2076TIP3   OH2 6233   1.546   3.470   2.314  0.2113 -0.1433  0.0858
 2076TIP3    H1 6234   1.639   3.456   2.327 -0.0979 -0.2230  2.6375
 2076TIP3    H2 6235   1.516   3.393   2.266  1.1454 -0.9718  0.8179
 2077TIP3   OH2 6236   3.620   0.682   4.637  0.0435 -0.0169  0.0952
 2077TIP3    H1 6237   3.658   0.746   4.697  1.5036 -1.1962  0.5034
 2077TIP3    H2 6238   3.659   0.702   4.552 -1.5165  1.2367 -0.3686
 2078TIP3   OH2 6239   3.784   2.269   3.306  0.2595 -0.2824  0.3693
 2078TIP3    H1 6240   3.879   2.260   3.315  0.3115 -0.6999 -0.4783
 2078TIP3    H2 6241   3.757   2.320   3.382  1.3397  1.0159 -0.0847
 2079TIP3   OH2 6242   1.901   4.430   1.242  0.1105  0.0676  0.3232
 2079TIP3    H1 6243   1.932   4.512   1.280 -0.2543  0.7791 -0.8704
 2079TIP3    H2 6244   1.959   4.415   1.167  0.8191 -1.3099  1.1117
 2080TIP3   OH2 6245   2.792   2.577   3.068  0.1581  0.1232  0.3398
 2080TIP3    H1 6246   2.785   2.628   3.149  2.2114  1.2596 -0.1259
 2080TIP3    H2 6247   2.784   2.486   3.096 -0.8008  0.5548  1.5744
 2081TIP3   OH2 6248   4.890   2.814   1.030 -0.4181  0.3563 -0.0030
 2081TIP3    H1 6249   4.832   2.810   1.106 -1.2248  0.7974 -0.5777
 2081TIP3    H2 6250   4.873   2.733   0.982 -0.3023  0.3231  0.0124
 2082TIP3   OH2 6251   4.188   0.282   4.140 -0.3567 -0.5898 -0.1879
 2082TIP3    H1 6252   4.191   0.212   4.076  0.7371  0.0703 -0.8916
 2082TIP3    H2 6253   4.253   0.258   4.206 -1.4015 -1.2132  0.6411
 2083TIP3   OH2 6254   4.993   0.917   1.024  0.4138  0.0916  0.2088
 2083TIP3    H1 6255   5.087   0.921   1.043 -0.1029  0.7355  3.0212
 2083TIP3    H2 6256   4.976   0.825   1.004  1.6664  0.0273 -0.7077
 2084TIP3   OH2 6257   2.851   4.924   2.123 -0.0825 -0.3502 -0.4008
 2084TIP3    H1 6258   2.866   4.830   2.107  2.3142 -0.3598  1.3360
 2084TIP3    H2 6259   2.919   4.968   2.073 -0.6734  0.4363 -0.5367
 2085TIP3   OH2 6260   4.369   3.569   2.346  0.0476  0.0354  0.1532
 2085TIP3    H1 6261   4.368   3.585   2.252 -2.2744  0.2316  0.1693
 2085TIP3    H2 6262   4.334   3.480   2.356  0.4675 -0.0633  0.8247
 2086TIP3   OH2 6263   0.516   4.827   1.329 -0.1884 -0.7093 -0.0587
 2086TIP3    H1 6264   0.480   4.916   1.324 -0.8411 -0.9490  0.2611
 2086TIP3    H2 6265   0.553   4.821   1.417  0.8032 -0.4026 -0.4516
 2087TIP3   OH2 6266   4.437   4.763   1.471 -0.5019  0.7878 -0.1523
 2087TIP3    H1 6267   4.400   4.850   1.485  0.7921  1.1021  1.7696
 2087TIP3    H2 6268   4.389   4.707   1.532  1.2152  0.9690  1.4685
 2088TIP3   OH2 6269   0.898   1.789   5.105 -0.1031  0.1529 -0.1406
 2088TIP3    H1 6270   0.910   1.881   5.079  0.9069 -0.2840 -1.3250
 2088TIP3    H2 6271   0.803   1.779   5.110 -0.2704  2.0401  3.0944
 2089TIP3   OH2 6272   5.887   2.210   3.039  0.0731  0.2061 -0.1274
 2089TIP3    H1 6273   5.886   2.305   3.027 -0.8459  0.1892 -0.2299
 2089TIP3    H2 6274   5.799   2.181   3.013  0.4088 -0.6966 -0.2965
 2090TIP3   OH2 6275   3.687   2.912   3.662 -0.1505 -0.1396 -0.1038
 2090TIP3    H1 6276   3.668   2.997   3.623  1.3995 -0.0752 -0.7699
 2090TIP3    H2 6277   3.723   2.933   3.748 -0.2099 -0.1379 -0.0794
 2091TIP3   OH2 6278   2.462   5.695   0.101 -0.3260  0.4959 -0.0881
 2091TIP3    H1 6279   2.397   5.654   0.159  0.4603  0.9035  1.1151
 2091TIP3    H2 6280   2.470   5.634   0.028 -2.3973  0.6601 -0.5174
 2092TIP3   OH2 6281   0.623   5.299   1.656  0.4940 -0.0900  0.0133
 2092TIP3    H1 6282   0.674   5.379   1.668  0.9966 -0.4550  0.3866
 2092TIP3    H2 6283   0.619   5.287   1.561  0.5839  0.2730 -0.0354
 2093TIP3   OH2 6284   0.502   2.040   1.257  0.5211  0.2942  0.1738
 2093TIP3    H1 6285   0.586   2.007   1.228  1.0978  1.4209  0.5085
 2093TIP3    H2 6286   0.521   2.125   1.296 -0.9486  1.2262 -1.0111
 2094TIP3   OH2 6287   3.998   3.259   1.907  0.2586 -0.0234  0.4142
 2094TIP3    H1 6288   3.996   3.167   1.934  0.3049 -0.2119 -0.2109
 2094TIP3    H2 6289   4.086   3.288   1.929  0.4593 -0.3175  0.0069
 2095TIP3   OH2 6290   6.243   3.470   1.074 -0.0900  0.1651  0.1721
 2095TIP3    H1 6291   6.202   3.404   1.018  1.8770 -0.2316 -0.8959
 2095TIP3    H2 6292   6.328   3.487   1.033  0.8742  0.8609  2.3208
 2096TIP3   OH2 6293   4.612   3.519   5.001  0.6140  0.6550  0.1755
 2096TIP3    H1 6294   4.611   3.534   5.095  0.6521 -1.2714  0.5133
 2096TIP3    H2 6295   4.637   3.427   4.991  0.8141  0.8716 -1.7264
 2097TIP3   OH2 6296   3.479   4.157   4.006  0.2626 -0.5608 -0.2505
 2097TIP3    H1 6297   3.555   4.189   4.055  0.6600 -2.2220  0.2964
 2097TIP3    H2 6298   3.517   4.107   3.934 -0.2614 -2.3243  0.6454
 2098TIP3   OH2 6299   3.185   0.544   2.960  0.1164 -0.0711  0.3604
 2098TIP3    H1 6300   3.208   0.592   2.880  0.0959  1.7940  1.4093
 2098TIP3    H2 6301   3.244   0.580   3.027 -1.7445  0.4493  1.7878
 2099TIP3   OH2 6302   4.936   2.694   4.343 -0.4400 -0.2828 -0.2113
 2099TIP3    H1 6303   4.861   2.650   4.381 -0.3360 -0.0244  0.3072
 2099TIP3    H2 6304   4.902   2.779   4.315 -0.2810 -0.0372  0.3167
 2100TIP3   OH2 6305   1.692   1.296   1.620 -0.0979 -0.1401  0.3734
 2100TIP3    H1 6306   1.626   1.251   1.673 -0.5457 -0.0093 -0.0596
 2100TIP3    H2 6307   1.694   1.247   1.538 -1.3534  1.2190 -0.5143
 2101TIP3   OH2 6308   4.127   4.751   4.032 -0.5149 -0.3159  0.0806
 2101TIP3    H1 6309   4.066   4.796   4.091  1.1669 -0.0118  1.6799
 2101TIP3    H2 6310   4.094   4.661   4.027 -0.9115 -0.2481  1.2023
 2102TIP3   OH2 6311   1.001   5.832   0.955 -0.0376  0.3786 -0.5614
 2102TIP3    H1 6312   1.093   5.810   0.969 -0.5567 -1.5989  0.0719
 2102TIP3    H2 6313   0.970   5.768   0.891 -1.4160 -0.1860  0.6167
 2103TIP3   OH2 6314   5.184   1.633   2.288  0.2534  0.0771  0.4879
 2103TIP3    H1 6315   5.225   1.571   2.349  1.5617 -1.6158 -1.8944
 2103TIP3    H2 6316   5.095   1.601   2.278  0.9220 -1.5783 -0.7343
 2104TIP3   OH2 6317   4.608   1.445   2.465 -0.4490  0.4953  0.2654
 2104TIP3    H1 6318   4.569   1.406   2.542  0.9371  1.6524  1.6238
 2104TIP3    H2 6319   4.550   1.421   2.393 -0.9828 -1.8573  1.4052
 2105TIP3   OH2 6320   1.963   0.757   1.794  0.1140 -0.6682  0.5339
 2105TIP3    H1 6321   1.922   0.797   1.871 -0.2274 -1.7737  0.9437
 2105TIP3    H2 6322   1.908   0.682   1.774 -1.0658  0.7390 -2.0891
 2106TIP3   OH2 6323   3.246   1.589   3.948 -0.7456  0.6207  0.2093
 2106TIP3    H1 6324   3.288   1.534   4.014  0.1003  0.0758 -0.7466
 2106TIP3    H2 6325   3.238   1.675   3.989  0.3227  0.4472  0.8022
 2107TIP3   OH2 6326   2.911   4.179   0.240 -0.4842 -0.2192 -0.0166
 2107TIP3    H1 6327   2.912   4.275   0.240  1.1444 -0.1807  1.3852
 2107TIP3    H2 6328   2.944   4.155   0.153 -1.5874  0.4645 -0.6418
 2108TIP3   OH2 6329   2.427   2.973   0.064  0.2532  0.2122  0.0897
 2108TIP3    H1 6330   2.511   3.017   0.074  0.5803 -0.4796  0.4693
 2108TIP3    H2 6331   2.411   2.932   0.149 -1.0672  1.3443  0.4051
 2109TIP3   OH2 6332   0.458   3.989   0.588 -0.4017  0.6778 -0.2315
 2109TIP3    H1 6333   0.435   4.079   0.614 -0.6637  0.1293  1.5748
 2109TIP3    H2 6334   0.381   3.937   0.612 -0.0843 -0.1095 -0.8707
 2110TIP3   OH2 6335   6.248   3.641   4.138  0.0847 -0.6735  0.6481
 2110TIP3    H1 6336   6.284   3.660   4.225  1.2878 -0.7041  0.1625
 2110TIP3    H2 6337   6.153   3.652   4.149  0.4202  2.1712  1.2488
 2111TIP3   OH2 6338   2.196   5.682   2.176  0.0467  0.6583 -0.2524
 2111TIP3    H1 6339   2.174   5.774   2.193 -0.1627  0.3831  1.0339
 2111TIP3    H2 6340   2.158   5.664   2.089 -0.3824  1.6312 -0.2751
 2112TIP3   OH2 6341   6.131   2.844   0.877  0.0500 -0.0151 -0.3114
 2112TIP3    H1 6342   6.181   2.910   0.924  0.6726 -0.4528 -0.3559
 2112TIP3    H2 6343   6.152   2.858   0.785  0.0218 -0.1442 -0.3376
 2113TIP3   OH2 6344   4.235   1.272   3.284  0.5161  0.5027 -0.0698
 2113TIP3    H1 6345   4.257   1.335   3.215 -0.0858  0.1794 -0.5703
 2113TIP3    H2 6346   4.202   1.195   3.237 -0.0146  0.3200  0.5834
 2114TIP3   OH2 6347   5.333   0.584   0.505 -0.2844  0.3685 -0.6315
 2114TIP3    H1 6348   5.348   0.559   0.413  1.1843  0.7726 -0.5293
 2114TIP3    H2 6349   5.274   0.517   0.539  2.3042 -2.1874 -0.7736
 2115TIP3   OH2 6350   5.219   2.196   4.995  0.1186 -0.0423  0.4994
 2115TIP3    H1 6351   5.132   2.223   4.967 -0.0678 -1.5480 -0.5109
 2115TIP3    H2 6352   5.217   2.203   5.090 -2.2944 -3.0937  0.8327
 2116TIP3   OH2 6353   2.400   5.506   3.977 -1.0252  0.4491 -0.2001
 2116TIP3    H1 6354   2.343   5.550   3.914 -1.6579 -0.1771 -0.0853
 2116TIP3    H2 6355   2.349   5.431   4.006  0.9026 -1.8017 -2.1749
 2117TIP3   OH2 6356   2.617   3.101   3.236  0.0897 -0.5280  0.1347
 2117TIP3    H1 6357   2.613   3.166   3.166 -0.0804 -0.9391 -0.2429
 2117TIP3    H2 6358   2.581   3.146   3.313 -0.2929 -0.2646 -0.1923
 2118TIP3   OH2 6359   0.685   4.647   2.640 -0.5105 -0.2009  0.1284
 2118TIP3    H1 6360   0.639   4.563   2.628  0.9114 -0.8651 -0.9545
 2118TIP3    H2 6361   0.671   4.693   2.557  1.8925 -1.0144 -0.8033
 2119TIP3   OH2 6362   1.962   1.076   0.154 -0.4439  0.2512 -0.1132
 2119TIP3    H1 6363   2.022   1.107   0.221  0.8947 -1.1073 -0.6300
 2119TIP3    H2 6364   2.006   1.095   0.071 -1.0124 -0.1978 -0.5255
 2120TIP3   OH2 6365   3.174   0.891   4.398 -0.8570 -0.7521 -0.1131
 2120TIP3    H1 6366   3.206   0.891   4.308 -1.2934 -0.2621 -0.2715
 2120TIP3    H2 6367   3.246   0.928   4.449 -0.3719 -1.5992 -0.1677
 2121TIP3   OH2 6368   2.383   2.352   2.423  0.2705 -0.3484  0.6798
 2121TIP3    H1 6369   2.375   2.421   2.489  0.3304  0.2809  0.0453
 2121TIP3    H2 6370   2.457   2.299   2.454  0.7781  0.3714  0.7420
 2122TIP3   OH2 6371   1.706   2.401   4.861 -0.0714 -0.0472  0.1796
 2122TIP3    H1 6372   1.665   2.316   4.844  0.3491 -0.0511 -0.9034
 2122TIP3    H2 6373   1.638   2.452   4.905 -0.7175 -0.5686 -0.1906
 2123TIP3   OH2 6374   5.056   2.137   0.755 -0.3047  0.5572 -0.0225
 2123TIP3    H1 6375   5.148   2.152   0.732 -0.6559 -0.2357 -2.1103
 2123TIP3    H2 6376   5.059   2.066   0.820  0.5441  0.4058 -0.2109
 2124TIP3   OH2 6377   0.218   5.561   0.665  0.0653 -0.0106 -0.1127
 2124TIP3    H1 6378   0.186   5.503   0.596  0.4057  1.1280 -1.2781
 2124TIP3    H2 6379   0.147   5.624   0.677 -0.1175 -0.3869  0.8112
 2125TIP3   OH2 6380   2.193   4.895   3.093 -1.0252  0.1390  0.1037
 2125TIP3    H1 6381   2.273   4.929   3.053 -1.5867  0.5007 -0.7379
 2125TIP3    H2 6382   2.141   4.973   3.111 -0.4920  0.0554  2.2452
 2126TIP3   OH2 6383   4.850   1.349   1.798 -0.0268 -0.1750  0.0598
 2126TIP3    H1 6384   4.852   1.265   1.843  2.8173  0.1224  0.6618
 2126TIP3    H2 6385   4.822   1.328   1.709  0.3587 -1.7139  0.2749
 2127TIP3   OH2 6386   5.802   0.398   3.389  0.6249 -0.2445  0.8258
 2127TIP3    H1 6387   5.865   0.356   3.331  0.3343  0.4836 -0.0623
 2127TIP3    H2 6388   5.719   0.356   3.369  0.6329 -0.4325  1.1821
 2128TIP3   OH2 6389   1.775   1.754   0.224 -0.1300  0.1740 -0.0664
 2128TIP3    H1 6390   1.765   1.662   0.250  0.2239  0.0169 -0.4847
 2128TIP3    H2 6391   1.859   1.780   0.262 -0.1799  0.2971 -0.0404
 2129TIP3   OH2 6392   0.859   5.096   3.782 -0.1855  0.3309  0.3894
 2129TIP3    H1 6393   0.949   5.101   3.814 -0.1969 -1.9158  0.9243
 2129TIP3    H2 6394   0.806   5.083   3.860 -0.3606 -3.7952 -0.2200
 2130TIP3   OH2 6395   0.416   4.368   4.471  0.4432  0.2459  0.1412
 2130TIP3    H1 6396   0.497   4.367   4.420  0.0268  2.6622 -0.7217
 2130TIP3    H2 6397   0.430   4.304   4.540  2.0688 -1.2392 -1.4639
 2131TIP3   OH2 6398   0.945   4.433   2.087 -0.0445  0.1325  0.5837
 2131TIP3    H1 6399   1.000   4.494   2.136 -1.3594  1.2228  0.7616
 2131TIP3    H2 6400   0.978   4.438   1.997  2.1648 -1.6264  1.1950
 2132TIP3   OH2 6401   3.496   4.833   0.419 -0.0579 -0.4365 -0.1685
 2132TIP3    H1 6402   3.446   4.821   0.500 -1.8326 -0.8340 -1.2688
 2132TIP3    H2 6403   3.532   4.746   0.400 -1.3198 -0.8242 -0.8444
 2133TIP3   OH2 6404   4.418   3.953   4.940 -0.4146  0.0145  0.1807
 2133TIP3    H1 6405   4.408   3.923   4.850 -3.4604 -1.5854  0.9081
 2133TIP3    H2 6406   4.499   3.911   4.971 -0.5817 -1.3431 -1.1282
 2134TIP3   OH2 6407   1.549   3.411   2.852 -0.3139 -0.9369 -0.7899
 2134TIP3    H1 6408   1.527   3.468   2.926  2.1253 -0.3204 -0.4456
 2134TIP3    H2 6409   1.480   3.427   2.788 -1.0370  0.5406  0.2971
 2135TIP3   OH2 6410   4.449   5.708   4.446  0.0276 -0.1276  0.2329
 2135TIP3    H1 6411   4.535   5.744   4.471  0.1892 -2.0279  2.7494
 2135TIP3    H2 6412   4.386   5.762   4.493 -0.1056  0.3809 -0.5074
 2136TIP3   OH2 6413   5.853   5.131   0.556  0.7735 -0.0015  0.2876
 2136TIP3    H1 6414   5.909   5.054   0.553  0.9179  0.1375 -0.7333
 2136TIP3    H2 6415   5.788   5.116   0.488 -0.6933 -0.3359  1.7028
 2137TIP3   OH2 6416   0.034   2.723   4.629  0.2018 -0.1015 -0.2054
 2137TIP3    H1 6417   0.102   2.681   4.681 -0.6922 -1.4531 -0.0719
 2137TIP3    H2 6418  -0.010   2.782   4.690 -0.7117 -1.5252  0.5807
 2138TIP3   OH2 6419   5.511   5.197   3.989  0.1916  0.0129 -0.6076
 2138TIP3    H1 6420   5.461   5.181   3.909  3.2003 -0.1996 -2.5973
 2138TIP3    H2 6421   5.602   5.180   3.965  2.1154  5.4897  1.1052
 2139TIP3   OH2 6422   5.607   4.999   4.741  0.1591  0.0358 -0.3946
 2139TIP3    H1 6423   5.654   5.032   4.818  1.2980 -0.3102 -0.9184
 2139TIP3    H2 6424   5.676   4.980   4.678 -0.7189 -0.3139 -1.2643
 2140TIP3   OH2 6425   6.027   5.851   1.262  0.2552 -0.0635 -0.3748
 2140TIP3    H1 6426   6.074   5.929   1.291 -1.9606  0.6920  1.5688
 2140TIP3    H2 6427   5.986   5.817   1.342 -0.8137 -1.8212 -1.5893
 2141TIP3   OH2 6428   4.762   2.479   3.404 -0.0454  0.5466  0.5817
 2141TIP3    H1 6429   4.806   2.417   3.462  1.9246  1.9652  0.6969
 2141TIP3    H2 6430   4.758   2.434   3.320 -1.3251 -0.8410  1.3401
 2142TIP3   OH2 6431   3.664   1.481   2.724 -0.1730 -0.5551  0.0204
 2142TIP3    H1 6432   3.639   1.466   2.815  1.5398 -0.0618  0.6194
 2142TIP3    H2 6433   3.710   1.402   2.698  2.6891  0.6996  0.8907
 2143TIP3   OH2 6434   5.159   1.292   1.099  1.1026 -0.0899 -0.0304
 2143TIP3    H1 6435   5.126   1.249   1.020  1.4079  1.7265 -1.2215
 2143TIP3    H2 6436   5.102   1.261   1.169  1.1810 -2.2084 -0.8389
 2144TIP3   OH2 6437   0.569   2.638   4.120 -0.0306 -0.2941 -0.2291
 2144TIP3    H1 6438   0.577   2.585   4.041  2.4993  1.7797 -1.5152
 2144TIP3    H2 6439   0.501   2.703   4.098 -0.3954 -0.6337 -0.1133
 2145TIP3   OH2 6440   4.446   5.648   2.396  0.0294  0.2876 -0.4553
 2145TIP3    H1 6441   4.511   5.627   2.463  0.7884  1.3319 -0.8491
 2145TIP3    H2 6442   4.487   5.622   2.314 -1.0449 -1.3395 -0.5399
 2146TIP3   OH2 6443   0.744   2.046   3.035 -0.3719 -0.4049  0.2490
 2146TIP3    H1 6444   0.751   1.981   3.105 -1.0916 -0.7326  0.0252
 2146TIP3    H2 6445   0.675   2.013   2.978 -0.3768  0.2885 -0.1623
 2147TIP3   OH2 6446   0.794   4.447   0.297  0.1692  0.3442 -0.4660
 2147TIP3    H1 6447   0.876   4.497   0.284  0.6996 -0.8178 -1.8783
 2147TIP3    H2 6448   0.725   4.510   0.276  0.8287  0.4777 -2.4246
 2148TIP3   OH2 6449   5.666   1.173   3.053  0.3647 -0.1542  0.4897
 2148TIP3    H1 6450   5.604   1.243   3.073  0.5844 -0.3455  1.9550
 2148TIP3    H2 6451   5.686   1.134   3.138  1.0112 -1.3505 -0.1918
 2149TIP3   OH2 6452   0.873   5.199   4.844  0.1563  0.0085  0.2666
 2149TIP3    H1 6453   0.808   5.131   4.860  0.5868 -0.4133  0.2452
 2149TIP3    H2 6454   0.935   5.160   4.783 -1.5938  1.6740 -2.7978
 2150TIP3   OH2 6455   1.952   2.776   1.405  0.9557  0.1670 -0.0727
 2150TIP3    H1 6456   2.007   2.701   1.425  1.6527  0.3359 -1.2515
 2150TIP3    H2 6457   2.014   2.847   1.387  0.3250  0.7387 -0.0363
 2151TIP3   OH2 6458   5.358   4.600   5.005  0.0459  0.0220  0.1565
 2151TIP3    H1 6459   5.323   4.626   5.090 -0.0475  0.1224  0.0874
 2151TIP3    H2 6460   5.451   4.623   5.009 -0.4352  2.4146 -0.6920
 2152TIP3   OH2 6461   5.438   5.007   4.253  0.4919 -0.6300  0.2454
 2152TIP3    H1 6462   5.363   5.052   4.289  0.3229 -1.4407  0.9355
 2152TIP3    H2 6463   5.427   5.014   4.158  0.0028 -0.0213  0.3420
 2153TIP3   OH2 6464   3.886   3.170   5.206 -0.6407  0.5813  0.3174
 2153TIP3    H1 6465   3.944   3.213   5.143 -0.0330  0.7413  0.9727
 2153TIP3    H2 6466   3.802   3.214   5.194 -0.9292 -0.3073 -1.3306
 2154TIP3   OH2 6467   0.444   2.999   4.383 -0.0608  0.1928 -0.0670
 2154TIP3    H1 6468   0.408   2.968   4.466 -0.6924  2.1300  0.4269
 2154TIP3    H2 6469   0.367   3.023   4.331  0.3549 -0.4692 -1.0285
 2155TIP3   OH2 6470   1.504   1.569   0.301  0.1068 -0.0076  0.3316
 2155TIP3    H1 6471   1.514   1.656   0.341 -0.3522 -0.2995  1.0966
 2155TIP3    H2 6472   1.510   1.508   0.375 -0.9247 -0.5493 -0.0158
 2156TIP3   OH2 6473   1.479   2.153   3.172 -0.2125 -0.0344 -0.0810
 2156TIP3    H1 6474   1.486   2.112   3.086  0.3273 -1.8022  0.7623
 2156TIP3    H2 6475   1.385   2.157   3.189 -0.2811 -0.6299 -0.3160
 2157TIP3   OH2 6476   3.860   2.390   2.464  0.7399 -0.1279 -0.4217
 2157TIP3    H1 6477   3.884   2.348   2.381  0.6648  0.4768 -0.7541
 2157TIP3    H2 6478   3.911   2.472   2.464  0.3012  0.1445 -0.1391
 2158TIP3   OH2 6479   3.242   3.994   4.797 -0.0003 -0.0523 -0.5732
 2158TIP3    H1 6480   3.276   3.909   4.823 -1.4798 -0.1542  1.2625
 2158TIP3    H2 6481   3.198   3.978   4.713 -0.4579 -1.1690 -0.1386
 2159TIP3   OH2 6482   2.124   3.366   0.424 -0.1520 -0.0102  0.6735
 2159TIP3    H1 6483   2.052   3.425   0.400  1.0089  1.1241 -0.1245
 2159TIP3    H2 6484   2.130   3.305   0.350 -0.6708 -0.5017  1.0241
 2160TIP3   OH2 6485   1.501   4.963   2.305 -0.4378 -0.5079  0.4215
 2160TIP3    H1 6486   1.486   5.031   2.370 -2.5956 -1.1811  0.7097
 2160TIP3    H2 6487   1.481   5.006   2.221  1.5137  0.1142  0.2186
 2161TIP3   OH2 6488   3.479   0.262   0.896  0.5835 -0.3726 -0.0154
 2161TIP3    H1 6489   3.520   0.349   0.895  0.5375 -0.2756  2.3518
 2161TIP3    H2 6490   3.391   0.277   0.863  0.5746  0.4760  0.3721
 2162TIP3   OH2 6491   1.008   2.448   2.008 -0.8968  0.1247 -0.0275
 2162TIP3    H1 6492   1.007   2.541   1.987  0.4017  0.0965 -0.3447
 2162TIP3    H2 6493   0.942   2.409   1.951 -0.4950  0.6768 -0.8931
 2163TIP3   OH2 6494   1.492   2.371   4.577 -0.7108 -0.4170 -0.3757
 2163TIP3    H1 6495   1.444   2.393   4.657 -2.7391  1.3001 -1.9304
 2163TIP3    H2 6496   1.542   2.293   4.599 -1.8703 -0.5060  2.2929
 2164TIP3   OH2 6497   1.018   5.068   1.536 -0.6818 -0.4083 -0.8625
 2164TIP3    H1 6498   0.922   5.065   1.545 -0.7287  0.4924 -0.9093
 2164TIP3    H2 6499   1.033   5.109   1.451 -0.2976  2.0818  0.3149
 2165TIP3   OH2 6500   2.008   2.833   0.133  0.0516  0.3047 -0.4152
 2165TIP3    H1 6501   1.984   2.899   0.068 -0.5366  1.4625  0.9238
 2165TIP3    H2 6502   2.072   2.778   0.089  1.3834  2.4164 -1.2634
 2166TIP3   OH2 6503   3.478   0.660   1.870  0.0415 -0.1778  0.4382
 2166TIP3    H1 6504   3.461   0.588   1.931  0.2733 -0.9036 -0.3414
 2166TIP3    H2 6505   3.397   0.710   1.869 -0.4593 -0.9803  0.2617
 2167TIP3   OH2 6506   3.863   3.544   2.041 -0.2208  0.5669  0.1184
 2167TIP3    H1 6507   3.849   3.479   2.109 -0.6279 -1.8171 -2.0955
 2167TIP3    H2 6508   3.946   3.586   2.065 -0.7500  0.4014  2.4576
 2168TIP3   OH2 6509   0.783   3.522   5.161 -0.4883  0.2381 -0.6334
 2168TIP3    H1 6510   0.794   3.549   5.070  0.6848  3.1687  0.2760
 2168TIP3    H2 6511   0.866   3.479   5.183 -0.6031 -0.0762 -0.8066
 2169TIP3   OH2 6512   4.130   0.920   3.617 -0.8284  0.0629  0.2700
 2169TIP3    H1 6513   4.060   0.881   3.668  0.0279 -0.7162  0.8828
 2169TIP3    H2 6514   4.116   0.890   3.527 -0.6036 -1.0771  0.6028
 2170TIP3   OH2 6515   2.207   0.811   0.029 -0.6667  0.3716 -0.3553
 2170TIP3    H1 6516   2.257   0.850  -0.043 -1.7437  3.1003  0.2470
 2170TIP3    H2 6517   2.226   0.868   0.104 -1.3841 -1.0383  0.9411
 2171TIP3   OH2 6518   5.575   0.745   4.578  0.0560 -0.3565 -0.2085
 2171TIP3    H1 6519   5.503   0.797   4.542  1.0506  0.9710 -0.3420
 2171TIP3    H2 6520   5.621   0.805   4.637 -0.0513 -1.7431  1.3825
 2172TIP3   OH2 6521   4.510   1.673   3.939  0.0962 -0.5611  0.5322
 2172TIP3    H1 6522   4.451   1.624   3.883 -0.0372  0.8605 -0.6179
 2172TIP3    H2 6523   4.595   1.670   3.894  0.1349  0.0569  0.5454
 2173TIP3   OH2 6524   0.032   5.358   4.565  0.0053  0.1440 -0.2783
 2173TIP3    H1 6525   0.076   5.352   4.480  1.2190 -0.5757  0.3588
 2173TIP3    H2 6526  -0.061   5.349   4.545  0.3865 -2.2573 -1.3640
 2174TIP3   OH2 6527   0.993   0.378   4.101 -0.1354 -0.1963 -0.1347
 2174TIP3    H1 6528   0.899   0.368   4.089 -0.7230  1.2986  2.4512
 2174TIP3    H2 6529   1.009   0.352   4.191  2.1558 -1.4525 -0.8202
 2175TIP3   OH2 6530   3.323   3.145   0.180 -0.0689  0.4874 -0.3820
 2175TIP3    H1 6531   3.278   3.230   0.182  0.9724  1.0381  0.7502
 2175TIP3    H2 6532   3.404   3.163   0.131 -0.6023 -0.2780 -1.5991
 2176TIP3   OH2 6533   3.196   2.295   0.475  0.5619 -0.2468  0.0603
 2176TIP3    H1 6534   3.223   2.333   0.559  0.1038 -1.3813  0.7373
 2176TIP3    H2 6535   3.278   2.279   0.429  0.7955  0.9077  0.0422
 2177TIP3   OH2 6536   3.322   5.047   1.818 -1.1450  0.6052 -0.8660
 2177TIP3    H1 6537   3.255   5.021   1.882  0.5032 -2.0720 -0.0619
 2177TIP3    H2 6538   3.324   4.974   1.755  0.9191  0.6285 -0.8948
 2178TIP3   OH2 6539   2.271   0.768   2.741  0.0474  0.1242  0.2734
 2178TIP3    H1 6540   2.363   0.748   2.757  0.3659  0.8578 -0.5390
 2178TIP3    H2 6541   2.232   0.774   2.828  0.7552 -0.2306  0.6259
 2179TIP3   OH2 6542   2.577   1.092   2.282 -0.0140 -0.6221  0.0400
 2179TIP3    H1 6543   2.667   1.084   2.312 -0.1476 -0.0099  0.6339
 2179TIP3    H2 6544   2.525   1.053   2.352 -0.1216 -2.9591 -1.2398
 2180TIP3   OH2 6545   3.041   0.082   3.427 -0.1197  0.0055  0.5485
 2180TIP3    H1 6546   2.969   0.025   3.454  0.7452 -1.5363 -0.2677
 2180TIP3    H2 6547   3.111   0.022   3.400  0.6210  1.4484 -0.9404
 2181TIP3   OH2 6548   0.218   2.733   1.862 -0.1280 -0.1199  0.3096
 2181TIP3    H1 6549   0.300   2.779   1.878  0.0615 -0.7464  1.2341
 2181TIP3    H2 6550   0.241   2.662   1.803 -0.2593  0.4501 -0.4416
 2182TIP3   OH2 6551   2.928   5.275   3.116 -0.1471 -0.0009  0.1615
 2182TIP3    H1 6552   2.982   5.203   3.085 -1.1210 -0.4306 -0.5847
 2182TIP3    H2 6553   2.924   5.263   3.211 -0.5180 -1.1065  0.0241
 2183TIP3   OH2 6554   0.599   4.526   1.377 -0.5725  0.0475  0.5249
 2183TIP3    H1 6555   0.517   4.546   1.423 -1.7873  0.9771 -1.8265
 2183TIP3    H2 6556   0.573   4.522   1.284  1.6111 -2.2213 -0.0940
 2184TIP3   OH2 6557   0.360   1.520   1.356  0.0834 -0.2749 -0.0362
 2184TIP3    H1 6558   0.370   1.615   1.370 -1.6114 -0.1936  0.8443
 2184TIP3    H2 6559   0.377   1.482   1.442  0.3689 -0.7445 -0.3001
 2185TIP3   OH2 6560   3.855   5.045   3.952 -0.1991 -0.2482 -0.3084
 2185TIP3    H1 6561   3.897   5.070   3.870 -1.9813 -0.7903 -1.4589
 2185TIP3    H2 6562   3.785   5.109   3.964  0.1315 -0.0848  0.8933
 2186TIP3   OH2 6563   5.508   0.064   3.850  0.3568  0.2363 -0.0018
 2186TIP3    H1 6564   5.423   0.027   3.872  0.2872  0.6562  0.4460
 2186TIP3    H2 6565   5.498   0.158   3.864 -0.5429  1.0187 -4.4312
 2187TIP3   OH2 6566   1.484   4.220   1.957  0.3659 -0.0216  0.4106
 2187TIP3    H1 6567   1.455   4.130   1.942 -0.8723  0.5169 -0.5755
 2187TIP3    H2 6568   1.575   4.221   1.926 -0.3859 -0.3447 -2.0118
 2188TIP3   OH2 6569   4.894   0.723   1.259  0.6960  0.2195  0.5614
 2188TIP3    H1 6570   4.801   0.703   1.270  1.1542 -0.9784  2.6887
 2188TIP3    H2 6571   4.899   0.818   1.270 -0.1638  0.1810  1.4484
 2189TIP3   OH2 6572   5.711   0.401   3.016  0.2389 -0.6679 -0.1196
 2189TIP3    H1 6573   5.713   0.349   2.936 -0.3550 -1.8256  0.5881
 2189TIP3    H2 6574   5.745   0.487   2.990  3.6133 -2.0437 -0.8169
 2190TIP3   OH2 6575   2.946   4.649   3.530 -0.9355 -0.2131  0.2450
 2190TIP3    H1 6576   2.865   4.685   3.494 -1.1703  0.6278  1.5159
 2190TIP3    H2 6577   3.010   4.656   3.459 -1.8948 -0.6171 -0.6781
 2191TIP3   OH2 6578   1.909   1.879   0.944  0.1182  0.0931  0.1908
 2191TIP3    H1 6579   1.961   1.863   0.866  1.3240 -2.6193  1.4041
 2191TIP3    H2 6580   1.823   1.904   0.912  1.1327  1.0545 -1.9305
 2192TIP3   OH2 6581   1.383   0.903   3.414 -0.3509 -0.3033 -0.4104
 2192TIP3    H1 6582   1.308   0.861   3.456 -1.5009 -1.2483 -3.1890
 2192TIP3    H2 6583   1.349   0.987   3.382 -1.0439 -1.7038 -3.7141
 2193TIP3   OH2 6584   6.097   3.864   3.175 -0.3706  0.3113  0.7838
 2193TIP3    H1 6585   6.126   3.824   3.257  0.4897 -0.1850  0.2568
 2193TIP3    H2 6586   6.153   3.825   3.109 -1.7169 -0.0419 -0.1803
 2194TIP3   OH2 6587   0.742   1.773   2.572  0.6313 -0.2785  0.0629
 2194TIP3    H1 6588   0.722   1.843   2.509 -0.1122  0.2571  0.8749
 2194TIP3    H2 6589   0.791   1.709   2.521 -0.5435 -0.1863 -1.2559
 2195TIP3   OH2 6590   5.156   0.859   0.695 -0.6647 -0.3078  0.8805
 2195TIP3    H1 6591   5.101   0.828   0.622  1.1558  0.2511 -0.8202
 2195TIP3    H2 6592   5.120   0.815   0.772 -1.2772 -2.7772 -0.6748
 2196TIP3   OH2 6593   5.323   3.131   0.361 -0.1978  0.1228 -0.3193
 2196TIP3    H1 6594   5.406   3.131   0.408 -1.1976  0.1315  1.5412
 2196TIP3    H2 6595   5.290   3.042   0.370  0.2449 -0.2896 -2.3213
 2197TIP3   OH2 6596   4.953   0.662   2.453 -0.2331 -0.2974 -0.2611
 2197TIP3    H1 6597   4.970   0.709   2.535 -1.3163  1.0701 -0.7766
 2197TIP3    H2 6598   5.038   0.659   2.409 -0.1593  1.5255 -0.3413
 2198TIP3   OH2 6599   1.400   4.904   2.790 -0.0775  0.0480  0.0033
 2198TIP3    H1 6600   1.330   4.890   2.853 -0.2805 -0.0967 -0.2503
 2198TIP3    H2 6601   1.391   4.995   2.764 -1.2125 -0.3790 -1.2447
 2199TIP3   OH2 6602   5.623   3.346   4.977 -0.3009  0.5043  0.5464
 2199TIP3    H1 6603   5.705   3.366   5.022  0.6172  1.6988 -1.5442
 2199TIP3    H2 6604   5.638   3.373   4.887 -1.4332 -3.3790 -0.9927
 2200TIP3   OH2 6605   5.667   5.869   3.527 -0.5448 -0.0643  0.2685
 2200TIP3    H1 6606   5.626   5.935   3.583  2.7029  0.3594  2.4823
 2200TIP3    H2 6607   5.705   5.918   3.455 -0.5725  0.1201  0.3796
 2201TIP3   OH2 6608   2.049   1.064   2.639 -0.7172 -0.3564 -0.3164
 2201TIP3    H1 6609   2.112   1.119   2.685 -0.6359 -1.0869  0.4689
 2201TIP3    H2 6610   2.090   1.047   2.554  0.4229 -1.2521  0.3779
 2202TIP3   OH2 6611   2.183   1.322   3.609  0.2661  1.0483  0.1671
 2202TIP3    H1 6612   2.137   1.249   3.650  1.8857 -0.5202 -0.6720
 2202TIP3    H2 6613   2.147   1.400   3.651 -1.4695 -0.2187  1.1477
 2203TIP3   OH2 6614   2.116   1.172   1.039  0.0735  0.0077  0.6844
 2203TIP3    H1 6615   2.130   1.157   0.945  2.3583  1.0071  0.8019
 2203TIP3    H2 6616   2.127   1.266   1.050  1.7375 -0.3103  2.1997
 2204TIP3   OH2 6617   0.683   1.962   3.849 -0.4908 -0.6392 -0.2109
 2204TIP3    H1 6618   0.718   1.951   3.937 -1.1459  0.3225  0.1871
 2204TIP3    H2 6619   0.755   1.936   3.791 -0.3449 -2.1242  0.5934
 2205TIP3   OH2 6620   3.378   4.545   0.864  0.5607 -0.1563  0.0913
 2205TIP3    H1 6621   3.365   4.457   0.830 -0.6574  0.9639 -2.6121
 2205TIP3    H2 6622   3.356   4.538   0.957 -0.7746 -2.4669 -0.3256
 2206TIP3   OH2 6623   1.287   4.598   4.615  0.2577 -0.5543  0.3385
 2206TIP3    H1 6624   1.250   4.673   4.663 -0.9903 -1.2676  0.5222
 2206TIP3    H2 6625   1.228   4.526   4.634  0.3243 -1.1194 -1.4606
 2207TIP3   OH2 6626   2.922   3.764   5.071 -0.3409  0.1833  0.1762
 2207TIP3    H1 6627   2.850   3.771   5.008 -0.9645  0.0365  0.8630
 2207TIP3    H2 6628   2.960   3.852   5.074 -0.9663  0.4467  0.3677
 2208TIP3   OH2 6629   3.789   2.603   2.709  0.4255 -0.2925 -0.5008
 2208TIP3    H1 6630   3.717   2.561   2.757  0.8753  0.5240  0.9422
 2208TIP3    H2 6631   3.805   2.545   2.634  0.1759 -2.0088  0.7197
 2209TIP3   OH2 6632   5.996   3.625   0.678  0.1484  0.0122  0.2266
 2209TIP3    H1 6633   5.943   3.649   0.603 -0.4143  1.3910  1.0309
 2209TIP3    H2 6634   6.086   3.643   0.650  0.0077 -0.1292 -0.3371
 2210TIP3   OH2 6635   5.967   5.925   3.645  0.1792  0.0488 -0.2292
 2210TIP3    H1 6636   5.910   6.001   3.644  0.6702  0.4199 -0.6424
 2210TIP3    H2 6637   6.018   5.935   3.726 -0.1275 -0.1256 -0.0124
 2211TIP3   OH2 6638   5.213   1.126   0.688  0.1123 -0.0265 -0.3686
 2211TIP3    H1 6639   5.295   1.127   0.738  0.5917  0.5372 -1.1444
 2211TIP3    H2 6640   5.180   1.036   0.696  0.1531  0.0634  0.9872
 2212TIP3   OH2 6641   4.436   4.563   1.065 -0.1546  0.3506 -0.2397
 2212TIP3    H1 6642   4.459   4.622   0.993 -0.8518 -0.8586 -1.5031
 2212TIP3    H2 6643   4.479   4.480   1.043  1.1225  0.4142  1.6907
 2213TIP3   OH2 6644   0.993   2.075   4.783 -0.2377 -0.3793  0.3237
 2213TIP3    H1 6645   0.946   2.006   4.736 -1.2684  0.1108  0.6229
 2213TIP3    H2 6646   0.979   2.154   4.730 -2.7494  0.5402  2.1730
 2214TIP3   OH2 6647   5.583   5.094   2.067  0.2394  0.2934  0.5374
 2214TIP3    H1 6648   5.611   5.066   2.154 -2.0125 -1.1957  0.8602
 2214TIP3    H2 6649   5.618   5.028   2.008 -1.3177 -0.8130  0.7911
 2215TIP3   OH2 6650   6.140   4.777   0.043  0.2590  0.3898  0.4191
 2215TIP3    H1 6651   6.140   4.792   0.138  0.0885  0.4572  0.4092
 2215TIP3    H2 6652   6.229   4.748   0.023 -0.2526 -1.7272  0.9323
 2216TIP3   OH2 6653   4.527   2.610   3.062  0.1004  0.3073  0.5729
 2216TIP3    H1 6654   4.542   2.684   3.002  0.1611 -0.4091 -0.3229
 2216TIP3    H2 6655   4.613   2.590   3.098  0.5076 -0.6832 -0.8399
 2217TIP3   OH2 6656   5.662   3.406   1.131 -0.4149  0.2219  0.2451
 2217TIP3    H1 6657   5.746   3.432   1.094  0.5405 -0.0870  2.0985
 2217TIP3    H2 6658   5.648   3.466   1.204 -1.8418  0.2933 -0.0536
 2218TIP3   OH2 6659   0.123   2.730   5.095 -0.1207 -0.2588  0.5268
 2218TIP3    H1 6660   0.094   2.803   5.150  0.9484  0.3533  0.3168
 2218TIP3    H2 6661   0.042   2.693   5.059 -0.7568  0.0690  1.5736
 2219TIP3   OH2 6662   1.930   5.101   2.823  0.4314  0.5659 -1.0024
 2219TIP3    H1 6663   1.964   5.038   2.760 -1.1316 -0.8613 -0.4724
 2219TIP3    H2 6664   1.842   5.071   2.843 -0.0023  2.3651  0.0442
 2220TIP3   OH2 6665   0.086   3.128   4.422 -0.2057 -0.0718  0.4930
 2220TIP3    H1 6666   0.126   3.068   4.358 -0.1886  0.5714 -0.1198
 2220TIP3    H2 6667   0.044   3.196   4.368  1.0417  1.2938  1.1504
 2221TIP3   OH2 6668   0.856   0.067   0.357 -0.3732  0.2456  0.1383
 2221TIP3    H1 6669   0.927   0.057   0.421  1.2816  1.2969 -1.4258
 2221TIP3    H2 6670   0.843   0.161   0.351 -1.4065  0.0896 -0.1532
 2222TIP3   OH2 6671   4.234   2.526   2.719 -0.0210 -1.2255  0.5785
 2222TIP3    H1 6672   4.179   2.451   2.696 -0.8146 -0.7635  0.9145
 2222TIP3    H2 6673   4.179   2.580   2.776 -0.0517  0.4183 -0.9178
 2223TIP3   OH2 6674   1.892   1.028   3.044  0.1702 -0.0627 -0.5003
 2223TIP3    H1 6675   1.923   1.119   3.048 -0.9610  0.3171  0.1576
 2223TIP3    H2 6676   1.820   1.025   3.106 -1.5469 -0.7285 -2.4051
 2224TIP3   OH2 6677   4.919   2.149   0.506  0.2734  0.1008 -0.4542
 2224TIP3    H1 6678   4.974   2.132   0.582 -0.0826 -3.1668 -0.7910
 2224TIP3    H2 6679   4.875   2.232   0.526  2.0527  0.5995  1.7270
 2225TIP3   OH2 6680   1.523   5.904   0.638  0.2437  0.1217  0.5388
 2225TIP3    H1 6681   1.601   5.897   0.583 -0.2901  0.8164 -0.3381
 2225TIP3    H2 6682   1.499   5.997   0.633 -0.8680 -0.1546  0.4582
 2226TIP3   OH2 6683   1.658   1.644   0.872 -0.0163  0.2346  0.2247
 2226TIP3    H1 6684   1.699   1.567   0.833  0.1601  0.0490  0.7671
 2226TIP3    H2 6685   1.629   1.697   0.797 -1.1970 -0.9130 -0.1609
 2227TIP3   OH2 6686   6.003   5.388   0.468  0.7076 -0.2715 -0.5250
 2227TIP3    H1 6687   6.036   5.433   0.390  1.7881 -0.2591 -0.0763
 2227TIP3    H2 6688   5.974   5.303   0.437 -0.7590  0.4625 -1.2784
 2228TIP3   OH2 6689   3.467   0.535   1.218  0.7445 -0.1793  0.4299
 2228TIP3    H1 6690   3.516   0.513   1.298  0.6980  0.6526  0.6927
 2228TIP3    H2 6691   3.394   0.473   1.218  0.9583 -0.4424  0.8271
 2229TIP3   OH2 6692   3.459   3.057   0.650  0.1599 -0.2836 -0.4851
 2229TIP3    H1 6693   3.549   3.028   0.657  0.0847 -0.3139  0.4868
 2229TIP3    H2 6694   3.411   2.980   0.618 -0.0694 -1.3438  2.2071
 2230TIP3   OH2 6695   3.978   3.188   0.142 -0.2849 -0.1427  0.1091
 2230TIP3    H1 6696   3.924   3.145   0.208 -0.9490  0.8072  0.1996
 2230TIP3    H2 6697   3.950   3.280   0.143  1.2491  0.3610  0.0786
 2231TIP3   OH2 6698   2.553   0.115   1.583 -0.3704  0.0766 -0.1906
 2231TIP3    H1 6699   2.536   0.191   1.526  1.0908  2.0025  1.7446
 2231TIP3    H2 6700   2.511   0.138   1.666  1.0944 -0.6744  0.8037
 2232TIP3   OH2 6701   5.849   2.490   0.041 -1.0044 -0.0224  0.1573
 2232TIP3    H1 6702   5.905   2.450   0.108  1.0735  0.1728 -1.3469
 2232TIP3    H2 6703   5.854   2.428  -0.033 -1.1616  0.9762 -0.7078
 2233TIP3   OH2 6704   4.307   2.939   1.429  0.2665  0.1414 -0.2193
 2233TIP3    H1 6705   4.258   2.939   1.511  1.1192  1.0882  0.3113
 2233TIP3    H2 6706   4.389   2.894   1.450 -0.5513 -1.8898 -1.2317
 2234TIP3   OH2 6707   0.913   0.116   5.099  0.4870 -0.7031 -0.1697
 2234TIP3    H1 6708   0.851   0.127   5.171 -1.0776 -2.6416 -1.1268
 2234TIP3    H2 6709   0.963   0.198   5.098 -1.8706  0.8625  0.8132
 2235TIP3   OH2 6710   5.595   2.683   2.782  0.2152 -0.0186 -0.1998
 2235TIP3    H1 6711   5.649   2.732   2.845  1.3930 -1.2110 -0.2338
 2235TIP3    H2 6712   5.505   2.704   2.806  0.6666  1.6854  0.1440
 2236TIP3   OH2 6713   4.842   0.165   1.903 -0.4450 -0.3803 -0.3783
 2236TIP3    H1 6714   4.747   0.163   1.911 -0.3259 -0.8471  1.5069
 2236TIP3    H2 6715   4.874   0.137   1.989  1.3885 -2.2038 -1.5465
 2237TIP3   OH2 6716   3.397   3.747   2.582 -0.2517  0.3399  0.3782
 2237TIP3    H1 6717   3.380   3.840   2.599  0.6027  0.4979  0.3766
 2237TIP3    H2 6718   3.336   3.701   2.641 -1.6784  0.8775 -0.6165
 2238TIP3   OH2 6719   1.953   4.391   1.874  0.3536  0.0545 -0.0315
 2238TIP3    H1 6720   1.994   4.454   1.934 -0.4661  0.2805  0.3033
 2238TIP3    H2 6721   1.978   4.422   1.787  0.0533  0.7875  0.1354
 2239TIP3   OH2 6722   4.317   0.323   3.347 -0.2093  0.1851  0.2099
 2239TIP3    H1 6723   4.375   0.247   3.351 -0.6186 -0.1078  0.7544
 2239TIP3    H2 6724   4.347   0.380   3.419  1.1327  1.3208 -1.1701
 2240TIP3   OH2 6725   1.017   5.166   1.277 -0.0630 -0.3347 -0.3438
 2240TIP3    H1 6726   1.024   5.101   1.207  1.7954  0.3822 -0.8776
 2240TIP3    H2 6727   1.091   5.225   1.262 -0.7969  0.9964  1.0549
 2241TIP3   OH2 6728  -0.008   2.435   3.141 -0.1761 -0.2575 -0.0055
 2241TIP3    H1 6729   0.017   2.525   3.120  1.4309 -0.4629  0.8584
 2241TIP3    H2 6730   0.039   2.382   3.077  0.6616 -0.5807  0.8529
 2242TIP3   OH2 6731   0.026   3.923   3.990  0.1272 -0.0496 -0.7223
 2242TIP3    H1 6732   0.087   3.995   4.008  0.8435 -0.8747  0.2510
 2242TIP3    H2 6733  -0.046   3.937   4.051  0.6200 -0.5608 -0.0106
 2243TIP3   OH2 6734   4.370   5.246   4.938  0.2517  0.4150 -0.5089
 2243TIP3    H1 6735   4.352   5.159   4.973  0.9758  0.2875 -0.4317
 2243TIP3    H2 6736   4.308   5.257   4.866 -1.1544  0.6284  0.6990
 2244TIP3   OH2 6737   2.338   4.801   2.658 -0.4879  0.5225 -0.0020
 2244TIP3    H1 6738   2.280   4.872   2.632 -0.9129 -0.4264 -1.8123
 2244TIP3    H2 6739   2.407   4.801   2.591  0.8820  0.7617  1.3480
 2245TIP3   OH2 6740   2.035   5.632   4.410 -0.1015 -0.3758 -0.5007
 2245TIP3    H1 6741   2.122   5.669   4.397  0.8207 -2.5870 -1.1212
 2245TIP3    H2 6742   2.051   5.548   4.453 -1.9078 -0.9060 -0.7830
 2246TIP3   OH2 6743   4.306   5.135   3.879  0.3676  0.3833 -0.4866
 2246TIP3    H1 6744   4.311   5.052   3.926 -0.8475 -0.1158 -1.1889
 2246TIP3    H2 6745   4.217   5.137   3.843  1.1442  0.8828 -2.4782
 2247TIP3   OH2 6746   5.729   0.905   4.737  0.5882  0.0606 -0.4814
 2247TIP3    H1 6747   5.781   0.919   4.816 -0.6061 -2.5631  0.8821
 2247TIP3    H2 6748   5.650   0.958   4.751  0.2253 -0.6561  0.2881
 2248TIP3   OH2 6749   0.945   3.248   1.458 -0.2671 -0.0201 -0.2955
 2248TIP3    H1 6750   1.022   3.292   1.494  0.0620 -1.4192  0.8078
 2248TIP3    H2 6751   0.871   3.288   1.503 -0.1188  0.6596 -0.6494
 2249TIP3   OH2 6752   2.448   0.360   0.465 -0.5222  0.2653  0.0348
 2249TIP3    H1 6753   2.394   0.297   0.416  1.8606 -0.8148 -1.3706
 2249TIP3    H2 6754   2.438   0.442   0.417 -1.4334  0.2579  0.1987
 2250TIP3   OH2 6755   0.149   5.089   3.320 -0.5075 -0.0538  0.1719
 2250TIP3    H1 6756   0.126   5.117   3.409  1.4617  0.2711  0.6334
 2250TIP3    H2 6757   0.241   5.063   3.327 -0.8606 -1.9523 -1.3486
 2251TIP3   OH2 6758   3.972   1.371   0.870  0.7237 -0.1118 -0.1076
 2251TIP3    H1 6759   3.933   1.458   0.861 -0.2405 -0.3224  1.5229
 2251TIP3    H2 6760   4.044   1.383   0.931  0.5220 -0.4530  0.2045
 2252TIP3   OH2 6761   0.693   3.306   0.648  0.1445  0.0705  0.3933
 2252TIP3    H1 6762   0.681   3.310   0.742 -1.2039  1.6316  0.2109
 2252TIP3    H2 6763   0.723   3.394   0.623 -2.0668  0.5790 -0.8584
 2253TIP3   OH2 6764   2.738   1.463   4.181 -0.0430 -0.4210 -0.1101
 2253TIP3    H1 6765   2.828   1.469   4.147 -0.3824 -0.7361 -1.1043
 2253TIP3    H2 6766   2.745   1.491   4.272  1.1300 -0.7891 -0.0641
 2254TIP3   OH2 6767   5.547   1.975   4.318 -0.0797 -0.1619 -0.1936
 2254TIP3    H1 6768   5.578   1.915   4.386  2.1093  0.7586 -0.2999
 2254TIP3    H2 6769   5.487   2.034   4.363  0.2471 -0.4508  0.6391
 2255TIP3   OH2 6770   1.015   2.000   0.041  0.1999  0.6002  0.5340
 2255TIP3    H1 6771   0.926   2.008   0.075  0.0392  1.6994 -0.0833
 2255TIP3    H2 6772   1.054   1.927   0.089 -0.8704  0.4374  1.1646
 2256TIP3   OH2 6773   0.025   4.135   3.435  0.0087 -0.0842  0.4563
 2256TIP3    H1 6774   0.072   4.168   3.512 -1.8393 -0.6833  1.9413
 2256TIP3    H2 6775   0.042   4.200   3.367  2.0017  0.2806  1.2384
 2257TIP3   OH2 6776   3.594   2.446   2.856  0.8839  0.2716  0.3988
 2257TIP3    H1 6777   3.587   2.362   2.811  0.2263  1.2606 -1.4684
 2257TIP3    H2 6778   3.576   2.426   2.948 -2.6196 -1.2011 -0.4479
 2258TIP3   OH2 6779   4.440   4.787   2.747  0.5811  0.4111  0.2834
 2258TIP3    H1 6780   4.390   4.752   2.673  0.4007  0.2530  0.4795
 2258TIP3    H2 6781   4.387   4.861   2.777 -1.2101 -1.6075  2.4827
 2259TIP3   OH2 6782   1.531   0.634   1.277 -0.2745 -0.2017 -0.6898
 2259TIP3    H1 6783   1.502   0.634   1.368  0.5727 -0.5230 -0.4173
 2259TIP3    H2 6784   1.623   0.657   1.281 -0.7125  1.9223 -1.6364
 2260TIP3   OH2 6785   1.056   4.546   3.282  0.0964 -0.7125  0.5815
 2260TIP3    H1 6786   0.988   4.506   3.336 -0.7421  0.4404  0.4235
 2260TIP3    H2 6787   1.138   4.508   3.314 -0.6021 -2.0746  0.8240
 2261TIP3   OH2 6788   0.146   5.032   4.065 -0.2650 -0.1683 -0.5091
 2261TIP3    H1 6789   0.157   4.939   4.080 -0.3954 -0.2294 -0.7780
 2261TIP3    H2 6790   0.095   5.063   4.140  0.0847 -0.2432 -0.2402
 2262TIP3   OH2 6791   5.455   2.855   4.343  0.6590 -0.2346 -0.3611
 2262TIP3    H1 6792   5.510   2.852   4.422 -0.1539 -0.2167  0.2170
 2262TIP3    H2 6793   5.392   2.784   4.355  0.3648 -0.0626 -0.8673
 2263TIP3   OH2 6794   1.435   0.635   1.550  0.2120 -0.1759  0.0004
 2263TIP3    H1 6795   1.492   0.586   1.610  0.0323  1.1820  1.3687
 2263TIP3    H2 6796   1.365   0.667   1.606  0.3958  1.7219 -0.7855
 2264TIP3   OH2 6797   5.559   4.323   0.759 -0.1999 -0.0321  0.8678
 2264TIP3    H1 6798   5.468   4.327   0.729 -0.3080 -1.2081  0.9939
 2264TIP3    H2 6799   5.602   4.393   0.711 -1.2111  0.6884  0.9681
 2265TIP3   OH2 6800   3.341   5.284   3.527 -0.2232  0.6898 -0.8750
 2265TIP3    H1 6801   3.401   5.251   3.593 -0.8197  0.0678 -0.6267
 2265TIP3    H2 6802   3.392   5.346   3.476 -0.2359  2.6205  1.3028
 2266TIP3   OH2 6803   6.281   5.565   0.812  0.4034 -0.0691 -0.8458
 2266TIP3    H1 6804   6.266   5.511   0.735 -1.5206  2.0931 -2.1121
 2266TIP3    H2 6805   6.194   5.592   0.840  1.1925  4.1789 -1.7218
 2267TIP3   OH2 6806   3.784   4.758   3.847  0.1762  0.0120 -0.0594
 2267TIP3    H1 6807   3.814   4.839   3.889 -0.4135  0.0657  0.2684
 2267TIP3    H2 6808   3.702   4.782   3.805  0.0253 -0.4055 -0.0048
 2268TIP3   OH2 6809   4.876   1.823   0.260 -0.5558  0.5379 -0.2320
 2268TIP3    H1 6810   4.784   1.819   0.234 -0.6347 -0.2817  0.1491
 2268TIP3    H2 6811   4.915   1.745   0.221 -0.5505 -0.4136  1.5526
 2269TIP3   OH2 6812   3.467   0.744   1.054 -1.0892  0.1429  0.3986
 2269TIP3    H1 6813   3.442   0.678   1.118 -0.4764 -0.2015  0.2836
 2269TIP3    H2 6814   3.400   0.812   1.063 -2.5669 -1.1461 -0.5050
 2270TIP3   OH2 6815   1.546   1.842   0.350 -0.5229 -0.3519 -0.1574
 2270TIP3    H1 6816   1.563   1.913   0.412 -0.4067 -0.7034  0.2071
 2270TIP3    H2 6817   1.625   1.837   0.297 -0.3171 -0.5684  0.1672
 2271TIP3   OH2 6818   2.906   5.594   2.388  0.0104 -0.2461 -0.2864
 2271TIP3    H1 6819   2.897   5.544   2.307 -0.5138  1.6643 -1.4537
 2271TIP3    H2 6820   2.993   5.633   2.382  0.1691 -0.4922  0.3336
 2272TIP3   OH2 6821   1.703   2.194   4.014 -0.7073  0.1040  0.0203
 2272TIP3    H1 6822   1.760   2.201   3.937 -0.8434  0.3803 -0.0538
 2272TIP3    H2 6823   1.628   2.143   3.983  0.0593 -1.3643  0.4360
 2273TIP3   OH2 6824   1.739   0.981   0.291  0.3269 -0.3632  0.8135
 2273TIP3    H1 6825   1.806   1.021   0.236 -1.0288  1.2664  0.2886
 2273TIP3    H2 6826   1.756   1.015   0.379  0.1637  0.0792  0.6733
 2274TIP3   OH2 6827   2.667   5.395   1.542  0.3959  0.4023  0.0097
 2274TIP3    H1 6828   2.743   5.379   1.599  1.6345 -1.0779 -1.9395
 2274TIP3    H2 6829   2.592   5.373   1.597  1.5869 -2.1095  0.7931
 2275TIP3   OH2 6830   4.976   5.179   4.978 -0.3012 -0.0649 -0.1807
 2275TIP3    H1 6831   4.920   5.107   5.008  0.2329 -1.0714 -1.4463
 2275TIP3    H2 6832   4.938   5.205   4.894  0.4578  0.0097 -0.5085
 2276TIP3   OH2 6833   1.443   2.904   1.937 -0.0008 -0.0807  0.0598
 2276TIP3    H1 6834   1.375   2.969   1.921 -0.6005  0.0007  2.5075
 2276TIP3    H2 6835   1.454   2.904   2.032  2.7962 -0.7583 -0.1839
 2277TIP3   OH2 6836   0.715   0.750   4.601  0.1440  0.0539 -0.9774
 2277TIP3    H1 6837   0.737   0.657   4.603  0.4069  0.1221 -0.4871
 2277TIP3    H2 6838   0.661   0.763   4.679  1.6676  0.6817  0.0228
 2278TIP3   OH2 6839   5.417   4.413   4.285 -0.6728 -0.4050 -0.3182
 2278TIP3    H1 6840   5.446   4.437   4.198  0.8906 -1.9514 -0.2895
 2278TIP3    H2 6841   5.435   4.319   4.291 -3.1656 -0.8862  0.7619
 2279TIP3   OH2 6842   1.666   2.902   2.952 -0.0406 -0.5184  0.2166
 2279TIP3    H1 6843   1.662   2.818   2.907 -0.3407 -1.1488  1.3692
 2279TIP3    H2 6844   1.699   2.879   3.040  0.0990  0.6014  0.4634
 2280TIP3   OH2 6845   3.260   0.685   4.966 -0.1249  0.4358 -0.2103
 2280TIP3    H1 6846   3.278   0.728   4.883 -1.4595 -2.8962 -2.3943
 2280TIP3    H2 6847   3.346   0.669   5.004  0.6837 -0.2516 -2.2177
 2281TIP3   OH2 6848   3.630   5.986   3.211  0.6727  0.2229 -0.5058
 2281TIP3    H1 6849   3.575   5.918   3.250 -0.1990  1.8765  1.3243
 2281TIP3    H2 6850   3.631   5.965   3.118 -0.7240 -1.4888 -0.1910
 2282TIP3   OH2 6851   5.925   0.778   3.012 -0.6074  0.6046  0.4233
 2282TIP3    H1 6852   5.873   0.755   3.089  1.5593  0.3538  1.8879
 2282TIP3    H2 6853   5.897   0.867   2.990 -0.7425  0.9745  1.9779
 2283TIP3   OH2 6854   1.200   4.946   2.539  0.5035 -0.1933 -0.5454
 2283TIP3    H1 6855   1.160   4.947   2.627 -0.3846  1.2696 -0.9262
 2283TIP3    H2 6856   1.148   4.882   2.490  0.4391 -0.3732 -0.2450
 2284TIP3   OH2 6857   1.106   4.400   4.599 -0.4385 -0.1560  0.0503
 2284TIP3    H1 6858   1.158   4.331   4.640  0.7590  1.4192  1.3659
 2284TIP3    H2 6859   1.073   4.361   4.518 -0.4230 -2.4622  1.0693
 2285TIP3   OH2 6860   1.085   0.070   1.048 -0.7009 -0.4618  0.5543
 2285TIP3    H1 6861   1.178   0.079   1.066 -0.2448 -1.7482 -0.9252
 2285TIP3    H2 6862   1.042   0.096   1.129  0.9810 -0.8804  1.6279
 2286TIP3   OH2 6863   3.729   0.706   1.098 -0.1897  0.1659 -0.3770
 2286TIP3    H1 6864   3.746   0.700   1.004  0.0345 -0.0460 -0.3232
 2286TIP3    H2 6865   3.637   0.732   1.104 -0.2115  0.1545 -0.6553
 2287TIP3   OH2 6866   4.390   4.117   1.688  0.2355  0.4166  0.3188
 2287TIP3    H1 6867   4.344   4.197   1.713 -0.4820  1.1664 -2.9344
 2287TIP3    H2 6868   4.481   4.132   1.714  0.2371  2.5745 -0.7123
 2288TIP3   OH2 6869   0.997   0.666   0.502  0.0497 -0.4350  0.0334
 2288TIP3    H1 6870   1.014   0.575   0.528 -0.0014  0.2158  2.5509
 2288TIP3    H2 6871   0.912   0.687   0.539  1.4097  1.5586  2.3013
 2289TIP3   OH2 6872   2.686   0.315   1.052 -0.5640  0.3374 -0.7577
 2289TIP3    H1 6873   2.674   0.295   1.144 -0.8157  2.5355 -0.2593
 2289TIP3    H2 6874   2.781   0.320   1.040 -0.5323  0.0524 -0.6287
 2290TIP3   OH2 6875  -0.007   2.232   2.301  0.1121 -0.1863 -0.1226
 2290TIP3    H1 6876   0.076   2.195   2.332 -0.2461 -0.7948  0.1184
 2290TIP3    H2 6877  -0.068   2.158   2.302 -0.1957  0.0372 -1.2030
 2291TIP3   OH2 6878   4.278   5.826   0.610 -0.2413 -0.6078 -0.1851
 2291TIP3    H1 6879   4.230   5.783   0.682 -0.7642 -0.9300 -0.7201
 2291TIP3    H2 6880   4.242   5.786   0.531 -3.1442  3.0355 -0.9629
 2292TIP3   OH2 6881   3.835   2.509   4.876  0.3633  0.4098 -0.0345
 2292TIP3    H1 6882   3.788   2.554   4.947  0.7050  0.3865  0.2110
 2292TIP3    H2 6883   3.801   2.548   4.796  0.9322  1.3761  0.1863
 2293TIP3   OH2 6884   1.988   5.376   2.154  0.0045 -0.1727  1.2383
 2293TIP3    H1 6885   1.980   5.304   2.092 -0.5966 -0.4001  1.5689
 2293TIP3    H2 6886   1.931   5.444   2.120  1.4669  0.6160  0.2998
 2294TIP3   OH2 6887   1.862   3.057   3.503  0.0554 -0.3315 -0.3977
 2294TIP3    H1 6888   1.860   2.978   3.557  1.2639 -0.7949 -1.0059
 2294TIP3    H2 6889   1.950   3.091   3.513 -0.2089  0.4969 -0.7915
 2295TIP3   OH2 6890   4.626   1.163   2.827  0.8274  0.6151  0.2607
 2295TIP3    H1 6891   4.673   1.080   2.830  1.8958  1.1529 -0.8069
 2295TIP3    H2 6892   4.689   1.227   2.861 -0.1638  0.9318  1.5834
 2296TIP3   OH2 6893   2.921   0.867   4.045 -0.0416  0.3613  0.3456
 2296TIP3    H1 6894   2.886   0.896   3.961  0.5021 -0.0755 -0.0434
 2296TIP3    H2 6895   3.014   0.888   4.040  0.4516 -1.6866 -0.0899
 2297TIP3   OH2 6896   1.928   0.763   4.343  0.4174  0.0838  0.7883
 2297TIP3    H1 6897   1.907   0.853   4.320  0.3041  0.3502  1.8673
 2297TIP3    H2 6898   1.884   0.749   4.427  0.8658 -0.8109  0.8906
 2298TIP3   OH2 6899   6.277   5.698   4.976 -0.2904 -0.1965 -0.3546
 2298TIP3    H1 6900   6.204   5.639   4.958 -1.3826  0.2681  2.1927
 2298TIP3    H2 6901   6.288   5.748   4.895 -3.4276  0.3652 -0.5548
 2299TIP3   OH2 6902   3.624   1.441   0.317 -0.2928  0.1456 -0.3338
 2299TIP3    H1 6903   3.671   1.411   0.395  0.3454  0.2453 -0.6720
 2299TIP3    H2 6904   3.678   1.410   0.244 -1.3265 -0.6862 -0.7664
 2300TIP3   OH2 6905   5.627   3.824   3.074  0.0061 -0.1295 -0.0012
 2300TIP3    H1 6906   5.608   3.916   3.090  0.6323  0.0866 -0.4541
 2300TIP3    H2 6907   5.553   3.792   3.022  0.4942  0.5150 -1.1345
 2301TIP3   OH2 6908   1.972   4.464   1.611 -0.5467  0.6185 -1.5158
 2301TIP3    H1 6909   2.061   4.457   1.575  0.9744 -1.4176  2.1088
 2301TIP3    H2 6910   1.967   4.554   1.645  1.3823 -0.0772  0.8557
 2302TIP3   OH2 6911   0.716   0.387   4.059 -0.1203 -0.7459  0.0251
 2302TIP3    H1 6912   0.674   0.338   4.130  0.0399 -0.6230  0.2084
 2302TIP3    H2 6913   0.699   0.479   4.081  0.0656 -0.7025 -0.0107
 2303TIP3   OH2 6914   1.549   3.747   2.268 -0.0969  0.2215 -0.2665
 2303TIP3    H1 6915   1.547   3.656   2.298  1.2109  0.1172 -0.4372
 2303TIP3    H2 6916   1.466   3.784   2.298 -0.9885 -1.2225 -0.8510
 2304TIP3   OH2 6917   2.305   4.626   3.125 -0.1369 -0.0351  0.2016
 2304TIP3    H1 6918   2.275   4.716   3.115 -0.3497 -0.2816 -1.6965
 2304TIP3    H2 6919   2.260   4.594   3.203  0.1885  1.5711  1.1002
 2305TIP3   OH2 6920   0.629   5.340   0.392  0.3123  0.4681  0.1777
 2305TIP3    H1 6921   0.607   5.388   0.472  0.9591  0.8024  0.1563
 2305TIP3    H2 6922   0.645   5.409   0.327 -0.0114  0.2009 -0.1910
 2306TIP3   OH2 6923   2.152   4.389   4.640  0.7096  0.0050  0.5709
 2306TIP3    H1 6924   2.191   4.470   4.609  0.2141 -0.4366 -1.3291
 2306TIP3    H2 6925   2.068   4.383   4.594  1.1301 -1.9961 -0.0612
 2307TIP3   OH2 6926   6.133   2.050   0.827 -0.4726 -0.1765  0.1974
 2307TIP3    H1 6927   6.061   1.991   0.851 -2.6355  2.0586 -0.4028
 2307TIP3    H2 6928   6.128   2.121   0.891  1.2200  0.0511  0.1199
 2308TIP3   OH2 6929   1.109   4.781   4.687  0.0531 -0.2670  0.1038
 2308TIP3    H1 6930   1.052   4.776   4.763  0.8567  1.7603  0.9211
 2308TIP3    H2 6931   1.050   4.791   4.613 -0.7020  0.8659  0.8304
 2309TIP3   OH2 6932   1.909   3.063   4.859  0.3611  0.3183  0.0950
 2309TIP3    H1 6933   1.922   3.124   4.932 -1.0840 -0.2753  0.8915
 2309TIP3    H2 6934   1.814   3.055   4.851  0.4858 -2.1639  0.3140
 2310TIP3   OH2 6935   0.964   0.763   3.932  0.3975 -0.0261  0.4962
 2310TIP3    H1 6936   1.020   0.840   3.943  1.0394 -0.7071  2.3054
 2310TIP3    H2 6937   0.877   0.792   3.960  0.5017  0.2162  0.5705
 2311TIP3   OH2 6938   0.145   3.902   3.554  0.2312 -0.1569  0.1296
 2311TIP3    H1 6939   0.207   3.879   3.485  1.9120  0.6228  1.3139
 2311TIP3    H2 6940   0.151   3.998   3.560 -0.1101 -0.1848  1.1417
 2312TIP3   OH2 6941   4.119   5.553   4.379 -0.0336 -0.2734 -0.5175
 2312TIP3    H1 6942   4.047   5.576   4.321  0.8156 -1.1212 -1.9703
 2312TIP3    H2 6943   4.123   5.458   4.375  0.7925 -0.2678  0.0013
 2313TIP3   OH2 6944   3.537   4.901   3.064  0.6964 -0.3108 -0.2618
 2313TIP3    H1 6945   3.491   4.968   3.114 -0.5309 -1.7078  0.5802
 2313TIP3    H2 6946   3.480   4.884   2.988  0.4550 -1.1184  0.0887
 2314TIP3   OH2 6947   4.747   0.564   0.396  0.0492  0.4487  0.0470
 2314TIP3    H1 6948   4.829   0.593   0.357  0.2888 -0.2101  0.0427
 2314TIP3    H2 6949   4.767   0.478   0.434 -0.5376  0.4485  0.3825
 2315TIP3   OH2 6950   5.032   4.359   0.515 -0.5000 -0.0028 -0.4141
 2315TIP3    H1 6951   5.031   4.333   0.423  1.3193 -0.8906 -0.2116
 2315TIP3    H2 6952   4.981   4.440   0.517 -0.8246 -0.1274 -2.1411
 2316TIP3   OH2 6953   3.002   5.297   2.383  0.0438 -0.1326 -0.2006
 2316TIP3    H1 6954   2.997   5.347   2.464 -0.8980  0.7645 -0.7926
 2316TIP3    H2 6955   2.966   5.211   2.405  0.4794 -0.1391  0.5016
 2317TIP3   OH2 6956   1.308   5.497   0.991 -0.9511 -0.3317 -0.5461
 2317TIP3    H1 6957   1.279   5.583   0.961 -0.5690 -0.4405 -1.2371
 2317TIP3    H2 6958   1.392   5.483   0.948 -1.6839 -1.6711 -1.6141
 2318TIP3   OH2 6959   0.878   5.632   2.259 -0.3191  0.0545 -0.0222
 2318TIP3    H1 6960   0.863   5.724   2.236  1.8455 -0.0210 -2.0614
 2318TIP3    H2 6961   0.872   5.631   2.355 -4.1418  1.5119 -0.0353
 2319TIP3   OH2 6962   0.747   1.513   0.110 -0.7052 -0.4248 -0.0680
 2319TIP3    H1 6963   0.794   1.541   0.189 -0.8967 -1.1391  0.3051
 2319TIP3    H2 6964   0.693   1.588   0.087 -0.2762 -0.0300  0.1904
 2320TIP3   OH2 6965   4.588   0.285   1.343 -0.1371 -0.6034  0.9448
 2320TIP3    H1 6966   4.509   0.270   1.290  1.5401 -2.0400 -1.3405
 2320TIP3    H2 6967   4.634   0.355   1.297  0.8065 -1.0703  1.1696
 2321TIP3   OH2 6968   3.465   4.979   2.148  0.2768  0.4893 -0.4084
 2321TIP3    H1 6969   3.486   4.972   2.241 -0.0825  0.7896 -0.3043
 2321TIP3    H2 6970   3.385   4.927   2.137  1.0429 -0.6596 -0.8052
 2322TIP3   OH2 6971   5.476   3.815   1.062  0.0974 -0.1781  0.4882
 2322TIP3    H1 6972   5.467   3.790   1.154 -0.4251  0.1039  0.5204
 2322TIP3    H2 6973   5.570   3.828   1.049  0.3665 -1.8676  0.5412
 2323TIP3   OH2 6974   2.181   3.533   4.838  0.3148 -0.0872 -0.2747
 2323TIP3    H1 6975   2.176   3.443   4.806  0.6764 -0.3074  0.2656
 2323TIP3    H2 6976   2.251   3.573   4.788  0.1380 -0.0997 -0.5330
 2324TIP3   OH2 6977   3.837   4.866   4.542  0.1140 -0.4520 -0.0845
 2324TIP3    H1 6978   3.902   4.934   4.559  1.1675 -1.1347 -1.1779
 2324TIP3    H2 6979   3.772   4.909   4.486  0.8586 -0.3652 -0.9036
 2325TIP3   OH2 6980   2.318   0.687   4.832  0.5371  0.1258  0.0563
 2325TIP3    H1 6981   2.310   0.695   4.927 -0.0435  0.8232 -0.0479
 2325TIP3    H2 6982   2.279   0.602   4.812  0.7324 -0.0584  0.4433
 2326TIP3   OH2 6983   3.997   5.646   3.898  0.6212 -0.3922 -0.6992
 2326TIP3    H1 6984   4.043   5.726   3.876  2.1269 -1.0678 -0.1883
 2326TIP3    H2 6985   3.912   5.675   3.930  1.0796  0.9830 -0.6685
 2327TIP3   OH2 6986   2.007   0.200   4.639  0.4554  0.4991  0.4194
 2327TIP3    H1 6987   1.998   0.295   4.632  0.5740  0.4480 -0.4949
 2327TIP3    H2 6988   1.995   0.182   4.733 -2.1126  1.1482  0.2973
 2328TIP3   OH2 6989   5.399   0.691   1.551 -0.0636 -0.1633 -0.3616
 2328TIP3    H1 6990   5.385   0.613   1.605 -0.2773 -0.3152 -0.6384
 2328TIP3    H2 6991   5.408   0.762   1.615  1.0153 -0.5440 -0.0735
 2329TIP3   OH2 6992   4.115   5.700   0.812 -0.2972 -0.4284 -0.5972
 2329TIP3    H1 6993   4.133   5.620   0.862  0.8576  0.4782  0.4996
 2329TIP3    H2 6994   4.020   5.699   0.798 -0.7003 -0.6284  1.8136
 2330TIP3   OH2 6995   5.729   0.500   4.146  0.3799 -0.5046  0.1685
 2330TIP3    H1 6996   5.669   0.565   4.109  3.5570  3.7121  1.7174
 2330TIP3    H2 6997   5.712   0.502   4.240  2.9421  1.0584  0.6942
 2331TIP3   OH2 6998   6.106   0.205   2.246  0.0535 -0.2810 -0.0852
 2331TIP3    H1 6999   6.026   0.178   2.202  0.1441 -1.2107  0.2976
 2331TIP3    H2 7000   6.135   0.282   2.198 -1.4846  0.5408  0.2642
 2332TIP3   OH2 7001   6.315   0.995   2.516  0.6281  0.3299 -0.1282
 2332TIP3    H1 7002   6.384   1.042   2.563  0.1055  0.1796  0.8097
 2332TIP3    H2 7003   6.257   1.064   2.485  0.5422  0.3783  0.1426
 2333TIP3   OH2 7004   1.068   0.031   0.515 -0.7805 -0.1668 -0.1765
 2333TIP3    H1 7005   1.158   0.034   0.481 -1.0907  0.1100 -1.0116
 2333TIP3    H2 7006   1.078   0.024   0.610  0.1248  0.1388 -0.2404
 2334TIP3   OH2 7007   6.111   5.210   0.748  0.5895 -0.0827 -0.1986
 2334TIP3    H1 7008   6.031   5.257   0.723  1.3828  1.1207 -0.5431
 2334TIP3    H2 7009   6.085   5.157   0.823 -0.7130 -0.2838 -0.7565
 2335TIP3   OH2 7010   3.976   0.192   4.337 -0.3037  0.8497 -0.0837
 2335TIP3    H1 7011   3.992   0.277   4.377  0.5603  1.5289 -1.8053
 2335TIP3    H2 7012   3.967   0.210   4.244 -0.6162 -0.8853 -0.4205
 2336TIP3   OH2 7013   0.319   4.014   2.186  0.8207  0.6263  0.1912
 2336TIP3    H1 7014   0.366   3.938   2.153  1.4819  1.2665 -0.3731
 2336TIP3    H2 7015   0.358   4.033   2.271  1.2224  0.8283 -0.0360
 2337TIP3   OH2 7016   2.414   1.659   1.205  0.2919 -0.9777  0.2579
 2337TIP3    H1 7017   2.379   1.651   1.117 -2.0684  0.8551  0.9304
 2337TIP3    H2 7018   2.351   1.613   1.261  1.1181 -1.0737  1.1506
 2338TIP3   OH2 7019   2.861   5.931   1.426  0.0135 -0.1302  0.3040
 2338TIP3    H1 7020   2.897   5.990   1.360  0.4240 -0.6853  0.0299
 2338TIP3    H2 7021   2.799   5.986   1.475  0.7035  0.6477  0.3337
 2339TIP3   OH2 7022   2.512   1.996   4.556 -0.0348 -0.4054  0.4941
 2339TIP3    H1 7023   2.459   2.063   4.598  0.1266  0.5746 -0.7643
 2339TIP3    H2 7024   2.602   2.023   4.574  0.0320 -0.7319  0.6479
 2340TIP3   OH2 7025   2.218   5.709   4.172 -0.0858  0.1333  0.1181
 2340TIP3    H1 7026   2.159   5.779   4.202 -1.0330 -0.8549  0.6021
 2340TIP3    H2 7027   2.274   5.691   4.247  0.9168  1.1185 -0.3628
 2341TIP3   OH2 7028   3.424   4.470   0.424  0.2620  0.2196 -0.0565
 2341TIP3    H1 7029   3.342   4.499   0.464  0.2403  0.5943 -0.3692
 2341TIP3    H2 7030   3.399   4.403   0.361  0.1688  0.5481 -0.3661
 2342TIP3   OH2 7031   2.486   0.712   3.579 -0.5021  0.1092  0.2098
 2342TIP3    H1 7032   2.424   0.669   3.519 -1.4288 -0.1293  1.3082
 2342TIP3    H2 7033   2.553   0.647   3.595 -0.1243  0.2474 -0.7161
 2343TIP3   OH2 7034   1.679   2.023   3.635 -0.3203  0.2968 -0.2716
 2343TIP3    H1 7035   1.748   1.964   3.665 -1.0212 -0.2913  0.2178
 2343TIP3    H2 7036   1.687   2.021   3.539 -0.4003 -0.7012 -0.2760
 2344TIP3   OH2 7037   5.097   3.618   0.709 -0.0483  0.0799  0.0520
 2344TIP3    H1 7038   5.128   3.527   0.715  0.2987  0.1417 -0.6671
 2344TIP3    H2 7039   5.141   3.663   0.781 -0.4396 -0.3744  0.5863
 2345TIP3   OH2 7040   2.440   5.784   0.406 -0.6314 -0.1873 -0.3366
 2345TIP3    H1 7041   2.411   5.866   0.446  0.2878 -1.4299  3.2493
 2345TIP3    H2 7042   2.535   5.794   0.399 -0.7371 -0.1557 -1.9811
 2346TIP3   OH2 7043   2.730   1.482   2.898 -0.1787  0.1729  0.4199
 2346TIP3    H1 7044   2.648   1.448   2.863  1.6159 -2.8316 -1.2986
 2346TIP3    H2 7045   2.764   1.539   2.829  0.5900 -1.0827 -0.2749
 2347TIP3   OH2 7046   2.266   4.597   5.166  0.3233 -0.3653 -0.3973
 2347TIP3    H1 7047   2.340   4.566   5.114 -0.1257 -0.4723 -0.9838
 2347TIP3    H2 7048   2.200   4.528   5.158  1.1771 -1.6791  2.4766
 2348TIP3   OH2 7049   1.567   4.942   5.122 -0.4802 -0.6073 -0.2187
 2348TIP3    H1 7050   1.512   4.945   5.044 -1.1660 -2.4379  0.1390
 2348TIP3    H2 7051   1.518   4.991   5.188 -0.3014  0.2199 -0.6966
 2349TIP3   OH2 7052   0.966   1.496   5.119 -0.2242  0.3304  0.1774
 2349TIP3    H1 7053   0.905   1.430   5.085  0.1584 -0.8686  1.7041
 2349TIP3    H2 7054   0.913   1.575   5.127 -1.1733 -0.2589 -0.0181
 2350TIP3   OH2 7055   1.942   2.829   2.674  0.3033  0.7532  0.2924
 2350TIP3    H1 7056   1.972   2.887   2.604  3.3397  0.5045  1.2043
 2350TIP3    H2 7057   1.966   2.874   2.755  0.9875 -0.8726  1.0537
 2351TIP3   OH2 7058   2.477   2.655   3.211  0.6973  0.1974 -0.2658
 2351TIP3    H1 7059   2.488   2.564   3.181 -0.9013 -0.2613  0.4525
 2351TIP3    H2 7060   2.560   2.676   3.254  1.1136 -0.8978 -0.5036
 2352TIP3   OH2 7061   3.543   2.781   4.834 -0.1537  0.2079  0.3395
 2352TIP3    H1 7062   3.516   2.717   4.899  1.9476 -1.6183 -0.4519
 2352TIP3    H2 7063   3.464   2.833   4.816 -2.0704 -2.3477  0.7865
 2353TIP3   OH2 7064   3.085   5.018   4.203 -0.3190  0.0362 -0.2542
 2353TIP3    H1 7065   3.168   4.976   4.180  0.3718  0.6202  1.1112
 2353TIP3    H2 7066   3.094   5.041   4.295 -1.2364  1.8668 -0.5838
 2354TIP3   OH2 7067   5.108   1.834   1.865 -0.2170  0.3049  0.4247
 2354TIP3    H1 7068   5.066   1.880   1.792  0.5519  0.3679  0.0120
 2354TIP3    H2 7069   5.141   1.903   1.922  1.8379  0.3311 -0.7090
 2355TIP3   OH2 7070   2.258   5.414   2.094  0.0504 -0.5195 -0.2785
 2355TIP3    H1 7071   2.282   5.492   2.145  0.6673 -2.7103  3.1236
 2355TIP3    H2 7072   2.162   5.416   2.092  0.0446  0.0618  0.2653
 2356TIP3   OH2 7073   0.981   5.298   0.072  0.0545  0.0795 -0.1109
 2356TIP3    H1 7074   0.973   5.347   0.154 -0.3335  1.1562 -0.7747
 2356TIP3    H2 7075   1.009   5.363   0.008 -1.2406 -0.3819 -1.1870
 2357TIP3   OH2 7076   2.054   5.863   3.357 -0.5931  0.0241 -0.0723
 2357TIP3    H1 7077   2.014   5.849   3.271 -0.7890  1.0334 -0.1571
 2357TIP3    H2 7078   2.077   5.775   3.387 -1.1244 -0.3995 -0.8654
 2358TIP3   OH2 7079   2.477   2.036   1.549  0.8027  0.7253  0.1293
 2358TIP3    H1 7080   2.443   2.124   1.560  0.8062  0.6408  0.8919
 2358TIP3    H2 7081   2.402   1.984   1.520  0.4384  0.6967  1.0657
 2359TIP3   OH2 7082   4.934   3.375   3.242 -0.2125  0.2370  0.1108
 2359TIP3    H1 7083   4.949   3.281   3.234 -2.7631 -0.1571 -0.8153
 2359TIP3    H2 7084   4.990   3.414   3.175  1.0306 -0.5577  0.6462
 2360TIP3   OH2 7085   4.585   4.827   3.533 -0.3767  0.1776 -0.4540
 2360TIP3    H1 7086   4.677   4.851   3.544 -0.6406  0.8444  0.3571
 2360TIP3    H2 7087   4.573   4.750   3.589 -0.2871  0.0302 -0.6379
 2361TIP3   OH2 7088   3.819   5.060   3.012 -0.2810 -0.1512  0.3057
 2361TIP3    H1 7089   3.732   5.030   2.983  0.5983 -2.5695 -0.0772
 2361TIP3    H2 7090   3.842   4.999   3.082  1.8114 -0.7006 -0.7828
 2362TIP3   OH2 7091   1.000   2.969   0.280 -0.0052 -0.0102 -0.0858
 2362TIP3    H1 7092   0.982   2.951   0.373 -0.0951 -0.4728 -0.1893
 2362TIP3    H2 7093   0.927   3.024   0.252 -1.2926 -1.8230 -0.4860
 2363TIP3   OH2 7094   3.429   5.377   5.042  0.2997  0.9259  0.1064
 2363TIP3    H1 7095   3.339   5.351   5.063  1.1819 -0.9693  1.8688
 2363TIP3    H2 7096   3.454   5.436   5.113  0.3113  1.8646 -0.6590
 2364TIP3   OH2 7097   5.217   0.344   2.452  0.9750 -0.2447 -0.2168
 2364TIP3    H1 7098   5.239   0.386   2.536 -0.1524 -0.5062  0.2275
 2364TIP3    H2 7099   5.267   0.262   2.453  0.5170 -0.5348  0.4969
 2365TIP3   OH2 7100   3.715   0.148   0.302  0.3157 -0.2351  0.0938
 2365TIP3    H1 7101   3.619   0.149   0.303  0.2866 -1.2090 -0.6118
 2365TIP3    H2 7102   3.738   0.183   0.216  0.6198  0.6627  0.5308
 2366TIP3   OH2 7103   2.022   4.185   1.448  0.0461  0.3102 -0.0750
 2366TIP3    H1 7104   2.049   4.155   1.361  0.5334  0.7358 -0.0746
 2366TIP3    H2 7105   1.962   4.257   1.431  1.1562  1.2682 -0.0653
 2367TIP3   OH2 7106   0.633   3.744   4.796 -0.1560 -0.0024  0.1479
 2367TIP3    H1 7107   0.694   3.743   4.723 -0.6011  2.8650 -0.3723
 2367TIP3    H2 7108   0.554   3.786   4.761 -0.3482  1.5465  2.2543
 2368TIP3   OH2 7109   1.520   4.111   0.444 -0.4715  0.1463 -0.1643
 2368TIP3    H1 7110   1.493   4.200   0.422 -2.2945 -0.4672 -0.5308
 2368TIP3    H2 7111   1.473   4.090   0.525  2.9980  0.8838  2.3046
 2369TIP3   OH2 7112   5.188   0.717   0.211  0.0796 -0.2031 -0.3357
 2369TIP3    H1 7113   5.255   0.660   0.171 -0.7437 -0.4929 -1.3667
 2369TIP3    H2 7114   5.218   0.806   0.192  0.7485 -0.3076  0.2066
 2370TIP3   OH2 7115   2.331   4.125   0.737 -0.3269 -0.4123  0.0627
 2370TIP3    H1 7116   2.251   4.105   0.784  0.3043 -2.6763  0.2900
 2370TIP3    H2 7117   2.306   4.125   0.644 -0.4975 -1.7519  0.0928
 2371TIP3   OH2 7118   5.066   0.634   4.925 -0.6155 -0.5584 -0.5914
 2371TIP3    H1 7119   5.132   0.589   4.977  0.2230  1.6236  0.3409
 2371TIP3    H2 7120   5.028   0.699   4.984 -4.0109 -2.0227 -0.9411
 2372TIP3   OH2 7121   4.087   3.677   2.138 -0.1010  0.3768  0.3259
 2372TIP3    H1 7122   4.068   3.747   2.076  1.9578 -1.1235 -2.2044
 2372TIP3    H2 7123   4.178   3.693   2.165 -0.6149  0.3905  2.2471
 2373TIP3   OH2 7124   1.339   0.443   5.080 -0.3141  0.9104  1.3693
 2373TIP3    H1 7125   1.344   0.525   5.129  1.5854  0.9961  1.1086
 2373TIP3    H2 7126   1.429   0.427   5.051 -0.8818 -0.6068  0.3232
 2374TIP3   OH2 7127   1.640   3.589   0.629  0.6297  0.1905  0.7035
 2374TIP3    H1 7128   1.718   3.536   0.614  2.2931  2.1756  1.7738
 2374TIP3    H2 7129   1.658   3.635   0.712 -0.7949  2.1940 -0.0152
 2375TIP3   OH2 7130   0.750   2.556   3.278 -0.5257 -0.5845  0.3133
 2375TIP3    H1 7131   0.787   2.527   3.195 -1.2045  1.0590 -0.6203
 2375TIP3    H2 7132   0.752   2.479   3.334 -0.7760 -1.9636 -1.4877
 2376TIP3   OH2 7133   5.895   0.622   4.381 -0.1433  0.4561  0.0751
 2376TIP3    H1 7134   5.907   0.691   4.315  1.0192  0.2859  0.0754
 2376TIP3    H2 7135   5.801   0.610   4.387 -0.4894  3.0749  1.1425
 2377TIP3   OH2 7136   3.060   4.853   4.973 -0.0488  0.1847  0.0201
 2377TIP3    H1 7137   3.111   4.876   4.895  0.1820 -0.4445 -0.0172
 2377TIP3    H2 7138   3.105   4.899   5.045  0.2580  0.0656 -0.0924
 2378TIP3   OH2 7139   4.829   3.650   0.616 -0.1300  0.7494 -0.3337
 2378TIP3    H1 7140   4.804   3.691   0.699  0.6347  1.5598 -0.4844
 2378TIP3    H2 7141   4.923   3.635   0.625 -0.4636 -1.6177 -0.0285
 2379TIP3   OH2 7142   3.766   2.750   4.230  0.3469  0.0446 -0.5288
 2379TIP3    H1 7143   3.719   2.761   4.147 -1.4962  2.0939  0.6934
 2379TIP3    H2 7144   3.776   2.839   4.264 -1.3878 -0.8454  2.6943
 2380TIP3   OH2 7145   5.697   3.075   0.210 -0.5413  0.3664 -0.2835
 2380TIP3    H1 7146   5.689   3.088   0.305 -0.2815  0.1904 -0.2362
 2380TIP3    H2 7147   5.791   3.085   0.193 -0.5105 -0.1799 -0.4361
 2381TIP3   OH2 7148   3.656   2.834   0.863  0.0777 -0.4384 -0.5566
 2381TIP3    H1 7149   3.727   2.809   0.922 -0.2330 -1.0274 -0.4165
 2381TIP3    H2 7150   3.583   2.856   0.921  0.2144  0.4125 -0.6920
 2382TIP3   OH2 7151   1.379   1.123   1.121  0.2543 -0.1102 -0.1147
 2382TIP3    H1 7152   1.295   1.083   1.142  0.2265 -0.2814 -0.5433
 2382TIP3    H2 7153   1.402   1.173   1.199 -0.0348 -0.4173  0.1693
 2383TIP3   OH2 7154   0.224   2.526   0.188  0.6777  0.6692 -0.2460
 2383TIP3    H1 7155   0.165   2.470   0.138  0.0374 -0.3269  1.5222
 2383TIP3    H2 7156   0.199   2.615   0.163 -2.1195  0.3294  0.8797
 2384TIP3   OH2 7157   0.616   0.205   3.886  0.5265  0.3012  0.5101
 2384TIP3    H1 7158   0.674   0.270   3.925  0.2325  1.2985 -0.6578
 2384TIP3    H2 7159   0.672   0.130   3.869  1.8076  1.6675 -1.6840
 2385TIP3   OH2 7160   5.600   1.211   3.948 -0.2475  0.2262  0.3035
 2385TIP3    H1 7161   5.557   1.230   3.865  1.4011  1.4907 -0.2998
 2385TIP3    H2 7162   5.555   1.268   4.011 -1.7884 -1.0416  0.4416
 2386TIP3   OH2 7163   5.246   2.781   0.810 -0.2864  0.3633  0.1825
 2386TIP3    H1 7164   5.173   2.839   0.829 -1.5209 -0.5029 -1.6126
 2386TIP3    H2 7165   5.272   2.803   0.721  2.9929  1.9709  1.3711
 2387TIP3   OH2 7166   1.192   5.359   1.242 -0.1735  0.1514 -0.2114
 2387TIP3    H1 7167   1.281   5.336   1.268 -0.5869 -1.6011 -0.2322
 2387TIP3    H2 7168   1.202   5.436   1.185  1.3893 -0.4921 -0.8360
 2388TIP3   OH2 7169   5.070   3.811   3.644  0.5719  0.0227 -0.6199
 2388TIP3    H1 7170   5.089   3.899   3.677  0.8207 -0.2354 -0.0701
 2388TIP3    H2 7171   5.156   3.776   3.619  0.3959  0.1920 -1.4947
 2389TIP3   OH2 7172   4.545   5.868   0.051  0.3108 -0.0765 -0.6539
 2389TIP3    H1 7173   4.582   5.919  -0.021  2.0253  0.0561  0.2626
 2389TIP3    H2 7174   4.600   5.789   0.055  2.2989  1.2444  2.3162
 2390TIP3   OH2 7175   0.048   2.045   4.402  0.4082  0.2495  0.5161
 2390TIP3    H1 7176   0.090   2.131   4.405  0.8985  0.1567 -1.7559
 2390TIP3    H2 7177   0.099   1.991   4.462  0.9795  1.1809  0.8917
 2391TIP3   OH2 7178   4.634   4.736   3.922 -0.5853 -0.2520  0.4258
 2391TIP3    H1 7179   4.705   4.721   3.984  0.6625 -0.8605 -1.0747
 2391TIP3    H2 7180   4.650   4.824   3.888  1.0156 -1.3132 -1.7626
 2392TIP3   OH2 7181   4.115   2.856   2.568 -0.6961 -0.8394 -0.6259
 2392TIP3    H1 7182   4.149   2.875   2.481 -0.3676 -0.6156 -0.4481
 2392TIP3    H2 7183   4.174   2.901   2.628 -0.9474 -0.9531 -0.2879
 2393TIP3   OH2 7184   3.610   0.151   4.319 -0.4219  0.1075 -0.2949
 2393TIP3    H1 7185   3.633   0.182   4.232  0.5394 -0.2429 -0.1882
 2393TIP3    H2 7186   3.516   0.166   4.327 -0.6141 -0.3340 -1.5837
 2394TIP3   OH2 7187   3.721   5.693   3.936 -0.2022 -0.2689  1.2457
 2394TIP3    H1 7188   3.702   5.690   3.842  0.7873 -0.6850  1.0543
 2394TIP3    H2 7189   3.674   5.771   3.967  0.5924  0.6763  0.1528
 2395TIP3   OH2 7190   3.832   3.108   3.062  0.2469  0.3052 -0.2274
 2395TIP3    H1 7191   3.836   3.201   3.083 -2.3102  0.2392  1.0759
 2395TIP3    H2 7192   3.739   3.092   3.042  0.4801 -2.0439  0.1921
 2396TIP3   OH2 7193   1.744   3.336   0.608 -1.1154 -0.2267  0.3834
 2396TIP3    H1 7194   1.664   3.299   0.644 -0.1434 -1.1758  1.6744
 2396TIP3    H2 7195   1.806   3.263   0.605  0.0806  0.7252  0.5742
 2397TIP3   OH2 7196   3.298   4.046   2.370 -0.2976  0.6164 -0.5375
 2397TIP3    H1 7197   3.258   4.038   2.456  0.1025  2.1911 -0.1806
 2397TIP3    H2 7198   3.229   4.021   2.309 -0.7003 -0.1467  0.2044
 2398TIP3   OH2 7199   1.757   3.199   2.537 -0.5442  0.1242  0.1688
 2398TIP3    H1 7200   1.819   3.184   2.609 -0.9574  0.3588  0.5803
 2398TIP3    H2 7201   1.671   3.198   2.579 -0.7474  1.0398 -0.2015
 2399TIP3   OH2 7202   2.095   2.616   2.777 -0.2453 -0.0657  0.0505
 2399TIP3    H1 7203   2.177   2.610   2.728  0.5320 -2.7620  1.4547
 2399TIP3    H2 7204   2.051   2.693   2.741  1.6898 -0.0355 -2.5870
 2400TIP3   OH2 7205   3.160   3.099   4.681 -0.0527  0.2549 -0.0732
 2400TIP3    H1 7206   3.066   3.096   4.665 -0.0182 -0.4010 -0.1787
 2400TIP3    H2 7207   3.172   3.168   4.745 -0.5666  0.6012 -0.3483
 2401TIP3   OH2 7208   4.610   0.911   4.859  0.8687  0.0779  0.3719
 2401TIP3    H1 7209   4.570   0.939   4.776  1.7362  2.7290  0.7453
 2401TIP3    H2 7210   4.654   0.829   4.838  0.0970  0.0973 -1.5062
 2402TIP3   OH2 7211   0.045   2.547   0.630  0.2827  0.5249 -0.6772
 2402TIP3    H1 7212   0.096   2.478   0.587 -0.1140 -1.3839  1.6689
 2402TIP3    H2 7213   0.006   2.503   0.706 -3.4069  2.3191 -1.3441
 2403TIP3   OH2 7214   5.783   0.086   1.335 -0.3902  0.2723 -0.3845
 2403TIP3    H1 7215   5.833   0.159   1.371  1.7063 -0.2905 -1.9171
 2403TIP3    H2 7216   5.807   0.084   1.242 -1.6166 -1.3979 -0.7100
 2404TIP3   OH2 7217   2.879   2.099   2.321 -0.0498 -0.4884 -0.5719
 2404TIP3    H1 7218   2.824   2.178   2.325  0.1345 -0.3415 -0.9235
 2404TIP3    H2 7219   2.928   2.108   2.240  2.7291  0.9025  1.0969
 2405TIP3   OH2 7220   6.116   4.955   4.858  0.1993  0.1246 -0.3896
 2405TIP3    H1 7221   6.042   4.938   4.799  2.1411 -0.9095 -2.6747
 2405TIP3    H2 7222   6.158   5.033   4.823 -0.5839  1.6118  1.7896
 2406TIP3   OH2 7223   0.626   1.789   0.774 -0.1215  0.1930 -0.3474
 2406TIP3    H1 7224   0.717   1.808   0.797  0.4605 -2.4086 -0.1182
 2406TIP3    H2 7225   0.584   1.770   0.858 -0.7314  0.8328 -0.5061
 2407TIP3   OH2 7226   0.614   0.761   0.332 -0.2395 -0.5317  0.3291
 2407TIP3    H1 7227   0.669   0.762   0.410  1.4273  0.9806 -0.7882
 2407TIP3    H2 7228   0.570   0.846   0.332 -0.5179 -0.6714 -0.1619
 2408TIP3   OH2 7229   1.684   4.905   3.985  0.1479  0.1194  0.5900
 2408TIP3    H1 7230   1.685   4.850   4.063 -2.8457 -1.5603 -0.3952
 2408TIP3    H2 7231   1.613   4.967   4.000  0.5953  0.8455 -0.1764
 2409TIP3   OH2 7232   3.270   4.286   5.171 -0.5540 -0.3907 -0.0721
 2409TIP3    H1 7233   3.291   4.320   5.258  0.6965 -0.2073 -0.4322
 2409TIP3    H2 7234   3.245   4.364   5.120  0.3843 -0.2637 -0.3470
 2410TIP3   OH2 7235   0.667   5.862   1.783  0.0658 -0.2108  0.2453
 2410TIP3    H1 7236   0.674   5.953   1.812 -0.3287  1.6249 -4.4795
 2410TIP3    H2 7237   0.756   5.828   1.789 -0.1135 -0.4782  4.1017
 2411TIP3   OH2 7238   1.723   1.119   3.695  0.0726  0.2216  0.1303
 2411TIP3    H1 7239   1.790   1.158   3.639 -2.5376  2.8772 -1.4212
 2411TIP3    H2 7240   1.693   1.041   3.647 -1.0208  1.5808 -1.5242
 2412TIP3   OH2 7241   2.230   3.701   1.719 -0.1684  0.4406 -0.4378
 2412TIP3    H1 7242   2.175   3.643   1.666 -1.1404  0.6788  0.2812
 2412TIP3    H2 7243   2.264   3.765   1.657 -0.8122  0.3643 -0.8824
 2413TIP3   OH2 7244   0.453   0.366   4.994 -0.5432  0.0909  0.0243
 2413TIP3    H1 7245   0.500   0.283   4.999  0.8102  0.9091  1.4874
 2413TIP3    H2 7246   0.384   0.358   5.060 -1.2917 -0.3487 -0.7746
 2414TIP3   OH2 7247   0.310   4.655   2.358  0.0162  0.5284  0.3553
 2414TIP3    H1 7248   0.395   4.626   2.323 -0.3450  1.1683 -1.1025
 2414TIP3    H2 7249   0.333   4.708   2.435  0.9002  0.1075  0.3928
 2415TIP3   OH2 7250   2.833   2.098   0.830  0.1701 -0.0059 -0.6915
 2415TIP3    H1 7251   2.907   2.145   0.792  1.6940 -2.5251 -1.0174
 2415TIP3    H2 7252   2.783   2.066   0.755 -1.2532  1.5535 -0.4741
 2416TIP3   OH2 7253   4.325   5.775   3.854  0.0310 -0.1336  0.3589
 2416TIP3    H1 7254   4.396   5.829   3.817  0.2693  0.5521  1.7389
 2416TIP3    H2 7255   4.249   5.833   3.855  0.2276  0.1250  1.6389
 2417TIP3   OH2 7256   3.834   5.201   0.797 -0.3503 -0.4418 -0.5957
 2417TIP3    H1 7257   3.916   5.173   0.758 -0.2228  0.4184 -0.9623
 2417TIP3    H2 7258   3.847   5.294   0.817 -0.3478 -0.8686  1.6285
 2418TIP3   OH2 7259   3.519   1.152   2.987 -0.3104  0.4392 -0.0021
 2418TIP3    H1 7260   3.500   1.170   2.894 -0.9275  0.2793  0.0873
 2418TIP3    H2 7261   3.513   1.057   2.995 -0.1665  0.4460  0.1857
 2419TIP3   OH2 7262   0.615   2.291   4.492 -0.1742  0.1211  0.2051
 2419TIP3    H1 7263   0.559   2.356   4.451  0.0724 -0.8869 -1.8383
 2419TIP3    H2 7264   0.697   2.294   4.443 -0.0527 -1.5200  0.2407
 2420TIP3   OH2 7265   4.132   4.918   5.108  0.5101  0.0532 -0.0624
 2420TIP3    H1 7266   4.109   4.967   5.186  0.1977 -1.5298  0.8920
 2420TIP3    H2 7267   4.225   4.937   5.093  0.5920  0.3093  0.7407
 2421TIP3   OH2 7268   5.138   1.741   2.540  0.7053  0.2256  0.2111
 2421TIP3    H1 7269   5.203   1.703   2.599  1.5345  0.9629 -0.2044
 2421TIP3    H2 7270   5.166   1.715   2.452  2.0235  2.7071 -0.2158
 2422TIP3   OH2 7271   1.215   4.553   1.607  0.0459  0.2681 -0.3598
 2422TIP3    H1 7272   1.302   4.515   1.595  0.4512  0.6682  1.1252
 2422TIP3    H2 7273   1.172   4.542   1.522  0.4594 -2.6511 -0.2854
 2423TIP3   OH2 7274   6.257   1.875   1.421  0.5299  0.1752 -0.0158
 2423TIP3    H1 7275   6.190   1.927   1.464 -0.5511 -0.5567 -0.7829
 2423TIP3    H2 7276   6.213   1.795   1.395  1.7397 -0.3917 -0.4149
 2424TIP3   OH2 7277   4.626   1.295   1.100  0.0301  0.2431 -0.3460
 2424TIP3    H1 7278   4.649   1.276   1.009 -0.7969 -2.6877 -0.0366
 2424TIP3    H2 7279   4.535   1.325   1.096 -0.3411 -0.8748 -0.4038
 2425TIP3   OH2 7280   0.391   1.308   3.722 -0.2448  0.0868 -1.0490
 2425TIP3    H1 7281   0.305   1.344   3.702  0.2471  1.4945 -0.7092
 2425TIP3    H2 7282   0.444   1.383   3.747  0.8311 -0.8775 -0.3197
 2426TIP3   OH2 7283   6.021   0.225   3.683  0.2232  0.3794 -0.6571
 2426TIP3    H1 7284   6.081   0.160   3.647  0.7018  0.4636 -0.0407
 2426TIP3    H2 7285   6.029   0.215   3.778 -2.1866 -0.9195 -0.5281
 2427TIP3   OH2 7286   0.901   5.608   2.982  0.2628  0.6173  0.5960
 2427TIP3    H1 7287   0.862   5.687   2.945  1.2416  1.4809  1.3535
 2427TIP3    H2 7288   0.907   5.627   3.076  0.8356 -0.2148  0.7310
 2428TIP3   OH2 7289   3.123   1.849   4.639  0.7540  0.1960 -0.1789
 2428TIP3    H1 7290   3.048   1.838   4.582  1.3048 -1.3455 -0.6580
 2428TIP3    H2 7291   3.193   1.878   4.581  0.7071  0.9910  0.1517
 2429TIP3   OH2 7292   2.325   4.839   3.773  1.2565  0.5822  0.4634
 2429TIP3    H1 7293   2.231   4.844   3.756  0.5797 -2.8268  2.4164
 2429TIP3    H2 7294   2.360   4.786   3.702  1.9960  2.5421 -0.7451
 2430TIP3   OH2 7295   1.118   3.318   3.968  0.4328  0.0958  0.2354
 2430TIP3    H1 7296   1.126   3.225   3.947  1.6752  0.1865  0.2547
 2430TIP3    H2 7297   1.202   3.341   4.009  0.5304  1.4566 -0.6843
 2431TIP3   OH2 7298   3.013   0.113   1.790 -0.3609 -0.5429 -0.4848
 2431TIP3    H1 7299   3.063   0.168   1.851 -1.2468 -0.7101  0.4234
 2431TIP3    H2 7300   3.038   0.023   1.813  0.8810 -0.5661 -1.7884
 2432TIP3   OH2 7301   1.644   3.389   4.095  0.1126 -0.1660 -0.0541
 2432TIP3    H1 7302   1.730   3.392   4.137  0.1768 -0.2373 -0.1802
 2432TIP3    H2 7303   1.644   3.305   4.047 -1.0402 -1.4857  2.1105
 2433TIP3   OH2 7304   1.988   2.167   4.110  0.5828 -0.4617  0.3940
 2433TIP3    H1 7305   2.058   2.225   4.079  0.1568 -0.6639 -1.0472
 2433TIP3    H2 7306   1.919   2.176   4.044 -0.3516 -1.0125  1.2645
 2434TIP3   OH2 7307   3.006   3.564   0.369 -0.5588 -0.0489 -0.6536
 2434TIP3    H1 7308   3.012   3.568   0.464  0.7282 -1.8263 -0.6141
 2434TIP3    H2 7309   2.980   3.652   0.342  0.9941  1.0381  1.1991
 2435TIP3   OH2 7310   1.499   4.054   1.172 -0.8917  0.2656 -0.2841
 2435TIP3    H1 7311   1.487   3.968   1.131 -0.4431  0.3151 -0.5291
 2435TIP3    H2 7312   1.588   4.050   1.208 -1.8959 -0.4842  2.3909
 2436TIP3   OH2 7313   4.256   4.142   5.118  0.2636 -0.2375 -0.1762
 2436TIP3    H1 7314   4.294   4.071   5.066  1.1815 -0.3036  0.5583
 2436TIP3    H2 7315   4.332   4.188   5.154 -0.3321 -0.3799  1.3493
 2437TIP3   OH2 7316   4.950   1.416   0.817  0.2811 -0.0414  0.0557
 2437TIP3    H1 7317   4.989   1.338   0.857 -0.9362  0.0688  1.5638
 2437TIP3    H2 7318   4.966   1.486   0.881 -1.8989  0.1064  0.5066
 2438TIP3   OH2 7319   5.867   2.839   3.590 -0.6540 -0.5195 -0.5520
 2438TIP3    H1 7320   5.853   2.808   3.680 -0.0882 -0.7873 -0.5491
 2438TIP3    H2 7321   5.843   2.764   3.535 -0.2979 -0.6132 -0.5875
 2439TIP3   OH2 7322   5.883   5.832   4.321  0.2528  0.0378  0.5915
 2439TIP3    H1 7323   5.936   5.807   4.246  0.2821 -0.9897  0.9428
 2439TIP3    H2 7324   5.941   5.889   4.372  0.6143 -0.1357  0.3843
 2440TIP3   OH2 7325   1.314   0.993   4.623 -0.2975 -0.2529 -0.0491
 2440TIP3    H1 7326   1.275   1.010   4.537 -0.7815 -0.7512  0.0661
 2440TIP3    H2 7327   1.297   1.074   4.673  0.1757  0.1176 -0.4877
 2441TIP3   OH2 7328   3.336   3.982   2.736 -0.3212  0.0626 -0.5878
 2441TIP3    H1 7329   3.331   3.974   2.831 -0.7283  0.4774 -0.5704
 2441TIP3    H2 7330   3.250   4.014   2.710 -0.1789  0.0519 -1.0872
 2442TIP3   OH2 7331   5.585   1.988   3.336 -0.2748  0.4767  0.1851
 2442TIP3    H1 7332   5.585   1.913   3.277 -0.4477  0.3873  0.2979
 2442TIP3    H2 7333   5.571   2.063   3.278  1.1443  0.5576 -0.0849
 2443TIP3   OH2 7334   5.004   4.357   3.986  0.2538 -0.0052 -0.4468
 2443TIP3    H1 7335   4.909   4.348   3.983  0.2101  0.5732 -1.3349
 2443TIP3    H2 7336   5.021   4.444   3.951  1.0866  0.1021  0.2002
 2444TIP3   OH2 7337   0.998   3.642  -0.026 -0.0238 -0.2927  0.5332
 2444TIP3    H1 7338   0.976   3.549  -0.032  1.2993 -0.5959  0.0611
 2444TIP3    H2 7339   1.032   3.653   0.062 -1.3879  0.0353  1.0358
 2445TIP3   OH2 7340   5.649   2.287   3.443 -0.2390 -0.6792  0.0241
 2445TIP3    H1 7341   5.583   2.249   3.501 -1.2852  0.0975 -0.5990
 2445TIP3    H2 7342   5.632   2.247   3.357 -1.2888  1.0266 -0.6138
 2446TIP3   OH2 7343   4.984   0.835   4.336  0.1803  0.0255  0.2507
 2446TIP3    H1 7344   5.059   0.782   4.308 -0.9319 -0.0288 -2.9973
 2446TIP3    H2 7345   4.928   0.840   4.259 -1.6881  2.6598  1.6284
 2447TIP3   OH2 7346   4.069   3.387   3.989  0.8631  1.0306 -0.3450
 2447TIP3    H1 7347   4.075   3.438   4.070  0.0199  1.1460 -0.3482
 2447TIP3    H2 7348   4.159   3.365   3.968  1.1545  1.6868  0.1932
 2448TIP3   OH2 7349   0.469   3.235   2.292 -0.5449 -0.0996 -0.4025
 2448TIP3    H1 7350   0.496   3.315   2.337  0.2655  0.5373 -1.9441
 2448TIP3    H2 7351   0.380   3.219   2.323  0.3851 -0.4190  2.3306
 2449TIP3   OH2 7352   0.017   3.647   2.166  0.4524 -0.2060 -0.0784
 2449TIP3    H1 7353   0.065   3.564   2.166 -1.6443 -1.4917 -0.2313
 2449TIP3    H2 7354   0.017   3.674   2.258 -0.0730 -1.1599  0.2191
 2450TIP3   OH2 7355   3.374   1.568   3.649  0.3198 -0.3734 -0.1433
 2450TIP3    H1 7356   3.439   1.638   3.659 -0.3117  0.2989 -0.5920
 2450TIP3    H2 7357   3.322   1.573   3.728 -0.5193  0.5342 -0.7204
 2451TIP3   OH2 7358   2.264   1.188   4.802 -0.0130  0.1264  0.2154
 2451TIP3    H1 7359   2.169   1.199   4.800 -0.4427 -2.7631  0.4636
 2451TIP3    H2 7360   2.282   1.119   4.738  2.1260  1.5313 -0.8117
 2452TIP3   OH2 7361   5.813   4.204   4.028 -0.3692 -0.4325 -0.2374
 2452TIP3    H1 7362   5.875   4.257   4.079 -0.3491  1.5849 -2.2124
 2452TIP3    H2 7363   5.744   4.265   4.003 -1.0356 -1.6512 -1.5485
 2453TIP3   OH2 7364   4.533   5.331   3.398 -0.0878 -0.6144 -0.1820
 2453TIP3    H1 7365   4.496   5.265   3.340 -3.0848  1.2893 -0.6953
 2453TIP3    H2 7366   4.532   5.290   3.484  0.8715 -2.1819 -0.8689
 2454TIP3   OH2 7367   1.343   3.585   3.814  0.5172 -0.2532 -0.1600
 2454TIP3    H1 7368   1.408   3.631   3.868 -0.4299 -0.2570  1.0146
 2454TIP3    H2 7369   1.367   3.493   3.821  0.5724 -0.2264  0.0103
 2455TIP3   OH2 7370   4.272   0.369   1.062  0.0426  0.9112  0.5386
 2455TIP3    H1 7371   4.293   0.455   1.024 -2.9924  0.9958 -1.3410
 2455TIP3    H2 7372   4.192   0.384   1.112 -0.5888 -0.8093  0.1188
 2456TIP3   OH2 7373   1.574   1.025   0.006 -0.3520 -0.4029  0.4920
 2456TIP3    H1 7374   1.546   1.030   0.097 -0.2685 -0.7042  0.5360
 2456TIP3    H2 7375   1.550   1.110  -0.032 -2.2942 -1.0157  0.2425
 2457TIP3   OH2 7376   6.076   2.730   1.283 -0.7307 -0.0287 -0.6984
 2457TIP3    H1 7377   5.991   2.721   1.326 -0.8131 -0.2463 -0.9049
 2457TIP3    H2 7378   6.103   2.820   1.303 -0.9815  0.0222 -0.5824
 2458TIP3   OH2 7379   0.768   5.622   0.568 -0.5330  0.4004  0.5330
 2458TIP3    H1 7380   0.682   5.583   0.582  0.0885 -1.7169 -1.0496
 2458TIP3    H2 7381   0.750   5.708   0.529 -1.9500 -0.2589 -0.3315
 2459TIP3   OH2 7382   2.064   1.803   5.063 -0.1549  0.1035  0.0375
 2459TIP3    H1 7383   2.093   1.761   5.144 -0.2556 -1.1017 -0.5328
 2459TIP3    H2 7384   2.137   1.791   5.002 -0.7436 -0.5315 -0.5658
 2460TIP3   OH2 7385   6.191   3.334   1.624  0.4050 -0.1254  0.6669
 2460TIP3    H1 7386   6.278   3.294   1.620  0.5495  0.1560  0.9782
 2460TIP3    H2 7387   6.153   3.317   1.537  0.8509 -0.0633  0.4555
 2461TIP3   OH2 7388   1.353   4.797   0.133  0.4591 -0.2096 -0.4854
 2461TIP3    H1 7389   1.282   4.805   0.068  0.3096  1.4622 -0.1445
 2461TIP3    H2 7390   1.419   4.744   0.088  0.5218  1.2025 -2.1791
 2462TIP3   OH2 7391   4.277   1.551   0.455  0.4288  0.3896  0.5642
 2462TIP3    H1 7392   4.277   1.523   0.546  0.2939  1.5987  0.9558
 2462TIP3    H2 7393   4.369   1.545   0.428  0.4730  0.0629  0.7843
 2463TIP3   OH2 7394   1.416   0.118   5.136  0.0633 -0.4652 -0.2692
 2463TIP3    H1 7395   1.496   0.167   5.154 -1.0951  0.9310  1.3988
 2463TIP3    H2 7396   1.395   0.139   5.045  0.4060  0.9636 -0.0475
 2464TIP3   OH2 7397   0.062   0.363   1.131  0.2721  0.5763  0.8813
 2464TIP3    H1 7398   0.126   0.298   1.158  0.6700 -0.2835 -1.8761
 2464TIP3    H2 7399   0.111   0.446   1.130  0.5490  0.4301  1.4927
 2465TIP3   OH2 7400   1.409   1.085   3.970  0.6238  0.2248 -0.0917
 2465TIP3    H1 7401   1.410   1.134   3.888  0.0395  1.3631  0.5558
 2465TIP3    H2 7402   1.494   1.041   3.973  1.1121  1.0880 -0.7550
 2466TIP3   OH2 7403   5.459   4.854   4.481  0.0536  0.4571  0.0916
 2466TIP3    H1 7404   5.453   4.921   4.550 -1.0211  0.4461  0.0356
 2466TIP3    H2 7405   5.432   4.900   4.401 -0.7134 -0.0266  0.0566
 2467TIP3   OH2 7406   6.300   3.357   0.667 -0.0858 -0.1479  0.1920
 2467TIP3    H1 7407   6.222   3.316   0.631  1.3758 -1.6230 -1.4800
 2467TIP3    H2 7408   6.318   3.310   0.748 -1.5593  1.0321  1.2692
 2468TIP3   OH2 7409   3.999   3.618   5.097  0.3595 -0.1282  0.3263
 2468TIP3    H1 7410   3.942   3.593   5.025 -1.4660  0.1604  1.5885
 2468TIP3    H2 7411   3.986   3.713   5.107  3.4243  0.5901 -1.2506
 2469TIP3   OH2 7412   3.362   0.253   4.416 -0.3050 -0.1768  0.0648
 2469TIP3    H1 7413   3.384   0.341   4.446  0.5602  0.2319 -1.6033
 2469TIP3    H2 7414   3.275   0.262   4.376 -0.2479 -0.0945 -0.0410
 2470TIP3   OH2 7415   1.362   0.308   3.166  0.1080  0.1416  0.7683
 2470TIP3    H1 7416   1.274   0.339   3.145  0.5764  2.3633  1.7921
 2470TIP3    H2 7417   1.409   0.310   3.082 -0.1532  1.3657  0.6418
 2471TIP3   OH2 7418   3.666   1.530   1.172  0.7098 -0.0348 -0.1279
 2471TIP3    H1 7419   3.661   1.453   1.115 -0.0548  0.3662 -0.6181
 2471TIP3    H2 7420   3.715   1.500   1.248 -0.5180 -1.3363  0.2007
 2472TIP3   OH2 7421   2.649   0.385   0.185 -0.0015  0.1368 -0.5036
 2472TIP3    H1 7422   2.638   0.290   0.177  0.7022  0.0136 -0.0678
 2472TIP3    H2 7423   2.617   0.405   0.273  3.0071 -0.2253  0.7865
 2473TIP3   OH2 7424   5.559   2.266   2.228 -0.4778  0.2336 -0.3816
 2473TIP3    H1 7425   5.535   2.309   2.145 -1.3519  0.9142  0.1981
 2473TIP3    H2 7426   5.480   2.216   2.252 -0.7188  1.0947  0.6832
 2474TIP3   OH2 7427   0.860   1.147   2.774  0.1284  0.4751 -0.0302
 2474TIP3    H1 7428   0.858   1.094   2.694 -0.9113 -0.2380  0.4407
 2474TIP3    H2 7429   0.910   1.094   2.836 -0.1883  0.4195  0.1809
 2475TIP3   OH2 7430   2.137   4.596   3.945  0.1073  0.4670  0.3226
 2475TIP3    H1 7431   2.175   4.640   4.020  0.2865  1.5725 -0.3938
 2475TIP3    H2 7432   2.045   4.623   3.945 -0.4557 -1.2678  1.3726
 2476TIP3   OH2 7433   3.839   2.144   0.057  0.2672 -0.2813 -0.1624
 2476TIP3    H1 7434   3.886   2.090   0.120 -2.1671 -1.9217  0.3881
 2476TIP3    H2 7435   3.750   2.150   0.092 -0.5329  0.8647 -2.2132
 2477TIP3   OH2 7436   0.037   5.259   0.751  0.1494 -0.2565 -0.1469
 2477TIP3    H1 7437   0.031   5.315   0.828  1.7694 -1.0577  0.6236
 2477TIP3    H2 7438  -0.053   5.244   0.724 -0.3947  0.8967  0.9644
 2478TIP3   OH2 7439   0.993   2.969   4.253  0.6755  0.3415  0.7684
 2478TIP3    H1 7440   0.902   2.987   4.229  1.0937 -0.6491 -1.8824
 2478TIP3    H2 7441   1.042   3.046   4.224  0.8664  0.2353  0.8028
 2479TIP3   OH2 7442   4.827   5.717   4.561 -0.1734  0.0986  0.2639
 2479TIP3    H1 7443   4.876   5.639   4.535  0.3636  0.5516 -0.1212
 2479TIP3    H2 7444   4.766   5.687   4.629 -0.0079 -0.6572  0.0792
 2480TIP3   OH2 7445   3.296   0.372   2.604 -0.0815  0.1488 -0.0226
 2480TIP3    H1 7446   3.344   0.309   2.658 -0.2942 -1.5250 -1.6579
 2480TIP3    H2 7447   3.364   0.426   2.564  0.6534 -2.3518 -2.5145
 2481TIP3   OH2 7448   4.438   4.265   1.198 -0.1008 -0.1664  1.1971
 2481TIP3    H1 7449   4.519   4.296   1.240  0.5879  0.9412 -0.8320
 2481TIP3    H2 7450   4.390   4.221   1.269  1.3885  0.8203  2.9055
 2482TIP3   OH2 7451   2.093   2.327   1.537 -0.2176 -0.4797  0.1879
 2482TIP3    H1 7452   2.070   2.335   1.445 -1.2766 -1.6528  0.3279
 2482TIP3    H2 7453   2.021   2.278   1.576 -0.9910  1.9786  2.1424
 2483TIP3   OH2 7454   1.159   3.444   1.350 -0.0030 -0.2157 -0.2146
 2483TIP3    H1 7455   1.187   3.432   1.441 -0.1310  0.3747 -0.0972
 2483TIP3    H2 7456   1.212   3.381   1.301  0.0318 -0.5738  0.2708
 2484TIP3   OH2 7457   1.988   0.364   4.029 -0.1473 -0.1784  0.4131
 2484TIP3    H1 7458   2.019   0.404   4.110  0.8872  0.9590 -0.5051
 2484TIP3    H2 7459   1.893   0.354   4.042 -0.3315  1.8642  1.0075
 2485TIP3   OH2 7460   1.615   0.705   0.174  0.1025  0.3837  0.1292
 2485TIP3    H1 7461   1.606   0.775   0.109  0.7658  1.6217  1.3154
 2485TIP3    H2 7462   1.708   0.683   0.173 -0.2183 -1.0125 -0.7367
 2486TIP3   OH2 7463   4.133   4.192   4.407 -0.2773  0.0463  0.0428
 2486TIP3    H1 7464   4.136   4.186   4.311 -0.2132  0.0961  0.0416
 2486TIP3    H2 7465   4.191   4.265   4.427 -0.6140  0.3007  0.0930
 2487TIP3   OH2 7466   1.994   3.726   1.347  0.4754  0.0501  0.3014
 2487TIP3    H1 7467   1.955   3.755   1.429 -0.9705  1.4707 -0.8150
 2487TIP3    H2 7468   1.920   3.704   1.291  1.4676 -2.3230 -0.1778
 2488TIP3   OH2 7469   6.282   3.684   1.548 -0.0984  0.5619 -0.5977
 2488TIP3    H1 7470   6.370   3.706   1.579  0.1357  0.3859 -1.1317
 2488TIP3    H2 7471   6.297   3.626   1.473 -0.6768  0.0112 -0.2953
 2489TIP3   OH2 7472   0.123   5.601   2.850  0.2954 -0.0565 -0.1452
 2489TIP3    H1 7473   0.217   5.606   2.834  0.7398 -2.9384  0.8369
 2489TIP3    H2 7474   0.092   5.536   2.786 -0.7356 -0.1975  0.4782
 2490TIP3   OH2 7475   1.995   3.096   0.297 -0.5000  0.0964 -0.2868
 2490TIP3    H1 7476   1.983   3.149   0.218 -2.0154 -1.2382 -1.0034
 2490TIP3    H2 7477   1.991   3.005   0.267  1.0011 -0.4827  1.0553
 2491TIP3   OH2 7478   2.997   0.609   1.079  0.0899  0.0340 -0.7018
 2491TIP3    H1 7479   3.013   0.633   1.170 -1.5625 -1.8353  0.1448
 2491TIP3    H2 7480   2.913   0.650   1.057  0.4787  0.4792 -1.4165
 2492TIP3   OH2 7481   6.318   3.055   2.791  0.0300  0.4845 -0.3151
 2492TIP3    H1 7482   6.393   3.035   2.735 -0.1866  0.7083 -0.6954
 2492TIP3    H2 7483   6.245   3.010   2.750  0.5091 -2.5819  1.9067
 2493TIP3   OH2 7484   0.968   5.459   0.303  0.1777 -0.2667 -0.3366
 2493TIP3    H1 7485   0.882   5.502   0.300  0.3365  0.0311 -0.5984
 2493TIP3    H2 7486   0.967   5.411   0.386  0.0118  0.2658 -0.0261
 2494TIP3   OH2 7487   5.625   5.522   3.832 -0.0508  0.3674 -0.1695
 2494TIP3    H1 7488   5.692   5.587   3.814  0.4023 -0.0930 -0.1736
 2494TIP3    H2 7489   5.563   5.531   3.759 -0.3658  1.2478  0.1867
 2495TIP3   OH2 7490   1.521   3.140   0.373  0.2656 -0.0372  0.1644
 2495TIP3    H1 7491   1.503   3.170   0.462  0.2992 -2.1253  0.9452
 2495TIP3    H2 7492   1.550   3.049   0.384 -0.8754 -0.7572 -2.0754
 2496TIP3   OH2 7493   5.358   4.957   5.061  0.1365 -0.2406 -0.3453
 2496TIP3    H1 7494   5.323   4.929   4.976 -1.3005  1.1582 -0.2443
 2496TIP3    H2 7495   5.287   4.941   5.123  0.2746  1.0531  0.1673
 2497TIP3   OH2 7496   5.241   5.381   2.418 -0.4078 -0.1773 -0.2238
 2497TIP3    H1 7497   5.201   5.325   2.485 -2.1654  0.3280 -0.7902
 2497TIP3    H2 7498   5.309   5.326   2.379  1.4078 -0.1409  2.5984
 2498TIP3   OH2 7499   3.252   3.774   3.236 -0.3235 -0.4426  0.2234
 2498TIP3    H1 7500   3.318   3.742   3.297 -0.5142 -2.4581 -0.5498
 2498TIP3    H2 7501   3.186   3.705   3.234 -1.0162  0.2237 -1.1897
 2499TIP3   OH2 7502   4.237   0.816   1.609  0.1504  0.2026  0.0807
 2499TIP3    H1 7503   4.184   0.769   1.545  1.8380 -0.1723 -1.1230
 2499TIP3    H2 7504   4.220   0.772   1.692 -0.9655 -0.2558 -0.3802
 2500TIP3   OH2 7505   3.323   4.231   4.871 -0.0597  0.5501 -0.0094
 2500TIP3    H1 7506   3.408   4.196   4.896 -0.6682 -1.6734 -0.7815
 2500TIP3    H2 7507   3.276   4.155   4.835 -2.4074  1.6726  0.5143
 2501TIP3   OH2 7508   3.742   0.474   3.000  0.0063  0.2324  0.3441
 2501TIP3    H1 7509   3.833   0.505   2.997 -0.2648  1.1821  1.2225
 2501TIP3    H2 7510   3.718   0.481   3.093 -1.3409  1.0970 -0.0466
 2502TIP3   OH2 7511   4.119   1.168   2.537  0.5590 -0.1409  0.2923
 2502TIP3    H1 7512   4.121   1.073   2.552  1.2293  0.0100  1.2388
 2502TIP3    H2 7513   4.206   1.188   2.503  0.1598  0.0309 -0.6520
 2503TIP3   OH2 7514   4.092   3.628   0.728  0.4738 -0.0162  0.3206
 2503TIP3    H1 7515   4.104   3.536   0.753  0.9521 -0.9728 -2.8761
 2503TIP3    H2 7516   4.008   3.653   0.765  0.0739 -1.9229  0.8014
 2504TIP3   OH2 7517   4.913   0.086   3.018  0.1133 -0.3755 -0.3351
 2504TIP3    H1 7518   4.849   0.135   2.967  0.4825  0.0888 -0.3676
 2504TIP3    H2 7519   4.861   0.029   3.074 -0.2882 -1.3057 -1.6130
 2505TIP3   OH2 7520   0.205   3.799   3.821 -0.1709  0.4605 -0.4422
 2505TIP3    H1 7521   0.143   3.831   3.886  2.6521  1.6440  1.8748
 2505TIP3    H2 7522   0.178   3.842   3.739 -2.7383  0.3365  0.2342
 2506TIP3   OH2 7523   5.460   3.354   2.785  0.1541  0.1687  0.3076
 2506TIP3    H1 7524   5.466   3.393   2.872  0.5712  0.5955  0.0872
 2506TIP3    H2 7525   5.367   3.332   2.775 -0.1714  1.5263  0.2522
 2507TIP3   OH2 7526   3.026   3.233   0.450  0.5368 -0.0449 -0.1199
 2507TIP3    H1 7527   3.044   3.306   0.391 -0.4613  0.2508 -0.0664
 2507TIP3    H2 7528   3.111   3.215   0.491  0.6832  1.4572  0.2850
 2508TIP3   OH2 7529   1.655   2.056   3.348  0.1102 -0.4056 -0.9547
 2508TIP3    H1 7530   1.601   2.093   3.278 -0.2382 -1.9573 -1.5416
 2508TIP3    H2 7531   1.744   2.083   3.326  0.3739 -2.8402 -3.4365
 2509TIP3   OH2 7532   6.252   2.311   3.360 -0.4101  0.1691 -0.2652
 2509TIP3    H1 7533   6.290   2.345   3.279  0.4174 -2.2956 -1.0028
 2509TIP3    H2 7534   6.158   2.330   3.352 -0.0538  1.8468 -0.7761
 2510TIP3   OH2 7535   3.879   3.193   4.070 -0.2247  0.0480 -0.0914
 2510TIP3    H1 7536   3.963   3.234   4.051  0.6558 -1.4872  0.3391
 2510TIP3    H2 7537   3.879   3.182   4.166 -0.0389 -1.7021 -0.2612
 2511TIP3   OH2 7538   5.489   0.888   3.296  0.3654 -0.6498 -0.1295
 2511TIP3    H1 7539   5.476   0.817   3.233 -2.7049 -0.4138  0.1043
 2511TIP3    H2 7540   5.474   0.847   3.382 -0.1218  0.0084  0.1023
 2512TIP3   OH2 7541   2.337   0.876   4.264 -0.2258 -0.6385  0.0422
 2512TIP3    H1 7542   2.393   0.804   4.235  0.0254  0.0190 -1.1940
 2512TIP3    H2 7543   2.315   0.923   4.183 -0.4371  0.6299  0.8041
 2513TIP3   OH2 7544   5.887   5.333   1.873 -0.2559  0.0522  0.0799
 2513TIP3    H1 7545   5.860   5.247   1.907 -1.5091  0.4311  0.1022
 2513TIP3    H2 7546   5.926   5.313   1.788 -1.0839 -0.5034 -0.1924
 2514TIP3   OH2 7547   0.198   2.288   0.709 -0.0083 -0.0985 -0.3302
 2514TIP3    H1 7548   0.217   2.353   0.641  1.0668  0.3217  0.3413
 2514TIP3    H2 7549   0.106   2.268   0.697  0.0205  0.3770 -1.5601
 2515TIP3   OH2 7550   5.987   1.728   3.676  0.3203 -0.5264  0.2339
 2515TIP3    H1 7551   5.919   1.792   3.655  0.3304 -0.3301  0.7939
 2515TIP3    H2 7552   6.060   1.780   3.709  0.4033 -0.8124  0.5047
 2516TIP3   OH2 7553   3.676   2.404   3.544  0.4669  0.2832  0.0950
 2516TIP3    H1 7554   3.650   2.319   3.579 -0.1933  0.0127 -1.0239
 2516TIP3    H2 7555   3.595   2.444   3.514  1.1003 -0.0099 -2.1953
 2517TIP3   OH2 7556   3.231   2.007   3.585 -0.3888  0.2235  0.0172
 2517TIP3    H1 7557   3.272   2.024   3.501  2.1211 -0.6188  0.9786
 2517TIP3    H2 7558   3.266   1.922   3.612 -0.6407  0.7389  2.1508
 2518TIP3   OH2 7559   1.048   5.962   3.000  0.3323 -0.2262 -0.5736
 2518TIP3    H1 7560   1.124   5.936   3.053  0.3623 -1.1582 -1.0580
 2518TIP3    H2 7561   1.065   5.925   2.913 -0.3469  0.1498 -0.8754
 2519TIP3   OH2 7562   3.360   0.324   3.326 -0.5183  0.2962  0.6859
 2519TIP3    H1 7563   3.407   0.253   3.282 -0.3776  0.2988  0.8309
 2519TIP3    H2 7564   3.279   0.334   3.275 -0.9398 -0.5397  1.1624
 2520TIP3   OH2 7565   5.491   4.995   1.069  0.5984 -0.6424 -0.2356
 2520TIP3    H1 7566   5.443   4.912   1.060  1.1351 -1.3980  2.6247
 2520TIP3    H2 7567   5.583   4.969   1.073  0.7239 -0.0758  1.5591
 2521TIP3   OH2 7568   2.493   2.369   3.889  0.4188  0.3586 -0.0140
 2521TIP3    H1 7569   2.501   2.308   3.816  1.3074  0.3753  0.0572
 2521TIP3    H2 7570   2.505   2.455   3.849  1.4430  0.3363  0.2148
 2522TIP3   OH2 7571   4.381   5.416   1.871  0.6599  0.3765  0.5026
 2522TIP3    H1 7572   4.457   5.475   1.874  0.4244  0.6665  0.8216
 2522TIP3    H2 7573   4.306   5.474   1.861  0.2470  0.3008  2.6412
 2523TIP3   OH2 7574   3.447   3.147   1.092  0.0370  0.2619 -0.3184
 2523TIP3    H1 7575   3.402   3.213   1.146  0.0119  0.1685 -0.2242
 2523TIP3    H2 7576   3.388   3.072   1.092  0.5039 -0.1126  0.3810
 2524TIP3   OH2 7577   1.470   1.145   0.539 -0.3539  0.3270  0.0133
 2524TIP3    H1 7578   1.433   1.108   0.619  1.1883 -0.2954  0.4661
 2524TIP3    H2 7579   1.518   1.073   0.498 -0.3440  0.8808 -0.9997
 2525TIP3   OH2 7580   4.611   3.133   3.980 -0.4589  0.3374  0.4729
 2525TIP3    H1 7581   4.703   3.131   4.009 -0.8680  0.2389  1.8679
 2525TIP3    H2 7582   4.561   3.114   4.060 -1.6956  0.3630 -0.2741
 2526TIP3   OH2 7583   3.971   2.265   4.925  0.0057  0.5813 -0.2259
 2526TIP3    H1 7584   3.929   2.348   4.905  0.6043  0.9823  0.1700
 2526TIP3    H2 7585   4.050   2.263   4.872 -0.1503  0.1331 -0.4519
 2527TIP3   OH2 7586   3.601   2.169   2.744 -0.1339  0.0296  0.2400
 2527TIP3    H1 7587   3.648   2.086   2.751 -0.3053 -0.1532 -0.6694
 2527TIP3    H2 7588   3.588   2.181   2.650  0.3384  1.3356  0.3235
 2528TIP3   OH2 7589   4.046   3.001   2.922 -0.0368  0.3754  0.2248
 2528TIP3    H1 7590   4.105   3.075   2.915  0.4134  0.0055  0.0600
 2528TIP3    H2 7591   3.968   3.036   2.965  1.0698  0.4118  2.3022
 2529TIP3   OH2 7592   2.018   4.861   2.720 -0.3335 -0.1492 -0.0673
 2529TIP3    H1 7593   2.077   4.869   2.645 -1.0869  2.3901 -0.4996
 2529TIP3    H2 7594   2.037   4.775   2.757  1.9994 -0.3572 -1.5428
 2530TIP3   OH2 7595   1.326   2.359   4.359 -0.2329  0.6004 -0.1437
 2530TIP3    H1 7596   1.359   2.362   4.449 -1.3568 -0.7019  0.3530
 2530TIP3    H2 7597   1.397   2.394   4.306  2.5668 -3.1201  0.7144
 2531TIP3   OH2 7598   3.547   4.502   4.066  0.3539  0.2408 -0.4297
 2531TIP3    H1 7599   3.566   4.426   4.122  2.4385  0.7699 -0.3384
 2531TIP3    H2 7600   3.619   4.504   4.004  0.4816  2.2798 -0.2765
 2532TIP3   OH2 7601   1.403   1.370   2.340 -0.3944  0.0037 -0.0884
 2532TIP3    H1 7602   1.326   1.325   2.375  0.0542 -0.8515 -0.1676
 2532TIP3    H2 7603   1.474   1.346   2.400  0.2002 -0.7764 -1.0608
 2533TIP3   OH2 7604   2.808   1.863   2.161 -0.5974 -0.7367 -0.0360
 2533TIP3    H1 7605   2.803   1.935   2.224  2.4548  0.9793 -1.5483
 2533TIP3    H2 7606   2.723   1.865   2.116 -1.1048  1.0078  0.9180
 2534TIP3   OH2 7607   0.100   2.162   1.326 -0.2736  0.2693  0.0716
 2534TIP3    H1 7608   0.189   2.195   1.313 -0.4519  1.1872  0.9870
 2534TIP3    H2 7609   0.074   2.199   1.411 -1.4496 -0.1562 -0.0913
 2535TIP3   OH2 7610   4.667   0.878   0.174 -0.2708  0.9843  0.1896
 2535TIP3    H1 7611   4.754   0.839   0.183 -0.3993  1.0239  2.1417
 2535TIP3    H2 7612   4.607   0.810   0.205 -0.9710  0.9554 -1.1437
 2536TIP3   OH2 7613   4.181   2.406   1.569 -0.0184 -0.0666 -0.6005
 2536TIP3    H1 7614   4.196   2.480   1.510 -2.3412  0.5910 -0.4627
 2536TIP3    H2 7615   4.111   2.436   1.628 -0.3948 -2.0540  0.0405
 2537TIP3   OH2 7616   3.551   2.366   2.454 -0.3451  0.5810 -0.5679
 2537TIP3    H1 7617   3.521   2.449   2.417 -0.5789  0.1351 -1.3922
 2537TIP3    H2 7618   3.645   2.379   2.469 -0.2503  0.7735 -1.3081
 2538TIP3   OH2 7619   5.581   0.622   2.367  0.2173 -0.0938 -0.2286
 2538TIP3    H1 7620   5.569   0.624   2.272 -2.7047 -0.0795  0.0309
 2538TIP3    H2 7621   5.583   0.714   2.393  0.9804 -0.0978 -0.2708
 2539TIP3   OH2 7622   1.735   1.479   4.368  0.1410 -0.1149  0.6424
 2539TIP3    H1 7623   1.740   1.452   4.276 -3.2798  1.8301 -0.2963
 2539TIP3    H2 7624   1.756   1.573   4.366 -1.0700  0.1886  1.6514
 2540TIP3   OH2 7625   5.501   5.042   2.873 -0.2777 -0.0191  0.5032
 2540TIP3    H1 7626   5.569   4.985   2.839  0.9459  0.4220  2.1182
 2540TIP3    H2 7627   5.431   4.983   2.900 -0.8086 -0.4418 -1.6206
 2541TIP3   OH2 7628   0.402   3.160   0.323 -0.0752 -0.5193  0.1921
 2541TIP3    H1 7629   0.396   3.104   0.246  0.2511  1.0264 -0.9997
 2541TIP3    H2 7630   0.372   3.246   0.293 -1.5795 -0.2486  2.2197
 2542TIP3   OH2 7631   4.391   3.489   0.608 -0.2597  0.6354  0.0708
 2542TIP3    H1 7632   4.361   3.400   0.590 -0.0265  0.5082  0.3117
 2542TIP3    H2 7633   4.404   3.528   0.521  0.3602  0.1894 -0.0450
 2543TIP3   OH2 7634   1.040   0.325   0.566 -0.3880  0.2109  0.4091
 2543TIP3    H1 7635   1.113   0.279   0.607 -0.4001  0.5897  0.8639
 2543TIP3    H2 7636   1.079   0.373   0.493 -0.1692  0.4581  0.6852
 2544TIP3   OH2 7637   2.439   3.188   4.283 -0.7757  0.0785 -0.0199
 2544TIP3    H1 7638   2.500   3.234   4.340  0.2765 -0.3173 -0.7898
 2544TIP3    H2 7639   2.462   3.096   4.292 -0.8243 -0.0202 -0.8167
 2545TIP3   OH2 7640   1.761   1.951   1.245  0.0666  0.0031  0.0552
 2545TIP3    H1 7641   1.672   1.921   1.261 -0.4395  1.2458 -0.3701
 2545TIP3    H2 7642   1.765   2.038   1.284  1.6716 -0.7476  1.7372
 2546TIP3   OH2 7643   2.561   1.282   2.598  0.2696  0.0040  0.5383
 2546TIP3    H1 7644   2.573   1.187   2.607  1.4239 -0.0236 -0.9153
 2546TIP3    H2 7645   2.524   1.293   2.510  4.9442  1.1088 -1.6014
 2547TIP3   OH2 7646   4.255   2.331   0.806  0.2651 -0.4465  0.3241
 2547TIP3    H1 7647   4.263   2.285   0.889  1.2096 -1.1116 -0.1148
 2547TIP3    H2 7648   4.342   2.366   0.788 -0.4529  1.7427  0.7299
 2548TIP3   OH2 7649   6.168   3.135   4.798  0.0505 -0.4168 -0.2112
 2548TIP3    H1 7650   6.166   3.230   4.786 -1.0766 -0.3448  0.3957
 2548TIP3    H2 7651   6.151   3.099   4.710 -0.3689 -0.0414 -0.2859
 2549TIP3   OH2 7652   0.796   4.195   4.591  0.0591  0.3612  0.5476
 2549TIP3    H1 7653   0.889   4.216   4.580  0.1637 -0.5877 -0.5841
 2549TIP3    H2 7654   0.795   4.119   4.649  0.0228  0.0709  0.1687
 2550TIP3   OH2 7655   0.260   3.323   2.661 -0.0568  0.2247  0.1696
 2550TIP3    H1 7656   0.207   3.326   2.741  0.0891 -1.0979  0.3357
 2550TIP3    H2 7657   0.195   3.323   2.590 -0.2116  0.5102  0.3068
 2551TIP3   OH2 7658   2.689   2.454   0.542 -0.1597 -0.1540 -0.2011
 2551TIP3    H1 7659   2.643   2.400   0.478  1.2113  0.7451 -2.0346
 2551TIP3    H2 7660   2.778   2.463   0.506  0.4620  0.9417  1.5011
 2552TIP3   OH2 7661   3.727   4.136   4.475 -0.3066  0.0853  0.2492
 2552TIP3    H1 7662   3.792   4.202   4.450 -0.4537  0.1577  0.0571
 2552TIP3    H2 7663   3.726   4.139   4.570 -0.8763  0.9065  0.2236
 2553TIP3   OH2 7664   1.205   4.643   4.029 -0.0623  0.0017 -0.8941
 2553TIP3    H1 7665   1.267   4.573   4.052 -1.7231 -0.9789  0.9859
 2553TIP3    H2 7666   1.194   4.692   4.110  0.5164  2.0781 -2.0056
 2554TIP3   OH2 7667   3.735   4.545   1.332 -0.4449 -0.0480 -0.4162
 2554TIP3    H1 7668   3.764   4.604   1.401 -1.2699 -0.0576 -0.0570
 2554TIP3    H2 7669   3.709   4.602   1.260 -0.7300  0.0069 -0.2695
 2555TIP3   OH2 7670   2.783   1.739   1.808 -0.0247  0.0441 -0.7413
 2555TIP3    H1 7671   2.723   1.687   1.861 -0.3506  0.0322 -1.1153
 2555TIP3    H2 7672   2.750   1.829   1.815  0.7557  0.2707  0.2066
 2556TIP3   OH2 7673   3.294   0.513   0.649 -0.1353 -0.1084 -0.3140
 2556TIP3    H1 7674   3.239   0.465   0.587 -1.1739 -1.2971  1.4409
 2556TIP3    H2 7675   3.271   0.477   0.735  2.9936 -0.2937  0.5970
 2557TIP3   OH2 7676   3.365   4.576   4.835 -0.3020  0.0674  0.5857
 2557TIP3    H1 7677   3.314   4.499   4.811  1.3960 -0.8893 -0.1655
 2557TIP3    H2 7678   3.440   4.574   4.776 -0.9328  3.1740 -0.4651
 2558TIP3   OH2 7679   3.578   1.699   4.557 -0.1409  0.0532 -0.0181
 2558TIP3    H1 7680   3.541   1.787   4.545  2.5921  1.2940 -0.2113
 2558TIP3    H2 7681   3.550   1.673   4.644 -1.7460  0.6843 -0.2973
 2559TIP3   OH2 7682   3.898   0.380   3.383  0.4114 -0.1644 -0.8211
 2559TIP3    H1 7683   3.947   0.347   3.308  0.9977  0.0432 -0.5293
 2559TIP3    H2 7684   3.941   0.462   3.406  0.8297 -0.6910  0.3391
 2560TIP3   OH2 7685   0.543   2.042   0.625 -0.2482 -0.6228 -0.0516
 2560TIP3    H1 7686   0.548   1.955   0.666 -0.3778 -1.6337 -2.0196
 2560TIP3    H2 7687   0.452   2.070   0.639 -0.3740 -1.0877  0.0897
 2561TIP3   OH2 7688   1.504   1.682   1.931  0.1532 -0.7058  0.0501
 2561TIP3    H1 7689   1.573   1.652   1.872  0.6239 -1.8156  1.1280
 2561TIP3    H2 7690   1.469   1.602   1.971 -0.2773 -0.0042  1.1397
 2562TIP3   OH2 7691   1.779   2.726   3.324  0.2683  0.3185 -0.3757
 2562TIP3    H1 7692   1.728   2.691   3.252  0.1511 -0.1389 -0.0720
 2562TIP3    H2 7693   1.868   2.735   3.289  0.1793  0.2456 -0.6189
 2563TIP3   OH2 7694   4.029   0.453   1.200 -0.3239 -0.0771 -0.2270
 2563TIP3    H1 7695   4.026   0.536   1.153 -0.3227 -0.1464 -0.3515
 2563TIP3    H2 7696   3.996   0.473   1.287 -1.4571 -0.1898 -0.6184
 2564TIP3   OH2 7697   5.363   1.276   3.040 -0.7388  0.3325  0.5404
 2564TIP3    H1 7698   5.369   1.261   2.946 -1.2312  1.3469  0.3456
 2564TIP3    H2 7699   5.325   1.195   3.075  2.5839 -1.4822  0.3363
 2565TIP3   OH2 7700   1.681   1.418   3.057 -0.0583  0.3601 -0.0413
 2565TIP3    H1 7701   1.592   1.389   3.037 -0.2618  0.5618  0.5698
 2565TIP3    H2 7702   1.678   1.513   3.054 -0.6985  0.5766  3.2356
 2566TIP3   OH2 7703   3.927   5.385   1.708 -0.2803 -0.0616  0.2230
 2566TIP3    H1 7704   3.902   5.449   1.641  1.1153  0.5260  0.2161
 2566TIP3    H2 7705   3.851   5.379   1.765 -1.2802 -0.1308 -1.0770
 2567TIP3   OH2 7706   4.726   1.379   1.519 -0.3689 -0.6240  0.5333
 2567TIP3    H1 7707   4.696   1.293   1.490  1.4492 -1.3752  0.7544
 2567TIP3    H2 7708   4.756   1.422   1.440 -2.8646  0.5557  0.1380
 2568TIP3   OH2 7709   0.826   5.396   3.924  0.0820 -0.3868 -0.4598
 2568TIP3    H1 7710   0.869   5.455   3.863  1.6763 -0.5207  0.4609
 2568TIP3    H2 7711   0.739   5.382   3.887  0.3703  0.9276 -1.7385
 2569TIP3   OH2 7712   2.808   2.718   2.151 -0.3199  0.2928 -0.0600
 2569TIP3    H1 7713   2.795   2.792   2.091 -0.9478  0.4805  0.2864
 2569TIP3    H2 7714   2.746   2.651   2.120  0.2060 -0.0695 -0.3374
 2570TIP3   OH2 7715   4.866   0.561   3.751  0.5558  0.1114  0.1220
 2570TIP3    H1 7716   4.922   0.522   3.684 -1.1526 -0.4867 -1.0369
 2570TIP3    H2 7717   4.840   0.488   3.806 -1.5358 -0.2623 -1.2284
 2571TIP3   OH2 7718   5.677   5.719   0.248 -0.4877  0.2978  0.5104
 2571TIP3    H1 7719   5.765   5.688   0.267 -0.3963  0.7760  0.8889
 2571TIP3    H2 7720   5.624   5.684   0.320 -0.7921 -0.7681 -0.2056
 2572TIP3   OH2 7721   5.569   2.422   0.162  0.3811 -0.0883 -0.1564
 2572TIP3    H1 7722   5.629   2.495   0.146 -0.2162  0.4538  0.0390
 2572TIP3    H2 7723   5.624   2.344   0.156  1.3504  0.4554  1.1870
 2573TIP3   OH2 7724   0.406   0.254   0.613 -0.1294  0.0617 -0.4108
 2573TIP3    H1 7725   0.313   0.250   0.636 -0.3298 -0.2470 -1.2348
 2573TIP3    H2 7726   0.410   0.216   0.525  1.0224 -1.7274  0.3638
 2574TIP3   OH2 7727   2.754   2.109   1.463 -0.0842 -0.4956  0.0116
 2574TIP3    H1 7728   2.774   2.016   1.476  1.9726  0.0651  1.4929
 2574TIP3    H2 7729   2.735   2.142   1.551  0.7992  0.7789 -0.2482
 2575TIP3   OH2 7730   4.507   0.977   2.495 -0.1552 -0.4091 -0.1233
 2575TIP3    H1 7731   4.427   0.953   2.448 -0.1336 -0.5592 -0.0809
 2575TIP3    H2 7732   4.505   0.925   2.575 -0.2579 -0.0575  0.1046
 2576TIP3   OH2 7733   5.988   5.762   0.559  0.2625  0.0150 -0.1775
 2576TIP3    H1 7734   6.039   5.729   0.485  1.6275  0.2509  0.6081
 2576TIP3    H2 7735   5.897   5.745   0.536  0.6867 -0.3557 -1.6835
 2577TIP3   OH2 7736   1.777   0.267   2.279  0.6891  0.2082  0.1289
 2577TIP3    H1 7737   1.714   0.238   2.213  0.4430  1.0036 -0.0020
 2577TIP3    H2 7738   1.762   0.361   2.286  0.8459  0.1622  1.1835
 2578TIP3   OH2 7739   0.244   1.686   3.294  0.3670  0.0912 -0.1133
 2578TIP3    H1 7740   0.284   1.719   3.375  0.3481 -1.5505  0.6066
 2578TIP3    H2 7741   0.314   1.692   3.229  0.1825  2.0690 -0.2032
 2579TIP3   OH2 7742   0.243   5.920   0.858  0.1313 -0.4647 -0.3096
 2579TIP3    H1 7743   0.148   5.919   0.869  0.2420 -1.0658  0.7402
 2579TIP3    H2 7744   0.274   5.978   0.928  0.5795 -0.7376 -0.2825
 2580TIP3   OH2 7745   5.659   5.415   0.303  0.1935 -0.4424  0.0845
 2580TIP3    H1 7746   5.594   5.347   0.287 -0.5393  0.0135  1.0077
 2580TIP3    H2 7747   5.737   5.386   0.256 -0.3076 -1.5907 -0.0634
 2581TIP3   OH2 7748   1.227   5.255   3.588 -0.2523  0.1246 -0.0366
 2581TIP3    H1 7749   1.175   5.203   3.650 -3.4157  1.1429 -1.5853
 2581TIP3    H2 7750   1.258   5.330   3.639 -1.2293  0.0161  0.7590
 2582TIP3   OH2 7751   6.094   5.063   0.147 -0.0122 -0.1795  0.6339
 2582TIP3    H1 7752   6.128   5.052   0.235  2.5652  1.1454 -0.0737
 2582TIP3    H2 7753   6.153   5.012   0.091  0.9969  2.1729 -0.6552
 2583TIP3   OH2 7754   1.296   3.251   1.180 -0.1703 -0.2388  0.2271
 2583TIP3    H1 7755   1.294   3.257   1.084 -2.9625 -1.0303  0.1469
 2583TIP3    H2 7756   1.335   3.165   1.197 -0.5625 -0.5220 -0.2581
 2584TIP3   OH2 7757   6.066   4.627   1.816 -0.1031 -0.3095  0.6819
 2584TIP3    H1 7758   6.066   4.654   1.908 -1.0658 -2.2180  1.2876
 2584TIP3    H2 7759   6.137   4.564   1.809 -2.0077 -2.6396  0.9832
 2585TIP3   OH2 7760   1.565   4.584   0.125 -0.0147  0.3677  0.1544
 2585TIP3    H1 7761   1.536   4.573   0.034 -0.0952  0.0375  0.2176
 2585TIP3    H2 7762   1.619   4.507   0.142  2.1416  1.6602 -0.4236
 2586TIP3   OH2 7763   2.035   4.659   4.488  1.3123 -0.3035  0.3004
 2586TIP3    H1 7764   2.042   4.751   4.460 -1.7690  0.0549  0.3488
 2586TIP3    H2 7765   1.998   4.665   4.577  0.9664 -1.5752  0.2543
 2587TIP3   OH2 7766   3.173   4.366   0.178  0.3453 -0.4288 -0.1606
 2587TIP3    H1 7767   3.118   4.287   0.175 -0.8674  0.3917 -0.3312
 2587TIP3    H2 7768   3.143   4.418   0.103  1.1402  0.1975 -0.0509
 2588TIP3   OH2 7769   2.001   3.017   3.165  0.6064  0.4344 -0.2929
 2588TIP3    H1 7770   2.066   3.085   3.185  2.0681 -1.3597  1.5393
 2588TIP3    H2 7771   1.924   3.042   3.216  1.6424  0.0305  1.5890
 2589TIP3   OH2 7772   3.334   5.830   2.831  0.2190  0.2502 -0.0222
 2589TIP3    H1 7773   3.283   5.899   2.872  1.2945 -0.2649  2.3463
 2589TIP3    H2 7774   3.301   5.749   2.868 -0.2656 -0.4820 -1.9182
 2590TIP3   OH2 7775   0.474   0.333   2.411 -0.2124  0.4680 -0.3341
 2590TIP3    H1 7776   0.565   0.364   2.418 -0.3972  0.6966  1.6156
 2590TIP3    H2 7777   0.483   0.238   2.399  0.3057  0.2301  1.6333
 2591TIP3   OH2 7778   4.513   1.500   1.628 -0.3968  0.2594  0.3581
 2591TIP3    H1 7779   4.564   1.534   1.702 -0.5497  2.2264 -0.3814
 2591TIP3    H2 7780   4.579   1.461   1.569  0.1627  1.8322 -0.0923
 2592TIP3   OH2 7781   5.962   2.344   3.353  0.0944 -0.7612  0.5032
 2592TIP3    H1 7782   5.914   2.421   3.383  1.5339  1.0830 -1.6490
 2592TIP3    H2 7783   5.896   2.291   3.307 -0.6138 -0.1283  0.7731
 2593TIP3   OH2 7784   4.518   1.259   0.339  0.5242  0.7157  0.6446
 2593TIP3    H1 7785   4.497   1.342   0.381  0.1241  0.6315  0.6155
 2593TIP3    H2 7786   4.499   1.193   0.405  0.2808  0.6093  0.4699
 2594TIP3   OH2 7787   1.173   5.374   4.397 -0.9509  0.1321  0.1923
 2594TIP3    H1 7788   1.182   5.340   4.308 -0.3776  1.4764 -0.2792
 2594TIP3    H2 7789   1.214   5.307   4.452  1.2983  0.5594 -0.8300
 2595TIP3   OH2 7790   3.305   2.830   1.776  0.1484  0.5656  0.2290
 2595TIP3    H1 7791   3.381   2.823   1.834  0.4347  0.5956 -0.1420
 2595TIP3    H2 7792   3.319   2.910   1.727  1.0077 -0.5467 -1.4340
 2596TIP3   OH2 7793   4.211   0.672   0.331 -0.3131 -0.6102  0.1042
 2596TIP3    H1 7794   4.237   0.624   0.252  0.7643  0.2107 -0.0620
 2596TIP3    H2 7795   4.294   0.689   0.376 -0.5179  2.0234 -0.3803
 2597TIP3   OH2 7796   2.834   3.788   1.079  0.0288  0.2336  0.1756
 2597TIP3    H1 7797   2.771   3.858   1.061 -1.6388 -1.0522  0.6905
 2597TIP3    H2 7798   2.873   3.767   0.994 -0.8699  0.5065 -0.3165
 2598TIP3   OH2 7799   5.712   4.738   1.537  0.6405 -0.2654 -0.1715
 2598TIP3    H1 7800   5.686   4.805   1.473 -0.1868  0.6612  1.1025
 2598TIP3    H2 7801   5.660   4.661   1.512 -1.3675  0.7494  0.6622
 2599TIP3   OH2 7802   2.028   3.704   2.132 -0.6740 -0.2849  0.4324
 2599TIP3    H1 7803   2.109   3.748   2.155 -0.7962 -0.2272  0.7499
 2599TIP3    H2 7804   2.056   3.622   2.092 -0.2627  1.7694 -4.1333
 2600TIP3   OH2 7805   3.089   3.941   2.592 -0.0901  0.1854  0.8632
 2600TIP3    H1 7806   3.107   3.857   2.634  2.5272 -0.7025 -1.6863
 2600TIP3    H2 7807   3.025   3.920   2.524 -0.2811  0.5254  0.9340
 2601TIP3   OH2 7808   6.295   0.893   0.868  0.3617 -0.0406 -0.0259
 2601TIP3    H1 7809   6.215   0.939   0.893  0.4490 -0.2364  0.6338
 2601TIP3    H2 7810   6.274   0.854   0.783 -0.2034  0.0139  0.0810
 2602TIP3   OH2 7811   0.316   2.854   1.563 -0.1839 -0.3572  0.2941
 2602TIP3    H1 7812   0.327   2.760   1.570  1.3473 -0.1282  1.6787
 2602TIP3    H2 7813   0.379   2.881   1.497 -0.5583 -0.2839 -0.0373
 2603TIP3   OH2 7814   1.156   1.031   4.395  0.1383  0.1393  0.2214
 2603TIP3    H1 7815   1.208   1.025   4.315  0.8946 -1.1090  0.7682
 2603TIP3    H2 7816   1.114   0.946   4.403  1.3921 -0.3786  1.9701
 2604TIP3   OH2 7817   4.332   5.396   5.157  0.2563  0.1399 -0.0913
 2604TIP3    H1 7818   4.342   5.389   5.062  0.3754  1.2199 -0.1738
 2604TIP3    H2 7819   4.339   5.306   5.189 -0.8708 -0.3750 -1.1992
 2605TIP3   OH2 7820   1.125   1.807   1.810 -0.1104 -0.4201  0.0019
 2605TIP3    H1 7821   1.073   1.766   1.879  0.8925  1.0983  1.7547
 2605TIP3    H2 7822   1.121   1.745   1.737 -1.6065 -1.8740  1.2329
 2606TIP3   OH2 7823   3.900   0.500   2.002 -0.1403  0.1099  0.1431
 2606TIP3    H1 7824   3.966   0.556   2.044 -0.0442 -0.0198  0.1626
 2606TIP3    H2 7825   3.933   0.411   2.014  0.8242  0.1582 -1.7991
 2607TIP3   OH2 7826   3.724   1.667   3.572 -0.0494 -0.0222  0.4114
 2607TIP3    H1 7827   3.680   1.658   3.657 -0.1421 -0.8641  0.2891
 2607TIP3    H2 7828   3.817   1.660   3.593 -0.0537  0.1505  0.4876
 2608TIP3   OH2 7829   3.103   0.140   5.067  0.4028 -0.0704 -0.1367
 2608TIP3    H1 7830   3.099   0.082   4.991 -0.6601 -0.7592  0.4154
 2608TIP3    H2 7831   3.175   0.200   5.048  1.0698 -1.1175 -1.0463
 2609TIP3   OH2 7832   1.408   3.884   4.110  0.2434  0.1767 -0.1476
 2609TIP3    H1 7833   1.333   3.919   4.063  1.4977  0.8601 -1.7381
 2609TIP3    H2 7834   1.454   3.831   4.045  1.9065  0.9512  0.3520
 2610TIP3   OH2 7835   3.063   5.035   0.158  0.1242  0.1821 -0.4082
 2610TIP3    H1 7836   3.133   4.982   0.196  0.6027 -0.9625 -2.6978
 2610TIP3    H2 7837   3.063   5.011   0.065 -5.0819 -1.9691 -0.1574
 2611TIP3   OH2 7838   1.276   3.489   2.158  0.2742 -0.1089  0.5171
 2611TIP3    H1 7839   1.284   3.394   2.153 -2.3248 -0.3867  0.0110
 2611TIP3    H2 7840   1.345   3.523   2.101  1.2266 -1.6730  0.7047
 2612TIP3   OH2 7841   6.046   4.740   0.887 -0.0763  0.5398 -0.0545
 2612TIP3    H1 7842   6.046   4.767   0.979 -0.1735 -0.2016  0.1724
 2612TIP3    H2 7843   6.099   4.660   0.886 -0.9135 -0.0223 -0.4680
 2613TIP3   OH2 7844   4.977   4.690   0.908  0.1872  0.0947  0.1818
 2613TIP3    H1 7845   4.995   4.645   0.991 -1.0401  1.0261  0.9951
 2613TIP3    H2 7846   5.036   4.649   0.845 -1.3493 -3.1100  0.6776
 2614TIP3   OH2 7847   4.569   3.528   2.525  0.3281  0.0131 -0.0845
 2614TIP3    H1 7848   4.584   3.618   2.552  0.8687 -0.0046 -0.3231
 2614TIP3    H2 7849   4.502   3.533   2.457  1.3751  0.3758 -1.1145
 2615TIP3   OH2 7850   3.540   1.374   1.435  0.2254 -0.3972 -0.1029
 2615TIP3    H1 7851   3.449   1.386   1.406  0.3306  0.8375  0.0385
 2615TIP3    H2 7852   3.532   1.351   1.528  0.1051  1.9162  0.5136
 2616TIP3   OH2 7853   4.245   0.481   3.117  0.4863 -0.3867  0.4625
 2616TIP3    H1 7854   4.226   0.574   3.127 -3.4128 -0.5922 -2.5686
 2616TIP3    H2 7855   4.231   0.444   3.205  2.2971  1.7962  1.7667
 2617TIP3   OH2 7856   2.767   4.692   2.595 -0.7580  0.1832 -0.3813
 2617TIP3    H1 7857   2.759   4.787   2.599  0.6647  0.3129  0.1128
 2617TIP3    H2 7858   2.727   4.661   2.676 -1.5909  0.3207 -0.7338
 2618TIP3   OH2 7859   5.811   3.870   4.638 -0.1351  0.0793  0.4023
 2618TIP3    H1 7860   5.728   3.868   4.684 -0.6695  0.1328 -0.5251
 2618TIP3    H2 7861   5.874   3.900   4.703 -1.2328  2.3001  0.5509
 2619TIP3   OH2 7862   1.514   1.065   2.608 -0.2735  0.0953  0.4742
 2619TIP3    H1 7863   1.532   1.006   2.681  1.2977  1.5861  1.3722
 2619TIP3    H2 7864   1.545   1.151   2.638  0.2929  0.8016 -1.8809
 2620TIP3   OH2 7865   1.930   3.362   4.189 -0.2000 -0.3019 -0.8848
 2620TIP3    H1 7866   1.956   3.448   4.222 -1.5779 -0.1312 -0.1445
 2620TIP3    H2 7867   1.970   3.356   4.102 -0.5442  1.3455 -1.1971
 2621TIP3   OH2 7868   0.600   4.154   0.813  0.0121 -0.1407 -0.0695
 2621TIP3    H1 7869   0.597   4.221   0.881 -0.4459 -0.2882  0.0620
 2621TIP3    H2 7870   0.687   4.163   0.773  0.2901 -0.0724  0.5472
 2622TIP3   OH2 7871   3.055   2.048   1.768  0.1487 -0.3578 -0.0312
 2622TIP3    H1 7872   3.023   1.983   1.830  1.9757 -1.4172 -0.1246
 2622TIP3    H2 7873   3.150   2.050   1.782  0.3123  1.2427 -1.0511
 2623TIP3   OH2 7874   3.267   5.745   3.589 -0.2248 -0.4928 -0.1025
 2623TIP3    H1 7875   3.327   5.732   3.516  1.7002  1.3722  1.0391
 2623TIP3    H2 7876   3.233   5.834   3.576 -0.8222 -0.6090  0.6270
 2624TIP3   OH2 7877   2.372   4.628   0.686 -0.0004 -0.6888  0.3145
 2624TIP3    H1 7878   2.401   4.551   0.734  0.1189 -1.1053 -0.4062
 2624TIP3    H2 7879   2.434   4.636   0.614 -0.3680 -0.2757  0.0383
 2625TIP3   OH2 7880   1.180   0.878   0.144  0.0691  0.9203  0.0602
 2625TIP3    H1 7881   1.141   0.918   0.067 -0.5606  0.1418 -0.0318
 2625TIP3    H2 7882   1.220   0.951   0.191 -1.7978  1.7920  0.3451
 2626TIP3   OH2 7883   5.909   5.855   1.532  0.1312  0.0593 -0.0118
 2626TIP3    H1 7884   5.849   5.781   1.524 -0.7434  0.6044  1.2023
 2626TIP3    H2 7885   5.958   5.837   1.612  0.0760  0.6766  0.1644
 2627TIP3   OH2 7886   4.266   4.743   2.490 -0.3457  0.7453 -0.0535
 2627TIP3    H1 7887   4.281   4.729   2.397  2.1438  0.8128  0.2695
 2627TIP3    H2 7888   4.233   4.833   2.496  0.5105  1.1237 -0.7930
 2628TIP3   OH2 7889   3.192   4.549   0.538 -0.2344 -0.1356  0.0349
 2628TIP3    H1 7890   3.138   4.627   0.529 -0.0754  0.1724  1.4840
 2628TIP3    H2 7891   3.132   4.483   0.575  0.4008  0.3323  2.0634
 2629TIP3   OH2 7892   2.501   2.379   3.198 -0.2744  0.0701 -0.0739
 2629TIP3    H1 7893   2.564   2.325   3.152  0.1762  1.3770 -1.0634
 2629TIP3    H2 7894   2.507   2.351   3.289  0.7563 -0.7380 -0.3700
 2630TIP3   OH2 7895   3.776   5.441   0.930 -0.5020  0.2276  0.4274
 2630TIP3    H1 7896   3.806   5.454   1.020  0.3742 -0.2820  0.2166
 2630TIP3    H2 7897   3.691   5.398   0.939  0.4284 -1.6013  1.0253
 2631TIP3   OH2 7898   4.632   2.974   0.234  0.5486 -0.3813 -0.9149
 2631TIP3    H1 7899   4.685   2.985   0.155  1.7120 -0.5340 -0.1711
 2631TIP3    H2 7900   4.682   3.017   0.303 -0.1786 -0.7506 -0.1420
 2632TIP3   OH2 7901   0.678   3.961   0.020 -0.4656 -0.9020 -0.7156
 2632TIP3    H1 7902   0.750   3.980  -0.041 -2.2493 -0.4350 -2.7785
 2632TIP3    H2 7903   0.669   4.041   0.073  1.1561 -1.3456  0.3148
 2633TIP3   OH2 7904   4.203   2.962   3.213  0.6219  0.6706 -0.0179
 2633TIP3    H1 7905   4.290   2.954   3.250  1.5258  1.3212 -1.8642
 2633TIP3    H2 7906   4.164   3.036   3.260  0.6741 -0.2202  1.4745
 2634TIP3   OH2 7907   2.074   1.826   1.616 -0.6705 -0.3930 -0.1394
 2634TIP3    H1 7908   2.005   1.812   1.551 -0.2015 -0.1093 -0.7000
 2634TIP3    H2 7909   2.156   1.816   1.568 -0.3075 -0.7319  0.5240
 2635TIP3   OH2 7910   5.746   1.527   1.827  0.0576  0.7751  0.2783
 2635TIP3    H1 7911   5.806   1.563   1.763 -0.6091 -0.1639 -0.9237
 2635TIP3    H2 7912   5.774   1.436   1.838  0.4263  1.0337  1.6617
 2636TIP3   OH2 7913   2.359   1.305   4.262 -0.2529 -0.0634 -1.0475
 2636TIP3    H1 7914   2.363   1.391   4.220 -0.7771  1.1567  1.1836
 2636TIP3    H2 7915   2.266   1.290   4.275 -0.1170 -0.4562 -0.4980
 2637TIP3   OH2 7916   5.838   1.951   3.561 -0.1154  0.1399  0.1230
 2637TIP3    H1 7917   5.930   1.963   3.537  0.0113  0.8929  0.9280
 2637TIP3    H2 7918   5.789   2.000   3.494  0.0399 -0.6052 -0.5420
 2638TIP3   OH2 7919   0.010   4.036   0.565  0.2729  0.0334  0.5787
 2638TIP3    H1 7920   0.053   4.102   0.511 -1.7611  2.6030  1.9224
 2638TIP3    H2 7921   0.036   4.058   0.655  0.9445 -2.1469  0.9931
 2639TIP3   OH2 7922   0.216   0.583   2.080  0.1227 -0.1694 -0.0810
 2639TIP3    H1 7923   0.140   0.624   2.121 -0.8259  1.3466 -3.1088
 2639TIP3    H2 7924   0.242   0.514   2.141 -2.1078  0.8877  2.2294
 2640TIP3   OH2 7925   2.869   5.500   2.134 -0.4231 -0.0794  0.2012
 2640TIP3    H1 7926   2.786   5.452   2.127 -0.4284  0.0204 -0.5514
 2640TIP3    H2 7927   2.936   5.434   2.116 -0.3606 -0.0631  0.3718
 2641TIP3   OH2 7928   1.539   2.500   5.088  0.1134  0.4831 -0.1904
 2641TIP3    H1 7929   1.624   2.486   5.130 -0.3670 -0.6607  0.4619
 2641TIP3    H2 7930   1.504   2.579   5.129 -0.9737 -1.3605  2.7452
 2642TIP3   OH2 7931   0.349   1.536   0.173  0.5171 -0.5164  0.1240
 2642TIP3    H1 7932   0.335   1.567   0.262  1.4180  0.4271 -0.0329
 2642TIP3    H2 7933   0.272   1.566   0.125  0.1177 -0.8649  0.5464
 2643TIP3   OH2 7934   1.067   2.534   2.741  0.1269 -0.2788  0.3560
 2643TIP3    H1 7935   1.107   2.453   2.775  0.2456 -0.6840 -0.7034
 2643TIP3    H2 7936   1.125   2.603   2.771 -0.3830 -0.4965  1.9176
 2644TIP3   OH2 7937   3.896   3.452   0.025  0.2806  0.3570  0.3198
 2644TIP3    H1 7938   3.854   3.533   0.054  0.8916  0.8276 -0.0851
 2644TIP3    H2 7939   3.832   3.411  -0.033  0.3996  1.1006 -0.3424
 2645TIP3   OH2 7940   2.619   3.244   2.989 -0.0006 -0.1420  0.1066
 2645TIP3    H1 7941   2.528   3.218   2.976 -0.1557  0.1043  0.6645
 2645TIP3    H2 7942   2.648   3.274   2.903 -0.1801 -1.0281 -0.2767
 2646TIP3   OH2 7943   1.525   1.572   0.046 -0.1683 -0.0997 -0.4450
 2646TIP3    H1 7944   1.521   1.577   0.142 -0.2736  0.0475 -0.4576
 2646TIP3    H2 7945   1.472   1.645   0.016  1.5776  1.1443 -0.6175
 2647TIP3   OH2 7946   3.783   2.080   4.617 -0.4260  0.5918 -0.2789
 2647TIP3    H1 7947   3.859   2.069   4.561 -0.8836  0.6792 -0.9238
 2647TIP3    H2 7948   3.745   2.164   4.592 -1.6845 -0.1914 -1.1611
 2648TIP3   OH2 7949   3.592   3.701   0.913 -0.1988  0.2495 -0.1302
 2648TIP3    H1 7950   3.572   3.609   0.897 -2.0521  0.4547  0.6801
 2648TIP3    H2 7951   3.686   3.708   0.899  0.1016 -1.8950  0.3865
 2649TIP3   OH2 7952   0.509   3.810   2.113 -0.4755 -0.2737 -0.4569
 2649TIP3    H1 7953   0.493   3.720   2.084  0.2337 -1.0314  1.3975
 2649TIP3    H2 7954   0.536   3.802   2.204 -0.4955  1.8425 -0.2144
 2650TIP3   OH2 7955   2.683   3.001   3.860 -0.2803 -0.1748  0.0908
 2650TIP3    H1 7956   2.597   2.966   3.837 -0.0632 -0.4849 -0.2742
 2650TIP3    H2 7957   2.715   3.041   3.779  0.0457 -0.3276  0.1423
 2651TIP3   OH2 7958   6.218   5.529   4.347  0.3250 -0.2458 -0.2177
 2651TIP3    H1 7959   6.209   5.462   4.280  0.6028 -1.1873  0.6689
 2651TIP3    H2 7960   6.160   5.500   4.417 -1.3868  1.6526 -0.7395
 2652TIP3   OH2 7961   0.115   5.055   5.118 -0.0082 -0.2719  0.0918
 2652TIP3    H1 7962   0.205   5.069   5.088 -0.5750  1.2566 -1.0179
 2652TIP3    H2 7963   0.093   4.967   5.088  1.2506 -0.8636  0.8007
 2653TIP3   OH2 7964   2.595   0.441   3.017  0.1304 -0.6550 -0.1623
 2653TIP3    H1 7965   2.553   0.438   2.932 -0.0633 -0.8322 -0.0609
 2653TIP3    H2 7966   2.688   0.455   2.998 -0.0874  0.6186 -0.3529
 2654TIP3   OH2 7967   3.959   4.009   1.664 -0.7726  0.0491  0.3813
 2654TIP3    H1 7968   4.041   3.972   1.697  0.5127  3.5191  1.5671
 2654TIP3    H2 7969   3.897   3.998   1.736 -0.8136 -0.8324  0.2285
 2655TIP3   OH2 7970   1.284   1.334   2.087 -0.0777 -0.5381  0.3577
 2655TIP3    H1 7971   1.325   1.363   2.169  1.6947  0.2092 -0.7453
 2655TIP3    H2 7972   1.313   1.243   2.078  0.5315 -0.3206  0.0851
 2656TIP3   OH2 7973   5.519   0.096   1.338  0.0939 -0.1347 -0.1830
 2656TIP3    H1 7974   5.491   0.005   1.347 -1.1051  0.1256 -1.0221
 2656TIP3    H2 7975   5.612   0.094   1.358 -0.0616 -1.4175  0.5459
 2657TIP3   OH2 7976   0.467   1.420   4.472 -0.1996 -0.3721  0.6518
 2657TIP3    H1 7977   0.553   1.383   4.491  0.2604 -0.4642 -1.3582
 2657TIP3    H2 7978   0.455   1.406   4.378 -1.6816  1.1519  0.5597
 2658TIP3   OH2 7979   5.767   1.298   0.696 -0.0712 -0.2678 -0.1245
 2658TIP3    H1 7980   5.684   1.335   0.727 -0.6496 -0.2377 -1.6560
 2658TIP3    H2 7981   5.744   1.213   0.659  1.1448 -1.9484  2.6675
 2659TIP3   OH2 7982   1.389   2.645   1.486 -0.3029  0.2298 -0.1600
 2659TIP3    H1 7983   1.425   2.722   1.530  0.1067 -0.1418  0.1724
 2659TIP3    H2 7984   1.294   2.653   1.496 -0.1862 -0.5639  2.0780
 2660TIP3   OH2 7985   3.691   1.192   4.661  0.1424  0.2312  0.7786
 2660TIP3    H1 7986   3.647   1.231   4.586  0.5885  1.4744  1.1192
 2660TIP3    H2 7987   3.736   1.115   4.626 -0.8835 -0.0801  0.0995
 2661TIP3   OH2 7988   2.151   0.460   4.783 -0.3564 -0.1868  0.2090
 2661TIP3    H1 7989   2.114   0.478   4.870  1.8227  1.3431  0.9191
 2661TIP3    H2 7990   2.219   0.394   4.799 -0.4297 -0.4326 -0.4683
 2662TIP3   OH2 7991   4.973   1.542   2.654  0.3140  0.0452 -0.0486
 2662TIP3    H1 7992   5.040   1.583   2.598 -0.6966  0.5458 -0.9250
 2662TIP3    H2 7993   4.918   1.614   2.683 -1.7329 -0.6181 -1.9365
 2663TIP3   OH2 7994   3.388   3.440   4.634  0.3632 -0.0422 -0.2865
 2663TIP3    H1 7995   3.365   3.385   4.709  0.5038  0.8104  0.4003
 2663TIP3    H2 7996   3.475   3.474   4.656  0.5370 -0.0257 -0.9801
 2664TIP3   OH2 7997   4.007   3.864   0.532  0.5242  0.2766 -0.1345
 2664TIP3    H1 7998   3.953   3.868   0.610  0.6321  2.0989 -0.1151
 2664TIP3    H2 7999   3.957   3.911   0.465  1.8786  1.7044 -0.2072
 2665TIP3   OH2 8000   1.220   1.215   2.445 -0.0510 -0.1290 -0.1085
 2665TIP3    H1 8001   1.262   1.153   2.504  1.2681  0.6895 -0.1398
 2665TIP3    H2 8002   1.159   1.162   2.393  0.3361 -1.2095  0.5180
 2666TIP3   OH2 8003   1.024   4.402   3.819 -0.1009 -0.2901  0.1553
 2666TIP3    H1 8004   1.095   4.434   3.764 -0.5922  0.1281 -0.2529
 2666TIP3    H2 8005   0.982   4.482   3.852  0.9440 -0.4996  2.1739
 2667TIP3   OH2 8006   4.096   0.950   3.332 -0.2180 -0.5607 -0.1206
 2667TIP3    H1 8007   4.191   0.939   3.328 -0.4044 -2.1278 -0.6250
 2667TIP3    H2 8008   4.072   0.982   3.245  0.0105  1.5528  0.5343
 2668TIP3   OH2 8009   2.208   4.243   2.872  0.6168  0.6537 -0.0066
 2668TIP3    H1 8010   2.223   4.203   2.786  0.8236 -0.3802  0.4907
 2668TIP3    H2 8011   2.133   4.301   2.859  1.2616  1.2747 -1.1096
 2669TIP3   OH2 8012   4.989   1.930   5.069  0.4917 -0.2732 -0.0843
 2669TIP3    H1 8013   4.963   1.848   5.111  0.1004 -0.8635 -1.4432
 2669TIP3    H2 8014   4.909   1.966   5.033  1.2101 -1.3148 -2.9394
 2670TIP3   OH2 8015   6.140   3.824   0.244 -0.4823  0.8163 -0.1569
 2670TIP3    H1 8016   6.083   3.835   0.320  0.0664  0.8384  0.2579
 2670TIP3    H2 8017   6.214   3.883   0.260 -0.8145  1.5250 -1.1593
 2671TIP3   OH2 8018   5.874   2.767   3.866  0.8993 -0.7163 -0.0748
 2671TIP3    H1 8019   5.943   2.715   3.907  1.2238 -1.6273 -1.6878
 2671TIP3    H2 8020   5.866   2.845   3.921  3.4789 -0.3869 -0.0693
 2672TIP3   OH2 8021   1.384   1.650   4.685  0.2401  0.6575 -0.0213
 2672TIP3    H1 8022   1.394   1.609   4.770 -1.2972 -0.1252 -0.1981
 2672TIP3    H2 8023   1.474   1.662   4.654  0.8191 -3.1559 -0.2227
 2673TIP3   OH2 8024   3.649   4.292   4.177 -0.5640 -0.0275  0.3419
 2673TIP3    H1 8025   3.591   4.266   4.249  1.7908 -2.0956  1.6457
 2673TIP3    H2 8026   3.737   4.275   4.210  1.0428  4.4234 -0.9271
 2674TIP3   OH2 8027   4.325   4.059   3.947 -0.4970  0.5310 -0.1806
 2674TIP3    H1 8028   4.319   3.994   4.017 -1.6957 -0.4380 -1.1301
 2674TIP3    H2 8029   4.254   4.121   3.965 -0.1186  0.9001  0.0546
 2675TIP3   OH2 8030   1.787   0.713   4.566  0.0586  0.5353 -0.2562
 2675TIP3    H1 8031   1.692   0.709   4.552  0.2737  0.9278 -2.0317
 2675TIP3    H2 8032   1.796   0.764   4.647 -1.2667 -1.2603  1.1489
 2676TIP3   OH2 8033   3.432   0.803   3.668 -0.0581  0.0787  0.4110
 2676TIP3    H1 8034   3.390   0.885   3.640  0.9424  0.1865 -0.8711
 2676TIP3    H2 8035   3.420   0.802   3.763 -1.2214  1.0667  0.3071
 2677TIP3   OH2 8036   5.653   3.945   5.118  0.1684 -0.4579  0.2790
 2677TIP3    H1 8037   5.681   4.006   5.050  2.0911  0.6117  1.9143
 2677TIP3    H2 8038   5.627   4.001   5.191 -2.3042 -1.5654  0.3625
 2678TIP3   OH2 8039   4.330   4.619   0.594 -0.0173  0.2352  0.6665
 2678TIP3    H1 8040   4.284   4.678   0.534 -1.2470  1.1928  2.4351
 2678TIP3    H2 8041   4.353   4.543   0.541 -2.6902  0.2208 -0.6254
 2679TIP3   OH2 8042   1.982   2.264   0.828  0.2568 -0.0040 -0.8695
 2679TIP3    H1 8043   1.941   2.203   0.767  0.7434 -0.1160 -1.0893
 2679TIP3    H2 8044   1.940   2.246   0.912  0.8673 -1.1124 -0.7881
 2680TIP3   OH2 8045   1.410   4.271   4.871 -0.0490  0.0519 -0.6497
 2680TIP3    H1 8046   1.428   4.351   4.921  2.0824 -0.6792 -0.1305
 2680TIP3    H2 8047   1.380   4.208   4.936  0.8266 -0.3174 -0.5835
 2681TIP3   OH2 8048   4.725   3.541   3.243  0.3363  0.6758 -0.6124
 2681TIP3    H1 8049   4.647   3.487   3.253  0.3137  1.0094  1.3071
 2681TIP3    H2 8050   4.799   3.480   3.253  0.3070  0.8623  1.0006
 2682TIP3   OH2 8051   2.239   4.231   2.241 -0.5939 -0.0047 -0.1724
 2682TIP3    H1 8052   2.229   4.136   2.237  0.5177 -0.0922 -1.8631
 2682TIP3    H2 8053   2.311   4.246   2.302  0.8643 -0.4313 -1.7207
 2683TIP3   OH2 8054   5.425   1.905   1.608 -0.3405  0.1252 -0.2496
 2683TIP3    H1 8055   5.476   1.857   1.674  0.3378  0.1855 -0.7230
 2683TIP3    H2 8056   5.352   1.942   1.658 -1.4488 -2.1667 -0.0401
 2684TIP3   OH2 8057   4.054   4.496   4.124  0.4639  0.0996  0.0075
 2684TIP3    H1 8058   3.989   4.428   4.108 -0.8023  1.5188 -1.3093
 2684TIP3    H2 8059   4.016   4.550   4.193  0.3145  0.8248 -0.6284
 2685TIP3   OH2 8060   5.476   3.194   1.239 -0.0291  0.0426 -0.3733
 2685TIP3    H1 8061   5.514   3.204   1.326 -0.1444 -1.1844 -0.1673
 2685TIP3    H2 8062   5.534   3.243   1.181  0.2252  0.6070  0.3448
 2686TIP3   OH2 8063   3.700   5.012   4.324 -0.1206 -0.6152  0.0022
 2686TIP3    H1 8064   3.614   4.988   4.290 -1.6430 -0.0279  3.1092
 2686TIP3    H2 8065   3.714   5.102   4.292 -1.1551 -0.3323  0.3104
 2687TIP3   OH2 8066   5.004   3.153   3.646 -0.2810  0.1126  0.0087
 2687TIP3    H1 8067   5.047   3.071   3.671  0.6544  0.0401 -1.6921
 2687TIP3    H2 8068   5.008   3.207   3.724 -0.0386 -1.1103  0.8730
 2688TIP3   OH2 8069   4.152   2.909   0.012 -0.4702  0.6153 -0.7150
 2688TIP3    H1 8070   4.142   2.839  -0.054  2.2658 -1.0979  0.5030
 2688TIP3    H2 8071   4.086   2.889   0.078 -0.1361 -0.4890 -0.6908
 2689TIP3   OH2 8072   0.879   0.429   0.037  0.1326 -0.3687  0.2165
 2689TIP3    H1 8073   0.820   0.354   0.046 -0.0780 -0.1977  0.2526
 2689TIP3    H2 8074   0.821   0.504   0.023  0.3615 -0.8055 -5.0028
 2690TIP3   OH2 8075   2.730   0.069   3.732  0.4998  0.2698  0.5190
 2690TIP3    H1 8076   2.701   0.026   3.813 -1.6950  1.7389  0.5957
 2690TIP3    H2 8077   2.814   0.108   3.755  0.9670 -1.1919  1.4057
 2691TIP3   OH2 8078   3.003   2.580   1.179  0.1179 -0.1114 -0.1202
 2691TIP3    H1 8079   3.055   2.588   1.099 -3.2857 -2.2907 -2.9017
 2691TIP3    H2 8080   3.028   2.495   1.215 -1.2793 -1.1661 -1.4653
 2692TIP3   OH2 8081   0.895   1.658   4.823  0.1108  0.9520  0.3427
 2692TIP3    H1 8082   0.981   1.679   4.859  0.0664  1.8161 -0.0425
 2692TIP3    H2 8083   0.869   1.736   4.775 -0.0644  0.0357 -1.1499
 2693TIP3   OH2 8084   3.698   2.662   5.130 -0.0975  0.3510  0.3628
 2693TIP3    H1 8085   3.748   2.735   5.094  2.1898 -0.8234  0.9704
 2693TIP3    H2 8086   3.720   2.662   5.223  0.7213 -1.6114  0.2304
 2694TIP3   OH2 8087   6.326   1.502   2.593 -0.6114 -0.4620 -0.1295
 2694TIP3    H1 8088   6.367   1.446   2.527 -1.8869 -1.2096 -0.3173
 2694TIP3    H2 8089   6.334   1.591   2.558  1.4292 -0.4905  0.1632
 2695TIP3   OH2 8090   5.833   2.151   4.852 -0.2942 -0.0689 -0.2043
 2695TIP3    H1 8091   5.841   2.116   4.940  0.4179 -0.9918 -0.6164
 2695TIP3    H2 8092   5.747   2.122   4.822 -0.4026 -0.0267  0.0601
 2696TIP3   OH2 8093   5.203   3.001   4.348  0.3147  0.4283  0.6686
 2696TIP3    H1 8094   5.166   2.945   4.280  1.5238  0.5794 -0.1347
 2696TIP3    H2 8095   5.294   2.973   4.355  0.9368  2.2359  0.2768
 2697TIP3   OH2 8096   5.436   4.071   3.226 -0.0027  0.3604  0.2723
 2697TIP3    H1 8097   5.524   4.075   3.189 -0.0431  1.6551  0.2575
 2697TIP3    H2 8098   5.448   4.089   3.319 -0.1401 -0.5549  0.4684
 2698TIP3   OH2 8099   1.759   3.015   0.714  0.3679  0.1563  0.6056
 2698TIP3    H1 8100   1.833   3.075   0.710 -0.5647  1.3316  0.5838
 2698TIP3    H2 8101   1.682   3.071   0.719 -0.5373 -1.0378  0.6052
 2699TIP3   OH2 8102   2.868   2.997   4.455 -0.1972 -0.3978 -0.3355
 2699TIP3    H1 8103   2.813   3.009   4.378  0.1442 -0.8400 -0.6551
 2699TIP3    H2 8104   2.947   2.954   4.422 -0.4284 -1.4267  0.3935
 2700TIP3   OH2 8105   3.817   3.978   0.297 -0.2376  0.4437  0.1878
 2700TIP3    H1 8106   3.792   3.981   0.204  1.0280 -1.8763 -0.2866
 2700TIP3    H2 8107   3.890   4.039   0.304 -0.0472  0.2967 -0.4439
 2701TIP3   OH2 8108   5.207   0.905   2.020  0.6084  0.1369  0.0084
 2701TIP3    H1 8109   5.237   0.816   2.040  1.1206  0.3308  0.1050
 2701TIP3    H2 8110   5.161   0.896   1.937  0.5401 -0.2449  0.0840
 2702TIP3   OH2 8111   0.103   3.330   2.889 -0.0864  0.0216 -0.1879
 2702TIP3    H1 8112   0.063   3.383   2.958 -3.3601 -0.5183 -1.4668
 2702TIP3    H2 8113   0.087   3.239   2.916  0.6877 -0.2243 -0.5401
 2703TIP3   OH2 8114   5.099   3.142   2.395  0.0251 -0.3688  0.0426
 2703TIP3    H1 8115   5.068   3.169   2.308 -1.0990 -2.5914 -0.3341
 2703TIP3    H2 8116   5.194   3.148   2.390 -0.0389  4.1742  0.3501
 2704TIP3   OH2 8117   0.881   3.592   1.390  0.0717  0.5369 -0.2034
 2704TIP3    H1 8118   0.851   3.683   1.390  0.5921  0.7242 -1.1852
 2704TIP3    H2 8119   0.945   3.588   1.460  0.6492  1.1439 -0.6885
 2705TIP3   OH2 8120   3.768   5.071   3.654  0.5244 -0.1525 -0.0080
 2705TIP3    H1 8121   3.806   5.039   3.572  0.1302  0.4026 -0.4166
 2705TIP3    H2 8122   3.810   5.155   3.669  0.2770 -0.0511  0.1239
 2706TIP3   OH2 8123   0.199   4.142   4.024 -0.8531 -0.2032 -0.0251
 2706TIP3    H1 8124   0.280   4.192   4.019 -1.1856  0.4248  0.6208
 2706TIP3    H2 8125   0.161   4.148   3.936  0.1218 -1.0835 -0.5236
 2707TIP3   OH2 8126   5.332   0.496   2.937 -0.0392 -0.3841 -0.0600
 2707TIP3    H1 8127   5.369   0.515   3.024  0.4459 -1.0301 -0.1162
 2707TIP3    H2 8128   5.294   0.579   2.909  0.5088  0.0442  0.4262
 2708TIP3   OH2 8129   5.936   1.572   1.634 -0.4782 -0.2226 -0.3265
 2708TIP3    H1 8130   6.012   1.607   1.587 -0.6998  0.2205 -0.3600
 2708TIP3    H2 8131   5.873   1.551   1.565 -0.0429 -1.4681 -0.3716
 2709TIP3   OH2 8132   1.088   1.766   4.343 -0.5021  0.5212 -0.4482
 2709TIP3    H1 8133   1.130   1.802   4.421  0.4631 -0.0775 -0.6643
 2709TIP3    H2 8134   1.077   1.673   4.362 -0.4389  0.4067 -0.9360
 2710TIP3   OH2 8135   3.142   4.033   3.283 -0.0315  0.6115  0.5102
 2710TIP3    H1 8136   3.184   4.091   3.219  0.2822  1.3028  1.3274
 2710TIP3    H2 8137   3.173   3.945   3.259  1.9154  1.0830  1.0564
 2711TIP3   OH2 8138   0.691   5.475   3.295 -0.6611 -0.0284 -0.8035
 2711TIP3    H1 8139   0.614   5.532   3.291 -1.1299 -0.4379  1.4833
 2711TIP3    H2 8140   0.660   5.395   3.337  1.2373  0.2500  1.2817
 2712TIP3   OH2 8141   4.344   1.639   3.106  0.1921 -0.8088 -0.0333
 2712TIP3    H1 8142   4.340   1.633   3.011 -0.1543 -0.4000 -0.0446
 2712TIP3    H2 8143   4.263   1.597   3.136  0.5454 -1.4083  0.1059
 2713TIP3   OH2 8144   1.362   2.129   0.726 -0.1501 -0.2737  0.8027
 2713TIP3    H1 8145   1.436   2.186   0.746  0.9902 -1.8212  1.2121
 2713TIP3    H2 8146   1.324   2.108   0.811 -1.1024  0.5577  0.5874
 2714TIP3   OH2 8147   2.086   2.723   1.049 -0.0643 -1.2171 -0.4918
 2714TIP3    H1 8148   2.142   2.722   1.126 -1.3704 -0.6735  0.5062
 2714TIP3    H2 8149   2.136   2.771   0.983  0.1723  0.3252  0.7667
 2715TIP3   OH2 8150   1.750   4.422   0.597 -0.0266 -0.8783 -0.1758
 2715TIP3    H1 8151   1.757   4.368   0.518 -0.4036 -2.0183  0.5587
 2715TIP3    H2 8152   1.694   4.495   0.570 -0.9088 -1.7326 -0.7340
 2716TIP3   OH2 8153   0.902   5.667   4.683  0.5629 -0.3424 -0.4019
 2716TIP3    H1 8154   0.944   5.662   4.769  1.0886 -0.9555 -0.6848
 2716TIP3    H2 8155   0.947   5.601   4.631  1.8684  1.5944 -1.8548
 2717TIP3   OH2 8156   2.133   3.114   3.510 -0.0733  0.6928 -0.2635
 2717TIP3    H1 8157   2.170   3.173   3.575  0.5884  0.2026 -0.1877
 2717TIP3    H2 8158   2.181   3.032   3.522 -1.8141 -0.2883  0.5118
 2718TIP3   OH2 8159   2.242   3.817   1.274 -0.4277  0.1382  0.0065
 2718TIP3    H1 8160   2.148   3.801   1.282 -1.0862  3.0626 -0.7285
 2718TIP3    H2 8161   2.258   3.821   1.180  0.2868  0.4240  0.1323
 2719TIP3   OH2 8162   3.327   2.208   2.077  0.3116  0.3050 -0.3126
 2719TIP3    H1 8163   3.354   2.190   2.167 -0.3517 -0.2068 -0.2065
 2719TIP3    H2 8164   3.358   2.297   2.060  1.6617 -0.1023 -0.0644
 2720TIP3   OH2 8165   5.102   0.382   1.478 -0.5217 -0.2583  0.0206
 2720TIP3    H1 8166   5.114   0.465   1.431 -2.5622 -0.0484 -0.2018
 2720TIP3    H2 8167   5.191   0.347   1.486  0.2312  1.2142 -1.2104
 2721TIP3   OH2 8168   0.614   1.779   4.769  0.2228 -0.3739 -0.1098
 2721TIP3    H1 8169   0.523   1.795   4.796  0.4730 -0.6955  0.9945
 2721TIP3    H2 8170   0.621   1.684   4.764  0.1302 -0.3152 -1.5724
 2722TIP3   OH2 8171   4.201   3.161   1.276  0.6322  0.8043  0.3393
 2722TIP3    H1 8172   4.243   3.091   1.326  1.1294  2.1266  1.8649
 2722TIP3    H2 8173   4.147   3.116   1.212  1.4690 -0.9627  0.8132
 2723TIP3   OH2 8174   1.920   1.932   4.880 -0.2660  0.1430  0.1599
 2723TIP3    H1 8175   1.977   1.860   4.908 -0.4570 -0.5787 -1.2103
 2723TIP3    H2 8176   1.892   1.974   4.961 -0.7701 -1.8087  1.0461
 2724TIP3   OH2 8177   4.389   0.649   1.996  0.6061  0.4355  0.0373
 2724TIP3    H1 8178   4.466   0.633   1.941  1.1823 -0.2167  1.0158
 2724TIP3    H2 8179   4.333   0.573   1.981  1.5587 -0.6350  1.6601
 2725TIP3   OH2 8180   2.392   4.404   1.192  0.1491  0.0880  0.4643
 2725TIP3    H1 8181   2.406   4.479   1.134 -0.9870 -0.1349 -0.1286
 2725TIP3    H2 8182   2.409   4.438   1.280 -1.5616  1.4236  0.3390
 2726TIP3   OH2 8183   2.937   5.442   1.695 -0.0224  0.6453  0.1822
 2726TIP3    H1 8184   2.936   5.505   1.623 -1.5506  0.3147 -0.1211
 2726TIP3    H2 8185   3.020   5.395   1.685  0.3663  1.4682 -0.5845
 2727TIP3   OH2 8186   4.819   5.152   4.078  0.7188 -0.1419 -0.6830
 2727TIP3    H1 8187   4.748   5.215   4.081 -0.6962 -1.6710 -0.3398
 2727TIP3    H2 8188   4.887   5.193   4.025 -0.2313  1.5397 -0.6445
 2728TIP3   OH2 8189   2.025   4.811   4.237  0.1405  0.2540 -0.8481
 2728TIP3    H1 8190   1.944   4.767   4.211 -0.6387  1.0499  0.1382
 2728TIP3    H2 8191   2.094   4.763   4.192 -0.5030 -2.8680  1.1688
 2729TIP3   OH2 8192   3.849   1.985   3.367 -0.0959  0.5933 -0.9632
 2729TIP3    H1 8193   3.920   1.971   3.304 -1.3119  0.1271 -2.2907
 2729TIP3    H2 8194   3.850   2.080   3.383  1.0834  0.5340 -0.6327
 2730TIP3   OH2 8195   1.092   2.069   1.741 -0.1796  0.9666  0.1705
 2730TIP3    H1 8196   1.076   1.975   1.737  1.5276  0.6168  0.9850
 2730TIP3    H2 8197   1.128   2.084   1.828 -0.2898  2.3654  0.0004
 2731TIP3   OH2 8198   2.812   4.956   0.098 -0.0401  0.4537 -0.4488
 2731TIP3    H1 8199   2.869   5.033   0.099 -1.7832  1.8200 -1.0577
 2731TIP3    H2 8200   2.747   4.973   0.165  0.5529 -1.3861  0.6894
 2732TIP3   OH2 8201   4.532   2.105   0.915  0.3680  0.4192 -0.2371
 2732TIP3    H1 8202   4.490   2.077   0.833  0.3023  1.7754 -0.6951
 2732TIP3    H2 8203   4.534   2.026   0.969  2.0892 -1.0162 -2.2136
 2733TIP3   OH2 8204   5.542   5.421   2.145  0.3714  0.1667  0.3372
 2733TIP3    H1 8205   5.530   5.463   2.230  3.4000  0.2719  0.8269
 2733TIP3    H2 8206   5.582   5.336   2.167 -0.3993 -0.5393 -0.9123
 2734TIP3   OH2 8207   1.442   0.101   0.677 -0.8480 -0.1856 -0.1712
 2734TIP3    H1 8208   1.368   0.155   0.648 -0.6929  0.0355 -0.1564
 2734TIP3    H2 8209   1.438   0.024   0.621  0.2551  0.8344 -1.7424
 2735TIP3   OH2 8210   5.413   0.882   1.760 -0.3205 -0.2019  0.3957
 2735TIP3    H1 8211   5.508   0.888   1.772 -0.3721  0.3776  0.5206
 2735TIP3    H2 8212   5.384   0.972   1.748 -0.7842 -0.4284 -0.2155
 2736TIP3   OH2 8213   0.819   2.118   2.188 -0.1356 -0.0138  0.1951
 2736TIP3    H1 8214   0.861   2.039   2.154 -3.2340 -2.5858  1.8183
 2736TIP3    H2 8215   0.755   2.142   2.121 -0.0063  0.4244  0.2266
 2737TIP3   OH2 8216   0.616   5.982   2.738 -0.4983  0.1206  0.2994
 2737TIP3    H1 8217   0.638   5.930   2.661  0.1537  2.0309 -0.8485
 2737TIP3    H2 8218   0.520   5.984   2.739 -0.5441  1.8785 -1.7857
 2738TIP3   OH2 8219   3.094   5.862   0.228 -0.0610  0.0032 -0.0634
 2738TIP3    H1 8220   3.082   5.870   0.322  0.4890 -0.2154  0.0218
 2738TIP3    H2 8221   3.117   5.951   0.200 -0.9462  0.2307 -0.1006
 2739TIP3   OH2 8222   5.231   2.394   3.204  0.2040 -0.0424  0.1884
 2739TIP3    H1 8223   5.316   2.429   3.229 -0.7201  1.8973  0.7486
 2739TIP3    H2 8224   5.221   2.315   3.258  0.6716  0.9741  1.8282
 2740TIP3   OH2 8225   4.910   2.127   0.239  0.2530  0.4354 -0.4604
 2740TIP3    H1 8226   4.911   2.111   0.334  1.1236  0.5232 -0.4436
 2740TIP3    H2 8227   4.862   2.052   0.203 -0.8701  0.8573  0.1209
 2741TIP3   OH2 8228   0.494   1.879   3.261 -0.7805  0.0002  0.0389
 2741TIP3    H1 8229   0.559   1.871   3.331  0.1306  1.0270 -0.6730
 2741TIP3    H2 8230   0.449   1.961   3.279 -0.8859  0.0178 -0.2992
 2742TIP3   OH2 8231   5.000   1.260   4.124  0.3498  0.1945 -0.1880
 2742TIP3    H1 8232   5.084   1.226   4.093  0.3312 -0.1541  0.1240
 2742TIP3    H2 8233   5.023   1.333   4.181  0.4321  0.2530 -0.2974
 2743TIP3   OH2 8234   0.342   3.663   0.463 -0.5377  0.1601 -0.0495
 2743TIP3    H1 8235   0.267   3.604   0.458 -0.9185  0.6838 -0.6344
 2743TIP3    H2 8236   0.318   3.727   0.530 -0.8774  0.6734 -0.6459
 2744TIP3   OH2 8237   0.868   3.548   1.861 -0.0597  0.5187 -0.0584
 2744TIP3    H1 8238   0.933   3.563   1.791 -0.4429 -1.0619 -0.8003
 2744TIP3    H2 8239   0.888   3.460   1.893 -3.3522 -1.1337 -2.0547
 2745TIP3   OH2 8240   6.342   0.708   4.746  0.4662 -0.5899 -0.3232
 2745TIP3    H1 8241   6.276   0.639   4.746 -0.8121  0.4897  1.8405
 2745TIP3    H2 8242   6.295   0.785   4.713  1.1795 -0.1940 -0.4354
 2746TIP3   OH2 8243   3.986   0.167   0.663 -0.4161 -0.2565 -0.2189
 2746TIP3    H1 8244   3.919   0.234   0.647 -0.5630 -0.6005 -1.0929
 2746TIP3    H2 8245   4.018   0.186   0.752  1.6167  2.7977 -1.4167
 2747TIP3   OH2 8246   1.768   3.186   3.211  0.5567 -0.2849  0.2564
 2747TIP3    H1 8247   1.728   3.171   3.297  1.7160 -0.3316  0.8155
 2747TIP3    H2 8248   1.817   3.267   3.222  1.1807 -0.5922 -0.1856
 2748TIP3   OH2 8249   1.790   4.817   1.133  0.0488  0.3451  0.3888
 2748TIP3    H1 8250   1.765   4.899   1.090 -0.6538 -0.7414 -1.3655
 2748TIP3    H2 8251   1.726   4.808   1.204 -0.5148  0.8168 -0.0457
 2749TIP3   OH2 8252   1.230   2.979   2.295 -0.5159 -0.2464 -0.2539
 2749TIP3    H1 8253   1.169   3.053   2.290  0.2033  0.6569  2.6403
 2749TIP3    H2 8254   1.236   2.959   2.388  2.9240 -0.8796 -0.4990
 2750TIP3   OH2 8255   0.192   4.741   4.681 -0.1728 -0.0831  0.3593
 2750TIP3    H1 8256   0.233   4.702   4.604  0.2674  0.8754  0.0864
 2750TIP3    H2 8257   0.098   4.728   4.668 -0.0310 -1.0929  0.3166
 2751TIP3   OH2 8258   5.382   3.802   3.793 -0.1203  0.6056  0.0934
 2751TIP3    H1 8259   5.387   3.770   3.883 -1.1820  2.1507  0.7272
 2751TIP3    H2 8260   5.374   3.897   3.801  0.9643  0.8952 -1.6863
 2752TIP3   OH2 8261   4.414   1.118   2.996 -0.2058  0.0364  0.2965
 2752TIP3    H1 8262   4.416   1.209   3.025 -0.3181 -0.1856  1.0034
 2752TIP3    H2 8263   4.494   1.108   2.944 -0.0386  0.4528  0.4661
 2753TIP3   OH2 8264   5.815   4.738   1.959  0.0268 -0.1678 -0.4345
 2753TIP3    H1 8265   5.889   4.738   2.019 -0.6991  1.2872  0.5363
 2753TIP3    H2 8266   5.821   4.823   1.914 -0.4135 -0.5139 -1.1654
 2754TIP3   OH2 8267   1.345   4.970   4.252  0.7068  0.4127 -0.2210
 2754TIP3    H1 8268   1.267   5.024   4.263  0.8478  0.1354  2.7220
 2754TIP3    H2 8269   1.414   5.015   4.300  1.8238 -0.4537 -0.9339
 2755TIP3   OH2 8270   2.581   2.592   2.065  0.8173  0.0592 -0.0541
 2755TIP3    H1 8271   2.554   2.601   1.974  0.3660  0.0618  0.0771
 2755TIP3    H2 8272   2.499   2.589   2.114  1.0761  1.4899  0.5001
 2756TIP3   OH2 8273   0.847   3.718   4.571 -0.0869 -0.3657  0.3070
 2756TIP3    H1 8274   0.814   3.733   4.482  2.3893  0.0729 -0.6095
 2756TIP3    H2 8275   0.855   3.805   4.609 -1.3546 -0.5656  1.0846
 2757TIP3   OH2 8276   5.959   4.310   1.086  0.0265  0.2966 -0.1908
 2757TIP3    H1 8277   5.882   4.281   1.036  0.2785  0.7523 -0.8534
 2757TIP3    H2 8278   5.969   4.243   1.154  0.6668 -1.2954 -1.7543
 2758TIP3   OH2 8279   4.980   4.696   2.578 -0.1439 -0.5340  0.6129
 2758TIP3    H1 8280   5.052   4.718   2.518 -1.2211  0.5405 -0.3261
 2758TIP3    H2 8281   4.902   4.697   2.523 -1.5032  2.5837  2.3703
 2759TIP3   OH2 8282   1.739   4.892   2.148  0.1149 -0.3693 -0.2786
 2759TIP3    H1 8283   1.729   4.897   2.243  1.0729 -1.1625 -0.1147
 2759TIP3    H2 8284   1.652   4.871   2.115 -0.7565  2.2153  0.1953
 2760TIP3   OH2 8285   5.415   3.749   2.910 -0.7285  0.2268  0.0804
 2760TIP3    H1 8286   5.411   3.840   2.880  1.3090  0.2404 -0.2376
 2760TIP3    H2 8287   5.397   3.698   2.831  0.5828  0.3388 -0.3156
 2761TIP3   OH2 8288   3.675   4.012   1.583 -0.1423 -0.2879 -0.1071
 2761TIP3    H1 8289   3.751   4.068   1.601 -0.3159  0.3143 -1.1563
 2761TIP3    H2 8290   3.626   4.010   1.665 -0.9050  2.3040 -0.4158
 2762TIP3   OH2 8291   2.521   4.767   2.475  0.4814  0.5467  0.1261
 2762TIP3    H1 8292   2.535   4.812   2.392  2.3193  1.7954  1.0478
 2762TIP3    H2 8293   2.607   4.762   2.515  0.0381 -2.0549  1.0154
 2763TIP3   OH2 8294   3.114   2.947   3.267 -0.3729 -0.4160 -0.3980
 2763TIP3    H1 8295   3.105   3.033   3.309 -1.3517 -0.0012 -1.4049
 2763TIP3    H2 8296   3.083   2.885   3.332  1.2474 -0.1193  0.7009
 2764TIP3   OH2 8297   2.345   1.560   3.472  0.1834 -0.0209 -0.1097
 2764TIP3    H1 8298   2.323   1.646   3.507 -2.3029 -0.8762  0.6880
 2764TIP3    H2 8299   2.392   1.517   3.544 -1.2809 -0.3362  0.7105
 2765TIP3   OH2 8300   0.684   4.747   4.523 -0.0845  0.0072  0.1033
 2765TIP3    H1 8301   0.718   4.811   4.461  2.8448 -2.1648 -0.7809
 2765TIP3    H2 8302   0.589   4.756   4.518  0.0955  1.5264 -2.9407
 2766TIP3   OH2 8303   4.676   3.257   5.069  0.8337  0.2144 -0.2839
 2766TIP3    H1 8304   4.745   3.229   5.010 -0.9279 -2.5574 -1.2220
 2766TIP3    H2 8305   4.695   3.211   5.151 -0.3752 -1.4541 -0.8770
 2767TIP3   OH2 8306   4.842   1.068   4.011  0.1037 -0.2005 -0.0475
 2767TIP3    H1 8307   4.852   1.109   3.925  0.4396 -0.3987 -0.1053
 2767TIP3    H2 8308   4.889   1.126   4.071 -3.8022  2.4948  0.8459
 2768TIP3   OH2 8309   3.348   1.115   0.875 -0.2561  0.3511  0.4463
 2768TIP3    H1 8310   3.444   1.112   0.875 -0.2511 -0.9209  2.0509
 2768TIP3    H2 8311   3.326   1.165   0.953 -0.8983 -0.0502  0.5280
 2769TIP3   OH2 8312   2.097   2.415   2.345  0.2793 -0.0063 -0.5717
 2769TIP3    H1 8313   2.003   2.409   2.363  0.6522 -0.6489  1.4872
 2769TIP3    H2 8314   2.117   2.336   2.294 -0.1719 -0.2935 -0.3100
 2770TIP3   OH2 8315   2.179   3.834   3.927  0.0321  0.6262  0.5434
 2770TIP3    H1 8316   2.212   3.759   3.879 -0.2378 -0.2640  1.7124
 2770TIP3    H2 8317   2.114   3.874   3.869  0.5194  0.2461 -0.2716
 2771TIP3   OH2 8318   5.234   0.029   3.581 -0.1874 -0.5394  0.0828
 2771TIP3    H1 8319   5.221   0.119   3.613 -1.2485 -0.1987 -1.2550
 2771TIP3    H2 8320   5.222   0.035   3.487  2.8259 -1.5220 -0.4754
 2772TIP3   OH2 8321   0.850   5.564   1.815  0.2349  0.9723 -0.1295
 2772TIP3    H1 8322   0.876   5.515   1.894  0.9033  1.8523  0.2084
 2772TIP3    H2 8323   0.887   5.651   1.828 -0.7775  1.5229 -0.8134
 2773TIP3   OH2 8324   3.998   3.550   1.789  0.0959 -0.5382  0.2000
 2773TIP3    H1 8325   3.949   3.565   1.870 -1.1672 -2.4798 -0.1478
 2773TIP3    H2 8326   3.960   3.613   1.727 -0.3931 -0.4748  0.5516
 2774TIP3   OH2 8327   1.742   1.743   3.081 -0.2727  0.1844  0.4720
 2774TIP3    H1 8328   1.792   1.722   3.002 -1.2972  0.0340 -0.1466
 2774TIP3    H2 8329   1.802   1.796   3.134  0.8386 -0.6854  0.1267
 2775TIP3   OH2 8330   4.451   2.261   3.727 -0.0063 -0.3155  0.6911
 2775TIP3    H1 8331   4.498   2.227   3.651  0.7421 -0.3612  1.1732
 2775TIP3    H2 8332   4.478   2.353   3.732 -2.5335  0.6435 -1.0170
 2776TIP3   OH2 8333   4.501   3.089   1.953  0.2199  0.1003  0.2577
 2776TIP3    H1 8334   4.459   3.049   2.030 -0.3490  0.4706  0.1479
 2776TIP3    H2 8335   4.595   3.076   1.967  0.0522 -1.4734  0.1201
 2777TIP3   OH2 8336   4.394   1.217   2.475  0.2073  0.1051 -0.4475
 2777TIP3    H1 8337   4.451   1.141   2.478  0.2325  0.1504  0.5417
 2777TIP3    H2 8338   4.401   1.256   2.563 -2.2478 -0.5546  0.1285
 2778TIP3   OH2 8339   2.222   2.583   3.238 -0.3508 -0.0897 -0.0988
 2778TIP3    H1 8340   2.228   2.540   3.152 -0.2180 -0.7136  0.2136
 2778TIP3    H2 8341   2.311   2.614   3.255 -0.4675  0.4119 -0.3683
 2779TIP3   OH2 8342   0.684   2.644   2.400 -0.3444 -0.4200  0.5124
 2779TIP3    H1 8343   0.623   2.681   2.464 -1.6196 -1.3958 -0.1064
 2779TIP3    H2 8344   0.770   2.674   2.430 -0.8793 -0.9245  2.7686
 2780TIP3   OH2 8345   4.605   0.636   2.440 -0.2488  0.2207  0.7797
 2780TIP3    H1 8346   4.540   0.667   2.377 -0.6000 -0.7941  0.6238
 2780TIP3    H2 8347   4.569   0.658   2.525 -1.4462 -1.4598  0.7572
 2781TIP3   OH2 8348   1.736   0.873   2.436 -0.0047 -0.1179 -0.0920
 2781TIP3    H1 8349   1.712   0.964   2.452  1.8128  0.7711 -1.9105
 2781TIP3    H2 8350   1.654   0.824   2.442 -1.1578  1.7653  0.0592
 2782TIP3   OH2 8351   4.163   1.295   5.100 -0.6590  0.2430  0.0071
 2782TIP3    H1 8352   4.074   1.317   5.129 -0.9535 -1.6529  0.7098
 2782TIP3    H2 8353   4.166   1.320   5.008 -1.6275  1.1087  0.1935
 2783TIP3   OH2 8354   4.194   1.405   3.552  0.1293 -0.0810  0.7176
 2783TIP3    H1 8355   4.166   1.330   3.604  3.8076 -1.8801  0.4266
 2783TIP3    H2 8356   4.193   1.373   3.461  0.5885  0.6205  0.4558
 2784TIP3   OH2 8357   2.021   4.052   2.015  0.1552 -0.2513 -0.5300
 2784TIP3    H1 8358   2.088   4.064   1.947  0.7331  0.2072  0.1105
 2784TIP3    H2 8359   1.958   4.122   1.998  0.3028 -0.1314 -0.5954
 2785TIP3   OH2 8360   1.271   5.302   0.516  0.0121  0.4280 -0.3176
 2785TIP3    H1 8361   1.300   5.284   0.606 -1.4399  1.3343  0.3619
 2785TIP3    H2 8362   1.212   5.230   0.495  1.8916 -0.8997 -1.3525
 2786TIP3   OH2 8363   4.722   0.027   4.202  0.3601  0.7812  0.4980
 2786TIP3    H1 8364   4.814   0.026   4.177 -0.2435 -2.1323 -2.1845
 2786TIP3    H2 8365   4.720  -0.015   4.288  1.3939 -2.2997 -0.8304
 2787TIP3   OH2 8366   3.564   5.432   3.776  0.5222  0.0907  0.3142
 2787TIP3    H1 8367   3.475   5.462   3.762 -0.0164 -1.7823 -0.6243
 2787TIP3    H2 8368   3.599   5.419   3.688  1.4043 -0.0896  0.6758
 2788TIP3   OH2 8369   3.143   0.650   3.430  0.2049 -0.0909  0.3503
 2788TIP3    H1 8370   3.067   0.592   3.437  0.9373 -0.9575  1.8880
 2788TIP3    H2 8371   3.183   0.646   3.517  2.6284 -0.5598 -0.7092
 2789TIP3   OH2 8372   4.014   0.049   3.483 -0.4690 -0.0641  0.0826
 2789TIP3    H1 8373   4.039  -0.022   3.424 -2.0682 -0.0369 -0.6829
 2789TIP3    H2 8374   4.038   0.129   3.437 -0.4877 -0.0660  0.0696
 2790TIP3   OH2 8375   5.814   1.824   4.052 -0.1713  0.2916  0.5002
 2790TIP3    H1 8376   5.863   1.847   3.972 -1.5695  1.3752 -0.0786
 2790TIP3    H2 8377   5.857   1.874   4.121  0.1616  0.4593  0.1770
 2791TIP3   OH2 8378   1.713   4.454   5.124  0.5020  0.1421 -0.2887
 2791TIP3    H1 8379   1.735   4.493   5.209  0.2351 -1.1554  0.4149
 2791TIP3    H2 8380   1.676   4.526   5.073  1.0552  1.0426  0.5507
 2792TIP3   OH2 8381   4.588   5.305   1.641  0.0814 -0.3667  0.1963
 2792TIP3    H1 8382   4.591   5.333   1.550 -0.3527 -1.1636 -0.0647
 2792TIP3    H2 8383   4.529   5.368   1.683  0.3666  0.0663 -0.0349
 2793TIP3   OH2 8384   0.168   5.402   3.169 -0.2617 -0.2602  0.7162
 2793TIP3    H1 8385   0.208   5.320   3.198 -1.6029 -1.3313 -0.3544
 2793TIP3    H2 8386   0.243   5.457   3.144  0.6499 -2.1478 -1.0798
 2794TIP3   OH2 8387   5.727   0.107   1.950 -0.5992  0.3898  0.5241
 2794TIP3    H1 8388   5.744   0.180   2.011  0.3850  1.9303 -1.4876
 2794TIP3    H2 8389   5.698   0.149   1.870  0.0825 -1.4346 -0.7398
 2795TIP3   OH2 8390   0.434   4.369   0.251 -0.8337  0.6534 -0.6503
 2795TIP3    H1 8391   0.448   4.432   0.321 -0.6320  1.8007 -1.6842
 2795TIP3    H2 8392   0.405   4.289   0.295  0.7098  0.8751  0.8534
 2796TIP3   OH2 8393   4.308   1.379   1.324  0.6775  0.2024 -0.2283
 2796TIP3    H1 8394   4.267   1.293   1.311  0.6536  0.3153 -0.8878
 2796TIP3    H2 8395   4.282   1.404   1.413 -1.1284  0.4999 -0.8015
 2797TIP3   OH2 8396   1.749   0.527   2.301 -0.0555  0.5646  0.3886
 2797TIP3    H1 8397   1.782   0.552   2.215  2.8285  0.9884  1.5368
 2797TIP3    H2 8398   1.684   0.594   2.322  2.7118  3.3741  0.5591
 2798TIP3   OH2 8399   6.011   3.032   4.992 -0.1324 -0.4212  0.2068
 2798TIP3    H1 8400   5.919   3.019   4.966 -0.4096  1.4511  0.1575
 2798TIP3    H2 8401   6.051   3.072   4.915  0.7958 -1.3953  0.1650
 2799TIP3   OH2 8402   5.719   0.304   4.874 -0.2155 -0.8137 -0.1821
 2799TIP3    H1 8403   5.739   0.397   4.886 -2.1826 -0.3033 -0.4878
 2799TIP3    H2 8404   5.683   0.276   4.958 -1.5092 -0.7484 -0.6956
 2800TIP3   OH2 8405   0.447   1.136   0.142  0.5298 -0.2219 -0.4441
 2800TIP3    H1 8406   0.352   1.146   0.139  0.4666  1.7327  3.0850
 2800TIP3    H2 8407   0.481   1.204   0.085 -0.2359  1.0722  0.5910
 2801TIP3   OH2 8408   3.018   1.865   0.542 -0.3844  0.2721 -0.1768
 2801TIP3    H1 8409   3.032   1.848   0.635  0.2897 -0.0146 -0.3290
 2801TIP3    H2 8410   2.925   1.846   0.528 -0.2553 -0.6688  0.2251
 2802TIP3   OH2 8411   4.402   5.211   3.199 -0.1090 -0.5495 -0.2572
 2802TIP3    H1 8412   4.409   5.165   3.116  1.0323 -1.9773  0.5837
 2802TIP3    H2 8413   4.358   5.149   3.257 -0.0024  0.0465  0.4739
 2803TIP3   OH2 8414   5.099   3.489   3.040  0.2457  0.0248 -0.1171
 2803TIP3    H1 8415   5.191   3.465   3.054 -0.2361 -3.4982 -1.9116
 2803TIP3    H2 8416   5.104   3.566   2.983  2.1672 -0.8835 -1.3187
 2804TIP3   OH2 8417   2.563   3.297   2.032  0.7799 -0.0500 -0.5332
 2804TIP3    H1 8418   2.539   3.214   2.075 -0.5042 -0.1000 -1.2769
 2804TIP3    H2 8419   2.537   3.285   1.941 -0.4038  1.5215 -0.4480
 2805TIP3   OH2 8420   6.170   4.212   4.652  0.7018  0.1051 -0.2004
 2805TIP3    H1 8421   6.114   4.141   4.685 -0.6451 -0.1936 -2.8645
 2805TIP3    H2 8422   6.181   4.270   4.728  0.8023 -2.2547  1.7198
 2806TIP3   OH2 8423   5.648   0.338   0.171 -0.3964 -0.7498  0.5782
 2806TIP3    H1 8424   5.743   0.331   0.182 -0.1969 -1.3266 -1.1580
 2806TIP3    H2 8425   5.627   0.270   0.106 -1.8880 -0.1539  0.4078
 2807TIP3   OH2 8426   2.811   1.346   4.615 -0.5799  0.9468 -0.0730
 2807TIP3    H1 8427   2.801   1.427   4.566 -0.9802  0.3366 -1.0286
 2807TIP3    H2 8428   2.741   1.290   4.583  0.2735 -0.1202 -0.1167
 2808TIP3   OH2 8429   4.918   0.264   0.243  1.0466 -0.0501  0.0858
 2808TIP3    H1 8430   4.910   0.277   0.338  0.7131 -0.1387  0.0705
 2808TIP3    H2 8431   4.989   0.323   0.217  0.3057  0.9131  0.1993
 2809TIP3   OH2 8432   1.314   3.094   3.621  0.1468  0.0977  0.3168
 2809TIP3    H1 8433   1.247   3.154   3.588  0.8487  0.2924 -0.8285
 2809TIP3    H2 8434   1.272   3.008   3.618  0.1641  0.1113 -1.1242
 2810TIP3   OH2 8435   5.988   5.354   4.826 -0.4443 -0.2950  0.0809
 2810TIP3    H1 8436   5.949   5.273   4.793 -0.3510 -0.0454 -0.6423
 2810TIP3    H2 8437   6.012   5.333   4.917 -2.0051 -0.5402  0.4689
 2811TIP3   OH2 8438   2.051   2.527   0.694 -0.5210 -0.2214  0.2814
 2811TIP3    H1 8439   1.971   2.546   0.644  1.4217 -0.3432 -3.2233
 2811TIP3    H2 8440   2.029   2.448   0.744 -2.7955  0.1863  0.0384
 2812TIP3   OH2 8441   2.748   1.199   0.781 -0.1552  0.1588  0.5611
 2812TIP3    H1 8442   2.828   1.145   0.782  0.8143  1.5471  0.6732
 2812TIP3    H2 8443   2.732   1.215   0.688 -0.8804 -0.9000  0.4825
 2813TIP3   OH2 8444   3.169   2.523   3.723 -0.1447 -0.1296  0.0359
 2813TIP3    H1 8445   3.147   2.443   3.676 -0.3838  1.2509 -2.3552
 2813TIP3    H2 8446   3.263   2.517   3.739 -0.0458 -0.6184 -0.6809
 2814TIP3   OH2 8447   1.911   1.872   0.524 -0.0965 -0.0637  1.2323
 2814TIP3    H1 8448   1.918   1.966   0.540 -0.4246  0.1510  0.1919
 2814TIP3    H2 8449   1.943   1.860   0.435  0.2625 -0.9955  1.4721
 2815TIP3   OH2 8450   6.278   2.697   1.850 -0.1473  0.0037 -0.0949
 2815TIP3    H1 8451   6.371   2.718   1.840 -0.2623 -0.2130 -1.7860
 2815TIP3    H2 8452   6.275   2.639   1.926  1.2059 -0.7236 -0.5721
 2816TIP3   OH2 8453   2.599   1.814   1.345  0.4193  0.3346 -0.3272
 2816TIP3    H1 8454   2.607   1.883   1.279  0.7547 -1.2002 -1.9535
 2816TIP3    H2 8455   2.540   1.750   1.305 -3.1687  1.3909  2.7091
 2817TIP3   OH2 8456   6.154   2.595   1.050 -0.0110 -0.0031 -0.0965
 2817TIP3    H1 8457   6.154   2.668   0.988 -0.8582  0.4014  0.3609
 2817TIP3    H2 8458   6.133   2.635   1.134  4.0747 -0.0550  1.1380
 2818TIP3   OH2 8459   2.215   5.750   1.852  0.2121 -0.7434  0.0700
 2818TIP3    H1 8460   2.227   5.716   1.763  0.7388  0.0953 -0.1902
 2818TIP3    H2 8461   2.303   5.753   1.889  0.1282 -0.0521  0.2265
 2819TIP3   OH2 8462   3.581   1.725   1.659  0.7742  0.1738  0.1614
 2819TIP3    H1 8463   3.593   1.716   1.564  0.1318 -0.9346  0.1706
 2819TIP3    H2 8464   3.503   1.781   1.668 -0.5573 -1.5523 -0.0259
 2820TIP3   OH2 8465   1.414   1.033   1.463 -0.4149 -0.0078  0.3490
 2820TIP3    H1 8466   1.486   1.003   1.518  4.4093  0.5136 -4.7412
 2820TIP3    H2 8467   1.419   1.129   1.467 -1.0648  0.0303  0.2516
 2821TIP3   OH2 8468   0.047   4.171   3.811 -0.3510 -0.5102  0.1471
 2821TIP3    H1 8469  -0.012   4.247   3.808 -0.5102 -0.6552 -1.7030
 2821TIP3    H2 8470  -0.010   4.096   3.791  0.3996 -0.6406 -1.7985
 2822TIP3   OH2 8471   2.188   4.111   1.781  0.2528  0.4074  0.8765
 2822TIP3    H1 8472   2.243   4.048   1.735 -1.4922 -1.2620  0.9887
 2822TIP3    H2 8473   2.241   4.191   1.783  1.8060 -0.4958 -0.8540
 2823TIP3   OH2 8474   6.270   1.556   4.954 -0.0293  0.2362 -0.1708
 2823TIP3    H1 8475   6.337   1.490   4.935 -1.4421 -0.9075 -1.4172
 2823TIP3    H2 8476   6.233   1.528   5.039  2.0226  1.7480  1.3124
 2824TIP3   OH2 8477   3.164   2.837   2.018 -0.5248  0.1637  0.4065
 2824TIP3    H1 8478   3.179   2.745   1.994  0.2620  0.0701  1.2298
 2824TIP3    H2 8479   3.167   2.884   1.934 -1.6162 -0.6369 -0.1061
 2825TIP3   OH2 8480   3.540   1.751   1.116  0.5157 -0.1164  0.2182
 2825TIP3    H1 8481   3.558   1.657   1.124  0.7682 -0.0018  1.0785
 2825TIP3    H2 8482   3.601   1.782   1.049  2.1644 -0.1234  1.6493
 2826TIP3   OH2 8483   1.969   5.637   3.652  0.4131 -0.8058  0.2757
 2826TIP3    H1 8484   2.008   5.590   3.578  2.1980 -1.6220  1.6625
 2826TIP3    H2 8485   2.038   5.638   3.719  0.1601  3.0303  0.6915
 2827TIP3   OH2 8486   3.809   1.867   2.081  0.0125 -0.3605  0.1943
 2827TIP3    H1 8487   3.854   1.826   2.155  1.1360  1.3794  0.5344
 2827TIP3    H2 8488   3.720   1.882   2.112  0.3193 -0.1641  0.9888
 2828TIP3   OH2 8489   6.080   0.272   0.654 -0.5543 -0.2254 -0.1142
 2828TIP3    H1 8490   6.152   0.282   0.717 -1.3502  1.9549  0.5475
 2828TIP3    H2 8491   6.103   0.194   0.604  0.0589 -2.1857  2.9200
 2829TIP3   OH2 8492   1.171   3.000   3.257  0.1181 -0.5991 -0.4158
 2829TIP3    H1 8493   1.082   2.970   3.275  0.3160 -0.1103  1.6265
 2829TIP3    H2 8494   1.161   3.093   3.237  0.3254  0.0225  2.0742
 2830TIP3   OH2 8495   5.919   3.176   1.878  0.0955  0.2512  0.8565
 2830TIP3    H1 8496   6.007   3.144   1.857  0.4250  0.8450  1.3117
 2830TIP3    H2 8497   5.931   3.229   1.957 -0.1929  2.5904 -0.5740
 2831TIP3   OH2 8498   4.208   1.414   3.036 -0.5359  0.0053 -0.2122
 2831TIP3    H1 8499   4.244   1.446   2.954 -1.3311 -0.8451 -0.9130
 2831TIP3    H2 8500   4.148   1.344   3.011 -0.1949 -0.8203  1.1456
 2832TIP3   OH2 8501   2.057   1.667   3.458 -0.2683  0.1880 -0.3780
 2832TIP3    H1 8502   1.983   1.620   3.496  0.3978 -2.2166 -1.8636
 2832TIP3    H2 8503   2.134   1.628   3.498  0.2936  0.4208 -1.1932
 2833TIP3   OH2 8504   0.344   2.406   2.160 -0.3990 -0.0085 -0.3326
 2833TIP3    H1 8505   0.434   2.419   2.131  0.1195 -1.2298  0.6525
 2833TIP3    H2 8506   0.317   2.492   2.195  2.2737 -0.7480  4.3612
 2834TIP3   OH2 8507   1.092   4.027   1.311 -0.3480 -0.0829 -0.0761
 2834TIP3    H1 8508   1.128   3.977   1.384 -1.4606 -0.9557 -0.0993
 2834TIP3    H2 8509   1.001   4.042   1.336 -1.0388 -1.3105 -1.7440
 2835TIP3   OH2 8510   0.204   2.411   2.955  0.1148  0.3269  0.1350
 2835TIP3    H1 8511   0.289   2.407   2.998  0.5047  0.3506 -0.6195
 2835TIP3    H2 8512   0.203   2.336   2.895 -0.5794  0.0620  0.4631
 2836TIP3   OH2 8513   2.900   1.062   0.272 -0.2409 -0.0184 -1.2342
 2836TIP3    H1 8514   2.993   1.042   0.279  0.0418  1.4915 -0.0951
 2836TIP3    H2 8515   2.885   1.076   0.178  0.8597  0.4574 -1.3514
 2837TIP3   OH2 8516   1.679   3.391   1.897  0.3806  0.4059  0.0285
 2837TIP3    H1 8517   1.651   3.300   1.892  0.8731  0.2659 -0.1841
 2837TIP3    H2 8518   1.725   3.398   1.981 -0.8195  0.7920  0.6846
 2838TIP3   OH2 8519   1.802   5.017   0.306 -0.1781  0.4046 -0.1542
 2838TIP3    H1 8520   1.735   5.016   0.238  0.0087  1.0854 -0.3535
 2838TIP3    H2 8521   1.796   4.931   0.347  0.2070 -0.3069 -1.5378
 2839TIP3   OH2 8522   1.788   5.172   2.418  0.5277  0.3119  0.2727
 2839TIP3    H1 8523   1.700   5.210   2.424  0.6180  0.3583  1.4633
 2839TIP3    H2 8524   1.847   5.247   2.412  0.5264  0.2903 -0.0368
 2840TIP3   OH2 8525   4.175   1.995   1.954 -0.4049 -0.1322 -0.1520
 2840TIP3    H1 8526   4.139   1.966   1.871  0.4257  0.5041 -0.7451
 2840TIP3    H2 8527   4.266   1.966   1.952 -0.1817  0.5243  0.2168
 2841TIP3   OH2 8528   1.109   3.762   2.241  0.1572  0.2920 -0.0817
 2841TIP3    H1 8529   1.131   3.686   2.187  1.2570  0.9008 -0.5222
 2841TIP3    H2 8530   1.097   3.834   2.179  2.0123  1.1350  0.4691
 2842TIP3   OH2 8531   6.070   3.652   4.596 -0.2798  0.3736  0.2080
 2842TIP3    H1 8532   6.030   3.633   4.681  1.1164 -0.5754  0.6972
 2842TIP3    H2 8533   5.997   3.658   4.536 -1.3695  1.7967  1.5884
 2843TIP3   OH2 8534   1.997   5.982   1.246 -0.1014 -0.0419  0.2068
 2843TIP3    H1 8535   1.975   5.999   1.337  0.3958 -0.4622  0.4080
 2843TIP3    H2 8536   1.926   5.928   1.213 -0.1119 -0.1682  0.4390
 2844TIP3   OH2 8537   6.229   1.901   0.200 -0.1261 -0.0941  0.1093
 2844TIP3    H1 8538   6.227   1.806   0.206  0.4744 -0.2323 -1.5577
 2844TIP3    H2 8539   6.138   1.926   0.182 -0.1683 -0.3895 -0.0829
 2845TIP3   OH2 8540   4.682   4.463   4.157 -0.3118 -0.2346  0.2029
 2845TIP3    H1 8541   4.717   4.398   4.096  0.8418 -0.2429  0.8508
 2845TIP3    H2 8542   4.686   4.420   4.242  0.4543  0.6822  0.6366
 2846TIP3   OH2 8543   6.292   2.011   3.023  0.2052  0.1361 -0.5031
 2846TIP3    H1 8544   6.248   2.084   2.979 -0.2140  0.6238  0.6750
 2846TIP3    H2 8545   6.230   1.938   3.015 -0.8548  0.8126  1.1199
 2847TIP3   OH2 8546   5.049   3.526   5.102 -0.0984  0.0684  0.2944
 2847TIP3    H1 8547   5.127   3.577   5.080  0.5367 -1.1732 -0.4742
 2847TIP3    H2 8548   5.081   3.436   5.108 -1.5884 -0.5576 -0.6690
 2848TIP3   OH2 8549   5.447   0.448   2.066 -0.6963  0.1311  0.4396
 2848TIP3    H1 8550   5.476   0.444   1.974 -0.6987  0.8457  0.4031
 2848TIP3    H2 8551   5.449   0.357   2.095 -0.9143 -0.1329 -0.3408
 2849TIP3   OH2 8552   1.468   4.383   1.170  0.0508  0.0178  0.4949
 2849TIP3    H1 8553   1.535   4.341   1.117 -2.3100 -1.1721 -1.7461
 2849TIP3    H2 8554   1.446   4.318   1.237 -0.2486 -0.3788  0.0101
 2850TIP3   OH2 8555   5.212   5.715   1.296 -0.1577  0.2522 -0.0651
 2850TIP3    H1 8556   5.160   5.643   1.330  1.0427 -0.6038  0.0328
 2850TIP3    H2 8557   5.279   5.673   1.242 -0.4270  1.4119 -1.3593
 2851TIP3   OH2 8558   1.917   2.419   3.172  0.0831  0.1561  0.5086
 2851TIP3    H1 8559   1.882   2.436   3.084  1.8996  0.4892 -0.1883
 2851TIP3    H2 8560   1.913   2.504   3.216  0.9028  0.4131  0.0955
 2852TIP3   OH2 8561   1.479   5.558   2.517  0.1854  0.3542 -0.2304
 2852TIP3    H1 8562   1.420   5.547   2.442 -0.0251  1.3612 -0.2284
 2852TIP3    H2 8563   1.461   5.647   2.549  1.0195  0.3228  0.3634
 2853TIP3   OH2 8564   0.771   5.884   4.522  0.6448  0.2801  0.2564
 2853TIP3    H1 8565   0.683   5.868   4.553  1.2728 -0.3768  1.7753
 2853TIP3    H2 8566   0.826   5.823   4.571  1.8676  0.1597 -1.1789
 2854TIP3   OH2 8567   4.844   1.211   3.734  0.7797  0.0322  0.3499
 2854TIP3    H1 8568   4.750   1.212   3.713  1.2211 -0.1370 -1.8650
 2854TIP3    H2 8569   4.869   1.303   3.736  0.4481  0.1229  1.7730
 2855TIP3   OH2 8570   5.039   4.706   0.195 -0.2754 -0.8049 -0.0431
 2855TIP3    H1 8571   5.045   4.701   0.099 -0.3058  0.8345 -0.1627
 2855TIP3    H2 8572   5.130   4.698   0.225 -0.2972 -1.6564 -0.1653
 2856TIP3   OH2 8573   3.012   2.692   3.573  0.1543  0.0480 -0.5950
 2856TIP3    H1 8574   2.958   2.678   3.650  0.5282  0.7645 -0.1903
 2856TIP3    H2 8575   3.099   2.661   3.598  0.2049  0.0012 -0.8281
 2857TIP3   OH2 8576   4.533   2.112   0.333 -0.5108 -0.3481 -0.2318
 2857TIP3    H1 8577   4.442   2.132   0.310 -0.2311 -0.3384 -1.3951
 2857TIP3    H2 8578   4.551   2.029   0.289  0.1185 -0.2280 -0.2056
 2858TIP3   OH2 8579   4.608   0.724   0.817  0.3373 -0.0781  0.1437
 2858TIP3    H1 8580   4.688   0.722   0.765  0.9450 -1.4340  1.0570
 2858TIP3    H2 8581   4.630   0.777   0.894  1.3340 -2.6139  1.7484
 2859TIP3   OH2 8582   3.767   3.467   4.030 -0.3609  0.3480  0.4354
 2859TIP3    H1 8583   3.813   3.390   4.065  0.1488  0.8374  0.8646
 2859TIP3    H2 8584   3.770   3.531   4.102 -0.3669  0.9345 -0.0812
 2860TIP3   OH2 8585   4.715   2.905   5.137  0.9024  0.5078 -0.2393
 2860TIP3    H1 8586   4.781   2.943   5.079  1.8889  1.5604  1.5120
 2860TIP3    H2 8587   4.722   2.810   5.122  0.4476  0.7610 -2.4893
 2861TIP3   OH2 8588   1.513   2.647   3.660  0.5264 -0.5920 -0.1137
 2861TIP3    H1 8589   1.432   2.606   3.691 -1.5998  2.5154 -1.0022
 2861TIP3    H2 8590   1.553   2.683   3.739 -0.0367 -0.4670  0.1226
 2862TIP3   OH2 8591   1.643   2.424   0.519 -0.1303 -0.3282 -0.1838
 2862TIP3    H1 8592   1.654   2.421   0.424 -0.1341  0.3061 -0.2045
 2862TIP3    H2 8593   1.713   2.481   0.550  0.6374 -1.5107  0.3233
 2863TIP3   OH2 8594   3.093   5.832   1.755  0.4303  0.0745  0.4724
 2863TIP3    H1 8595   3.147   5.755   1.768  0.7986  0.1601 -0.4611
 2863TIP3    H2 8596   3.010   5.811   1.798  0.8679 -0.4326  1.0836
 2864TIP3   OH2 8597   0.914   1.641   2.391 -0.2861  0.2193 -0.4136
 2864TIP3    H1 8598   0.977   1.586   2.437 -1.2735  0.6168  1.5250
 2864TIP3    H2 8599   0.949   1.729   2.397 -1.3238  0.5612  1.3614
 2865TIP3   OH2 8600   4.357   5.982   3.480 -0.1832  0.3339  0.3137
 2865TIP3    H1 8601   4.357   6.019   3.392 -0.5488 -0.0595  0.1400
 2865TIP3    H2 8602   4.344   5.888   3.466 -2.7505  0.5439  0.8744
 2866TIP3   OH2 8603   2.470   1.323   3.557  0.2763  0.1529  0.3048
 2866TIP3    H1 8604   2.386   1.277   3.563 -0.1020  0.8234  0.3161
 2866TIP3    H2 8605   2.519   1.276   3.490 -0.2293 -0.0627  0.0829
 2867TIP3   OH2 8606   1.097   4.700   3.725 -0.5344  0.7691 -0.2077
 2867TIP3    H1 8607   1.172   4.645   3.702 -1.4612 -0.0656 -1.3397
 2867TIP3    H2 8608   1.104   4.712   3.820 -1.6817 -3.4137  0.5690
 2868TIP3   OH2 8609   2.812   4.953   4.241 -0.0893 -0.2226 -0.2423
 2868TIP3    H1 8610   2.890   4.968   4.188  0.4641 -0.1302  0.5822
 2868TIP3    H2 8611   2.844   4.916   4.323 -1.0333 -1.4645 -0.4018
 2869TIP3   OH2 8612   1.869   5.268   4.729 -0.4134 -0.1641  0.0185
 2869TIP3    H1 8613   1.820   5.324   4.670 -1.1879 -0.0584  0.7400
 2869TIP3    H2 8614   1.958   5.267   4.693 -0.5028  1.1082 -0.3033
 2870TIP3   OH2 8615   2.011   0.370   1.490 -0.0458  0.0899  0.8257
 2870TIP3    H1 8616   1.922   0.335   1.481 -0.1522 -0.3884  3.0628
 2870TIP3    H2 8617   2.040   0.340   1.576  2.3816  0.0755  0.0933
 2871TIP3   OH2 8618   0.484   5.570   0.601  0.0107 -0.0216  0.5553
 2871TIP3    H1 8619   0.471   5.621   0.521 -1.2893 -1.3162 -0.1049
 2871TIP3    H2 8620   0.398   5.534   0.620 -0.0150  1.2405  3.2693
 2872TIP3   OH2 8621   6.117   3.164   2.592 -0.7000  0.0294  0.8215
 2872TIP3    H1 8622   6.068   3.241   2.564  1.0278  0.8190 -0.2121
 2872TIP3    H2 8623   6.193   3.199   2.639  0.0772 -1.0334  0.4060
 2873TIP3   OH2 8624   4.619   0.969   4.349  0.5124  0.3214  0.1502
 2873TIP3    H1 8625   4.596   1.056   4.381 -2.3522 -0.3603  0.2137
 2873TIP3    H2 8626   4.644   0.983   4.257 -0.7131  1.1220 -0.0750
 2874TIP3   OH2 8627   5.297   1.996   2.056 -0.0888 -0.5079 -0.3604
 2874TIP3    H1 8628   5.273   2.048   2.132  2.8215  1.0468 -0.3299
 2874TIP3    H2 8629   5.324   1.911   2.091 -0.6983 -0.5044  0.1133
 2875TIP3   OH2 8630   0.678   5.095   4.008 -0.0553 -0.7896 -0.0317
 2875TIP3    H1 8631   0.683   5.187   3.980  1.5902 -0.2400  1.8561
 2875TIP3    H2 8632   0.588   5.086   4.039  0.4909  1.0960  2.4122
 2876TIP3   OH2 8633   5.790   5.009   4.944 -0.0599  0.2711  0.3546
 2876TIP3    H1 8634   5.790   4.953   5.022 -0.0229 -1.0489 -0.5619
 2876TIP3    H2 8635   5.870   4.985   4.897 -0.1753  0.9157 -0.1855
 2877TIP3   OH2 8636   5.770   5.426   0.988  0.2367  0.1895 -0.2106
 2877TIP3    H1 8637   5.721   5.356   1.032 -0.7617  0.2434 -1.2050
 2877TIP3    H2 8638   5.857   5.389   0.974 -0.3513 -0.9825 -0.9492
 2878TIP3   OH2 8639   0.941   4.661   4.259 -0.2995  0.0623  0.4876
 2878TIP3    H1 8640   1.013   4.598   4.265 -1.2640 -1.0596  0.7082
 2878TIP3    H2 8641   0.863   4.607   4.243 -1.1723  1.1925  0.7947
 2879TIP3   OH2 8642   3.806   1.531   4.562 -0.2485 -0.1398  0.3933
 2879TIP3    H1 8643   3.839   1.580   4.487 -0.6391 -1.1710 -0.4827
 2879TIP3    H2 8644   3.723   1.572   4.583  1.4017  2.3971  2.5359
 2880TIP3   OH2 8645   2.044   1.581   3.162  0.6534  0.1130  0.2483
 2880TIP3    H1 8646   2.070   1.603   3.072  0.0152 -0.9252 -0.2051
 2880TIP3    H2 8647   2.020   1.665   3.201  2.0426  0.7357 -0.1757
 2881TIP3   OH2 8648   4.546   4.820   1.786  0.6419 -0.2818 -0.3677
 2881TIP3    H1 8649   4.573   4.883   1.719 -0.5041  0.5972 -0.0221
 2881TIP3    H2 8650   4.629   4.791   1.825  1.2400  3.4957  1.7202
 2882TIP3   OH2 8651   1.217   4.133   2.725 -0.0189 -0.2318 -0.3145
 2882TIP3    H1 8652   1.303   4.154   2.688 -1.1819  0.2115 -2.9770
 2882TIP3    H2 8653   1.196   4.047   2.689 -0.3592 -0.7400  1.0295
 2883TIP3   OH2 8654   2.863   2.470   3.512  0.5474 -0.3243  0.2859
 2883TIP3    H1 8655   2.925   2.497   3.580 -0.9816  0.1465  1.5555
 2883TIP3    H2 8656   2.847   2.377   3.530  0.3388 -0.2635  0.4192
 2884TIP3   OH2 8657   0.477   4.118   3.441  0.4464  0.0860  0.0448
 2884TIP3    H1 8658   0.473   4.112   3.346  2.0225  0.3902 -0.0727
 2884TIP3    H2 8659   0.538   4.190   3.458 -0.7312  0.8502  1.2998
 2885TIP3   OH2 8660   5.565   2.004   3.990 -0.1056  0.1263  0.3123
 2885TIP3    H1 8661   5.609   2.082   3.956 -0.7378  0.0788 -0.6514
 2885TIP3    H2 8662   5.588   2.002   4.083 -0.5616  1.8123  0.4990
 2886TIP3   OH2 8663   4.914   1.244   2.066 -0.1430  0.8911 -0.6516
 2886TIP3    H1 8664   4.916   1.255   2.161  1.7393  0.4941 -0.5939
 2886TIP3    H2 8665   4.994   1.287   2.035  0.2510 -0.6088 -1.8412
 2887TIP3   OH2 8666   6.281   1.403   4.544  0.1101 -0.7012  0.8767
 2887TIP3    H1 8667   6.326   1.318   4.538 -1.3957 -1.4112 -1.5988
 2887TIP3    H2 8668   6.308   1.450   4.465 -1.6437 -0.2188  0.5403
 2888TIP3   OH2 8669   1.457   2.612   0.587  0.0987 -0.1983  0.6919
 2888TIP3    H1 8670   1.519   2.552   0.544  0.5834  0.5076  0.3813
 2888TIP3    H2 8671   1.512   2.683   0.619 -0.7830  1.6413 -1.6339
 2889TIP3   OH2 8672   4.415   0.023   1.482  0.0689 -1.2531  0.2383
 2889TIP3    H1 8673   4.372   0.086   1.423 -0.8446 -0.1394  2.0099
 2889TIP3    H2 8674   4.509   0.035   1.465 -0.1737 -2.4813 -2.4493
 2890TIP3   OH2 8675   1.557   0.956   0.811 -0.0325 -0.3200  0.0848
 2890TIP3    H1 8676   1.529   0.882   0.757  1.8687 -2.5473  1.9558
 2890TIP3    H2 8677   1.479   0.979   0.862 -0.6513 -1.0402 -0.5163
 2891TIP3   OH2 8678   4.924   4.497   1.448 -0.8894 -0.0310  0.6867
 2891TIP3    H1 8679   4.835   4.499   1.485 -0.7759  2.1664  1.0034
 2891TIP3    H2 8680   4.935   4.584   1.409  0.8709 -0.5261  0.0102
 2892TIP3   OH2 8681   2.779   1.386   2.405  0.6352  0.3659 -0.1047
 2892TIP3    H1 8682   2.776   1.482   2.407 -0.3329  0.3314  0.2780
 2892TIP3    H2 8683   2.716   1.358   2.472 -0.2099 -0.5552 -1.2579
 2893TIP3   OH2 8684   4.481   0.149   4.614  0.4713 -0.6037  0.8680
 2893TIP3    H1 8685   4.530   0.211   4.559 -1.0966  0.3793  0.5295
 2893TIP3    H2 8686   4.390   0.157   4.585  0.1071 -2.5417  1.3358
 2894TIP3   OH2 8687   2.346   1.300   0.045 -0.4814 -0.0345  0.1121
 2894TIP3    H1 8688   2.435   1.288   0.014 -0.0400  1.9657  0.4253
 2894TIP3    H2 8689   2.350   1.284   0.139 -0.2608  0.7906  0.2532
 2895TIP3   OH2 8690   0.373   5.667   2.797  0.0078  0.1242  0.5116
 2895TIP3    H1 8691   0.388   5.761   2.784  1.5352 -0.2795 -0.9181
 2895TIP3    H2 8692   0.459   5.632   2.818 -0.5918 -0.9559  1.2467
 2896TIP3   OH2 8693   2.194   4.059   4.896  0.0984 -0.2108  0.0894
 2896TIP3    H1 8694   2.225   4.147   4.875 -0.0622 -0.1014  0.2968
 2896TIP3    H2 8695   2.253   4.000   4.850  0.9234 -0.0184  0.8661
 2897TIP3   OH2 8696   2.014   5.792   2.574  0.3566 -0.2157 -0.1890
 2897TIP3    H1 8697   1.921   5.779   2.596  0.5159 -1.6720 -0.3003
 2897TIP3    H2 8698   2.015   5.870   2.518 -0.9380 -0.8665 -1.1508
 2898TIP3   OH2 8699   0.256   5.108   0.635 -0.0989  0.9377  0.1156
 2898TIP3    H1 8700   0.179   5.162   0.655 -0.7677 -0.4029  1.3274
 2898TIP3    H2 8701   0.304   5.105   0.717  0.1927  0.0953 -0.0831
 2899TIP3   OH2 8702   0.580   2.661   4.908  0.1523 -0.8496  0.3742
 2899TIP3    H1 8703   0.488   2.653   4.931  0.0886  1.4080  1.2270
 2899TIP3    H2 8704   0.581   2.716   4.830  0.7531 -1.6776 -0.2198
 2900TIP3   OH2 8705   2.556   1.739   4.435 -0.0442 -0.1912  0.1472
 2900TIP3    H1 8706   2.548   1.762   4.343 -0.1158 -0.7892 -0.0051
 2900TIP3    H2 8707   2.548   1.822   4.483  0.0252  0.1218 -0.3841
 2901TIP3   OH2 8708   4.295   5.873   4.616 -0.7168  0.3730 -0.0088
 2901TIP3    H1 8709   4.207   5.834   4.622  0.3113 -1.9185  2.0847
 2901TIP3    H2 8710   4.332   5.858   4.703  2.0429  0.5249 -1.0886
 2902TIP3   OH2 8711   3.786   4.353   3.372  0.1225 -0.3388 -0.2590
 2902TIP3    H1 8712   3.866   4.303   3.358 -1.5262 -2.9569 -1.0800
 2902TIP3    H2 8713   3.743   4.311   3.447 -0.9251  0.3984 -0.4108
 2903TIP3   OH2 8714   3.674   2.281   1.204 -0.1323  0.6585 -0.8591
 2903TIP3    H1 8715   3.590   2.259   1.243  0.2575  1.9189  0.8256
 2903TIP3    H2 8716   3.733   2.211   1.232 -0.4923  0.0203 -1.6587
 2904TIP3   OH2 8717   5.735   4.370   4.462 -0.1439  0.2599 -0.3270
 2904TIP3    H1 8718   5.666   4.359   4.397 -1.1533 -1.3389  0.9455
 2904TIP3    H2 8719   5.800   4.303   4.440  0.6333  1.1984 -1.0004
 2905TIP3   OH2 8720   0.983   2.986   4.951  0.5566  0.0882 -0.4874
 2905TIP3    H1 8721   0.910   2.931   4.980  2.0379 -0.9649  1.4656
 2905TIP3    H2 8722   1.057   2.926   4.943  1.7433  1.4636 -0.2665
 2906TIP3   OH2 8723   4.099   5.095   3.331 -0.2777 -0.0230  0.6655
 2906TIP3    H1 8724   4.027   5.133   3.382  0.1086 -1.1800  2.1653
 2906TIP3    H2 8725   4.154   5.052   3.397 -0.3404 -2.5949 -0.8181
 2907TIP3   OH2 8726   1.103   1.480   2.500 -0.0632  0.1869  0.3061
 2907TIP3    H1 8727   1.175   1.416   2.500 -0.6768 -0.5570  1.9707
 2907TIP3    H2 8728   1.040   1.445   2.563 -1.1908  1.6188  0.0239
 2908TIP3   OH2 8729   1.252   2.720   3.479  0.0956 -0.2997  0.2692
 2908TIP3    H1 8730   1.213   2.730   3.392  1.8278  1.5191 -0.3865
 2908TIP3    H2 8731   1.346   2.727   3.463  0.4161  0.9315  2.3792
 2909TIP3   OH2 8732   3.902   5.633   3.547  0.6807  0.4816  0.0470
 2909TIP3    H1 8733   3.881   5.661   3.458  0.2695  0.2257  0.0599
 2909TIP3    H2 8734   3.824   5.655   3.598 -0.3014 -2.0441 -0.2427
 2910TIP3   OH2 8735   1.311   1.881   0.187  0.0268 -0.1451  0.0515
 2910TIP3    H1 8736   1.338   1.828   0.112 -1.6241 -1.5571  0.3877
 2910TIP3    H2 8737   1.382   1.870   0.250  1.4075  0.9974 -1.1936
 2911TIP3   OH2 8738   5.360   3.676   1.292 -0.0630 -0.5127 -0.1442
 2911TIP3    H1 8739   5.293   3.679   1.224  0.0380 -1.2535 -0.2850
 2911TIP3    H2 8740   5.311   3.683   1.374 -0.3560 -1.4874 -0.2312
 2912TIP3   OH2 8741   0.996   2.302   1.636 -0.3288 -0.2217  0.3461
 2912TIP3    H1 8742   1.023   2.323   1.546 -1.7702  0.0785 -0.0413
 2912TIP3    H2 8743   1.005   2.207   1.642 -0.2221 -0.2434 -0.1173
 2913TIP3   OH2 8744   5.340   2.498   0.578  0.0896  0.0539  0.0845
 2913TIP3    H1 8745   5.377   2.486   0.666  0.0991 -2.1753 -0.1530
 2913TIP3    H2 8746   5.415   2.498   0.520 -0.0246 -0.7802 -0.0833
 2914TIP3   OH2 8747   1.618   4.182   2.843 -0.5971 -0.2352  0.5314
 2914TIP3    H1 8748   1.552   4.240   2.806 -0.0721 -0.6730 -1.1764
 2914TIP3    H2 8749   1.675   4.160   2.770  1.4495  0.0999  1.9380
 2915TIP3   OH2 8750   1.432   5.333   0.276  0.3372 -0.3039  0.2537
 2915TIP3    H1 8751   1.372   5.324   0.350  1.2896  3.5040  1.6906
 2915TIP3    H2 8752   1.402   5.412   0.230  2.4500 -0.0092 -0.7540
 2916TIP3   OH2 8753   4.157   1.100   3.085  0.1177  0.0388  0.4254
 2916TIP3    H1 8754   4.080   1.128   3.035  0.2559  0.5124  0.4739
 2916TIP3    H2 8755   4.229   1.105   3.022  0.1406 -0.2272  0.4304
 2917TIP3   OH2 8756   2.253   5.451   5.030  0.3696 -0.4188  0.6147
 2917TIP3    H1 8757   2.223   5.410   5.111 -0.5553 -0.7127  0.1344
 2917TIP3    H2 8758   2.304   5.383   4.986 -3.1362 -2.0580 -1.3385
 2918TIP3   OH2 8759   4.128   3.024   1.955 -0.2127 -0.0260 -0.0344
 2918TIP3    H1 8760   4.205   3.013   2.011  1.3326  1.4743 -1.7379
 2918TIP3    H2 8761   4.111   2.936   1.920  1.2488 -0.2518 -0.2456
 2919TIP3   OH2 8762   2.308   2.470   5.132 -0.3426  0.7387  0.1960
 2919TIP3    H1 8763   2.356   2.527   5.072  1.2757 -1.9133 -1.2179
 2919TIP3    H2 8764   2.372   2.446   5.199 -0.2979 -1.0426 -0.4368
 2920TIP3   OH2 8765   4.912   5.813   0.364  0.3490 -0.3009  0.0626
 2920TIP3    H1 8766   4.954   5.896   0.387 -2.1566  0.9052  0.6881
 2920TIP3    H2 8767   4.931   5.755   0.438  2.2031 -0.3646 -0.4223
 2921TIP3   OH2 8768   1.324   0.930   4.183 -0.1818 -0.0256 -0.4010
 2921TIP3    H1 8769   1.247   0.895   4.139 -0.2146  1.1641 -1.3416
 2921TIP3    H2 8770   1.354   1.001   4.126  1.6843 -0.5285 -0.1246
 2922TIP3   OH2 8771   0.570   1.111   2.014 -0.6303 -0.1881  0.3881
 2922TIP3    H1 8772   0.529   1.106   2.101 -1.7390  2.3230  0.0985
 2922TIP3    H2 8773   0.498   1.101   1.953 -0.2712  0.6291 -0.1886
 2923TIP3   OH2 8774   6.141   1.977   3.553 -0.5611  0.5020  0.0976
 2923TIP3    H1 8775   6.198   1.951   3.625 -0.2584 -0.9981 -0.6456
 2923TIP3    H2 8776   6.199   1.980   3.477 -1.0211  1.3271 -0.2366
 2924TIP3   OH2 8777   1.768   2.509   2.166  0.0949  0.4910  0.0737
 2924TIP3    H1 8778   1.692   2.547   2.120 -0.3560  0.8778  1.1099
 2924TIP3    H2 8779   1.754   2.415   2.160 -0.5403  0.5598  0.3629
 2925TIP3   OH2 8780   1.348   2.440   3.813 -0.6474  0.4398 -0.1001
 2925TIP3    H1 8781   1.408   2.364   3.809 -0.2091  0.7339  0.6079
 2925TIP3    H2 8782   1.271   2.407   3.859 -0.4723  0.4055  0.1743
 2926TIP3   OH2 8783   6.063   0.814   3.351 -0.0154 -0.0444 -0.2008
 2926TIP3    H1 8784   5.982   0.796   3.303  0.6006  0.4843 -1.4918
 2926TIP3    H2 8785   6.044   0.894   3.401 -0.4516 -0.2127 -0.0910
 2927TIP3   OH2 8786   4.744   3.946   0.171 -0.3360 -0.3901  0.1938
 2927TIP3    H1 8787   4.832   3.923   0.198 -0.3788  0.1100  0.8112
 2927TIP3    H2 8788   4.724   3.889   0.097  0.7144 -0.1074 -0.3135
 2928TIP3   OH2 8789   2.887   0.458   0.332 -0.1761  0.0066  0.3400
 2928TIP3    H1 8790   2.823   0.474   0.263 -0.7504 -0.7497  0.6701
 2928TIP3    H2 8791   2.861   0.373   0.368  1.0396 -0.3306  0.4622
 2929TIP3   OH2 8792   4.991   3.367   2.079 -0.3278 -0.1869 -0.1751
 2929TIP3    H1 8793   4.987   3.461   2.090  1.4886  0.0301 -0.9483
 2929TIP3    H2 8794   4.978   3.353   1.985 -2.3073 -0.8738  0.1631
 2930TIP3   OH2 8795   2.717   0.551   3.596  0.7188  0.3430 -0.3332
 2930TIP3    H1 8796   2.804   0.526   3.629  0.3393 -0.5002  0.0737
 2930TIP3    H2 8797   2.727   0.553   3.501  1.3639  0.9816 -0.2642
 2931TIP3   OH2 8798   0.866   2.896   0.905  0.2645  0.2525 -0.0455
 2931TIP3    H1 8799   0.900   2.980   0.874  0.7362 -0.9497 -3.1893
 2931TIP3    H2 8800   0.796   2.874   0.844  2.1824 -2.9743 -1.3616
 2932TIP3   OH2 8801   0.249   5.557   1.884  0.5259  0.0105  0.1917
 2932TIP3    H1 8802   0.311   5.486   1.869 -0.7121 -1.0589 -0.0638
 2932TIP3    H2 8803   0.185   5.520   1.945  0.3593  1.2263  0.7880
 2933TIP3   OH2 8804   2.962   3.182   4.955  0.0178 -0.0825 -0.0316
 2933TIP3    H1 8805   2.985   3.129   5.031 -0.1355  0.9902  0.7936
 2933TIP3    H2 8806   2.891   3.134   4.912 -0.4845 -0.2911  0.9989
 2934TIP3   OH2 8807   5.616   4.402   3.725 -0.5777  0.1540  0.3649
 2934TIP3    H1 8808   5.543   4.443   3.678 -0.1071 -0.6129 -1.0610
 2934TIP3    H2 8809   5.605   4.308   3.711 -0.4675 -0.1094  1.8749
 2935TIP3   OH2 8810   0.717   1.041   3.724  0.1986  0.1702  0.0909
 2935TIP3    H1 8811   0.708   0.988   3.803 -0.3966 -1.2797 -0.9068
 2935TIP3    H2 8812   0.635   1.030   3.677  0.5271  1.0224 -0.7322
 2936TIP3   OH2 8813   0.314   2.774   4.505 -0.1530  0.0110  0.5790
 2936TIP3    H1 8814   0.281   2.808   4.422 -0.3855  0.4207  0.8390
 2936TIP3    H2 8815   0.243   2.720   4.540 -0.1609  0.0626  0.6434
 2937TIP3   OH2 8816   1.155   0.144   3.542 -0.0646 -0.2122 -0.3603
 2937TIP3    H1 8817   1.064   0.118   3.554 -0.1431 -0.4148 -1.2836
 2937TIP3    H2 8818   1.198   0.120   3.624 -0.8692  0.0312  0.1414
 2938TIP3   OH2 8819   5.224   0.674   2.422 -0.6292 -0.8193 -0.0152
 2938TIP3    H1 8820   5.250   0.761   2.450  1.7237 -0.4721 -2.8578
 2938TIP3    H2 8821   5.282   0.614   2.469 -0.4536 -0.6423 -0.0082
 2939TIP3   OH2 8822   1.495   2.883   0.987 -0.3353  0.2542  0.6228
 2939TIP3    H1 8823   1.439   2.915   0.916  1.6365  2.3269 -0.1273
 2939TIP3    H2 8824   1.569   2.842   0.942  0.5088  0.7994  1.4794
 2940TIP3   OH2 8825   2.719   0.970   1.719 -0.2664 -1.1230  0.5148
 2940TIP3    H1 8826   2.800   0.981   1.670  0.5633 -0.9618  1.8595
 2940TIP3    H2 8827   2.665   0.912   1.665  0.4554 -0.6629 -0.7186
 2941TIP3   OH2 8828   4.772   5.376   4.519 -0.3856  0.6884  0.1436
 2941TIP3    H1 8829   4.715   5.322   4.464 -0.0681 -0.0813  0.5580
 2941TIP3    H2 8830   4.834   5.416   4.457  0.4242 -0.7372 -0.0096
 2942TIP3   OH2 8831   5.225   1.452   3.994  0.3946  0.6714  0.0719
 2942TIP3    H1 8832   5.310   1.495   3.999  1.0909 -0.5128 -0.9491
 2942TIP3    H2 8833   5.244   1.359   4.005 -1.0318  0.5334  1.9068
 2943TIP3   OH2 8834   3.089   0.070   0.788 -0.7340 -0.0720 -0.4691
 2943TIP3    H1 8835   3.082  -0.009   0.842 -1.2092  0.0460 -0.3521
 2943TIP3    H2 8836   3.002   0.081   0.750 -0.8703  0.7715  0.0472
 2944TIP3   OH2 8837   4.050   0.034   1.543 -0.4045 -0.1120 -0.2447
 2944TIP3    H1 8838   4.125   0.037   1.602  0.3491 -0.4243 -1.1724
 2944TIP3    H2 8839   3.990  -0.028   1.584  0.2076 -0.4973  0.0849
 2945TIP3   OH2 8840   2.660   3.007   0.475  0.0868 -0.2008  0.4311
 2945TIP3    H1 8841   2.604   2.937   0.509 -0.9968  0.1611 -0.5069
 2945TIP3    H2 8842   2.638   3.083   0.529 -1.6010  0.3627 -0.9265
 2946TIP3   OH2 8843   4.588   5.587   2.151  0.0937 -0.3470 -0.2334
 2946TIP3    H1 8844   4.669   5.629   2.179 -0.7479  0.5293  0.9858
 2946TIP3    H2 8845   4.612   5.496   2.137  1.1236 -0.2747  0.8854
 2947TIP3   OH2 8846   0.159   4.252   0.441  0.0030 -0.4180  0.0981
 2947TIP3    H1 8847   0.155   4.242   0.346  0.5753  0.4630 -0.0210
 2947TIP3    H2 8848   0.248   4.225   0.464  0.6060  1.4515  0.1100
 2948TIP3   OH2 8849   3.765   0.498   4.278 -0.2316  0.1030 -0.3499
 2948TIP3    H1 8850   3.819   0.508   4.199  0.1202  0.8339 -0.0297
 2948TIP3    H2 8851   3.713   0.419   4.262  0.2252 -0.0591 -1.0824
 2949TIP3   OH2 8852   1.983   5.187   1.960 -0.8515  0.3804 -0.1490
 2949TIP3    H1 8853   2.068   5.144   1.949 -0.9056  0.0973  0.5253
 2949TIP3    H2 8854   1.944   5.185   1.872 -0.5835 -0.3722 -0.2536
 2950TIP3   OH2 8855   3.222   3.515   3.782  0.3093 -0.2758 -0.1452
 2950TIP3    H1 8856   3.248   3.528   3.690  1.4607 -1.2707  0.0171
 2950TIP3    H2 8857   3.257   3.429   3.805 -0.2823 -0.1963  1.1249
 2951TIP3   OH2 8858   2.041   4.364   2.531 -0.4670  0.3372  0.1779
 2951TIP3    H1 8859   2.049   4.422   2.456  0.8960  0.7067  0.5707
 2951TIP3    H2 8860   2.085   4.411   2.602  1.3575 -1.4292  0.3199
 2952TIP3   OH2 8861   2.699   1.177   3.128  0.2617 -0.0009 -0.0778
 2952TIP3    H1 8862   2.713   1.148   3.218 -0.7469 -0.3549 -0.0212
 2952TIP3    H2 8863   2.735   1.107   3.074  2.4207  0.9647  0.0004
 2953TIP3   OH2 8864   2.818   4.547   3.275 -0.8719  0.4803 -0.8050
 2953TIP3    H1 8865   2.821   4.452   3.284 -1.3753  0.5898  0.9235
 2953TIP3    H2 8866   2.907   4.571   3.249 -0.7579 -0.4632 -1.3340
 2954TIP3   OH2 8867   4.348   2.347   4.460 -0.6350 -0.1494 -0.2016
 2954TIP3    H1 8868   4.320   2.439   4.466 -0.3342  0.0587 -1.7883
 2954TIP3    H2 8869   4.390   2.339   4.375  2.2040 -1.0201  1.1465
 2955TIP3   OH2 8870   5.261   5.714   4.210 -0.2759 -0.8348  0.0161
 2955TIP3    H1 8871   5.167   5.707   4.227 -0.6618 -0.3181 -1.7734
 2955TIP3    H2 8872   5.270   5.694   4.117  1.3630 -0.6187  0.1100
 2956TIP3   OH2 8873   4.791   5.383   3.781 -0.4901  0.4187  0.6615
 2956TIP3    H1 8874   4.767   5.461   3.830  0.0263  0.2921  1.1357
 2956TIP3    H2 8875   4.870   5.350   3.825 -1.6583 -1.3438  1.5839
 2957TIP3   OH2 8876   4.826   2.750   0.116  0.7855 -0.1154  0.2502
 2957TIP3    H1 8877   4.752   2.690   0.111  1.1503 -0.4690 -1.9433
 2957TIP3    H2 8878   4.800   2.826   0.065  0.7608  1.1768  2.0835
 2958TIP3   OH2 8879   5.055   1.510   4.232  0.0400  0.3405 -0.0538
 2958TIP3    H1 8880   5.113   1.505   4.157 -1.1044  1.0217 -1.0152
 2958TIP3    H2 8881   5.105   1.558   4.298  0.5527  0.9630 -0.8805
 2959TIP3   OH2 8882   1.814   2.742   0.974 -0.0884 -0.1216  0.0199
 2959TIP3    H1 8883   1.909   2.727   0.973 -0.1768 -0.8140  0.6124
 2959TIP3    H2 8884   1.793   2.750   1.067 -0.2126  2.9346 -0.1895
 2960TIP3   OH2 8885   1.021   4.722   2.581 -1.5084  0.1164  0.2660
 2960TIP3    H1 8886   1.087   4.680   2.526 -1.9895  0.6113 -0.7037
 2960TIP3    H2 8887   1.029   4.677   2.665  1.2800  1.3609  0.7763
 2961TIP3   OH2 8888   0.538   3.066   5.036 -0.2590 -0.2437  0.0457
 2961TIP3    H1 8889   0.456   3.077   5.085 -0.8088 -0.8984 -0.6833
 2961TIP3    H2 8890   0.514   3.087   4.946  0.7049  0.8142  0.0312
 2962TIP3   OH2 8891   1.832   0.680   0.447 -0.3901 -0.5415  0.0295
 2962TIP3    H1 8892   1.892   0.694   0.521  0.1911 -0.9631 -0.3510
 2962TIP3    H2 8893   1.890   0.667   0.372 -0.9515 -1.4864 -0.2538
 2963TIP3   OH2 8894   2.063   0.535   3.431  0.4840 -0.4787 -0.7053
 2963TIP3    H1 8895   2.002   0.606   3.452  0.6508  0.2011 -2.4084
 2963TIP3    H2 8896   2.064   0.480   3.510 -0.9979  0.4354 -0.0181
 2964TIP3   OH2 8897   0.424   5.345   1.840 -0.1183  0.2005  0.3886
 2964TIP3    H1 8898   0.493   5.355   1.774 -1.0271  2.2679 -0.3498
 2964TIP3    H2 8899   0.379   5.264   1.816  1.2455 -0.5158  0.1383
 2965TIP3   OH2 8900   5.634   5.077   2.342  0.3519 -0.3039  0.0653
 2965TIP3    H1 8901   5.668   5.016   2.407 -2.1315 -0.5588  1.2385
 2965TIP3    H2 8902   5.548   5.103   2.376 -0.4980  0.5393 -2.5011
 2966TIP3   OH2 8903   3.060   5.259   3.618 -0.6245 -0.8689  0.5683
 2966TIP3    H1 8904   3.050   5.186   3.679 -0.8030 -2.9043 -1.7512
 2966TIP3    H2 8905   3.154   5.278   3.619 -0.2460 -2.5404 -0.2773
 2967TIP3   OH2 8906   5.458   0.029   3.325  0.3410 -0.5058  0.0278
 2967TIP3    H1 8907   5.495  -0.058   3.336  0.7186 -0.3797 -0.2589
 2967TIP3    H2 8908   5.467   0.070   3.412  0.9824 -0.4326 -0.0687
 2968TIP3   OH2 8909   1.745   1.586   2.576  0.0071 -0.4587 -0.6180
 2968TIP3    H1 8910   1.674   1.612   2.636  1.8523 -0.9176  1.9325
 2968TIP3    H2 8911   1.747   1.490   2.582  2.2331 -0.3878  1.2259
 2969TIP3   OH2 8912   3.670   1.016   1.608  0.0609  0.2515  0.7555
 2969TIP3    H1 8913   3.602   0.968   1.561  0.4793 -0.3978  0.7963
 2969TIP3    H2 8914   3.671   1.103   1.567 -1.1739  0.4600  1.1469
 2970TIP3   OH2 8915   2.447   1.720   2.550 -0.6184  0.1566 -0.3698
 2970TIP3    H1 8916   2.382   1.665   2.594 -1.2263  0.6154 -0.6812
 2970TIP3    H2 8917   2.449   1.688   2.460  0.3657 -0.5457 -0.1168
 2971TIP3   OH2 8918   4.972   4.151   0.893 -0.0456 -0.4999  0.7948
 2971TIP3    H1 8919   4.952   4.205   0.970 -1.5248  0.0235  0.0713
 2971TIP3    H2 8920   4.891   4.103   0.875 -0.3046  0.6599 -1.4270
 2972TIP3   OH2 8921   0.261   1.153   3.286 -0.0143 -0.3005 -0.2258
 2972TIP3    H1 8922   0.186   1.095   3.270 -0.0619 -0.3033  0.0163
 2972TIP3    H2 8923   0.278   1.146   3.380  0.7276 -0.8344 -0.3874
 2973TIP3   OH2 8924   1.935   1.336   3.093  0.0472  0.1443 -0.1007
 2973TIP3    H1 8925   1.852   1.384   3.085  0.4684  0.5764 -2.5524
 2973TIP3    H2 8926   1.992   1.395   3.142 -0.5082  0.6373 -0.0323
 2974TIP3   OH2 8927   5.440   4.628   1.673  0.1988  0.8976 -0.1349
 2974TIP3    H1 8928   5.527   4.652   1.642 -0.2114  0.5746 -1.5730
 2974TIP3    H2 8929   5.380   4.674   1.615 -0.5922  0.2991  0.1918
 2975TIP3   OH2 8930   2.986   3.333   3.766 -0.2409  0.1970 -0.0088
 2975TIP3    H1 8931   3.057   3.398   3.774 -0.4362  0.4407 -0.2529
 2975TIP3    H2 8932   3.024   3.262   3.715 -0.2537  0.4484 -0.3717
 2976TIP3   OH2 8933   5.459   5.381   5.048 -0.0028 -0.1036  0.6421
 2976TIP3    H1 8934   5.396   5.317   5.014  0.1018  0.0362  0.1804
 2976TIP3    H2 8935   5.443   5.460   4.996 -0.0196  0.1945  1.0978
 2977TIP3   OH2 8936   1.744   2.101   5.066 -0.3434  0.3613 -0.0721
 2977TIP3    H1 8937   1.668   2.048   5.090  0.8825 -1.4335  0.0645
 2977TIP3    H2 8938   1.731   2.184   5.111 -1.4408 -0.4789  1.2367
 2978TIP3   OH2 8939   0.880   0.910   4.941 -0.3435 -0.1302 -0.1202
 2978TIP3    H1 8940   0.968   0.914   4.904  0.1925 -1.5228  0.9095
 2978TIP3    H2 8941   0.873   0.822   4.978 -2.0460  0.0753  0.1536
 2979TIP3   OH2 8942   2.539   4.990   4.825  0.4341 -0.5138 -0.4975
 2979TIP3    H1 8943   2.571   4.970   4.737  1.3134 -0.9885 -0.0924
 2979TIP3    H2 8944   2.619   4.996   4.878 -0.1232 -1.2536  0.4624
 2980TIP3   OH2 8945   3.325   2.752   1.255  0.0637  0.3985  0.1170
 2980TIP3    H1 8946   3.230   2.757   1.246 -0.5100 -1.6836  3.2753
 2980TIP3    H2 8947   3.345   2.815   1.325  0.9659  0.5512 -0.2680
 2981TIP3   OH2 8948   5.714   1.721   0.489 -0.3659  0.4837 -0.3814
 2981TIP3    H1 8949   5.622   1.719   0.462 -1.0623 -2.2588  1.7183
 2981TIP3    H2 8950   5.711   1.741   0.583  1.0519 -0.8960  0.0022
 2982TIP3   OH2 8951   3.671   0.651   3.870  0.2962  0.1132  0.0089
 2982TIP3    H1 8952   3.712   0.719   3.817 -0.3469  0.1992 -0.3936
 2982TIP3    H2 8953   3.707   0.569   3.836 -0.0398  0.1740 -0.5039
 2983TIP3   OH2 8954   0.994   3.246   2.880 -0.3079 -0.5322 -0.7317
 2983TIP3    H1 8955   1.024   3.232   2.790  0.3244 -0.0773 -0.6029
 2983TIP3    H2 8956   0.954   3.163   2.906  1.6648 -1.5073 -0.6080
 2984TIP3   OH2 8957   5.235   5.897   3.061  0.2498 -0.1292  0.1958
 2984TIP3    H1 8958   5.299   5.936   3.120  1.2796 -1.1007 -0.2293
 2984TIP3    H2 8959   5.181   5.970   3.031  1.5982  0.8272  0.0405
 2985TIP3   OH2 8960   2.348   2.891   1.529 -0.3336  0.4796 -0.5500
 2985TIP3    H1 8961   2.429   2.876   1.577 -0.3937 -1.4718 -0.9532
 2985TIP3    H2 8962   2.283   2.915   1.595  0.3805  1.2685 -0.1307
 2986TIP3   OH2 8963   2.595   4.350   3.575 -0.6238  0.0156 -0.3529
 2986TIP3    H1 8964   2.519   4.376   3.524  0.1022  0.5200 -1.2023
 2986TIP3    H2 8965   2.624   4.431   3.618  0.2180  0.1128 -1.0906
 2987TIP3   OH2 8966   3.253   5.033   1.208  0.3812  0.8845  0.4157
 2987TIP3    H1 8967   3.174   5.081   1.183 -0.2701 -0.2626  0.2098
 2987TIP3    H2 8968   3.239   5.007   1.298 -0.3647 -0.9749 -0.1873
 2988TIP3   OH2 8969   0.201   0.262   5.145 -0.0149 -0.5470 -0.5339
 2988TIP3    H1 8970   0.270   0.229   5.204  0.2502  1.3793  0.2927
 2988TIP3    H2 8971   0.167   0.183   5.103  2.3375 -1.6381 -0.5912
 2989TIP3   OH2 8972   0.598   5.503   2.224  0.6647 -0.4535 -0.1418
 2989TIP3    H1 8973   0.686   5.486   2.254  0.5638 -0.6524  0.0367
 2989TIP3    H2 8974   0.609   5.539   2.136  1.0384  1.3820  0.6038
 2990TIP3   OH2 8975   0.085   3.896   0.246 -0.0563  0.5519 -0.0877
 2990TIP3    H1 8976   0.179   3.911   0.237 -0.0928 -0.0231 -1.8482
 2990TIP3    H2 8977   0.079   3.810   0.288  0.1669  1.2450  1.4286
 2991TIP3   OH2 8978   1.156   2.011   2.768 -0.0079  0.2415 -0.1669
 2991TIP3    H1 8979   1.062   2.025   2.767 -0.4879 -2.3491 -1.5480
 2991TIP3    H2 8980   1.166   1.918   2.790  2.1477  0.1381 -1.3050
 2992TIP3   OH2 8981   0.854   4.059   1.996 -0.2284  0.5480  0.4094
 2992TIP3    H1 8982   0.763   4.050   1.967  0.0224 -0.8090 -0.0445
 2992TIP3    H2 8983   0.850   4.122   2.067 -1.5819  0.2393  0.6462
 2993TIP3   OH2 8984   1.231   2.845   1.118 -0.5863 -0.6222 -0.0214
 2993TIP3    H1 8985   1.248   2.857   1.025 -0.4109  1.3991  0.2322
 2993TIP3    H2 8986   1.318   2.840   1.158 -0.5114  2.1713  0.3924
 2994TIP3   OH2 8987   5.001   5.179   3.444  0.1146  0.6313  0.6516
 2994TIP3    H1 8988   4.941   5.254   3.451 -0.5338  0.1176  0.6863
 2994TIP3    H2 8989   4.944   5.106   3.421  0.7355  0.1261  0.7182
 2995TIP3   OH2 8990   1.509   2.846   0.322 -0.0320 -0.1233 -0.1978
 2995TIP3    H1 8991   1.593   2.856   0.367 -0.2707 -0.0364  0.2321
 2995TIP3    H2 8992   1.533   2.821   0.232  0.4782  1.1818 -0.4415
 2996TIP3   OH2 8993   0.038   5.473   2.347  0.1978  0.0079 -0.4473
 2996TIP3    H1 8994   0.077   5.502   2.429  0.0029 -2.4631  0.6215
 2996TIP3    H2 8995  -0.056   5.486   2.359 -0.0435 -2.2155  0.6522
 2997TIP3   OH2 8996   5.440   2.790   2.367  0.3639  0.1087  0.0343
 2997TIP3    H1 8997   5.349   2.815   2.351  0.5749  0.1119 -1.2442
 2997TIP3    H2 8998   5.481   2.791   2.281  1.3764 -0.7017  0.4803
 2998TIP3   OH2 8999   1.252   4.379   1.864  0.0014  0.1548  0.4144
 2998TIP3    H1 9000   1.332   4.335   1.893  0.4753  0.4365 -0.4136
 2998TIP3    H2 9001   1.233   4.339   1.779  0.1636  1.1898 -0.1201
 2999TIP3   OH2 9002   6.269   1.816   2.783  0.6836 -0.2703  0.2796
 2999TIP3    H1 9003   6.276   1.908   2.760  4.9960 -0.7974 -1.4174
 2999TIP3    H2 9004   6.221   1.776   2.710 -2.9008  0.6514  1.8849
 3000TIP3   OH2 9005   4.564   5.080   0.145 -0.1178 -0.1913 -0.2547
 3000TIP3    H1 9006   4.546   5.008   0.084  0.7197 -1.4221  0.8821
 3000TIP3    H2 9007   4.508   5.062   0.221  2.4109 -1.6051  1.4406
 3001TIP3   OH2 9008   4.693   3.406   1.113 -0.1330 -0.1712  0.2508
 3001TIP3    H1 9009   4.626   3.425   1.179  0.5511 -1.0675  1.2279
 3001TIP3    H2 9010   4.643   3.393   1.032 -0.9064  2.0310  0.2958
 3002TIP3   OH2 9011   1.871   3.268   2.302  0.2739  0.7606 -0.2635
 3002TIP3    H1 9012   1.843   3.231   2.385  2.5636  0.3827  0.4014
 3002TIP3    H2 9013   1.792   3.309   2.266 -1.5545 -1.7704  0.5626
 3003TIP3   OH2 9014   2.737   4.066   5.029  0.2448  0.5088 -0.1037
 3003TIP3    H1 9015   2.708   4.157   5.026  1.3244  0.9231  1.2716
 3003TIP3    H2 9016   2.673   4.019   4.975 -1.6491  1.7222  0.9808
 3004TIP3   OH2 9017   0.001   3.220   0.940  0.0842  0.3015 -0.0043
 3004TIP3    H1 9018   0.084   3.184   0.909 -0.1174  1.2226 -1.7559
 3004TIP3    H2 9019  -0.040   3.148   0.988  0.7532 -1.0165 -1.3218
 3005TIP3   OH2 9020   3.980   4.170   2.719  0.3739  0.3192 -0.5867
 3005TIP3    H1 9021   3.967   4.221   2.800 -1.3698 -0.0940 -0.5641
 3005TIP3    H2 9022   3.998   4.081   2.750 -0.6780  0.0791 -0.6344
 3006TIP3   OH2 9023   2.541   2.706   1.053  0.5057 -0.2302  0.1601
 3006TIP3    H1 9024   2.603   2.662   1.111 -1.2945 -0.6154  1.9080
 3006TIP3    H2 9025   2.469   2.643   1.044 -0.7104  1.1161  0.1752
 3007TIP3   OH2 9026   0.979   4.333   1.680  0.5311 -0.0580 -0.2702
 3007TIP3    H1 9027   0.890   4.300   1.673  0.6503 -0.4778  0.1793
 3007TIP3    H2 9028   0.989   4.392   1.605  0.0260 -0.3523 -0.5672
 3008TIP3   OH2 9029   3.618   5.627   4.290 -0.3474  0.2485  0.3316
 3008TIP3    H1 9030   3.664   5.621   4.373 -1.6121 -1.8669  0.9500
 3008TIP3    H2 9031   3.548   5.562   4.296 -0.7085  0.2809 -2.2500
 3009TIP3   OH2 9032   4.654   2.204   4.263  0.5154 -0.1452 -0.8166
 3009TIP3    H1 9033   4.587   2.270   4.248  0.4054 -0.5358 -2.1802
 3009TIP3    H2 9034   4.636   2.136   4.198  0.7274 -1.4372  0.4321
 3010TIP3   OH2 9035   2.097   1.857   2.329  0.1408 -0.4325 -0.1780
 3010TIP3    H1 9036   2.024   1.916   2.309  0.9071  0.7129  0.2664
 3010TIP3    H2 9037   2.103   1.800   2.253 -0.3874  0.3271 -0.8138
 3011TIP3   OH2 9038   4.498   6.000   4.240  0.3222  0.1841  0.7366
 3011TIP3    H1 9039   4.574   5.966   4.286 -0.6357 -1.0174  1.4880
 3011TIP3    H2 9040   4.426   5.990   4.301 -0.3398  1.9520  0.2966
 3012TIP3   OH2 9041   3.303   1.360   4.727 -0.2013 -0.3868 -0.2898
 3012TIP3    H1 9042   3.286   1.326   4.639 -0.1215 -0.2234 -0.3677
 3012TIP3    H2 9043   3.230   1.327   4.780 -0.7900  0.3449 -0.6314
 3013TIP3   OH2 9044   4.537   3.398   2.934 -0.0882  0.1190 -0.4662
 3013TIP3    H1 9045   4.484   3.334   2.886 -0.5952 -0.2941  0.6091
 3013TIP3    H2 9046   4.621   3.354   2.948 -0.7251 -0.7002  1.0322
 3014TIP3   OH2 9047   5.245   5.295   1.394  0.3081 -0.5819 -0.1142
 3014TIP3    H1 9048   5.298   5.361   1.438  0.1673 -0.3634 -0.2661
 3014TIP3    H2 9049   5.160   5.299   1.439  0.1958 -0.4276 -0.3399
 3015TIP3   OH2 9050   5.125   3.753   2.664  0.0983  0.2345 -0.0624
 3015TIP3    H1 9051   5.155   3.842   2.648 -0.1547  0.4020  0.3596
 3015TIP3    H2 9052   5.101   3.753   2.757 -1.9357  0.3550 -0.5348
 3016TIP3   OH2 9053   2.366   4.271   5.123 -0.1948  0.3860 -0.2456
 3016TIP3    H1 9054   2.351   4.298   5.032  0.9609 -0.5601 -0.7518
 3016TIP3    H2 9055   2.459   4.292   5.139  0.1016 -1.0764  0.1081
 3017TIP3   OH2 9056   2.359   4.831   3.376 -0.1674  0.0458 -0.9607
 3017TIP3    H1 9057   2.278   4.871   3.408  0.3071 -0.4999  1.1034
 3017TIP3    H2 9058   2.338   4.739   3.364  0.0212 -0.0127 -0.8546
 3018TIP3   OH2 9059   1.803   3.584   0.207 -0.4820  0.1745 -0.2856
 3018TIP3    H1 9060   1.838   3.598   0.119  0.9987  1.2111  0.4313
 3018TIP3    H2 9061   1.790   3.489   0.212 -2.1286  0.2472 -2.1512
 3019TIP3   OH2 9062   5.077   0.157   0.579  0.2925 -0.1648  0.5054
 3019TIP3    H1 9063   5.089   0.092   0.511 -0.5849 -0.5389  0.6873
 3019TIP3    H2 9064   5.143   0.136   0.645  2.6030  1.5123 -1.1517
 3020TIP3   OH2 9065   0.525   0.523   3.424  0.6344  0.0403  0.2339
 3020TIP3    H1 9066   0.583   0.562   3.490 -0.1203 -0.8677  1.4749
 3020TIP3    H2 9067   0.440   0.565   3.439  0.5513  0.1465 -0.4774
 3021TIP3   OH2 9068   5.147   4.617   4.111 -0.3838  0.1965 -0.4096
 3021TIP3    H1 9069   5.133   4.582   4.199 -2.1360  1.2925 -0.1883
 3021TIP3    H2 9070   5.237   4.595   4.089  0.2582  0.3707  1.8725
 3022TIP3   OH2 9071   6.159   1.105   2.791 -0.0949 -0.1661 -0.1228
 3022TIP3    H1 9072   6.133   1.152   2.711 -0.2057  0.2989  0.1859
 3022TIP3    H2 9073   6.082   1.110   2.848  0.7270  1.4294  0.9042
 3023TIP3   OH2 9074   4.390   5.004   5.126 -0.0269  0.7236 -0.0479
 3023TIP3    H1 9075   4.474   4.958   5.128  0.2213  1.0477 -1.6689
 3023TIP3    H2 9076   4.394   5.065   5.199  1.0550  0.5905  0.0236
 3024TIP3   OH2 9077   3.630   3.239   3.875 -0.3796  0.0323 -0.3758
 3024TIP3    H1 9078   3.669   3.198   3.797  0.5003  0.0495  0.0441
 3024TIP3    H2 9079   3.696   3.228   3.943 -0.7051  0.9415  0.0999
 3025TIP3   OH2 9080   0.208   0.359   0.221  0.1197 -0.3602 -0.1855
 3025TIP3    H1 9081   0.123   0.392   0.191  0.7202  1.6273  0.1244
 3025TIP3    H2 9082   0.238   0.425   0.284  0.8036 -2.2614  1.5829
 3026TIP3   OH2 9083   5.452   0.128   3.024 -0.2452  0.1121  0.3802
 3026TIP3    H1 9084   5.491   0.100   3.106 -0.3729  1.8210  1.0728
 3026TIP3    H2 9085   5.358   0.113   3.035 -0.0568 -2.1722 -0.5390
 3027TIP3   OH2 9086   3.636   3.451   0.832 -0.0195  0.4211  0.0441
 3027TIP3    H1 9087   3.720   3.441   0.877  0.3541  0.1710 -0.7002
 3027TIP3    H2 9088   3.590   3.369   0.850  0.1532  0.2969 -0.0734
 3028TIP3   OH2 9089   1.736   5.925   1.149 -0.1712  0.5391  0.0882
 3028TIP3    H1 9090   1.706   5.902   1.061  1.7390 -1.2509 -0.1871
 3028TIP3    H2 9091   1.703   6.013   1.163 -2.0937  0.1918 -1.6681
 3029TIP3   OH2 9092   4.363   0.429   2.497 -0.0745  0.0469  0.1911
 3029TIP3    H1 9093   4.389   0.504   2.444  0.4109  1.0379  1.7782
 3029TIP3    H2 9094   4.279   0.401   2.459  1.0154 -0.3578 -2.1193
 3030TIP3   OH2 9095   4.814   5.398   3.493  0.3306  0.4441  0.5526
 3030TIP3    H1 9096   4.730   5.409   3.447  0.3447  1.7843  0.7976
 3030TIP3    H2 9097   4.791   5.408   3.586  0.5030 -0.9701  0.7697
 3031TIP3   OH2 9098   2.782   4.450   2.078 -0.4765  0.5984 -0.4704
 3031TIP3    H1 9099   2.781   4.357   2.097 -2.3274  0.6772  0.0580
 3031TIP3    H2 9100   2.763   4.456   1.984  1.2973  0.4296 -0.8725
 3032TIP3   OH2 9101   0.651   4.521   1.983  0.4790  0.6986  0.2637
 3032TIP3    H1 9102   0.659   4.607   1.943  1.4356  0.5446  0.0967
 3032TIP3    H2 9103   0.731   4.511   2.035  1.1262 -0.6913 -0.9120
 3033TIP3   OH2 9104   4.876   5.668   0.666  0.2153  0.7265 -0.4360
 3033TIP3    H1 9105   4.960   5.624   0.654 -0.1894  0.1508 -1.2116
 3033TIP3    H2 9106   4.898   5.761   0.668  0.8725  0.5795 -0.6104
 3034TIP3   OH2 9107   1.574   3.541   3.117  0.4837 -0.5100 -0.0140
 3034TIP3    H1 9108   1.538   3.461   3.156  1.4029 -0.3930  1.1621
 3034TIP3    H2 9109   1.569   3.606   3.188 -1.0879  0.7604 -1.2302
 3035TIP3   OH2 9110   1.937   2.094   2.850  0.2822 -0.2579 -0.2680
 3035TIP3    H1 9111   1.848   2.091   2.814 -0.5605  1.8883  1.4204
 3035TIP3    H2 9112   1.971   2.179   2.822  0.8603 -0.0039  1.1428
 3036TIP3   OH2 9113   2.153   6.012   1.724 -0.0286  0.5174 -0.2685
 3036TIP3    H1 9114   2.222   5.988   1.663 -0.3270 -1.7399  0.1839
 3036TIP3    H2 9115   2.148   5.938   1.785 -2.1107  1.0785  0.3407
 3037TIP3   OH2 9116   3.642   1.051   0.891  0.3340  0.3816 -0.0607
 3037TIP3    H1 9117   3.699   0.989   0.937 -0.3865 -0.1544  0.1238
 3037TIP3    H2 9118   3.655   1.032   0.799 -0.2736 -0.4026  0.0104
 3038TIP3   OH2 9119   4.722   1.921   3.306 -0.1861  0.1365  0.3308
 3038TIP3    H1 9120   4.748   1.873   3.228 -2.2035 -0.4702 -0.0057
 3038TIP3    H2 9121   4.733   1.859   3.378  0.1990  0.2104  0.3416
 3039TIP3   OH2 9122   3.546   5.497   1.145 -0.6177  0.6710 -0.2599
 3039TIP3    H1 9123   3.569   5.507   1.238 -1.0481 -0.2439 -0.0442
 3039TIP3    H2 9124   3.513   5.408   1.138 -0.5369  0.7126 -1.3142
 3040TIP3   OH2 9125   0.268   2.553   4.690 -0.0276 -0.0440  0.1523
 3040TIP3    H1 9126   0.284   2.535   4.783 -0.0794 -0.4622  0.0822
 3040TIP3    H2 9127   0.199   2.491   4.666  0.0995 -0.0437 -0.2066
 3041TIP3   OH2 9128   1.508   4.535   3.551 -0.6103 -0.3972  0.6093
 3041TIP3    H1 9129   1.538   4.625   3.567 -1.9158  0.1021  0.4216
 3041TIP3    H2 9130   1.526   4.489   3.633  0.4630 -0.0764  0.5634
 3042TIP3   OH2 9131   1.368   3.755   4.576 -0.2764 -0.4065  0.5664
 3042TIP3    H1 9132   1.313   3.744   4.499  0.6254 -1.2319  0.0002
 3042TIP3    H2 9133   1.453   3.717   4.550  0.8492  1.6026  1.0840
 3043TIP3   OH2 9134   0.033   5.820   4.753  0.4200  0.2417 -0.5756
 3043TIP3    H1 9135  -0.007   5.864   4.678  0.4445  1.9695  0.3924
 3043TIP3    H2 9136   0.073   5.890   4.804  0.1323 -0.8662  1.2404
 3044TIP3   OH2 9137   3.242   0.158   0.581 -0.0812  0.0541  0.6642
 3044TIP3    H1 9138   3.210   0.128   0.665 -1.3591  3.5188  1.5919
 3044TIP3    H2 9139   3.181   0.121   0.517  0.3929 -1.9024  1.2939
 3045TIP3   OH2 9140   1.267   4.831   1.674  0.0208  0.3322  0.6503
 3045TIP3    H1 9141   1.258   4.737   1.657 -0.0884  0.6254 -1.1113
 3045TIP3    H2 9142   1.190   4.853   1.725  0.8554 -0.8138  2.5192
 3046TIP3   OH2 9143   6.136   5.827   4.613  0.0871  0.2347  0.1295
 3046TIP3    H1 9144   6.116   5.766   4.684 -3.2473  0.9534 -0.0165
 3046TIP3    H2 9145   6.116   5.913   4.650  0.1302  0.7955 -1.0980
 3047TIP3   OH2 9146   1.184   5.891   3.833 -0.3195 -0.1398  0.1969
 3047TIP3    H1 9147   1.119   5.923   3.770 -0.7731  1.3385  1.3664
 3047TIP3    H2 9148   1.239   5.832   3.782 -0.2351  1.5462 -1.8118
 3048TIP3   OH2 9149   0.994   2.720   1.089  0.0545  0.0501 -0.7675
 3048TIP3    H1 9150   0.945   2.764   1.019 -1.1399  0.3722  0.2365
 3048TIP3    H2 9151   1.079   2.765   1.091 -0.4191  0.9792 -1.0671
 3049TIP3   OH2 9152   2.042   2.909   2.915  0.4891  0.1173  0.3573
 3049TIP3    H1 9153   2.006   2.940   2.998  0.9772  2.1581 -0.1440
 3049TIP3    H2 9154   2.133   2.936   2.916  0.1606  1.4262 -1.4042
 3050TIP3   OH2 9155   2.920   3.861   0.537  0.1356  0.1956  0.5521
 3050TIP3    H1 9156   2.885   3.950   0.537 -1.8791 -0.5325  1.5270
 3050TIP3    H2 9157   2.850   3.807   0.501  1.0418 -1.0898  0.6428
 3051TIP3   OH2 9158   2.232   5.962   5.028 -0.6719 -0.2813 -0.0072
 3051TIP3    H1 9159   2.203   5.872   5.009 -0.2129 -0.0326 -2.2167
 3051TIP3    H2 9160   2.167   6.017   4.984 -1.7656  0.5736  2.5243
 3052TIP3   OH2 9161   2.248   4.082   4.016 -0.1571  0.0335  0.1606
 3052TIP3    H1 9162   2.340   4.078   3.988 -0.3009  0.0598 -0.3180
 3052TIP3    H2 9163   2.216   3.992   4.005  0.3267 -0.4161  2.1186
 3053TIP3   OH2 9164   5.155   1.939   3.996  0.0588  0.4289 -0.0942
 3053TIP3    H1 9165   5.215   1.934   3.922 -0.4083 -1.7607 -0.3902
 3053TIP3    H2 9166   5.191   1.880   4.062 -0.8518  0.4212  0.4288
 3054TIP3   OH2 9167   1.360   4.189   1.379  0.1461 -0.1184 -0.1008
 3054TIP3    H1 9168   1.272   4.154   1.373  0.3092 -0.7932  1.1658
 3054TIP3    H2 9169   1.408   4.149   1.306 -0.3840 -0.3568 -0.3180
 3055TIP3   OH2 9170   0.517   4.864   2.797  0.1288  0.1776  0.1047
 3055TIP3    H1 9171   0.427   4.857   2.765  0.9557  1.2832 -2.8796
 3055TIP3    H2 9172   0.555   4.778   2.779  0.2343  0.4005 -0.8045
 3056TIP3   OH2 9173   1.223   2.500   1.171  0.1634  0.0802  0.1363
 3056TIP3    H1 9174   1.134   2.535   1.163 -0.5268 -1.8410 -5.5878
 3056TIP3    H2 9175   1.279   2.573   1.146  0.0657  0.6528  1.4953
 3057TIP3   OH2 9176   6.147   4.496   4.474 -0.2951  0.0310 -0.4246
 3057TIP3    H1 9177   6.086   4.425   4.453 -2.0297  0.0962  3.5632
 3057TIP3    H2 9178   6.100   4.576   4.452 -0.0208  0.0535 -0.9635
 3058TIP3   OH2 9179   6.085   3.858   1.444  0.8415 -0.1307 -0.0281
 3058TIP3    H1 9180   6.150   3.789   1.455  1.5682  0.5972  0.2868
 3058TIP3    H2 9181   6.097   3.916   1.519 -0.5747 -0.3002  0.3692
 3059TIP3   OH2 9182   1.067   3.671   1.580 -0.1387  0.4609 -0.0793
 3059TIP3    H1 9183   1.087   3.765   1.580  1.1333  0.2130 -0.9654
 3059TIP3    H2 9184   1.116   3.637   1.655 -1.2539  0.5899  0.7541
 3060TIP3   OH2 9185   4.335   5.710   4.178  0.1058 -0.2381  0.2551
 3060TIP3    H1 9186   4.391   5.778   4.216 -0.6072  0.9915 -0.8075
 3060TIP3    H2 9187   4.278   5.683   4.249 -1.0160  1.8184  0.2150
 3061TIP3   OH2 9188   0.345   5.613   1.565 -0.1807  0.0678 -0.1002
 3061TIP3    H1 9189   0.382   5.692   1.526  0.9502 -0.5522 -0.3249
 3061TIP3    H2 9190   0.418   5.573   1.612 -1.0735 -0.1573  1.1313
 3062TIP3   OH2 9191   1.426   4.732   3.102  0.2849 -0.0577  0.2982
 3062TIP3    H1 9192   1.454   4.790   3.172  0.4630  1.1318 -0.7164
 3062TIP3    H2 9193   1.344   4.769   3.071  1.6509  1.2722 -2.0769
 3063TIP3   OH2 9194   3.075   0.538   2.586  0.2742  0.2066  0.0221
 3063TIP3    H1 9195   2.999   0.494   2.625  1.1837 -1.0891  0.3983
 3063TIP3    H2 9196   3.139   0.468   2.572  1.0424  1.1103 -1.2005
 3064TIP3   OH2 9197   3.285   2.867   4.774  0.2087 -0.0437 -0.2396
 3064TIP3    H1 9198   3.254   2.797   4.717 -0.4662  0.0362  0.0233
 3064TIP3    H2 9199   3.247   2.947   4.737  0.4992  0.1176 -0.1964
 3065TIP3   OH2 9200   3.538   4.874   2.618 -0.7653  0.3072 -0.4209
 3065TIP3    H1 9201   3.631   4.851   2.619 -0.7833  0.1689 -1.2500
 3065TIP3    H2 9202   3.495   4.799   2.659 -0.6305 -0.2542 -1.2743
 3066TIP3   OH2 9203   1.077   2.629   3.200 -0.3494 -0.0815 -0.3382
 3066TIP3    H1 9204   1.157   2.588   3.166 -0.7399 -0.7887 -0.4249
 3066TIP3    H2 9205   1.008   2.598   3.141 -1.0124 -1.1366  0.9390
 3067TIP3   OH2 9206   4.884   4.760   1.380  0.2984  0.1203 -0.6555
 3067TIP3    H1 9207   4.893   4.840   1.432  0.4740  0.0403 -0.5628
 3067TIP3    H2 9208   4.806   4.775   1.326 -0.4523 -0.1798  0.3179
 3068TIP3   OH2 9209   5.223   1.546   3.011 -0.1167 -0.0611  0.4621
 3068TIP3    H1 9210   5.133   1.527   3.035 -0.3580  0.0298 -0.3444
 3068TIP3    H2 9211   5.273   1.472   3.044 -0.3892  0.1971  1.4844
 3069TIP3   OH2 9212   3.316   3.199   0.460  0.2647 -0.1444 -0.2388
 3069TIP3    H1 9213   3.378   3.170   0.527 -2.1222 -3.7692  0.6666
 3069TIP3    H2 9214   3.335   3.144   0.384 -1.4297 -0.9687 -0.1066
 3070TIP3   OH2 9215   5.431   0.935   2.662  0.1141  0.0609 -0.3120
 3070TIP3    H1 9216   5.474   1.000   2.717  0.6703 -0.8343  0.3411
 3070TIP3    H2 9217   5.368   0.892   2.719 -0.0131 -0.1983 -0.6397
 3071TIP3   OH2 9218   6.362   2.355   1.573 -0.6094  0.3572 -0.0831
 3071TIP3    H1 9219   6.296   2.381   1.636 -2.2364 -3.3908  0.0038
 3071TIP3    H2 9220   6.367   2.428   1.512 -1.5661  2.5954  2.3207
 3072TIP3   OH2 9221   1.342   5.488   2.014  0.2901 -0.4839  0.2126
 3072TIP3    H1 9222   1.277   5.543   2.058  0.3781 -0.7389  0.6689
 3072TIP3    H2 9223   1.299   5.462   1.932  0.8392  1.5055 -0.7473
 3073TIP3   OH2 9224   2.061   0.299   3.271 -0.0383 -0.1623  0.1928
 3073TIP3    H1 9225   1.980   0.297   3.221 -0.2617 -0.7583  0.5663
 3073TIP3    H2 9226   2.062   0.386   3.311 -1.3093 -0.7045  1.4866
 3074TIP3   OH2 9227   4.301   3.018   2.695  0.1713 -0.1635  0.4229
 3074TIP3    H1 9228   4.293   3.090   2.758  0.0597 -1.5445  2.0785
 3074TIP3    H2 9229   4.385   3.033   2.651  1.1058 -0.0406  2.1585
 3075TIP3   OH2 9230   3.377   2.658   3.135 -0.0015 -0.2308 -0.2348
 3075TIP3    H1 9231   3.396   2.746   3.167  2.0471 -0.4945 -0.5693
 3075TIP3    H2 9232   3.380   2.666   3.040  1.4378 -0.8597 -0.2673
 3076TIP3   OH2 9233   5.603   4.752   3.567 -0.0068 -0.7108  0.3434
 3076TIP3    H1 9234   5.514   4.735   3.598  0.4754 -1.9851  1.0825
 3076TIP3    H2 9235   5.609   4.705   3.484 -0.1987 -0.1301 -0.0069
 3077TIP3   OH2 9236   0.315   5.426   0.929  0.0086 -0.0811 -0.5699
 3077TIP3    H1 9237   0.268   5.458   1.006  0.9301  0.1187 -0.0778
 3077TIP3    H2 9238   0.247   5.419   0.862 -1.2340 -2.1320  0.7576
 3078TIP3   OH2 9239   0.157   5.268   4.915 -0.2921 -0.1893 -0.1258
 3078TIP3    H1 9240   0.100   5.221   4.976 -0.6435  0.5617  0.1232
 3078TIP3    H2 9241   0.166   5.356   4.952 -0.2035  0.1604 -0.9609
 3079TIP3   OH2 9242   4.304   1.851   1.394  0.1236 -0.6117 -0.1260
 3079TIP3    H1 9243   4.257   1.772   1.423 -0.3724 -0.5152 -0.6694
 3079TIP3    H2 9244   4.396   1.828   1.406  0.0221 -1.5925 -1.0468
 3080TIP3   OH2 9245   2.966   5.885   3.750 -0.0974 -0.0268 -0.3551
 3080TIP3    H1 9246   3.043   5.927   3.714 -0.2515  1.4376  0.9389
 3080TIP3    H2 9247   2.978   5.792   3.731  2.3029  0.0767  0.3869
 3081TIP3   OH2 9248   3.291   0.291   1.738  0.2767  0.0135 -0.5838
 3081TIP3    H1 9249   3.354   0.355   1.702  0.8362 -0.1381  0.1123
 3081TIP3    H2 9250   3.284   0.314   1.831  0.3998 -0.8714 -0.3514
 3082TIP3   OH2 9251   2.987   4.747   0.228  0.4819  0.1025 -0.0158
 3082TIP3    H1 9252   2.921   4.814   0.210  0.4982  0.3727  0.8842
 3082TIP3    H2 9253   3.047   4.753   0.154 -0.5265 -0.2000 -0.8886
 3083TIP3   OH2 9254   6.177   0.776   0.622  0.3861  0.0378  0.3397
 3083TIP3    H1 9255   6.145   0.866   0.621  0.7848  0.2245  1.7487
 3083TIP3    H2 9256   6.208   0.760   0.533 -0.5877  0.9527 -0.1827
 3084TIP3   OH2 9257   2.567   1.592   0.594  0.0995 -0.2917  0.9812
 3084TIP3    H1 9258   2.527   1.676   0.571 -1.4580 -1.5052 -1.1138
 3084TIP3    H2 9259   2.591   1.553   0.510  0.3850 -2.1339  1.8762
 3085TIP3   OH2 9260   1.389   3.071   1.432 -0.1425  0.5158 -0.2179
 3085TIP3    H1 9261   1.445   3.040   1.360  2.0020  0.2804  1.4449
 3085TIP3    H2 9262   1.410   3.164   1.440  0.1559  0.3927  0.5080
 3086TIP3   OH2 9263   5.505   1.223   3.423 -0.5282  0.0797  0.1139
 3086TIP3    H1 9264   5.409   1.226   3.419 -0.4985  0.1439 -1.9795
 3086TIP3    H2 9265   5.533   1.299   3.372  0.5949 -1.2665 -1.3617
 3087TIP3   OH2 9266   2.436   0.124   5.159  0.4469  0.5434  0.3890
 3087TIP3    H1 9267   2.463   0.212   5.131  1.3197  1.0561  2.6493
 3087TIP3    H2 9268   2.518   0.074   5.163 -0.0730 -0.4781 -1.1070
 3088TIP3   OH2 9269   0.802   2.573   0.828 -0.1624  0.2660  0.2348
 3088TIP3    H1 9270   0.769   2.521   0.754  0.6121  1.1746 -0.7901
 3088TIP3    H2 9271   0.793   2.664   0.799 -0.3614  0.6676  1.5029
 3089TIP3   OH2 9272   6.169   2.831   3.625  0.4157 -0.1507 -0.7509
 3089TIP3    H1 9273   6.192   2.743   3.597  0.4377 -1.1245  1.9801
 3089TIP3    H2 9274   6.073   2.832   3.625  0.4056 -0.4432 -0.1355
 3090TIP3   OH2 9275   1.785   0.620   2.762  0.7711  0.2490 -0.2323
 3090TIP3    H1 9276   1.845   0.673   2.709  3.2614 -3.0427 -0.9546
 3090TIP3    H2 9277   1.794   0.531   2.728 -2.9521 -0.8421  1.1246
 3091TIP3   OH2 9278   6.058   3.721   2.443 -0.3986 -0.2089 -0.3065
 3091TIP3    H1 9279   6.104   3.774   2.508 -0.3940  1.5256 -1.6541
 3091TIP3    H2 9280   5.984   3.684   2.490  0.0926  0.2925  0.8929
 3092TIP3   OH2 9281   2.377   2.153   4.990 -0.0210  0.3569 -0.3072
 3092TIP3    H1 9282   2.368   2.090   5.062 -0.9533  1.0098  0.1668
 3092TIP3    H2 9283   2.287   2.173   4.964  0.2835 -0.5061 -2.2536
 3093TIP3   OH2 9284   1.004   2.209   2.375 -0.2273  0.3390 -0.2907
 3093TIP3    H1 9285   1.086   2.188   2.331  0.1687  1.6246 -0.1975
 3093TIP3    H2 9286   0.936   2.182   2.314  0.2620 -0.4779 -0.4886
 3094TIP3   OH2 9287   3.007   1.550   2.720  0.2499 -0.2243 -0.1363
 3094TIP3    H1 9288   3.044   1.637   2.709  1.8254 -0.9109 -0.5797
 3094TIP3    H2 9289   2.921   1.554   2.677  1.4065  0.4069 -2.5313
 3095TIP3   OH2 9290   5.619   3.992   1.332  0.2049  0.2607  0.7290
 3095TIP3    H1 9291   5.679   3.949   1.392  0.7800  2.2846  1.6743
 3095TIP3    H2 9292   5.659   3.980   1.246  2.6661  2.4703  1.4269
 3096TIP3   OH2 9293   4.260   5.405   0.566 -0.3229  0.9148  0.0266
 3096TIP3    H1 9294   4.267   5.499   0.551  0.3425  0.9404  0.4424
 3096TIP3    H2 9295   4.278   5.366   0.481  1.9543  1.1011  0.3481
 3097TIP3   OH2 9296   0.505   0.839   2.307 -0.4425 -0.2900 -0.1483
 3097TIP3    H1 9297   0.441   0.788   2.358  0.9133 -1.8369  0.0880
 3097TIP3    H2 9298   0.562   0.773   2.267 -0.5034  0.9273 -2.4551
 3098TIP3   OH2 9299   5.164   1.267   0.455 -0.1750 -0.3880  0.5087
 3098TIP3    H1 9300   5.087   1.315   0.484  0.0501 -0.5334  1.3625
 3098TIP3    H2 9301   5.218   1.257   0.533  0.6043 -0.4988 -0.0254
 3099TIP3   OH2 9302   6.195   1.621   1.536  0.0685  0.5584 -0.1898
 3099TIP3    H1 9303   6.252   1.544   1.538 -1.2256 -0.5090 -1.8166
 3099TIP3    H2 9304   6.234   1.681   1.599  0.7436 -1.6951  1.6854
 3100TIP3   OH2 9305   0.383   0.098   4.716 -0.0562  0.0011 -0.2901
 3100TIP3    H1 9306   0.441   0.059   4.782 -0.5091 -0.3495 -0.0929
 3100TIP3    H2 9307   0.301   0.049   4.724  0.2634 -0.8772 -1.9567
 3101TIP3   OH2 9308   6.032   3.370   0.538 -0.0886 -0.4094 -0.8496
 3101TIP3    H1 9309   6.050   3.436   0.605  1.5247  3.1788 -4.4111
 3101TIP3    H2 9310   5.938   3.377   0.521 -0.2143 -0.2339 -0.1331
 3102TIP3   OH2 9311   5.515   1.409   4.097  0.1106 -0.1823  0.6251
 3102TIP3    H1 9312   5.507   1.434   4.189  1.6509 -0.0490  0.7579
 3102TIP3    H2 9313   5.558   1.484   4.056 -2.4175  0.6530 -0.6895
 3103TIP3   OH2 9314   0.217   2.374   3.874  0.0188  0.3569  0.1353
 3103TIP3    H1 9315   0.295   2.429   3.878 -0.1521  0.5516  0.9878
 3103TIP3    H2 9316   0.146   2.434   3.852 -0.0622  0.3751  0.4348
 3104TIP3   OH2 9317   3.120   3.563   5.011  0.0968 -0.4348 -0.6137
 3104TIP3    H1 9318   3.039   3.613   5.011  1.4678  1.9932 -1.7310
 3104TIP3    H2 9319   3.094   3.473   5.028 -2.7454  0.3502 -0.4518
 3105TIP3   OH2 9320   6.256   4.637   3.193  0.2276 -0.4019  0.2258
 3105TIP3    H1 9321   6.315   4.657   3.120  1.2886  0.9718  1.4188
 3105TIP3    H2 9322   6.197   4.713   3.197  0.5286 -0.2163  1.1429
 3106TIP3   OH2 9323   0.543   0.643   2.670  0.1309  0.0226 -0.7588
 3106TIP3    H1 9324   0.605   0.570   2.678 -1.9144 -1.8030 -0.6970
 3106TIP3    H2 9325   0.521   0.665   2.761 -0.2349 -0.1864 -0.7943
 3107TIP3   OH2 9326   2.154   1.178   3.107 -0.4050 -0.0647 -0.7783
 3107TIP3    H1 9327   2.169   1.241   3.177  2.8826 -0.7385 -0.7050
 3107TIP3    H2 9328   2.071   1.204   3.068 -1.0345  1.9305  1.6559
 3108TIP3   OH2 9329   4.250   2.219   3.081  0.1478  0.1806  0.3582
 3108TIP3    H1 9330   4.240   2.132   3.120 -1.2614  0.4746  0.7017
 3108TIP3    H2 9331   4.190   2.220   3.007 -0.3409  1.0734  0.7453
 3109TIP3   OH2 9332   1.727   4.967   4.590 -0.1310 -0.0794 -0.0239
 3109TIP3    H1 9333   1.801   4.962   4.651 -1.4112 -0.2589  1.5763
 3109TIP3    H2 9334   1.679   4.886   4.604 -0.4445 -0.1448 -1.3306
 3110TIP3   OH2 9335   0.329   1.008   1.268 -0.0194 -0.0322 -0.3579
 3110TIP3    H1 9336   0.371   1.093   1.276  0.6161 -0.4517  1.3181
 3110TIP3    H2 9337   0.238   1.028   1.246  0.5990  0.9627 -2.1853
 3111TIP3   OH2 9338   1.135   0.578   1.135 -0.0325  0.0597  0.0071
 3111TIP3    H1 9339   1.131   0.600   1.229 -0.9467 -1.1615  0.2736
 3111TIP3    H2 9340   1.223   0.606   1.108  0.0735  0.8829  1.1032
 3112TIP3   OH2 9341   4.704   3.345   4.614  0.0825  0.3172 -0.0281
 3112TIP3    H1 9342   4.752   3.264   4.601  0.1653 -0.0664  2.2073
 3112TIP3    H2 9343   4.671   3.368   4.527  1.9903 -0.8464 -1.1372
 3113TIP3   OH2 9344   0.896   2.550   3.017 -0.4623  0.4094 -0.2962
 3113TIP3    H1 9345   0.879   2.456   3.005  0.0264  0.1480  0.8437
 3113TIP3    H2 9346   0.865   2.591   2.937 -0.3854 -0.7720 -0.9534
 3114TIP3   OH2 9347   4.627   5.702   5.047  0.0091  0.3468  0.2241
 3114TIP3    H1 9348   4.645   5.771   5.110  0.1697  0.6341 -0.1367
 3114TIP3    H2 9349   4.701   5.642   5.056  0.0280  0.3827  0.3089
 3115TIP3   OH2 9350   2.012   4.251   0.677  1.0194 -0.1871  0.9723
 3115TIP3    H1 9351   1.925   4.284   0.699  0.2191 -0.5381 -1.4160
 3115TIP3    H2 9352   2.058   4.327   0.640  0.4635 -0.7828 -1.0483
 3116TIP3   OH2 9353   5.582   4.508   1.460 -0.4195 -0.5185 -0.2980
 3116TIP3    H1 9354   5.537   4.453   1.523 -1.5358 -1.5779 -1.9588
 3116TIP3    H2 9355   5.649   4.451   1.421  0.5174  0.2306  0.1552
 3117TIP3   OH2 9356   4.796   2.786   0.698  0.0838 -0.3498 -0.4017
 3117TIP3    H1 9357   4.868   2.847   0.680  0.5176 -0.6347  0.2991
 3117TIP3    H2 9358   4.814   2.710   0.642 -0.7100  0.3254 -1.6228
 3118TIP3   OH2 9359   0.770   2.819   4.132 -0.8469  0.1847  0.0837
 3118TIP3    H1 9360   0.714   2.743   4.148 -0.4243 -0.2223 -0.3395
 3118TIP3    H2 9361   0.852   2.782   4.099  1.0190  0.4768  3.8784
 3119TIP3   OH2 9362   0.480   2.462   0.007  0.5816  0.6032  0.4168
 3119TIP3    H1 9363   0.456   2.554  -0.010  3.3044  1.2509 -0.3732
 3119TIP3    H2 9364   0.539   2.466   0.082  1.8077 -0.3073 -0.4639
 3120TIP3   OH2 9365   1.980   4.700   1.300 -0.2560 -0.2024  0.2406
 3120TIP3    H1 9366   1.945   4.736   1.381  1.0041  0.9929  0.3021
 3120TIP3    H2 9367   1.930   4.743   1.231 -0.0171  0.2860  0.3624
 3121TIP3   OH2 9368   2.974   0.462   4.057  0.2852  0.3652 -0.1752
 3121TIP3    H1 9369   2.938   0.394   4.114  1.5414 -1.2271 -1.1685
 3121TIP3    H2 9370   3.046   0.418   4.010  0.7155  2.2091 -1.3498
 3122TIP3   OH2 9371   5.650   2.115   2.909 -0.3534  0.0804  0.4560
 3122TIP3    H1 9372   5.647   2.180   2.839  0.1820 -1.5491 -1.1765
 3122TIP3    H2 9373   5.559   2.106   2.937 -1.0393 -0.9753 -1.8199
 3123TIP3   OH2 9374   1.098   5.106   4.257  0.4929 -0.0504 -0.1361
 3123TIP3    H1 9375   1.109   5.104   4.162  1.5967  0.7374 -0.0535
 3123TIP3    H2 9376   1.007   5.133   4.271  0.3707 -0.0144 -0.9623
 3124TIP3   OH2 9377   0.123   3.151   1.306 -0.4275 -0.2597 -0.4185
 3124TIP3    H1 9378   0.191   3.087   1.326 -0.1941 -0.2712 -1.1939
 3124TIP3    H2 9379   0.164   3.211   1.243 -0.4100  1.0886  0.8136
 3125TIP3   OH2 9380   3.835   1.152   1.185 -0.5933 -0.7500 -0.8181
 3125TIP3    H1 9381   3.899   1.182   1.250 -0.1437  0.8877 -1.9519
 3125TIP3    H2 9382   3.757   1.130   1.236 -0.3137  0.6533  0.2668
 3126TIP3   OH2 9383   0.545   3.552   0.058  0.7419  0.1723  0.4342
 3126TIP3    H1 9384   0.553   3.632   0.006 -0.8327  0.4057  0.4897
 3126TIP3    H2 9385   0.524   3.484  -0.005 -3.4597  0.8574  0.8100
 3127TIP3   OH2 9386   3.007   1.285   1.298 -0.1304 -0.1495 -0.7235
 3127TIP3    H1 9387   3.042   1.373   1.315  0.6373 -0.8483  1.6284
 3127TIP3    H2 9388   2.916   1.300   1.273 -0.0775  1.3260 -0.1269
 3128TIP3   OH2 9389   4.111   2.757   1.861 -0.1395  0.4655  0.7373
 3128TIP3    H1 9390   4.056   2.680   1.878 -1.7263  1.9248  2.5892
 3128TIP3    H2 9391   4.097   2.776   1.768 -0.5413 -0.8364  0.5071
 3129TIP3   OH2 9392   3.849   2.918   4.559  0.3854 -0.0917  0.0913
 3129TIP3    H1 9393   3.796   2.998   4.552  0.9918  0.4337  1.1334
 3129TIP3    H2 9394   3.920   2.931   4.497  1.1113  0.7229  1.0487
 3130TIP3   OH2 9395   5.580   2.906   1.335  0.2869 -0.3799 -0.7096
 3130TIP3    H1 9396   5.666   2.920   1.374  0.5234  0.4824 -1.4907
 3130TIP3    H2 9397   5.558   2.990   1.295 -1.4444 -0.2095  0.4487
 3131TIP3   OH2 9398   3.296   0.928   3.149  0.4577 -0.0531 -0.2808
 3131TIP3    H1 9399   3.291   0.833   3.145 -1.1304 -0.1621  2.1410
 3131TIP3    H2 9400   3.304   0.956   3.058 -0.9683 -2.4192 -1.2128
 3132TIP3   OH2 9401   4.197   2.371   0.003 -0.0138 -0.2598 -0.6529
 3132TIP3    H1 9402   4.265   2.426  -0.034  0.3964  1.0783  1.8712
 3132TIP3    H2 9403   4.244   2.302   0.050 -0.3774  0.2087  0.4350
 3133TIP3   OH2 9404   4.256   2.086   4.459 -0.2690 -0.1024  0.3203
 3133TIP3    H1 9405   4.277   2.054   4.372 -1.4763  0.1275 -0.0732
 3133TIP3    H2 9406   4.290   2.176   4.460  1.3824 -0.6933  0.7539
 3134TIP3   OH2 9407   6.073   4.360   0.240 -0.1133  0.2810 -0.1266
 3134TIP3    H1 9408   6.010   4.381   0.171  0.3057  0.1120 -0.5654
 3134TIP3    H2 9409   6.110   4.276   0.213 -0.0947  0.1127  0.4137
 3135TIP3   OH2 9410   2.041   0.146   3.525 -0.2436 -0.7995  0.0104
 3135TIP3    H1 9411   2.047   0.060   3.482 -0.7741 -0.4233 -0.8381
 3135TIP3    H2 9412   2.082   0.206   3.463  0.9908 -0.5718  1.0296
 3136TIP3   OH2 9413   5.332   2.131   4.430  0.3854 -0.2110 -0.0840
 3136TIP3    H1 9414   5.348   2.218   4.393 -0.4467 -0.2600 -0.5932
 3136TIP3    H2 9415   5.241   2.112   4.408  0.3805 -0.9650  0.5409
 3137TIP3   OH2 9416   4.368   2.713   3.849 -0.6444 -0.5079 -0.0249
 3137TIP3    H1 9417   4.309   2.722   3.775  0.6655  1.0390 -0.9509
 3137TIP3    H2 9418   4.428   2.788   3.842 -0.5122 -0.2511  2.6440
 3138TIP3   OH2 9419   1.352   4.916   4.606  0.0356 -0.2099  0.2989
 3138TIP3    H1 9420   1.329   4.983   4.543  0.0733 -0.2240  0.2699
 3138TIP3    H2 9421   1.269   4.889   4.645 -0.3612 -2.2244 -1.7487
 3139TIP3   OH2 9422   0.037   3.823   0.833  0.3000 -0.0306  0.0563
 3139TIP3    H1 9423   0.055   3.912   0.864  0.8684 -0.0977 -0.0637
 3139TIP3    H2 9424  -0.014   3.783   0.903  0.4365  0.2443  0.3175
 3140TIP3   OH2 9425   0.528   3.051   3.364  0.2339 -0.4052  0.0175
 3140TIP3    H1 9426   0.477   3.016   3.437 -0.1177  0.3954  0.1664
 3140TIP3    H2 9427   0.536   2.978   3.302 -2.6566 -0.0835 -0.8587
 3141TIP3   OH2 9428   4.222   5.121   0.177 -0.1257  0.9320 -0.5016
 3141TIP3    H1 9429   4.229   5.028   0.158  0.7087  1.2647 -1.9245
 3141TIP3    H2 9430   4.207   5.163   0.092  2.4921  2.3729 -0.3479
 3142TIP3   OH2 9431   0.125   4.495   2.181  0.0448 -0.2156  0.9955
 3142TIP3    H1 9432   0.199   4.523   2.235  0.0857  0.5923  0.5394
 3142TIP3    H2 9433   0.154   4.413   2.141  1.5250  1.0901 -0.7738
 3143TIP3   OH2 9434   1.947   5.743   1.979 -0.4778  0.7458 -0.2481
 3143TIP3    H1 9435   2.027   5.731   1.928 -0.5988  1.8873 -0.7270
 3143TIP3    H2 9436   1.927   5.836   1.972 -0.7493  0.8586  1.5361
 3144TIP3   OH2 9437   4.038   1.227   2.848 -0.2512 -0.7024 -0.6759
 3144TIP3    H1 9438   3.984   1.185   2.781  0.5575 -0.1039 -1.7335
 3144TIP3    H2 9439   3.977   1.283   2.896 -0.9728 -1.6611 -0.4468
 3145TIP3   OH2 9440   2.286   5.078   4.643  0.5080  1.0093  0.1532
 3145TIP3    H1 9441   2.218   5.022   4.681  0.0803  1.4537  0.0613
 3145TIP3    H2 9442   2.366   5.053   4.688  0.5144 -0.3335 -0.5441
 3146TIP3   OH2 9443   1.921   0.284   0.283 -0.1101  0.0146 -0.1988
 3146TIP3    H1 9444   1.996   0.343   0.274  2.2002 -2.9961 -2.9623
 3146TIP3    H2 9445   1.898   0.260   0.193 -1.6864 -2.3734  0.7384
 3147TIP3   OH2 9446   0.552   3.846   0.852  0.0938 -0.1042 -0.2856
 3147TIP3    H1 9447   0.638   3.804   0.850 -0.1586 -0.6038 -1.5989
 3147TIP3    H2 9448   0.554   3.906   0.778 -0.7609 -0.2518 -0.4294
 3148TIP3   OH2 9449   6.013   5.807   1.804  0.7960 -0.4456 -0.3924
 3148TIP3    H1 9450   6.009   5.717   1.771 -1.7857 -0.2638 -0.8106
 3148TIP3    H2 9451   6.022   5.797   1.898  0.3741 -1.1607 -0.4137
 3149TIP3   OH2 9452   2.249   3.468   2.238  0.6154  0.4290  0.3048
 3149TIP3    H1 9453   2.311   3.472   2.166  0.6099  3.0599  0.3468
 3149TIP3    H2 9454   2.183   3.404   2.210  0.9331  0.9406 -1.7368
 3150TIP3   OH2 9455   0.873   5.959   2.362  0.3491 -0.6142  0.0381
 3150TIP3    H1 9456   0.968   5.970   2.368  0.2986  1.1076 -1.5418
 3150TIP3    H2 9457   0.837   6.029   2.415 -0.0372 -0.8229  0.0533
 3151TIP3   OH2 9458   4.363   3.667   2.869  0.1905 -0.2614 -0.2439
 3151TIP3    H1 9459   4.307   3.660   2.792 -0.1269  0.6193 -0.1034
 3151TIP3    H2 9460   4.323   3.736   2.922 -0.1572 -1.5040  1.1818
 3152TIP3   OH2 9461   2.784   3.878   2.536  0.1712 -0.6661  0.1452
 3152TIP3    H1 9462   2.816   3.851   2.450  0.1123 -0.5124  0.0736
 3152TIP3    H2 9463   2.779   3.797   2.587 -0.6138 -0.8827 -0.2580
 3153TIP3   OH2 9464   5.349   4.923   3.958 -0.3411 -0.7599  0.2316
 3153TIP3    H1 9465   5.427   4.868   3.948  0.9035  0.8455  0.7881
 3153TIP3    H2 9466   5.345   4.974   3.877 -0.7078 -0.6844  0.2968
 3154TIP3   OH2 9467   0.626   1.991   0.203 -0.2133 -0.0851 -0.1027
 3154TIP3    H1 9468   0.640   1.919   0.265 -0.1595  0.0555  0.0496
 3154TIP3    H2 9469   0.552   1.962   0.149 -0.1122 -0.3079 -0.1234
 3155TIP3   OH2 9470   3.999   0.080   0.331  0.6662 -0.2843  0.3987
 3155TIP3    H1 9471   4.000   0.083   0.236 -0.5132 -0.7578  0.3583
 3155TIP3    H2 9472   3.920   0.128   0.356  0.5843 -0.7698  1.1034
 3156TIP3   OH2 9473   3.983   1.607   3.645 -0.1990 -0.0165  0.2244
 3156TIP3    H1 9474   4.041   1.533   3.626  1.9689  1.5132  0.3966
 3156TIP3    H2 9475   3.998   1.669   3.573 -0.8194  0.8813  0.8361
 3157TIP3   OH2 9476   3.179   2.287   3.606  0.1772 -0.2003 -0.0548
 3157TIP3    H1 9477   3.211   2.306   3.518  0.7142 -1.3633 -0.1384
 3157TIP3    H2 9478   3.192   2.192   3.616 -1.6743 -0.4408  0.5473
 3158TIP3   OH2 9479   1.232   0.108   1.516 -1.1321  0.2108  0.4719
 3158TIP3    H1 9480   1.232   0.121   1.421 -2.9389 -1.6207  0.1478
 3158TIP3    H2 9481   1.204   0.017   1.528 -0.5702  0.2723  2.7667
 3159TIP3   OH2 9482   3.341   5.128   2.859 -0.2540 -0.7057 -0.0369
 3159TIP3    H1 9483   3.252   5.144   2.828 -0.3346 -0.9759  0.0481
 3159TIP3    H2 9484   3.388   5.209   2.840 -0.3320 -0.8178 -0.7563
 3160TIP3   OH2 9485   0.470   3.881   1.786  0.5559  0.2333 -0.2974
 3160TIP3    H1 9486   0.402   3.942   1.755  2.4265  1.1534 -2.9297
 3160TIP3    H2 9487   0.492   3.912   1.873 -2.0911  0.0951  0.5330
 3161TIP3   OH2 9488   6.172   3.014   3.837  0.5334  0.0399 -0.1712
 3161TIP3    H1 9489   6.198   2.929   3.801  2.0285  0.6235 -0.5626
 3161TIP3    H2 9490   6.162   3.070   3.760  2.8003  1.0504  0.1935
 3162TIP3   OH2 9491   4.256   0.261   0.228 -0.0088 -0.2906  0.1973
 3162TIP3    H1 9492   4.232   0.345   0.189  1.2590  1.2598  2.5174
 3162TIP3    H2 9493   4.184   0.243   0.290  0.1719 -0.4441  0.3627
 3163TIP3   OH2 9494   2.497   5.976   0.059 -0.3153 -0.3349 -0.5470
 3163TIP3    H1 9495   2.466   5.886   0.060 -1.3686  0.0237 -0.2050
 3163TIP3    H2 9496   2.418   6.030   0.066  0.2658  0.6255 -1.0302
 3164TIP3   OH2 9497   0.288   5.080   3.684 -0.1644 -0.1468 -0.0304
 3164TIP3    H1 9498   0.342   5.063   3.607 -1.9525  0.0868 -1.4151
 3164TIP3    H2 9499   0.327   5.025   3.753  2.4242  0.8279 -0.6101
 3165TIP3   OH2 9500   2.863   5.997   4.145  0.4453 -0.7260  0.3764
 3165TIP3    H1 9501   2.871   6.034   4.057  1.1517 -1.1710  0.2442
 3165TIP3    H2 9502   2.893   5.907   4.136  0.7438 -0.7070  1.1214
 3166TIP3   OH2 9503   5.049   1.877   2.845 -0.3936 -0.0898 -0.3202
 3166TIP3    H1 9504   5.120   1.881   2.909 -0.6035  0.0854 -0.0950
 3166TIP3    H2 9505   5.065   1.952   2.787  1.0363 -1.4753 -1.8050
 3167TIP3   OH2 9506   2.658   4.300   4.899 -0.1124  0.1842 -0.8626
 3167TIP3    H1 9507   2.745   4.322   4.866  0.5855 -0.1017  0.6925
 3167TIP3    H2 9508   2.619   4.384   4.923 -0.8943  0.4697 -2.9084
 3168TIP3   OH2 9509   5.846   2.463   3.979  0.4702  0.2228  0.0230
 3168TIP3    H1 9510   5.884   2.419   4.055  1.9784 -2.8507 -2.3017
 3168TIP3    H2 9511   5.914   2.524   3.950  0.3520  0.5617  0.4487
 3169TIP3   OH2 9512   5.904   3.512   1.329 -0.2639 -0.0871 -0.4641
 3169TIP3    H1 9513   5.844   3.584   1.306 -1.1017 -0.8632 -0.7845
 3169TIP3    H2 9514   5.877   3.486   1.417  2.2825  2.2086  1.1570
 3170TIP3   OH2 9515   3.081   2.265   1.547 -0.0624  0.2358  0.1859
 3170TIP3    H1 9516   3.011   2.328   1.564 -0.3654  0.3632 -1.3475
 3170TIP3    H2 9517   3.039   2.179   1.558 -0.0771  0.3085  0.6957
 3171TIP3   OH2 9518   2.742   1.012   1.063  0.3098  0.0646  0.1598
 3171TIP3    H1 9519   2.713   1.031   1.152 -2.0995 -0.0309 -0.5435
 3171TIP3    H2 9520   2.662   1.011   1.011  1.6075 -0.2930 -1.9547
 3172TIP3   OH2 9521   1.693   0.513   1.888 -0.2388 -0.0347 -0.0009
 3172TIP3    H1 9522   1.615   0.467   1.920 -1.2347  1.1501 -0.6274
 3172TIP3    H2 9523   1.764   0.483   1.945 -0.9704 -1.7944  0.0464
 3173TIP3   OH2 9524   5.797   5.608   2.970  0.0394 -0.4739  0.3078
 3173TIP3    H1 9525   5.838   5.694   2.981 -1.2465  0.0062  1.8082
 3173TIP3    H2 9526   5.847   5.551   3.028 -0.3880 -0.2558  0.8989
 3174TIP3   OH2 9527   5.230   5.655   0.927 -0.0636 -0.1960  0.1711
 3174TIP3    H1 9528   5.317   5.635   0.962 -0.1676 -1.0187 -0.0258
 3174TIP3    H2 9529   5.176   5.580   0.953 -0.0540 -1.0526 -2.0424
 3175TIP3   OH2 9530   3.321   0.545   4.112  0.0561  0.1532 -0.0851
 3175TIP3    H1 9531   3.251   0.525   4.174  0.2681 -0.4030 -0.0192
 3175TIP3    H2 9532   3.368   0.619   4.151  0.1440 -0.1479  0.3839
 3176TIP3   OH2 9533   4.783   4.462   3.796  0.0370 -0.9890 -0.6714
 3176TIP3    H1 9534   4.695   4.483   3.765  0.3181 -1.2986 -1.7312
 3176TIP3    H2 9535   4.839   4.529   3.758  0.1194 -0.0363  1.0378
 3177TIP3   OH2 9536   5.622   5.034   1.633 -0.2228  0.1734  0.1511
 3177TIP3    H1 9537   5.660   5.001   1.551  0.9147  0.3517  0.5890
 3177TIP3    H2 9538   5.528   5.027   1.620 -0.0563  0.0790 -1.1309
 3178TIP3   OH2 9539   3.765   3.042   2.425  0.4194  0.5955 -0.3188
 3178TIP3    H1 9540   3.772   2.990   2.505  0.9479  2.4578  0.9297
 3178TIP3    H2 9541   3.805   2.988   2.357  1.1741 -0.5079  0.9440
 3179TIP3   OH2 9542   6.042   1.770   2.231 -0.0891  0.1832 -0.1352
 3179TIP3    H1 9543   6.026   1.804   2.143 -2.1700  0.4912  0.2976
 3179TIP3    H2 9544   6.022   1.677   2.225  2.4155 -0.3784 -0.5673
 3180TIP3   OH2 9545   6.150   2.680   4.463  0.1484  0.1739 -0.2887
 3180TIP3    H1 9546   6.107   2.596   4.478  1.0854 -0.2812 -0.0929
 3180TIP3    H2 9547   6.215   2.687   4.533  2.7484 -0.7579 -2.4058
 3181TIP3   OH2 9548   2.594   3.643   1.148  0.4526 -0.0865 -0.1675
 3181TIP3    H1 9549   2.600   3.719   1.092 -1.9585 -0.3923 -0.9370
 3181TIP3    H2 9550   2.662   3.583   1.116  1.1270  0.9694 -0.7334
 3182TIP3   OH2 9551   6.122   1.458   3.926 -0.3641 -0.1784 -0.2128
 3182TIP3    H1 9552   6.029   1.446   3.942 -0.0207  0.3039  2.7011
 3182TIP3    H2 9553   6.129   1.477   3.832 -2.9992 -1.7213 -0.8076
 3183TIP3   OH2 9554   4.521   5.892   0.886  0.3066 -0.1386  0.2154
 3183TIP3    H1 9555   4.552   5.810   0.847 -0.0331 -0.1173 -0.1155
 3183TIP3    H2 9556   4.533   5.957   0.816 -1.4821 -0.3399 -0.3412
 3184TIP3   OH2 9557   2.920   1.630   2.069 -0.4600 -0.0955  0.4923
 3184TIP3    H1 9558   2.970   1.595   2.143 -0.3180 -2.0203 -0.4731
 3184TIP3    H2 9559   2.871   1.703   2.107 -0.1607 -0.8297  2.4272
 3185TIP3   OH2 9560   0.312   4.871   4.282  0.3409  1.1276 -0.3322
 3185TIP3    H1 9561   0.338   4.819   4.358  0.7344  2.4758  0.5087
 3185TIP3    H2 9562   0.386   4.865   4.222 -1.0911 -2.2935 -2.0032
 3186TIP3   OH2 9563   2.672   0.874   0.287 -0.2375 -0.9247  0.4766
 3186TIP3    H1 9564   2.764   0.901   0.292  0.0140 -1.3710 -1.2372
 3186TIP3    H2 9565   2.623   0.953   0.313  0.5981 -0.7842  1.7492
 3187TIP3   OH2 9566   5.937   5.507   4.081 -0.1107  0.0212  0.2072
 3187TIP3    H1 9567   5.935   5.439   4.013  2.4608 -0.0833  0.1389
 3187TIP3    H2 9568   5.928   5.458   4.163 -0.8301 -0.1144  0.0522
 3188TIP3   OH2 9569   4.636   0.743   3.893  0.1750 -0.5112  0.2857
 3188TIP3    H1 9570   4.579   0.772   3.822 -2.4630 -3.0165  1.2146
 3188TIP3    H2 9571   4.697   0.682   3.852 -0.7696 -1.2767 -0.0138
 3189TIP3   OH2 9572   5.806   3.315   4.725  0.2992 -0.5665  0.0758
 3189TIP3    H1 9573   5.786   3.224   4.704 -0.2221 -0.5526  0.5004
 3189TIP3    H2 9574   5.804   3.360   4.641  1.9786 -1.2019 -0.3415
 3190TIP3   OH2 9575   6.204   1.239   3.334 -0.1818  0.8789 -0.2774
 3190TIP3    H1 9576   6.182   1.278   3.249  0.0990  1.4333 -0.1029
 3190TIP3    H2 9577   6.189   1.309   3.397 -0.6798  0.3754  0.1690
 3191TIP3   OH2 9578   1.268   5.453   4.992  0.2267 -0.8847 -0.8106
 3191TIP3    H1 9579   1.292   5.525   5.050  1.9178 -0.5635 -1.8427
 3191TIP3    H2 9580   1.198   5.407   5.038  0.3456  0.3635  0.6762
 3192TIP3   OH2 9581   2.416   2.578   0.418 -0.0582 -0.5934 -0.2598
 3192TIP3    H1 9582   2.406   2.553   0.326  0.3546 -2.7091  0.2177
 3192TIP3    H2 9583   2.506   2.556   0.440 -0.5662 -1.6083  1.0182
 3193TIP3   OH2 9584   2.792   4.076   3.881  1.0172 -0.0568  0.4254
 3193TIP3    H1 9585   2.777   4.035   3.966 -0.5125 -1.6770 -0.5692
 3193TIP3    H2 9586   2.887   4.090   3.878  1.4480 -2.3111  1.3958
 3194TIP3   OH2 9587   1.996   4.448   4.299 -0.3687  0.2168 -0.2513
 3194TIP3    H1 9588   2.019   4.516   4.363  0.3727 -0.4197  0.1751
 3194TIP3    H2 9589   2.073   4.391   4.297 -1.6288 -1.5882  0.6612
 3195TIP3   OH2 9590   6.280   2.886   4.843  0.0447 -0.6579  0.1534
 3195TIP3    H1 9591   6.246   2.975   4.851 -0.6942 -0.5532 -2.9333
 3195TIP3    H2 9592   6.236   2.837   4.912 -0.4018  1.1124  1.1786
 3196TIP3   OH2 9593   4.103   3.501   4.495  0.1123 -0.1991  0.4110
 3196TIP3    H1 9594   4.012   3.481   4.516  0.7086 -1.8266  1.7003
 3196TIP3    H2 9595   4.132   3.558   4.567 -0.6438  2.8747 -1.5339
 3197TIP3   OH2 9596   3.923   4.667   1.523 -0.1724 -0.5522 -0.6661
 3197TIP3    H1 9597   3.927   4.758   1.553 -0.3058 -0.7600  0.0084
 3197TIP3    H2 9598   3.976   4.665   1.443 -0.8129  0.2837 -1.1220
 3198TIP3   OH2 9599   1.897   3.461   3.309 -0.7233 -0.0416  0.2927
 3198TIP3    H1 9600   1.954   3.509   3.249 -1.0040 -0.9247 -0.7158
 3198TIP3    H2 9601   1.884   3.520   3.383  0.5581  0.6283  0.0141
 3199TIP3   OH2 9602   3.817   0.394   2.686 -0.6591 -0.0829  0.0306
 3199TIP3    H1 9603   3.830   0.487   2.701 -0.7323  0.2050 -1.5832
 3199TIP3    H2 9604   3.723   0.380   2.701 -0.4336 -0.1870  1.5565
 3200TIP3   OH2 9605   2.655   4.949   2.309  0.1415 -0.5482  0.9678
 3200TIP3    H1 9606   2.658   5.044   2.314  0.5316 -0.6067  2.5522
 3200TIP3    H2 9607   2.725   4.926   2.248  0.4340  0.1726  1.0152
 3201TIP3   OH2 9608   5.024   0.615   2.790 -0.1920 -0.6622  0.5842
 3201TIP3    H1 9609   5.026   0.594   2.884  1.2285 -1.0000  0.4962
 3201TIP3    H2 9610   5.100   0.671   2.776 -0.5005 -0.4556 -0.3511
 3202TIP3   OH2 9611   4.831   2.566   0.935 -0.0650 -0.0515  0.2794
 3202TIP3    H1 9612   4.825   2.518   0.852  1.0955 -0.7022  0.5559
 3202TIP3    H2 9613   4.749   2.545   0.980 -0.6788  0.2616 -0.6663
 3203TIP3   OH2 9614   2.142   0.266   2.057 -0.1033 -0.1644 -0.0277
 3203TIP3    H1 9615   2.125   0.174   2.039  1.4530 -0.6786  0.9322
 3203TIP3    H2 9616   2.199   0.294   1.985  2.9839 -1.1912  1.8362
 3204TIP3   OH2 9617   5.985   3.805   1.160  0.4645 -0.1498 -0.3572
 3204TIP3    H1 9618   6.063   3.809   1.104  1.4834 -0.2000  1.0179
 3204TIP3    H2 9619   6.020   3.796   1.248 -0.9323  3.4225  0.7329
 3205TIP3   OH2 9620   4.188   3.647   3.652  0.3807 -0.6868 -0.0700
 3205TIP3    H1 9621   4.116   3.621   3.708 -0.3587 -2.8117 -1.8664
 3205TIP3    H2 9622   4.261   3.661   3.712 -1.3804  1.2721  1.7667
 3206TIP3   OH2 9623   0.199   2.959   4.898  0.5017  0.0425 -0.2244
 3206TIP3    H1 9624   0.104   2.971   4.900  0.7969  3.1796  1.9082
 3206TIP3    H2 9625   0.212   2.869   4.929 -1.7100 -0.4884 -0.6090
 3207TIP3   OH2 9626   1.457   4.371   2.330  0.6034 -0.2772 -0.0244
 3207TIP3    H1 9627   1.484   4.451   2.285  2.5154 -1.6980 -1.6121
 3207TIP3    H2 9628   1.387   4.335   2.276  0.3551 -0.1229  0.1943
 3208TIP3   OH2 9629   6.282   5.852   2.380 -0.0174 -0.3319  0.3294
 3208TIP3    H1 9630   6.232   5.771   2.365  0.2191 -0.6819  1.3366
 3208TIP3    H2 9631   6.216   5.920   2.391 -0.2160 -0.3320 -0.7445
 3209TIP3   OH2 9632   5.119   0.839   1.495 -0.2455  0.3926  0.4754
 3209TIP3    H1 9633   5.024   0.842   1.501 -0.1606  1.5252  1.7602
 3209TIP3    H2 9634   5.138   0.756   1.451 -1.8076  0.0589  0.3828
 3210TIP3   OH2 9635   0.519   4.790   1.953  0.2585  0.4322 -0.2596
 3210TIP3    H1 9636   0.610   4.781   1.925  0.7405  0.8479  1.0782
 3210TIP3    H2 9637   0.497   4.881   1.933 -0.0014  0.2340 -0.9172
 3211TIP3   OH2 9638   1.299   5.878   1.138 -0.6299 -0.3072 -0.1968
 3211TIP3    H1 9639   1.270   5.802   1.188 -0.1926 -0.6585 -0.4651
 3211TIP3    H2 9640   1.315   5.845   1.050 -0.2582  0.0517 -0.2720
 3212TIP3   OH2 9641   5.152   1.986   3.652  0.3009  0.5079 -0.1561
 3212TIP3    H1 9642   5.213   2.021   3.716 -0.5354  1.0271  0.3869
 3212TIP3    H2 9643   5.081   1.948   3.705  0.8448 -1.4250 -0.7362
 3213TIP3   OH2 9644   2.560   4.779   0.054 -0.5911  0.4071  0.1308
 3213TIP3    H1 9645   2.594   4.852   0.105 -0.3262  0.2679  0.1531
 3213TIP3    H2 9646   2.636   4.723   0.037 -0.6566  0.4911 -0.4774
 3214TIP3   OH2 9647   4.085   1.423  -0.011 -0.0347 -0.0654 -0.3895
 3214TIP3    H1 9648   4.128   1.381   0.064  1.3757  1.8731 -0.0511
 3214TIP3    H2 9649   3.991   1.408   0.004  0.3076 -1.0911  0.9028
 3215TIP3   OH2 9650   0.874   3.959   4.723  0.0871 -0.4570  0.5403
 3215TIP3    H1 9651   0.841   3.990   4.808  1.7220  1.6093  0.4977
 3215TIP3    H2 9652   0.966   3.939   4.739  0.2036 -0.8478 -0.5744
 3216TIP3   OH2 9653   2.295   3.332   4.001 -0.1879  0.0967  0.2338
 3216TIP3    H1 9654   2.333   3.410   4.040  1.2550 -0.6327  0.3807
 3216TIP3    H2 9655   2.340   3.259   4.045 -1.8533 -0.8354  0.4727
 3217TIP3   OH2 9656   0.701   2.181   3.640 -0.3184 -0.5470 -0.0760
 3217TIP3    H1 9657   0.710   2.162   3.734  0.8882  0.3462  0.0038
 3217TIP3    H2 9658   0.618   2.230   3.634 -0.4089 -0.6169  0.5179
 3218TIP3   OH2 9659   3.982   2.916   0.635  0.1239 -0.0978  0.3938
 3218TIP3    H1 9660   3.951   2.826   0.629  0.8295 -0.2972 -0.5039
 3218TIP3    H2 9661   4.076   2.910   0.615 -0.0819  0.9898 -1.0933
 3219TIP3   OH2 9662   4.815   4.129   2.723 -0.0073 -0.0247  0.3685
 3219TIP3    H1 9663   4.839   4.063   2.659  0.1333  1.9651 -1.7625
 3219TIP3    H2 9664   4.896   4.177   2.740 -0.4324  0.6406  0.5770
 3220TIP3   OH2 9665   5.365   2.840   0.327 -0.0340 -0.6758 -0.1848
 3220TIP3    H1 9666   5.385   2.905   0.260 -1.5308  0.4331  0.3601
 3220TIP3    H2 9667   5.350   2.759   0.279 -1.4233  0.1708 -1.2549
 3221TIP3   OH2 9668   2.577   3.781   0.215  0.4744 -0.0360  0.4799
 3221TIP3    H1 9669   2.607   3.840   0.146  1.9396 -0.4353  0.7510
 3221TIP3    H2 9670   2.501   3.737   0.178  0.3096  0.8781 -0.2975
 3222TIP3   OH2 9671   1.460   0.295   4.132 -0.0410 -0.1507 -0.0907
 3222TIP3    H1 9672   1.456   0.202   4.154 -0.3537  0.0777  0.8470
 3222TIP3    H2 9673   1.402   0.338   4.195 -0.8275  0.5588 -1.2519
 3223TIP3   OH2 9674   0.071   2.433   1.101 -0.3112 -0.1809  0.7646
 3223TIP3    H1 9675   0.075   2.357   1.159 -1.3287 -0.0272  1.0607
 3223TIP3    H2 9676  -0.023   2.444   1.083 -0.1328  0.7099  0.3298
 3224TIP3   OH2 9677   1.335   5.072   0.319 -0.2090  0.4377 -0.0095
 3224TIP3    H1 9678   1.422   5.112   0.309  0.2855 -0.7894 -0.8032
 3224TIP3    H2 9679   1.291   5.090   0.236 -1.3414  2.4034  0.9369
 3225TIP3   OH2 9680   4.303   5.138   4.457 -0.0090  0.4331  0.3467
 3225TIP3    H1 9681   4.368   5.124   4.526 -0.1516  0.6454  0.5252
 3225TIP3    H2 9682   4.339   5.209   4.404  0.1636  0.1817  0.1215
 3226TIP3   OH2 9683   2.243   2.756   2.335 -0.0607 -0.0335 -0.3624
 3226TIP3    H1 9684   2.330   2.795   2.334  0.3902 -1.0071 -0.9413
 3226TIP3    H2 9685   2.246   2.688   2.267 -0.6492 -1.3805  0.9005
 3227TIP3   OH2 9686   3.569   1.149   2.501  0.6847  0.2972  0.3663
 3227TIP3    H1 9687   3.516   1.080   2.461 -0.7537  2.0388 -0.9590
 3227TIP3    H2 9688   3.645   1.158   2.444  0.8982 -0.1842  0.5661
 3228TIP3   OH2 9689   6.116   1.582   0.522  0.1409  0.2182 -0.4923
 3228TIP3    H1 9690   6.067   1.501   0.538 -2.2742  1.6470 -0.0878
 3228TIP3    H2 9691   6.176   1.589   0.596  0.6421 -1.3628 -0.7190
 3229TIP3   OH2 9692   2.838   2.747   2.471  0.3186 -0.0163  0.0995
 3229TIP3    H1 9693   2.800   2.677   2.417 -0.0213 -0.2033  0.5788
 3229TIP3    H2 9694   2.801   2.827   2.435 -1.4044 -0.2516  1.2179
 3230TIP3   OH2 9695   2.587   4.863   1.772  0.0664 -0.4449  0.4665
 3230TIP3    H1 9696   2.638   4.943   1.763 -1.2507  0.2648 -1.2011
 3230TIP3    H2 9697   2.552   4.866   1.861  0.6185  0.4505  0.6638
 3231TIP3   OH2 9698   4.621   3.770   2.633 -0.1132 -0.4798 -0.0791
 3231TIP3    H1 9699   4.597   3.842   2.691  0.4942 -0.3115 -0.0331
 3231TIP3    H2 9700   4.621   3.809   2.545 -0.0263 -0.4834 -0.0808
 3232TIP3   OH2 9701   4.854   3.695   4.441  0.4203 -0.1436  0.2965
 3232TIP3    H1 9702   4.892   3.609   4.457  0.2681 -0.3991 -0.6626
 3232TIP3    H2 9703   4.852   3.736   4.527  0.8311 -0.9565  0.7105
 3233TIP3   OH2 9704   1.261   3.691   3.574  0.2553 -0.3924  0.0886
 3233TIP3    H1 9705   1.310   3.646   3.643  0.5612 -0.6846 -0.3143
 3233TIP3    H2 9706   1.211   3.759   3.620 -0.8214 -1.6202  0.8270
 3234TIP3   OH2 9707   4.497   0.426   3.561  0.5377 -0.0792 -0.1597
 3234TIP3    H1 9708   4.496   0.494   3.629  0.4739 -0.4220  0.1830
 3234TIP3    H2 9709   4.587   0.396   3.558  0.8458  0.8590 -1.1618
 3235TIP3   OH2 9710   5.356   5.080   3.726 -0.3304 -0.3859  0.2273
 3235TIP3    H1 9711   5.269   5.109   3.697 -0.4171 -1.3159 -0.5183
 3235TIP3    H2 9712   5.414   5.102   3.654  0.0710  0.2568  0.7363
 3236TIP3   OH2 9713   2.129   0.914   0.581 -0.2033  0.6860  0.2462
 3236TIP3    H1 9714   2.172   0.882   0.502  0.3656  0.1561  0.7504
 3236TIP3    H2 9715   2.084   0.837   0.616 -2.0245  1.3474 -0.5407
 3237TIP3   OH2 9716   1.146   2.432   5.044  0.0797  0.0954 -0.6876
 3237TIP3    H1 9717   1.182   2.448   5.131  2.1060  0.1013 -1.4584
 3237TIP3    H2 9718   1.060   2.394   5.059  1.5575 -2.7782  1.4050
 3238TIP3   OH2 9719   5.471   3.016   2.121 -0.6760 -0.3202 -0.3029
 3238TIP3    H1 9720   5.437   3.067   2.047 -0.7478  1.5769  0.9551
 3238TIP3    H2 9721   5.565   3.011   2.105 -0.5726  0.7943 -0.1408
 3239TIP3   OH2 9722   4.921   5.785   2.984  0.5775 -0.7659 -0.1329
 3239TIP3    H1 9723   4.840   5.735   2.998  0.3752 -0.3735  0.1209
 3239TIP3    H2 9724   4.926   5.794   2.888 -0.5590  0.6076 -0.0978
 3240TIP3   OH2 9725   4.340   5.430   3.691  0.0429  0.0077 -0.1228
 3240TIP3    H1 9726   4.357   5.337   3.704  0.1883  0.0917  0.2741
 3240TIP3    H2 9727   4.329   5.466   3.779  1.3252  0.6237 -0.1983
 3241TIP3   OH2 9728   4.670   0.164   1.059 -0.4036 -0.1964 -0.0930
 3241TIP3    H1 9729   4.696   0.250   1.091 -1.6752  0.3130 -0.3404
 3241TIP3    H2 9730   4.605   0.183   0.991 -1.9440 -1.3577  0.9832
 3242TIP3   OH2 9731   2.550   1.866   2.791  1.2314  0.9705  0.4182
 3242TIP3    H1 9732   2.477   1.927   2.802 -0.5225 -0.9369 -0.1043
 3242TIP3    H2 9733   2.566   1.864   2.696  0.1516 -0.5732  0.2383
 3243TIP3   OH2 9734   2.962   5.839   3.152 -0.2793 -0.3903 -0.2272
 3243TIP3    H1 9735   2.874   5.834   3.115 -0.1825 -0.8299 -0.4028
 3243TIP3    H2 9736   2.988   5.748   3.164  0.9798 -0.3523 -2.1811
 3244TIP3   OH2 9737   5.571   4.938   3.248 -0.1193  0.4395 -0.5814
 3244TIP3    H1 9738   5.496   4.998   3.244 -0.5977 -0.1282 -0.2863
 3244TIP3    H2 9739   5.532   4.851   3.252  0.5511  0.1543 -0.0202
 3245TIP3   OH2 9740   1.764   0.816   2.969 -0.5763  0.3982  0.2790
 3245TIP3    H1 9741   1.803   0.749   2.913  0.1412  1.1421 -0.1329
 3245TIP3    H2 9742   1.838   0.872   2.994 -0.7259 -0.3497  2.6196
 3246TIP3   OH2 9743   5.503   4.305   2.872  0.3312 -0.1971  0.2103
 3246TIP3    H1 9744   5.566   4.342   2.934  1.5953 -2.4185  0.3866
 3246TIP3    H2 9745   5.427   4.283   2.925 -0.9231  2.9539 -0.0823
 3247TIP3   OH2 9746   2.791   1.505   1.521  0.5466  0.1764 -0.8800
 3247TIP3    H1 9747   2.707   1.536   1.557  0.9010  2.1079 -1.5616
 3247TIP3    H2 9748   2.855   1.527   1.589  0.8809  1.5739 -1.6016
 3248TIP3   OH2 9749   2.877   3.288   4.467 -0.2792  0.0471 -0.7789
 3248TIP3    H1 9750   2.786   3.288   4.437  0.0420 -0.7819 -1.8296
 3248TIP3    H2 9751   2.914   3.207   4.431  1.2970  1.1146 -1.6922
 3249TIP3   OH2 9752   3.805   2.000   4.890  0.3409  0.0662 -0.5332
 3249TIP3    H1 9753   3.785   2.075   4.946 -0.4211 -0.6768  0.2177
 3249TIP3    H2 9754   3.802   2.035   4.801 -0.8814  0.7400 -0.2443
 3250TIP3   OH2 9755   0.626   2.840   1.231 -0.1217  0.4575 -0.1423
 3250TIP3    H1 9756   0.668   2.755   1.242 -0.1899  0.4491  0.0500
 3250TIP3    H2 9757   0.699   2.903   1.234 -0.1157  0.4377  0.1268
 3251TIP3   OH2 9758   4.099   5.255   2.707 -0.2245  0.3392 -0.1868
 3251TIP3    H1 9759   4.179   5.297   2.677 -0.1439  1.4267  1.3868
 3251TIP3    H2 9760   4.029   5.312   2.676 -0.1793  1.0803  0.9993
 3252TIP3   OH2 9761   2.430   4.856   2.016 -0.7915  0.1596 -0.0674
 3252TIP3    H1 9762   2.475   4.773   2.035 -1.4611 -0.4787 -1.1388
 3252TIP3    H2 9763   2.338   4.833   2.012 -0.9062  0.7340 -1.4251
 3253TIP3   OH2 9764   3.324   4.811   0.984  0.0685 -0.0571 -0.1305
 3253TIP3    H1 9765   3.232   4.816   0.960  0.3657  0.8243 -1.1569
 3253TIP3    H2 9766   3.330   4.733   1.039 -0.8119 -1.6832 -2.2183
 3254TIP3   OH2 9767   1.392   2.479   2.366 -0.0041 -0.2732  0.0655
 3254TIP3    H1 9768   1.363   2.542   2.299 -0.4670 -0.2212  0.3056
 3254TIP3    H2 9769   1.379   2.526   2.449  1.0555 -0.1484  0.1668
 3255TIP3   OH2 9770   2.267   5.661   1.557  0.1529  0.1182 -0.4290
 3255TIP3    H1 9771   2.197   5.694   1.501 -0.3352  1.7401  1.0712
 3255TIP3    H2 9772   2.340   5.722   1.543  0.4561 -0.1907 -0.2229
 3256TIP3   OH2 9773   4.797   4.054   4.516 -0.0816 -0.1974 -0.3150
 3256TIP3    H1 9774   4.804   3.968   4.558 -0.0607 -1.0229 -1.9346
 3256TIP3    H2 9775   4.853   4.111   4.569  1.3213 -1.5863 -0.2194
 3257TIP3   OH2 9776   2.195   4.353   4.907 -0.0202 -0.6398  0.3322
 3257TIP3    H1 9777   2.194   4.365   4.812  1.3556  0.9852  0.4764
 3257TIP3    H2 9778   2.104   4.332   4.929 -0.1472 -2.2130 -1.4371
 3258TIP3   OH2 9779   4.792   1.477   3.302 -0.0901  0.2558 -0.1348
 3258TIP3    H1 9780   4.820   1.481   3.394  1.5823  0.0064 -0.5863
 3258TIP3    H2 9781   4.713   1.531   3.298  1.2610  2.4597  0.9496
 3259TIP3   OH2 9782   3.431   3.627   0.214  0.1327  0.3441 -0.1708
 3259TIP3    H1 9783   3.443   3.679   0.135 -0.8621 -1.1051 -1.3575
 3259TIP3    H2 9784   3.514   3.582   0.226  0.3936  0.8115 -0.2113
 3260TIP3   OH2 9785   0.758   3.135   3.492  0.1947  0.0107 -0.2118
 3260TIP3    H1 9786   0.793   3.049   3.515 -0.9195 -0.2371  0.6827
 3260TIP3    H2 9787   0.683   3.117   3.435  0.5004  0.4399 -0.7581
 3261TIP3   OH2 9788   4.025   1.729   3.388  0.3098 -0.4017 -0.3440
 3261TIP3    H1 9789   4.111   1.769   3.396  0.2874 -0.1077 -1.4070
 3261TIP3    H2 9790   3.980   1.782   3.322 -1.3810  0.6086  1.5402
 3262TIP3   OH2 9791   4.650   2.563   0.458 -0.5326  0.5600  0.2176
 3262TIP3    H1 9792   4.696   2.489   0.419  0.1029  0.8670  0.3716
 3262TIP3    H2 9793   4.576   2.524   0.504 -1.5829  0.2075 -1.6439
 3263TIP3   OH2 9794   3.224   4.827   2.078  0.1364  0.2076  0.7126
 3263TIP3    H1 9795   3.236   4.741   2.037  0.5814  0.8557 -0.5732
 3263TIP3    H2 9796   3.157   4.870   2.025  0.4597  0.9338  0.8791
 3264TIP3   OH2 9797   1.143   3.895   4.788 -0.2390  0.3473  0.2705
 3264TIP3    H1 9798   1.198   3.827   4.748 -0.6731 -0.0726  0.3731
 3264TIP3    H2 9799   1.144   3.874   4.881 -0.8322  0.1393  0.2337
 3265TIP3   OH2 9800   4.725   4.120   2.300 -0.3660 -0.5176  0.0484
 3265TIP3    H1 9801   4.675   4.045   2.334  1.1236 -1.8772 -0.6145
 3265TIP3    H2 9802   4.814   4.086   2.290  0.2310  1.2104 -0.7862
 3266TIP3   OH2 9803   5.141   1.313   5.116  0.3322 -0.8650 -0.0754
 3266TIP3    H1 9804   5.185   1.329   5.200  1.5813  0.6806 -0.9689
 3266TIP3    H2 9805   5.065   1.372   5.118  0.5114 -0.6329 -0.1489
 3267TIP3   OH2 9806   5.107   3.806   2.035  0.2052 -0.4931 -0.1704
 3267TIP3    H1 9807   5.067   3.728   1.996  0.8684 -1.1784  0.4901
 3267TIP3    H2 9808   5.140   3.856   1.960  0.8567 -1.4590 -0.5488
 3268TIP3   OH2 9809   3.779   2.250   3.005  0.1893 -0.0952 -0.0286
 3268TIP3    H1 9810   3.739   2.209   2.928 -0.7748 -0.7237  0.7868
 3268TIP3    H2 9811   3.705   2.266   3.064  1.1218 -1.3219  1.5398
 3269TIP3   OH2 9812   0.943   2.842   3.310 -0.0898  0.4582  0.0066
 3269TIP3    H1 9813   0.983   2.761   3.278  2.1657  1.9547 -1.2379
 3269TIP3    H2 9814   0.895   2.815   3.388  1.2075 -1.9507  0.0871
 3270TIP3   OH2 9815   3.927   3.507   4.817  0.2026  0.4921  0.1985
 3270TIP3    H1 9816   3.947   3.561   4.740 -0.3522 -0.8645 -0.9635
 3270TIP3    H2 9817   3.839   3.473   4.800  0.6766 -1.0734  0.6638
 3271TIP3   OH2 9818   3.298   2.131   3.942 -0.1618 -0.3119 -0.3235
 3271TIP3    H1 9819   3.318   2.168   4.028 -0.2009  0.4003 -0.6202
 3271TIP3    H2 9820   3.202   2.135   3.935 -0.0633  1.5022 -1.2075
 3272TIP3   OH2 9821   1.055   3.603   3.785  0.1842 -0.2912 -0.4587
 3272TIP3    H1 9822   1.135   3.568   3.825  0.4430  0.7524 -0.0176
 3272TIP3    H2 9823   1.010   3.526   3.750  0.6869 -1.0689  0.5416
 3273TIP3   OH2 9824   0.472   4.137   4.632 -0.0707 -0.0664 -0.2154
 3273TIP3    H1 9825   0.468   4.053   4.585 -1.6017  0.1225 -0.4888
 3273TIP3    H2 9826   0.539   4.124   4.699  1.5292 -0.6455 -1.8546
 3274TIP3   OH2 9827  -0.013   4.061   2.778 -0.1167 -0.1323 -0.2709
 3274TIP3    H1 9828   0.079   4.045   2.758 -0.5640 -0.1243 -2.5211
 3274TIP3    H2 9829  -0.016   4.154   2.802  0.8146 -0.7143  2.5692
 3275TIP3   OH2 9830   4.216   2.759   3.586  0.3806  0.1276 -0.0427
 3275TIP3    H1 9831   4.141   2.782   3.531 -0.1258  1.3433  1.1098
 3275TIP3    H2 9832   4.247   2.676   3.549 -1.9578 -0.7969 -0.1460
 3276TIP3   OH2 9833   0.120   1.884   0.062 -0.5726 -0.3935 -0.3827
 3276TIP3    H1 9834   0.049   1.904   0.123  0.0815 -0.1410  0.3208
 3276TIP3    H2 9835   0.119   1.788   0.054 -0.2291 -0.4935  0.5905
 3277TIP3   OH2 9836   5.572   1.004   0.170  0.3964 -0.2564  0.0821
 3277TIP3    H1 9837   5.666   1.022   0.164  0.6819 -0.7127  2.4842
 3277TIP3    H2 9838   5.566   0.920   0.216 -1.1954 -0.7463 -0.9233
 3278TIP3   OH2 9839   5.064   0.844   1.783  0.0934  0.5262  0.1897
 3278TIP3    H1 9840   5.059   0.759   1.826  1.1843 -0.0943 -0.8232
 3278TIP3    H2 9841   5.104   0.825   1.698  0.5848  2.0888  0.0389
 3279TIP3   OH2 9842   6.251   4.321   0.496 -0.1291  0.1945 -0.5685
 3279TIP3    H1 9843   6.209   4.321   0.410 -0.5155  1.3292 -0.4005
 3279TIP3    H2 9844   6.341   4.296   0.479  0.2152  1.9382 -1.5509
 3280TIP3   OH2 9845   3.414   4.839   3.988 -0.3126 -0.1375 -0.7481
 3280TIP3    H1 9846   3.475   4.859   3.917 -0.8949  1.8422 -0.7526
 3280TIP3    H2 9847   3.444   4.894   4.062 -0.1501 -1.6097  0.3201
 3281TIP3   OH2 9848   4.736   1.895   1.206  0.2907 -0.2542 -0.0659
 3281TIP3    H1 9849   4.710   1.984   1.184 -1.2791 -0.6031  0.2145
 3281TIP3    H2 9850   4.831   1.895   1.202  0.3844  1.7045  0.9477
 3282TIP3   OH2 9851   0.279   3.570   4.810 -0.0511  0.2405  0.1608
 3282TIP3    H1 9852   0.302   3.610   4.894  0.7668 -0.7977  0.4596
 3282TIP3    H2 9853   0.358   3.580   4.756 -0.6221  1.0312 -0.5462
 3283TIP3   OH2 9854   5.161   1.873   1.378 -0.2155  0.5166 -0.2681
 3283TIP3    H1 9855   5.249   1.856   1.345 -0.8134  0.2143 -1.7992
 3283TIP3    H2 9856   5.149   1.809   1.448  0.2078 -0.5417 -1.1334
 3284TIP3   OH2 9857   4.507   1.163   1.893  0.3051  0.3243 -0.4461
 3284TIP3    H1 9858   4.566   1.164   1.969  0.4426 -4.2577 -0.1947
 3284TIP3    H2 9859   4.419   1.164   1.931  0.3044  1.2760 -0.4589
 3285TIP3   OH2 9860   5.149   0.334   4.736 -0.2125 -0.1268 -0.3773
 3285TIP3    H1 9861   5.153   0.423   4.770  1.5080 -0.4495  0.3806
 3285TIP3    H2 9862   5.224   0.289   4.775 -0.8501 -1.8353 -0.9788
 3286TIP3   OH2 9863   5.598   4.887   0.755  0.3628 -0.0611 -0.2113
 3286TIP3    H1 9864   5.534   4.882   0.826 -0.4555  0.8018 -0.8739
 3286TIP3    H2 9865   5.647   4.968   0.773 -1.4020  1.4634 -1.8703
 3287TIP3   OH2 9866   5.142   3.292   1.262 -0.2299  0.1204 -0.1085
 3287TIP3    H1 9867   5.196   3.331   1.331 -2.0029 -0.6459  1.8175
 3287TIP3    H2 9868   5.173   3.202   1.254 -0.8755 -0.1831  0.6697
 3288TIP3   OH2 9869   5.327   5.542   1.992  0.1092  0.2742 -0.5395
 3288TIP3    H1 9870   5.364   5.628   2.011  1.9753 -0.7780  0.8881
 3288TIP3    H2 9871   5.390   5.480   2.028 -1.6097 -1.6991 -0.7375
 3289TIP3   OH2 9872   1.515   0.788   4.600  0.0550 -0.0991  0.4580
 3289TIP3    H1 9873   1.527   0.801   4.506 -2.0282 -0.7342  0.0411
 3289TIP3    H2 9874   1.444   0.849   4.623 -0.7019 -1.2346  1.2051
 3290TIP3   OH2 9875   4.545   5.863   0.622  0.2444 -0.0438  0.2435
 3290TIP3    H1 9876   4.450   5.863   0.612  0.2691 -2.9751 -1.0818
 3290TIP3    H2 9877   4.577   5.925   0.557 -0.7301 -0.0294 -0.2343
 3291TIP3   OH2 9878   2.312   3.751   1.989 -0.5335 -0.2881  0.1998
 3291TIP3    H1 9879   2.371   3.680   2.013  0.6668  0.8453  0.7832
 3291TIP3    H2 9880   2.289   3.734   1.898  1.9446  0.0120 -0.5506
 3292TIP3   OH2 9881   1.518   1.292   0.235 -0.3362  0.5509 -0.0802
 3292TIP3    H1 9882   1.604   1.332   0.251  0.5781 -1.8468  1.6905
 3292TIP3    H2 9883   1.461   1.365   0.212  2.1145  2.2597 -1.1142
 3293TIP3   OH2 9884   3.722   4.175   4.771 -0.2062  0.0794 -0.0353
 3293TIP3    H1 9885   3.676   4.256   4.791 -0.3695 -0.2371  0.9117
 3293TIP3    H2 9886   3.756   4.145   4.855  0.6395 -0.3581 -0.5232
 3294TIP3   OH2 9887   1.473   4.611   2.209  0.8206  0.1574 -0.2319
 3294TIP3    H1 9888   1.411   4.639   2.141  0.7967  3.0912  0.8739
 3294TIP3    H2 9889   1.559   4.634   2.174  0.8012  1.7786  0.7229
 3295TIP3   OH2 9890   4.940   5.419   2.823  0.6544 -1.2217  0.0324
 3295TIP3    H1 9891   4.987   5.500   2.802  0.3870 -1.4695 -1.7354
 3295TIP3    H2 9892   4.900   5.436   2.908 -0.5644  1.0712 -0.9060
 3296TIP3   OH2 9893   2.766   1.929   4.650 -0.2590 -0.9523  0.5397
 3296TIP3    H1 9894   2.816   2.003   4.616 -1.4935 -0.7915 -1.0270
 3296TIP3    H2 9895   2.762   1.867   4.577 -2.7362 -0.7391  0.4177
 3297TIP3   OH2 9896   2.771   5.613   0.709 -0.0223 -0.0141  0.5769
 3297TIP3    H1 9897   2.775   5.694   0.758 -0.0387  0.6956 -0.5524
 3297TIP3    H2 9898   2.680   5.607   0.679 -0.6743 -1.6987  2.6294
 3298TIP3   OH2 9899   5.971   1.491   3.396  0.0400 -0.1197  0.0294
 3298TIP3    H1 9900   5.968   1.579   3.357 -1.9019  1.0562  2.4879
 3298TIP3    H2 9901   5.907   1.495   3.467  0.8819 -3.1450  1.0993
 3299TIP3   OH2 9902   2.498   0.549   2.072 -0.3269 -0.1965 -0.2746
 3299TIP3    H1 9903   2.485   0.470   2.125  2.2144  1.2231  2.8260
 3299TIP3    H2 9904   2.541   0.517   1.992 -0.7765 -2.1070  0.1873
 3300TIP3   OH2 9905   2.672   0.017   3.215 -0.5627  0.0221  0.5431
 3300TIP3    H1 9906   2.609   0.071   3.167 -0.5937 -0.1362  0.4048
 3300TIP3    H2 9907   2.737  -0.009   3.149 -0.0616  0.6154  0.7909
 3301TIP3   OH2 9908   5.438   1.334   2.252 -0.2978  0.6346  0.5066
 3301TIP3    H1 9909   5.399   1.253   2.220 -0.2610  0.7941  0.0497
 3301TIP3    H2 9910   5.371   1.373   2.307 -0.0975  0.0000  1.2220
 3302TIP3   OH2 9911   4.366   4.217   4.674 -0.0102  0.0798 -0.1769
 3302TIP3    H1 9912   4.301   4.147   4.672  0.9148 -0.9218  2.0400
 3302TIP3    H2 9913   4.442   4.181   4.627  0.9013 -0.9416  1.9823
 3303TIP3   OH2 9914   5.949   0.779   0.864 -0.2061  0.1030 -0.4203
 3303TIP3    H1 9915   6.007   0.723   0.916  0.0440 -0.5116 -1.3360
 3303TIP3    H2 9916   5.976   0.868   0.886 -1.2544 -0.0736  1.7793
 3304TIP3   OH2 9917   1.864   2.398   2.691 -0.2977 -0.0149  0.1573
 3304TIP3    H1 9918   1.868   2.450   2.610 -0.5478 -0.8077 -0.3820
 3304TIP3    H2 9919   1.955   2.376   2.710 -0.2840 -0.3583 -0.2798
 3305TIP3   OH2 9920   5.736   2.452   4.688  0.0600 -0.2394 -0.3308
 3305TIP3    H1 9921   5.801   2.382   4.695 -0.1625 -0.5089 -0.9084
 3305TIP3    H2 9922   5.780   2.529   4.726  0.2072 -0.7407  0.5546
 3306TIP3   OH2 9923   3.760   4.465   2.149 -0.2834  0.0016 -0.0206
 3306TIP3    H1 9924   3.757   4.400   2.079  0.8435 -0.8264  0.6708
 3306TIP3    H2 9925   3.723   4.420   2.225 -1.1878  0.7870  0.0325
 3307TIP3   OH2 9926   5.750   5.063   3.060  0.2375 -0.4210 -0.0658
 3307TIP3    H1 9927   5.680   5.030   3.117 -0.5426 -0.2639 -0.9018
 3307TIP3    H2 9928   5.733   5.020   2.976  0.7781  0.1089 -0.4449
 3308TIP3   OH2 9929   1.855   5.486   3.216 -0.4129  0.5265 -0.5992
 3308TIP3    H1 9930   1.815   5.404   3.247  2.2275 -1.7782 -2.6928
 3308TIP3    H2 9931   1.788   5.552   3.231 -2.9429 -2.0731  0.7408
 3309TIP3   OH2 9932   1.152   3.193   2.630  0.1019  0.4264  0.1641
 3309TIP3    H1 9933   1.159   3.219   2.538  2.4061 -0.2890  0.0819
 3309TIP3    H2 9934   1.128   3.100   2.627  1.6716 -0.0172  0.1889
 3310TIP3   OH2 9935   1.428   1.690   5.059 -0.8038  0.2679  0.7460
 3310TIP3    H1 9936   1.469   1.757   5.003 -0.3858  0.1869  0.9538
 3310TIP3    H2 9937   1.425   1.730   5.146  1.7544 -0.8964  1.4479
 3311TIP3   OH2 9938   1.387   4.897   4.899  0.6471  0.1511 -0.5622
 3311TIP3    H1 9939   1.371   4.804   4.885  2.5670 -0.0981 -1.3524
 3311TIP3    H2 9940   1.414   4.930   4.814 -1.3238  1.7785 -0.6334
 3312TIP3   OH2 9941   4.223   1.553   0.741 -0.2679 -0.0261  0.1296
 3312TIP3    H1 9942   4.270   1.627   0.779 -1.0074 -0.4997  2.1022
 3312TIP3    H2 9943   4.130   1.573   0.757 -0.6036 -0.4209 -1.1782
 3313TIP3   OH2 9944   5.582   4.820   3.873 -0.3518  0.2808 -0.3425
 3313TIP3    H1 9945   5.628   4.902   3.886  0.9326 -0.3488 -0.7671
 3313TIP3    H2 9946   5.610   4.789   3.787  2.9104 -2.8536  1.5660
 3314TIP3   OH2 9947   2.395   3.958   0.330  0.3043  0.3832  0.4609
 3314TIP3    H1 9948   2.438   3.981   0.413  1.8462  0.9542 -0.4661
 3314TIP3    H2 9949   2.465   3.922   0.276 -0.8420 -0.7364 -0.3407
 3315TIP3   OH2 9950   6.329   2.737   2.186 -0.1182  0.3781  0.0210
 3315TIP3    H1 9951   6.309   2.659   2.135 -0.6885  1.9699 -2.4162
 3315TIP3    H2 9952   6.245   2.783   2.192 -0.5018 -0.5245  4.0756
 3316TIP3   OH2 9953   1.802   0.141   1.539  0.3140  0.0142 -0.7667
 3316TIP3    H1 9954   1.827   0.143   1.631  2.2806 -0.4317 -1.2434
 3316TIP3    H2 9955   1.734   0.074   1.534  1.4501 -1.2722  0.1230
 3317TIP3   OH2 9956   2.031   3.418   2.010 -0.3748  0.2085  0.1832
 3317TIP3    H1 9957   2.066   3.384   1.927  0.9219  0.4364  0.6179
 3317TIP3    H2 9958   2.050   3.350   2.074 -1.9503 -0.2513  0.2060
 3318TIP3   OH2 9959   2.349   5.079   0.353 -0.5411 -0.2441  0.2923
 3318TIP3    H1 9960   2.359   5.035   0.438  1.8662  1.0798  0.8004
 3318TIP3    H2 9961   2.389   5.165   0.367  0.1153 -0.0718 -2.2576
 3319TIP3   OH2 9962   5.547   1.735   1.794  0.6131  0.2698 -0.3170
 3319TIP3    H1 9963   5.595   1.659   1.827  1.5755  1.2029  0.4720
 3319TIP3    H2 9964   5.484   1.756   1.862  0.0908 -0.0252 -0.6964
 3320TIP3   OH2 9965   2.452   4.268   2.396  0.4043 -0.3917  0.3937
 3320TIP3    H1 9966   2.453   4.183   2.441  0.2699 -0.5947  0.0206
 3320TIP3    H2 9967   2.543   4.283   2.371  0.2838 -0.8832 -0.3756
 3321TIP3   OH2 9968   1.706   5.678   1.249 -0.4147  0.1159 -0.4056
 3321TIP3    H1 9969   1.696   5.772   1.231 -0.7741 -0.0148 -0.9082
 3321TIP3    H2 9970   1.789   5.654   1.208  1.3960  0.8909  2.5144
 3322TIP3   OH2 9971   1.754   3.129   1.339 -0.0183  0.4875 -0.5706
 3322TIP3    H1 9972   1.820   3.142   1.407 -2.9345  1.0513  2.4690
 3322TIP3    H2 9973   1.749   3.213   1.294  0.0198  1.0992  0.5236
 3323TIP3   OH2 9974   1.241   5.792   4.262 -0.5194 -0.1054 -0.3823
 3323TIP3    H1 9975   1.214   5.729   4.329 -1.5177  1.9916  1.2865
 3323TIP3    H2 9976   1.212   5.877   4.295  1.5362  1.3899 -2.1252
 3324TIP3   OH2 9977   4.966   2.917   1.762 -0.1807 -0.1713 -0.1027
 3324TIP3    H1 9978   5.005   2.997   1.795 -1.4737 -0.4724  2.3592
 3324TIP3    H2 9979   4.918   2.880   1.836 -1.5055 -2.0566 -1.7619
 3325TIP3   OH2 9980   5.606   0.633   0.093  0.4655  0.1289  0.1663
 3325TIP3    H1 9981   5.624   0.670   0.179  0.4659 -0.5077  0.4486
 3325TIP3    H2 9982   5.637   0.543   0.100  1.4739  0.3765 -0.8401
 3326TIP3   OH2 9983   1.327   4.138   5.081  0.7947  0.8969 -0.0536
 3326TIP3    H1 9984   1.296   4.052   5.110  0.3580  1.1421  0.2202
 3326TIP3    H2 9985   1.380   4.170   5.154  1.2986  0.6829 -0.3257
 3327TIP3   OH2 9986   6.213   4.928   4.420  0.2118  0.1501  0.4569
 3327TIP3    H1 9987   6.250   4.900   4.504  2.5116  0.9508 -0.2135
 3327TIP3    H2 9988   6.138   4.871   4.407  0.9640 -1.3210  2.1430
 3328TIP3   OH2 9989   5.893   1.307   1.426  0.0523  1.0319  0.3105
 3328TIP3    H1 9990   5.843   1.227   1.408  1.0617  0.3867  0.2623
 3328TIP3    H2 9991   5.831   1.378   1.410 -0.6521  0.2857 -0.4106
 3329TIP3   OH2 9992   4.701   0.849   1.876  0.3890 -0.9064  0.4075
 3329TIP3    H1 9993   4.619   0.865   1.830 -0.6498  0.6328  2.5994
 3329TIP3    H2 9994   4.755   0.926   1.858  0.6332 -1.0763  0.4029
 3330TIP3   OH2 9995   5.882   0.651   0.606  0.3426 -0.8220  0.1154
 3330TIP3    H1 9996   5.972   0.676   0.582  0.2599 -1.4399 -0.9120
 3330TIP3    H2 9997   5.876   0.668   0.699  1.4320 -0.4602  0.1310
 3331TIP3   OH2 9998   3.731   4.212   1.944  0.0758 -0.0217  0.1568
 3331TIP3    H1 9999   3.791   4.278   1.910 -0.4947  1.3206  1.6266
 3331TIP3    H210000   3.777   4.129   1.932  1.8401  0.8713  0.4213
 3332TIP3   OH210001   3.406   0.511   1.635 -0.5523  0.5753  0.2212
 3332TIP3    H110002   3.320   0.544   1.609 -1.1301  1.2295  2.7011
 3332TIP3    H210003   3.443   0.579   1.691  0.6247 -0.6076  0.9616
 3333TIP3   OH210004   3.845   0.952   3.000  0.2792 -0.0441 -0.4465
 3333TIP3    H110005   3.753   0.925   2.989 -0.0553 -0.3608  2.5263
 3333TIP3    H210006   3.840   1.035   3.046  1.5129  0.4408 -1.1516
 3334TIP3   OH210007   1.671   1.028   3.258  0.3600  0.6187  0.1027
 3334TIP3    H110008   1.743   0.990   3.307  0.6472  0.6799 -0.2668
 3334TIP3    H210009   1.668   1.120   3.286 -0.9006  0.1520  1.6634
 3335TIP3   OH210010   1.721   0.303   0.491  0.3397  0.3682  0.1296
 3335TIP3    H110011   1.639   0.327   0.448 -0.3113 -1.1610  0.4595
 3335TIP3    H210012   1.786   0.306   0.421  0.1879  2.3170  0.0126
 3336TIP3   OH210013   0.713   2.805   1.740 -0.1113 -0.4776  0.0750
 3336TIP3    H110014   0.634   2.844   1.778  0.3129  0.7698 -0.3005
 3336TIP3    H210015   0.772   2.878   1.727  0.7941 -1.2880 -0.4479
 3337TIP3   OH210016   4.416   2.299   1.079 -0.3761 -0.2754  0.4627
 3337TIP3    H110017   4.464   2.243   1.018  0.4196 -0.3179  1.1114
 3337TIP3    H210018   4.448   2.387   1.062 -1.0743 -0.1078 -0.0336
 3338TIP3   OH210019   3.150   0.597   1.540 -0.2345 -0.3884 -0.4468
 3338TIP3    H110020   3.107   0.516   1.567 -1.5118  0.8224  1.4005
 3338TIP3    H210021   3.106   0.621   1.459 -0.5439 -1.0037 -0.4700
 3339TIP3   OH210022   1.885   4.722   4.008 -0.6365 -0.0931 -0.1938
 3339TIP3    H110023   1.822   4.650   4.010 -0.1037 -0.5857 -0.7628
 3339TIP3    H210024   1.836   4.796   3.970 -1.1604 -0.1689  0.3177
 3340TIP3   OH210025   4.071   0.712   2.121  0.3443 -0.3048  0.1696
 3340TIP3    H110026   4.134   0.782   2.137  0.5949 -0.1971 -1.1846
 3340TIP3    H210027   4.086   0.650   2.193  1.1863  0.2783  0.5175
 3341TIP3   OH210028   5.207   0.202   1.973  0.4903 -0.1438 -0.4869
 3341TIP3    H110029   5.184   0.168   1.887  0.1908  0.3471 -0.6022
 3341TIP3    H210030   5.303   0.194   1.977  0.5359  0.1253 -0.9864
 3342TIP3   OH210031   0.111   2.968   1.713 -0.2842 -0.3941  0.5264
 3342TIP3    H110032   0.104   2.942   1.805  0.2008 -0.9346  0.4195
 3342TIP3    H210033   0.170   2.903   1.675  1.5284  1.2291  0.3854
 3343TIP3   OH210034   4.412   1.153   4.119 -0.2128 -0.6212  0.1393
 3343TIP3    H110035   4.458   1.206   4.184 -1.1107 -0.4863  0.6972
 3343TIP3    H210036   4.476   1.089   4.089  1.1671  1.3109 -1.1907
 3344TIP3   OH210037   2.297   4.165   1.485  0.2530  0.0871 -0.5649
 3344TIP3    H110038   2.209   4.202   1.490  1.0019  1.9054 -0.1646
 3344TIP3    H210039   2.351   4.224   1.536  1.3937 -2.1094  0.9387
 3345TIP3   OH210040   5.356   0.227   4.884  0.5830  0.3609  0.0315
 3345TIP3    H110041   5.419   0.298   4.893 -0.3761  1.0613  1.5215
 3345TIP3    H210042   5.357   0.183   4.969  0.3595 -0.7545 -0.5140
 3346TIP3   OH210043   3.868   5.344   0.031  0.1116 -0.2984  0.0854
 3346TIP3    H110044   3.949   5.312   0.071 -0.6466 -0.0463  1.9123
 3346TIP3    H210045   3.816   5.375   0.104 -1.8522 -0.8877 -0.9900
 3347TIP3   OH210046   0.106   4.439   4.728 -0.4422  0.0459  0.5493
 3347TIP3    H110047   0.139   4.524   4.759  0.3812  0.8067 -2.1480
 3347TIP3    H210048   0.063   4.401   4.805  0.2727  2.3222  2.2014
 3348TIP3   OH210049   4.832   0.636   3.364  0.0820  0.3520 -0.2627
 3348TIP3    H110050   4.798   0.619   3.276  0.2492 -0.8859 -0.1008
 3348TIP3    H210051   4.816   0.730   3.378 -3.4650 -0.1669 -0.0720
 3349TIP3   OH210052   3.561   3.980   3.816  0.0080 -0.1752  0.6473
 3349TIP3    H110053   3.602   3.966   3.731 -2.0476  1.5616 -0.7540
 3349TIP3    H210054   3.626   3.950   3.880  2.6621  0.7494 -1.4222
 3350TIP3   OH210055   1.524   1.508   4.881  0.5251 -0.2381  0.1929
 3350TIP3    H110056   1.601   1.562   4.867  0.4205 -0.1225  0.0585
 3350TIP3    H210057   1.497   1.526   4.971  0.2129  0.2937 -0.0036
 3351TIP3   OH210058   4.155   2.031   0.403 -0.3151 -0.4843  0.0527
 3351TIP3    H110059   4.067   1.997   0.416  0.0926 -1.5662  0.1609
 3351TIP3    H210060   4.204   1.957   0.367  0.1908  0.5345 -1.4432
 3352TIP3   OH210061   3.115   2.607   3.030  0.3249 -0.6460  0.1784
 3352TIP3    H110062   3.199   2.634   3.067  0.5833 -1.5482  0.2730
 3352TIP3    H210063   3.074   2.556   3.099 -0.6134  0.3555  0.3851
 3353TIP3   OH210064   3.188   4.993   1.468  0.0719  0.4336  0.4232
 3353TIP3    H110065   3.244   5.067   1.491  2.8887 -0.2571 -3.2240
 3353TIP3    H210066   3.228   4.918   1.513  1.4767  0.1435 -1.2092
 3354TIP3   OH210067   3.735   0.542   1.760 -0.0745 -0.1597  0.0712
 3354TIP3    H110068   3.798   0.519   1.828  0.1674 -0.6976 -0.3313
 3354TIP3    H210069   3.652   0.552   1.807  0.0128 -0.9047  0.3873
 3355TIP3   OH210070   2.265   3.259   0.891 -0.3248  0.5312  0.1210
 3355TIP3    H110071   2.289   3.321   0.822 -1.3870  0.6536 -0.1620
 3355TIP3    H210072   2.346   3.246   0.941  0.3877  0.6868 -0.9489
 3356TIP3   OH210073   2.968   0.648   3.822  0.4854 -0.2642 -0.5524
 3356TIP3    H110074   3.049   0.614   3.786  1.6214  1.1319  0.5803
 3356TIP3    H210075   2.952   0.730   3.774  0.7021  0.3548  0.4000
 3357TIP3   OH210076   2.997   1.115   3.180 -0.4322  0.6036 -0.1446
 3357TIP3    H110077   3.055   1.083   3.110 -1.7395 -0.5809 -0.7515
 3357TIP3    H210078   3.054   1.167   3.237  1.1185 -0.1302 -0.9543
 3358TIP3   OH210079   3.074   2.618   0.272 -0.2503 -0.1979 -0.4328
 3358TIP3    H110080   3.029   2.681   0.328  2.1469  1.3509 -0.0951
 3358TIP3    H210081   3.155   2.662   0.248  0.8093 -2.5821 -1.4934
 3359TIP3   OH210082   4.871   5.439   1.948  0.0122  0.0813  0.0762
 3359TIP3    H110083   4.802   5.382   1.981  0.5240 -1.3283 -1.1592
 3359TIP3    H210084   4.826   5.504   1.894 -0.5921  0.9723  1.6074
 3360TIP3   OH210085   5.743   2.336   1.610 -0.6617  0.4728 -0.0387
 3360TIP3    H110086   5.765   2.359   1.519  1.3889  0.9253  0.5155
 3360TIP3    H210087   5.824   2.353   1.659 -1.0749 -1.7048  1.5358
 3361TIP3   OH210088   1.156   1.439   4.334 -0.0609 -0.2173 -0.3412
 3361TIP3    H110089   1.167   1.390   4.252  0.5649  1.4248 -1.2827
 3361TIP3    H210090   1.244   1.470   4.355 -0.4157  0.3657  0.3156
 3362TIP3   OH210091   4.981   5.829   4.815 -0.3041 -0.1389  0.2795
 3362TIP3    H110092   4.957   5.809   4.725 -0.7336  0.0430  0.3504
 3362TIP3    H210093   5.018   5.918   4.810 -0.7633  0.0604  0.3495
 3363TIP3   OH210094   3.692   1.121   3.880  0.5050 -0.2882  0.0738
 3363TIP3    H110095   3.787   1.124   3.887  0.4467 -0.4548  0.9794
 3363TIP3    H210096   3.668   1.033   3.907  0.1334 -0.4502 -0.7535
 3364TIP3   OH210097   2.579   2.869   4.814 -0.0791  0.2366  0.5253
 3364TIP3    H110098   2.613   2.937   4.872  1.2999 -0.6378  0.8159
 3364TIP3    H210099   2.611   2.787   4.852 -1.1690 -0.5383 -0.1537
 3365TIP3   OH210100   6.136   5.157   1.912  0.7798 -0.0373  0.2721
 3365TIP3    H110101   6.219   5.112   1.931  1.4374  1.0293  0.0494
 3365TIP3    H210102   6.162   5.232   1.858 -0.6736 -1.2009 -2.1685
 3366TIP3   OH210103   1.229   5.737   3.136  0.6678  0.1410  0.2356
 3366TIP3    H110104   1.317   5.762   3.108  0.9363 -0.0894  0.8657
 3366TIP3    H210105   1.226   5.642   3.126  0.1233  0.2592 -0.8053
 3367TIP3   OH210106   2.244   2.505   2.977 -0.2188 -0.2925  0.4211
 3367TIP3    H110107   2.317   2.484   2.919 -0.1071 -0.1396  0.5074
 3367TIP3    H210108   2.177   2.543   2.919  0.1783  0.5512  0.5035
 3368TIP3   OH210109   4.054   5.256   1.388 -0.2590  0.5235 -0.1615
 3368TIP3    H110110   3.998   5.180   1.372  1.8632 -0.8088 -1.6244
 3368TIP3    H210111   4.018   5.295   1.468 -3.4254 -0.0538 -1.1660
 3369TIP3   OH210112   4.305   5.849   0.183 -0.3117  0.0594  0.0414
 3369TIP3    H110113   4.380   5.859   0.124  1.0687 -0.7453  1.5514
 3369TIP3    H210114   4.291   5.754   0.188 -1.9028  0.2231 -0.7196
 3370TIP3   OH210115   3.799   5.966   5.016 -0.0723 -0.3564  0.8359
 3370TIP3    H110116   3.729   5.951   5.080  0.0405 -1.7330  0.6502
 3370TIP3    H210117   3.753   5.978   4.933 -0.2963  2.4845  1.2528
 3371TIP3   OH210118   3.058   5.070   3.806 -0.4388 -0.7050 -0.2883
 3371TIP3    H110119   2.966   5.069   3.833 -0.4234 -1.1437 -0.2483
 3371TIP3    H210120   3.079   4.978   3.788  0.4826 -0.8467  1.3465
 3372TIP3   OH210121   5.805   5.916   3.933  0.1705 -0.5295 -0.2523
 3372TIP3    H110122   5.871   5.980   3.960 -1.8426  1.0185  1.3791
 3372TIP3    H210123   5.755   5.899   4.013 -1.1630 -1.9562 -1.3317
 3373TIP3   OH210124   6.002   0.610   2.279 -0.0292  0.4068 -0.2782
 3373TIP3    H110125   6.071   0.550   2.253  0.0137  0.0384  0.6356
 3373TIP3    H210126   6.049   0.685   2.316 -0.0774  1.0946 -1.5488
 3374TIP3   OH210127   4.954   0.223   1.327  0.0564 -0.6160  0.0865
 3374TIP3    H110128   4.885   0.213   1.392  1.1899 -0.7215  1.3092
 3374TIP3    H210129   5.019   0.279   1.369  0.9532 -0.9215 -0.8459
 3375TIP3   OH210130   2.368   1.255   0.340 -0.0615 -0.1784  0.1166
 3375TIP3    H110131   2.288   1.210   0.366 -0.3612 -0.0839 -0.6192
 3375TIP3    H210132   2.431   1.185   0.324 -0.7820 -0.4405 -1.9051
 3376TIP3   OH210133   0.505   4.063   1.476 -0.1611  0.6838  0.2430
 3376TIP3    H110134   0.514   4.104   1.391 -0.0571 -0.2504 -0.2084
 3376TIP3    H210135   0.564   3.988   1.473 -1.0601 -0.0655  0.6837
 3377TIP3   OH210136   1.911   1.360   2.794 -0.0787 -0.1664  0.5838
 3377TIP3    H110137   1.850   1.292   2.822  0.1336 -0.5288  0.1684
 3377TIP3    H210138   1.906   1.425   2.864 -1.6548  0.2837  0.0903
 3378TIP3   OH210139   5.250   1.078   1.481 -0.2333  0.0954  0.4296
 3378TIP3    H110140   5.259   1.105   1.573 -2.9240 -0.5784  0.9820
 3378TIP3    H210141   5.219   0.987   1.486  2.0943 -0.8687 -1.2481
 3379TIP3   OH210142   4.743   1.760   2.192  0.1674  0.6648 -0.5299
 3379TIP3    H110143   4.733   1.838   2.138 -1.6230 -0.6929 -2.3188
 3379TIP3    H210144   4.812   1.710   2.147  1.0114  0.9909  0.3708
 3380TIP3   OH210145   3.482   2.114   3.316  0.2512 -0.1848 -0.2562
 3380TIP3    H110146   3.531   2.053   3.261  0.0487 -0.2981 -0.3117
 3380TIP3    H210147   3.392   2.081   3.315 -0.3153  1.2423 -1.9438
 3381TIP3   OH210148   0.386   3.833   4.708 -0.0209  1.0125 -0.0546
 3381TIP3    H110149   0.343   3.831   4.622 -2.2648  1.2538  0.9952
 3381TIP3    H210150   0.320   3.870   4.767  1.4794  0.8969  1.7809
 3382TIP3   OH210151   1.004   4.761   3.127  0.4223 -0.2882  0.1505
 3382TIP3    H110152   0.910   4.777   3.132  0.8846  2.4085  3.9008
 3382TIP3    H210153   1.020   4.692   3.191  1.1086  0.0958  0.4032
 3383TIP3   OH210154   1.423   5.115   3.077  0.1967  0.0789  0.2374
 3383TIP3    H110155   1.371   5.076   3.147 -0.1050  1.3240  0.7354
 3383TIP3    H210156   1.455   5.197   3.114  2.5826 -0.6451 -0.0457
 3384TIP3   OH210157   0.705   0.990   1.438  0.5060  0.0521  0.3191
 3384TIP3    H110158   0.727   0.897   1.435 -0.7159 -0.2445 -2.6402
 3384TIP3    H210159   0.624   0.993   1.489 -1.5224 -1.1425 -2.5563
 3385TIP3   OH210160   1.397   1.225   4.428 -0.3950  0.0960 -0.1206
 3385TIP3    H110161   1.306   1.254   4.429 -0.0778  1.1595  1.1985
 3385TIP3    H210162   1.431   1.250   4.514  0.7496 -1.6136 -0.0253
 3386TIP3   OH210163   1.992   2.133   0.160  0.3807 -0.4835  0.4832
 3386TIP3    H110164   1.948   2.202   0.210  0.1169 -0.3533  0.0678
 3386TIP3    H210165   2.085   2.150   0.173  0.3149  0.0597  0.2231
 3387TIP3   OH210166   0.503   1.917   2.183 -0.0084  0.0730  0.5817
 3387TIP3    H110167   0.545   1.921   2.098 -0.6186 -1.7539  0.1410
 3387TIP3    H210168   0.419   1.961   2.170 -0.0976 -0.1939  0.2340
 3388TIP3   OH210169   5.948   5.401   3.466  0.2101 -0.2305 -0.5266
 3388TIP3    H110170   5.915   5.324   3.421  1.4370 -0.9723 -0.1971
 3388TIP3    H210171   5.870   5.445   3.500 -0.7823  0.3487 -3.3013
 3389TIP3   OH210172   0.790   1.155   1.734  0.2147 -0.0001  0.2168
 3389TIP3    H110173   0.872   1.129   1.775 -0.2049 -0.5328  0.7365
 3389TIP3    H210174   0.731   1.172   1.807  0.3459  2.0871 -0.0946
 3390TIP3   OH210175   1.127   0.458   0.326  0.8556 -0.1390  0.8355
 3390TIP3    H110176   1.197   0.506   0.281 -1.1863  0.3096 -2.1315
 3390TIP3    H210177   1.135   0.369   0.293 -1.2584  0.4010 -1.3829
 3391TIP3   OH210178   0.478   1.693   4.055 -0.4171 -0.6681 -0.6717
 3391TIP3    H110179   0.402   1.729   4.102  0.4449 -0.7616  0.8569
 3391TIP3    H210180   0.517   1.769   4.011  0.1659 -0.0833  0.8028
 3392TIP3   OH210181   2.832   1.231   2.780  0.0297 -0.0830  0.1779
 3392TIP3    H110182   2.784   1.309   2.809  0.6293  0.5742 -0.5366
 3392TIP3    H210183   2.788   1.158   2.823  0.4913  0.7778  2.1956
 3393TIP3   OH210184   3.369   3.127   3.466 -0.4429 -0.2015  0.2925
 3393TIP3    H110185   3.459   3.101   3.450 -0.6148 -2.6223  2.5770
 3393TIP3    H210186   3.353   3.104   3.557 -1.8176  5.0335  1.7647
 3394TIP3   OH210187   0.141   5.061   4.351  0.0591 -0.1279 -0.3676
 3394TIP3    H110188   0.198   4.984   4.341  0.3709  0.0285  0.1916
 3394TIP3    H210189   0.057   5.025   4.379 -0.8662 -0.5989 -3.3879
 3395TIP3   OH210190   5.476   0.438   5.042 -0.3409 -0.1349 -0.0316
 3395TIP3    H110191   5.530   0.428   5.121 -1.3925  1.8683  1.0224
 3395TIP3    H210192   5.386   0.434   5.073 -0.8416  3.7755 -0.4986
 3396TIP3   OH210193   0.514   0.910   2.615  0.3574 -0.1087  0.2408
 3396TIP3    H110194   0.443   0.923   2.677  0.4063  1.6587 -0.0326
 3396TIP3    H210195   0.516   0.815   2.601 -1.0334 -0.3284  1.2901
 3397TIP3   OH210196   3.021   3.534   1.376  0.1672  0.4469 -0.0797
 3397TIP3    H110197   3.062   3.450   1.357 -1.8516 -0.7175  0.3900
 3397TIP3    H210198   3.017   3.538   1.472  1.6202  1.8310 -0.0367
 3398TIP3   OH210199   0.320   2.941   3.082 -0.0951 -0.1391 -0.5006
 3398TIP3    H110200   0.241   2.935   3.028 -1.3216  0.3605  1.1623
 3398TIP3    H210201   0.342   2.850   3.103 -0.2973 -0.2758 -0.8798
 3399TIP3   OH210202   1.558   4.485   3.201  0.1088 -0.0818 -0.4779
 3399TIP3    H110203   1.649   4.496   3.173  0.3419  0.1872  0.3370
 3399TIP3    H210204   1.521   4.573   3.197 -0.3425 -0.3038 -1.5117
 3400TIP3   OH210205   3.204   1.086   5.097  0.4741  0.3293 -0.3797
 3400TIP3    H110206   3.167   1.039   5.023 -1.2165 -0.8941  1.1630
 3400TIP3    H210207   3.197   1.025   5.171  0.6051  2.0520  1.1315
 3401TIP3   OH210208   4.046   2.241   3.314 -0.6379  0.5809 -0.3991
 3401TIP3    H110209   4.098   2.247   3.394  0.2001  0.8164 -0.9518
 3401TIP3    H210210   4.110   2.242   3.243 -1.3905  0.7603 -1.0931
 3402TIP3   OH210211   3.358   2.311   4.139  0.3166  0.0389 -0.3109
 3402TIP3    H110212   3.414   2.316   4.216 -0.6787  0.9138  0.3916
 3402TIP3    H210213   3.359   2.399   4.102 -1.1206  0.2740  0.1281
 3403TIP3   OH210214   2.467   5.830   4.031 -0.1392  0.4584 -0.1150
 3403TIP3    H110215   2.436   5.773   4.101 -0.6384 -0.6919 -1.2264
 3403TIP3    H210216   2.520   5.896   4.075  1.9830 -1.9008  1.1233
 3404TIP3   OH210217   2.267   0.125   1.067  0.0734  0.1480 -0.3927
 3404TIP3    H110218   2.301   0.211   1.039 -2.0929  1.7780  1.6152
 3404TIP3    H210219   2.174   0.128   1.045  0.1066 -2.0883 -1.0355
 3405TIP3   OH210220   1.279   0.591   3.217  0.8711 -0.5013 -0.3634
 3405TIP3    H110221   1.293   0.612   3.124  3.3201  1.7325  0.3676
 3405TIP3    H210222   1.364   0.561   3.248  0.4362 -0.0379  1.4004
 3406TIP3   OH210223   0.313   0.431   1.888 -0.9952 -0.0987 -0.3532
 3406TIP3    H110224   0.322   0.500   1.822 -0.7449 -0.4183 -0.6545
 3406TIP3    H210225   0.280   0.476   1.965 -1.7282  0.2031 -0.8335
 3407TIP3   OH210226   4.572   2.913   1.577  0.0922  0.3009  0.2051
 3407TIP3    H110227   4.511   2.983   1.602 -0.1612  0.3542 -0.5120
 3407TIP3    H210228   4.583   2.861   1.656  0.0499  0.9856  0.6672
 3408TIP3   OH210229   0.268   0.367   4.148 -0.1851  0.3588 -0.2877
 3408TIP3    H110230   0.318   0.369   4.229  0.6810 -1.2026 -0.7242
 3408TIP3    H210231   0.184   0.328   4.172  0.7950 -2.0226 -0.4104
 3409TIP3   OH210232   5.783   5.529   0.556  0.6037 -0.2396  0.3521
 3409TIP3    H110233   5.710   5.494   0.505 -0.6000 -0.5522  2.2032
 3409TIP3    H210234   5.860   5.486   0.519 -0.1722 -0.3561 -1.2580
 3410TIP3   OH210235   2.089   1.181   1.316  0.7163 -0.0168  0.0518
 3410TIP3    H110236   2.133   1.147   1.238  0.4521  0.3164 -0.2485
 3410TIP3    H210237   2.153   1.240   1.356 -0.0459  1.8743 -1.3652
 3411TIP3   OH210238   2.575   2.829   1.646  0.4352 -0.3662 -0.0511
 3411TIP3    H110239   2.631   2.877   1.585  0.5888  0.7620  0.9587
 3411TIP3    H210240   2.617   2.743   1.654  0.8105 -0.2816 -0.9603
 3412TIP3   OH210241   5.297   2.197   0.556  0.0661 -0.4368 -0.1324
 3412TIP3    H110242   5.322   2.288   0.542 -3.0648  0.9324  1.8942
 3412TIP3    H210243   5.227   2.182   0.492 -2.0660  0.0174  1.9148
 3413TIP3   OH210244   5.656   2.148   0.064 -0.1003  0.2398 -0.4950
 3413TIP3    H110245   5.581   2.131   0.008  1.8782 -0.3753 -3.1622
 3413TIP3    H210246   5.622   2.140   0.153 -3.4894  1.6281 -1.5180
 3414TIP3   OH210247   2.328   0.983   4.998  0.4042 -0.2082 -0.2216
 3414TIP3    H110248   2.421   1.004   5.003  0.4035  0.0464 -1.0777
 3414TIP3    H210249   2.290   1.054   4.946 -0.3322 -0.1289  0.4123
 3415TIP3   OH210250   2.613   0.356   1.835 -0.2916  0.1604  0.0427
 3415TIP3    H110251   2.632   0.396   1.750  2.2446  1.9148  1.3170
 3415TIP3    H210252   2.688   0.299   1.852 -1.3848 -1.1824  0.5853
 3416TIP3   OH210253   0.096   2.329   2.066 -0.1071 -0.2520  0.5107
 3416TIP3    H110254   0.047   2.281   2.133 -0.7106 -0.6083 -0.1596
 3416TIP3    H210255   0.179   2.352   2.108  0.3679 -2.2059  0.7706
 3417TIP3   OH210256   0.881   0.559   1.217 -0.4741  0.6956 -0.1413
 3417TIP3    H110257   0.835   0.508   1.283 -2.8804 -0.5176 -2.5514
 3417TIP3    H210258   0.970   0.523   1.215 -1.2296 -1.3074  0.3736
 3418TIP3   OH210259   0.009   4.921   2.702 -0.4539 -0.3535  0.3738
 3418TIP3    H110260   0.070   4.912   2.629 -1.6427 -1.3961 -0.5545
 3418TIP3    H210261  -0.051   4.847   2.692 -1.4133  0.2078  1.6692
 3419TIP3   OH210262   1.751   0.031   0.675 -0.1878  0.0346 -0.5791
 3419TIP3    H110263   1.757  -0.060   0.645  0.4993 -0.1031 -0.0306
 3419TIP3    H210264   1.795   0.082   0.607 -0.4570 -0.0439 -0.8202
 3420TIP3   OH210265   4.028   1.747   3.873 -0.6801  0.0792 -0.4719
 3420TIP3    H110266   3.997   1.695   3.799  0.2961  1.2341 -1.7606
 3420TIP3    H210267   4.061   1.827   3.833  1.5207  0.0091  1.0091
 3421TIP3   OH210268   1.355   0.072   3.752 -0.0729 -0.6115  0.2713
 3421TIP3    H110269   1.362   0.155   3.799  3.5769 -0.0744 -0.9229
 3421TIP3    H210270   1.333   0.008   3.819 -2.2541  1.1299  1.3377
 3422TIP3   OH210271   3.504   2.893   0.298  0.3894  0.1063  0.2638
 3422TIP3    H110272   3.592   2.894   0.259 -0.2155 -0.5619 -1.1656
 3422TIP3    H210273   3.471   2.982   0.286  0.3514  0.0013 -0.4290
 3423TIP3   OH210274   5.222   3.924   0.104  0.1739 -0.3980 -0.3613
 3423TIP3    H110275   5.179   3.844   0.073 -0.9377 -0.5917  1.5015
 3423TIP3    H210276   5.250   3.902   0.193  0.9696  0.8966 -0.2823
 3424TIP3   OH210277   0.074   4.750   0.421  0.2518 -0.9360  0.3225
 3424TIP3    H110278   0.053   4.669   0.374  0.6191 -0.5178 -0.5824
 3424TIP3    H210279   0.163   4.735   0.454  0.3162 -0.9046  0.1639
 3425TIP3   OH210280   4.145   4.059   0.875  0.2710 -0.0645 -0.2874
 3425TIP3    H110281   4.104   4.116   0.940 -0.1746  0.0888 -0.6914
 3425TIP3    H210282   4.081   4.056   0.803  0.7579 -0.2275 -0.7165
 3426TIP3   OH210283   4.182   0.733   0.676 -0.3707  0.5992  0.4760
 3426TIP3    H110284   4.113   0.788   0.713 -0.1161  1.6022 -0.4869
 3426TIP3    H210285   4.137   0.653   0.648 -1.2514  1.4020 -0.5228
 3427TIP3   OH210286   2.429   5.891   1.068  0.4298  0.1776 -0.0923
 3427TIP3    H110287   2.458   5.982   1.066  1.1751 -0.0549 -0.2200
 3427TIP3    H210288   2.390   5.876   0.982  0.1726  0.4122 -0.0192
 3428TIP3   OH210289   6.165   4.145   0.969  0.7143 -0.2157 -0.3702
 3428TIP3    H110290   6.115   4.222   0.996 -0.3506 -1.2640  0.7738
 3428TIP3    H210291   6.193   4.105   1.051  2.1464 -0.5036 -0.9725
 3429TIP3   OH210292   1.443   2.683   1.225 -0.1653  0.1423  0.0312
 3429TIP3    H110293   1.395   2.683   1.308  2.2653 -0.6759  1.5155
 3429TIP3    H210294   1.516   2.744   1.238 -0.2426  0.7361 -1.8761
 3430TIP3   OH210295   2.406   2.369   2.788  0.7080  0.2293  0.1468
 3430TIP3    H110296   2.439   2.304   2.850  2.9111  0.5358 -0.5928
 3430TIP3    H210297   2.481   2.388   2.732 -0.3540  2.1994 -0.7045
 3431TIP3   OH210298   4.937   5.131   1.085 -0.8247  0.0368  0.5872
 3431TIP3    H110299   5.025   5.153   1.115 -0.3238  0.8859 -1.2953
 3431TIP3    H210300   4.890   5.215   1.088 -1.6445 -0.4497  1.7581
 3432TIP3   OH210301   2.821   3.492   0.663  0.1377 -0.1853  0.0050
 3432TIP3    H110302   2.787   3.455   0.582  1.7918 -1.8233 -0.0275
 3432TIP3    H210303   2.912   3.513   0.644 -0.0792  1.6408  0.7876
 3433TIP3   OH210304   1.056   4.286   1.121 -0.2000 -0.2956  0.4919
 3433TIP3    H110305   0.980   4.279   1.063 -0.7965 -2.4729  1.4124
 3433TIP3    H210306   1.044   4.214   1.183  1.6835  0.4554  1.7998
 3434TIP3   OH210307   1.637   0.945   4.810  0.2211 -0.6824  0.1411
 3434TIP3    H110308   1.733   0.952   4.804  0.1804 -0.5616 -0.4749
 3434TIP3    H210309   1.614   0.877   4.746 -0.0448 -1.2084  0.7909
 3435TIP3   OH210310   0.705   1.318   4.553 -0.6123 -0.4528  0.0303
 3435TIP3    H110311   0.657   1.237   4.570  0.8630 -2.2842 -3.5086
 3435TIP3    H210312   0.793   1.289   4.527  0.8000  2.4881  1.0691
 3436TIP3   OH210313   4.963   2.179   3.735 -0.2419 -0.2304  0.0252
 3436TIP3    H110314   5.012   2.156   3.656  2.1167  0.4930  1.1854
 3436TIP3    H210315   4.947   2.096   3.779  1.2411 -0.3854  0.3176
 3437TIP3   OH210316   3.774   2.736   1.281 -0.0448  0.4476 -0.0530
 3437TIP3    H110317   3.737   2.682   1.211  1.5742 -0.7152 -0.0730
 3437TIP3    H210318   3.867   2.714   1.280 -0.2325 -1.2962  3.8789
 3438TIP3   OH210319   0.073   4.112   5.177 -0.4785  0.6814 -0.7021
 3438TIP3    H110320   0.024   4.145   5.253 -1.1892  0.5023 -1.0727
 3438TIP3    H210321   0.006   4.075   5.120  0.0883  0.5196 -1.2714
 3439TIP3   OH210322   3.216   3.652   4.528  0.2942 -0.1050  0.0350
 3439TIP3    H110323   3.266   3.577   4.562 -0.1364 -0.2507  0.3496
 3439TIP3    H210324   3.133   3.614   4.499  0.2531  0.1825 -0.2280
 3440TIP3   OH210325   4.381   4.647   2.979  0.2663  0.3617  0.1611
 3440TIP3    H110326   4.407   4.689   2.896  0.0830 -0.3363 -0.2550
 3440TIP3    H210327   4.334   4.716   3.026 -0.9784  0.3352 -0.9847
 3441TIP3   OH210328   4.591   1.983   2.764  0.1485  0.4292 -0.0714
 3441TIP3    H110329   4.619   2.038   2.837  0.2066  0.7825 -0.3569
 3441TIP3    H210330   4.507   2.020   2.737  0.2675  0.4809 -0.3717
 3442TIP3   OH210331   1.095   1.328   0.820  0.0496  0.6623 -0.0289
 3442TIP3    H110332   1.040   1.402   0.795  1.4293  2.4984  2.0101
 3442TIP3    H210333   1.040   1.277   0.879 -0.5227  0.6579 -0.5478
 3443TIP3   OH210334   2.218   0.101   4.524  0.1619  0.1458  0.4828
 3443TIP3    H110335   2.150   0.134   4.583  0.7003  0.3030  1.0242
 3443TIP3    H210336   2.179   0.108   4.436 -0.7698 -0.3900  0.8338
 3444TIP3   OH210337   3.190   1.672   0.115 -0.0015 -0.0635 -0.5551
 3444TIP3    H110338   3.116   1.724   0.149 -0.7353 -1.3894 -0.0480
 3444TIP3    H210339   3.189   1.592   0.167  2.6378  0.4068  0.3775
 3445TIP3   OH210340   1.958   0.740   0.696  0.1024 -0.0735  0.2245
 3445TIP3    H110341   1.879   0.736   0.749 -0.1567 -0.5137 -0.1854
 3445TIP3    H210342   2.009   0.663   0.722  0.3278  0.1270  0.3814
 3446TIP3   OH210343   3.682   4.807   1.138 -0.0409  0.3533  0.7806
 3446TIP3    H110344   3.632   4.812   1.056  1.4003 -0.8302 -0.2186
 3446TIP3    H210345   3.758   4.863   1.124  0.8330 -0.7815  0.8199
 3447TIP3   OH210346   5.636   3.618   4.867 -0.0375 -0.0875  0.1181
 3447TIP3    H110347   5.696   3.638   4.939 -0.5766 -1.8385  1.1110
 3447TIP3    H210348   5.600   3.703   4.841 -0.1932  0.5555  2.2459
 3448TIP3   OH210349   2.272   1.874   4.569 -0.0354 -0.1767 -0.3982
 3448TIP3    H110350   2.344   1.937   4.571  1.7774 -2.1492 -0.2103
 3448TIP3    H210351   2.277   1.835   4.482 -1.2340 -0.0043 -0.5695
 3449TIP3   OH210352   5.445   3.036   0.746  0.3988 -0.3612 -0.5309
 3449TIP3    H110353   5.384   3.064   0.814 -0.2046 -2.4514 -0.1220
 3449TIP3    H210354   5.389   3.004   0.675  1.0294  0.0148 -1.2092
 3450TIP3   OH210355   2.248   5.402   3.316 -0.5976 -0.3013 -0.4012
 3450TIP3    H110356   2.336   5.439   3.321 -0.7821  0.0337  0.6488
 3450TIP3    H210357   2.239   5.373   3.225 -0.5208  2.4278 -1.3573
 3451TIP3   OH210358   2.651   5.088   1.204 -0.5777 -0.3991  0.0890
 3451TIP3    H110359   2.687   5.176   1.204 -0.3905 -0.4729  0.7887
 3451TIP3    H210360   2.613   5.077   1.290  0.0516 -1.2626  0.2777
 3452TIP3   OH210361   3.257   0.856   1.198 -0.0446 -0.3697  0.4334
 3452TIP3    H110362   3.246   0.843   1.293 -2.1686  2.5297  0.7370
 3452TIP3    H210363   3.209   0.936   1.180 -0.9688 -1.5854 -3.4010
 3453TIP3   OH210364   5.886   2.328   1.060 -0.4079  0.5957 -0.1340
 3453TIP3    H110365   5.865   2.279   1.139  0.3339  1.7886  0.8406
 3453TIP3    H210366   5.807   2.378   1.041 -1.2440 -1.0410 -1.2537
 3454TIP3   OH210367   0.554   4.953   0.847 -0.2089  0.5706  0.0946
 3454TIP3    H110368   0.475   4.903   0.824 -0.5333  0.4967  1.3131
 3454TIP3    H210369   0.524   5.043   0.855 -0.1323  0.5718  0.3705
 3455TIP3   OH210370   2.000   3.719   0.746  0.2681  0.2583  0.3646
 3455TIP3    H110371   2.048   3.643   0.712  1.4216 -0.1368  2.7295
 3455TIP3    H210372   2.013   3.787   0.680  2.3914 -0.4695 -0.0369
 3456TIP3   OH210373   1.765   2.841   1.224  0.2129 -0.0692 -0.2373
 3456TIP3    H110374   1.730   2.916   1.271  0.3295  0.0683 -0.3687
 3456TIP3    H210375   1.823   2.798   1.287  0.4473  0.1724 -0.2852
 3457TIP3   OH210376   1.836   1.874   1.839  0.3758 -0.2149  0.3255
 3457TIP3    H110377   1.906   1.925   1.799 -0.7083 -0.4112 -2.0015
 3457TIP3    H210378   1.871   1.785   1.844  0.4255 -0.2644 -0.6071
 3458TIP3   OH210379   2.266   5.274   2.344  0.1786 -0.1393  0.1167
 3458TIP3    H110380   2.244   5.259   2.252  0.8100 -0.2041 -0.0284
 3458TIP3    H210381   2.195   5.233   2.392  1.2652 -2.7052 -0.2978
 3459TIP3   OH210382   5.235   5.722   3.640 -0.3836  0.1135  0.0516
 3459TIP3    H110383   5.206   5.805   3.602  0.7558  0.2863 -0.4726
 3459TIP3    H210384   5.184   5.656   3.593  0.3141  0.3893 -1.1590
 3460TIP3   OH210385   6.204   5.890   3.132 -0.1082 -0.7341  0.3613
 3460TIP3    H110386   6.195   5.810   3.080 -0.7394  0.4503 -1.4037
 3460TIP3    H210387   6.292   5.883   3.169  0.4145 -1.5674 -0.9533
 3461TIP3   OH210388   0.223   3.868   2.559 -0.2657 -0.0414  0.2153
 3461TIP3    H110389   0.189   3.835   2.476 -1.4874  1.3416  0.1280
 3461TIP3    H210390   0.301   3.918   2.535 -1.1776  1.2155 -0.2758
 3462TIP3   OH210391   2.415   4.465   4.124  0.1317 -0.4262 -0.1535
 3462TIP3    H110392   2.464   4.400   4.073  1.4762  0.8951 -0.6317
 3462TIP3    H210393   2.372   4.415   4.192  2.5874 -1.6671  0.6043
 3463TIP3   OH210394   3.278   4.520   4.006 -0.7652  0.0629  0.4333
 3463TIP3    H110395   3.367   4.545   4.030  0.8555 -4.0603 -0.4436
 3463TIP3    H210396   3.266   4.553   3.918  0.8576 -1.1822 -0.3060
 3464TIP3   OH210397   0.636   1.412   1.825  0.4948  0.1269  0.5217
 3464TIP3    H110398   0.546   1.442   1.812  0.5756 -0.2481 -1.0653
 3464TIP3    H210399   0.675   1.477   1.884 -0.0888  1.7349 -0.7891
 3465TIP3   OH210400   0.898   2.906   2.341 -0.2336 -0.2072 -0.1324
 3465TIP3    H110401   0.848   2.884   2.262 -2.2341  1.6684  0.5180
 3465TIP3    H210402   0.943   2.988   2.319  0.9054 -0.7745  0.0064
 3466TIP3   OH210403   4.468   0.291   4.839  0.5065  0.1207 -0.2440
 3466TIP3    H110404   4.509   0.236   4.772  1.0374  0.7862 -0.4742
 3466TIP3    H210405   4.387   0.245   4.860  0.4368 -0.2243 -1.1792
 3467TIP3   OH210406   0.825   4.471   1.166 -0.1210 -1.1207  0.6779
 3467TIP3    H110407   0.912   4.438   1.142 -0.7017 -1.3341 -1.2750
 3467TIP3    H210408   0.836   4.566   1.171  0.2141 -1.1441  0.4382
 3468TIP3   OH210409   1.342   4.185   3.205  0.2396  0.6925  0.0756
 3468TIP3    H110410   1.436   4.199   3.196  1.2816 -5.2104 -3.3297
 3468TIP3    H210411   1.334   4.121   3.276 -1.3113  1.2454  0.4482
 3469TIP3   OH210412   1.234   4.131   4.631 -0.3080 -0.0836 -0.9292
 3469TIP3    H110413   1.213   4.060   4.692 -1.1335  1.4180  0.5895
 3469TIP3    H210414   1.184   4.110   4.552 -3.5192  0.6618  0.7615
 3470TIP3   OH210415   1.862   4.958   5.113  0.2424  0.1703  0.1308
 3470TIP3    H110416   1.887   5.048   5.134  0.9760 -0.4974  2.4386
 3470TIP3    H210417   1.767   4.959   5.116  0.2358  0.8849  0.0139
 3471TIP3   OH210418   1.973   3.594   2.487  0.7795  0.3498  0.1628
 3471TIP3    H110419   1.878   3.607   2.489  0.5178 -1.1301 -1.0445
 3471TIP3    H210420   1.987   3.531   2.417  2.7882  1.5459 -0.5869
 3472TIP3   OH210421   0.776   1.354   3.994  0.6120  0.1027  0.1632
 3472TIP3    H110422   0.861   1.325   3.961  0.0882 -0.0372 -1.1322
 3472TIP3    H210423   0.729   1.272   4.013  0.4461  0.1607  0.0066
 3473TIP3   OH210424   2.747   0.611   2.484  0.0305 -0.2345  0.1987
 3473TIP3    H110425   2.698   0.633   2.404  0.2203  1.5108  0.5099
 3473TIP3    H210426   2.718   0.523   2.507 -0.0845 -0.7493 -1.7409
 3474TIP3   OH210427   4.236   2.268   1.304 -0.3992 -0.1110  0.2705
 3474TIP3    H110428   4.214   2.356   1.336 -0.1972  0.8341 -1.9384
 3474TIP3    H210429   4.313   2.282   1.248  0.8272 -2.0374  1.3766
 3475TIP3   OH210430   5.121   5.110   2.904 -0.2323  0.3672 -0.3847
 3475TIP3    H110431   5.061   5.147   2.969 -1.5812  0.9160 -1.8657
 3475TIP3    H210432   5.064   5.060   2.845  0.8027  0.7378 -1.7348
 3476TIP3   OH210433   5.650   1.174   1.630 -0.0291  0.8867 -0.3142
 3476TIP3    H110434   5.701   1.144   1.555 -0.2142 -0.2800  0.0153
 3476TIP3    H210435   5.562   1.188   1.595 -0.8915 -2.4711  0.2104
 3477TIP3   OH210436   5.760   3.753   4.407 -0.7830  0.5149 -0.4708
 3477TIP3    H110437   5.666   3.749   4.386 -0.8875  1.6902 -0.2872
 3477TIP3    H210438   5.765   3.805   4.487 -0.1716 -1.8821  1.1647
 3478TIP3   OH210439   5.000   3.298   2.854 -0.7144  0.0634 -0.8794
 3478TIP3    H110440   5.059   3.284   2.780  0.9110 -0.0680  0.4022
 3478TIP3    H210441   5.044   3.362   2.909 -1.9741  0.2879 -0.0938
 3479TIP3   OH210442   4.781   3.197   2.990 -0.3869  0.2940 -0.2091
 3479TIP3    H110443   4.765   3.131   2.922  1.3437 -0.4251  0.0195
 3479TIP3    H210444   4.844   3.257   2.950  0.2237  0.1803  0.5679
 3480TIP3   OH210445   1.203   5.463   2.479 -0.1544 -0.0238 -0.4108
 3480TIP3    H110446   1.207   5.464   2.383 -0.6574 -1.2662 -0.4736
 3480TIP3    H210447   1.189   5.370   2.501  0.1805  0.2098  0.8756
 3481TIP3   OH210448   3.286   4.049   1.501 -0.5418 -0.0261 -0.2313
 3481TIP3    H110449   3.241   4.031   1.418 -0.1533 -0.2868 -0.3852
 3481TIP3    H210450   3.326   3.966   1.526  0.7945  0.4714 -0.6579
 3482TIP3   OH210451   4.594   1.884   0.208 -0.1154 -0.5951  0.3179
 3482TIP3    H110452   4.534   1.813   0.185 -3.0664  1.6911  0.3388
 3482TIP3    H210453   4.626   1.917   0.123  0.4277 -1.2399  0.2643
 3483TIP3   OH210454   2.133   5.920   0.052  0.6795 -0.0848  0.6594
 3483TIP3    H110455   2.157   5.886   0.138  2.0191 -1.8205 -0.3529
 3483TIP3    H210456   2.175   6.006   0.048  0.6790 -0.0173  1.6867
 3484TIP3   OH210457   5.635   5.218   4.256  0.1570  0.4231 -0.0416
 3484TIP3    H110458   5.566   5.154   4.276 -0.6464  1.4474  0.6108
 3484TIP3    H210459   5.602   5.264   4.179  1.3438 -0.7862 -1.3161
 3485TIP3   OH210460   3.490   2.076   1.521  0.2231 -0.2329 -0.2320
 3485TIP3    H110461   3.483   2.172   1.518 -0.9842 -0.2687  0.8170
 3485TIP3    H210462   3.578   2.058   1.487  0.7548  1.2825  0.2418
 3486TIP3   OH210463   2.189   0.057   4.913 -0.2331  0.6332 -0.6471
 3486TIP3    H110464   2.201   0.147   4.885  1.4534  0.9013  0.8121
 3486TIP3    H210465   2.256   0.043   4.980  0.6053 -2.1844 -1.9212
 3487TIP3   OH210466   3.549   1.867   2.210  0.1577  0.0687  0.1974
 3487TIP3    H110467   3.578   1.920   2.285  2.0611 -1.0997  0.3440
 3487TIP3    H210468   3.453   1.867   2.216  0.0098  3.5619  0.1086
 3488TIP3   OH210469   3.927   2.633   2.079 -0.0997  1.0112 -0.2406
 3488TIP3    H110470   3.852   2.585   2.114 -0.6116  3.0657  1.6953
 3488TIP3    H210471   4.003   2.581   2.105 -0.7314 -0.8525 -1.8250
 3489TIP3   OH210472   3.485   4.227   0.569 -0.2732 -0.1452  0.0302
 3489TIP3    H110473   3.510   4.308   0.526 -0.5048 -0.0277  0.1157
 3489TIP3    H210474   3.523   4.158   0.514 -0.5998  0.0018 -0.3863
 3490TIP3   OH210475   0.994   1.391   2.745 -0.2917  0.2678  0.0259
 3490TIP3    H110476   0.943   1.311   2.757 -1.3677  0.6002 -2.0038
 3490TIP3    H210477   0.935   1.461   2.774 -0.0121  0.4769  0.0967
 3491TIP3   OH210478   1.173   1.278   1.557  0.2580  0.5288 -0.2379
 3491TIP3    H110479   1.084   1.283   1.522  0.0183  1.2011  0.4340
 3491TIP3    H210480   1.174   1.200   1.611 -1.6180  3.1831  4.1408
 3492TIP3   OH210481   3.702   0.747   2.506 -1.0707  0.0142 -0.4998
 3492TIP3    H110482   3.747   0.681   2.454  1.7005  0.7376  0.8208
 3492TIP3    H210483   3.654   0.799   2.441  1.3295  0.1908 -2.2813
 3493TIP3   OH210484   4.490   0.954   4.618  0.0934 -0.0125 -0.3195
 3493TIP3    H110485   4.532   0.912   4.542  1.3289 -0.8595  0.7878
 3493TIP3    H210486   4.397   0.936   4.606  0.1934  0.3774 -1.9304
 3494TIP3   OH210487   1.199   1.839   4.595  0.1386 -0.2980  0.3832
 3494TIP3    H110488   1.255   1.771   4.633  0.4148 -1.5475 -2.0746
 3494TIP3    H210489   1.254   1.917   4.595  1.7439 -1.3497 -1.4085
 3495TIP3   OH210490   3.506   5.764   2.615  0.1609 -0.2331 -0.1300
 3495TIP3    H110491   3.541   5.841   2.569 -0.7150  0.7599  0.8177
 3495TIP3    H210492   3.431   5.798   2.665  0.6731 -1.4027  1.5026
 3496TIP3   OH210493   0.555   1.904   2.755 -0.2609 -0.0787 -0.4731
 3496TIP3    H110494   0.563   1.999   2.739 -1.3065  0.0693 -0.1671
 3496TIP3    H210495   0.628   1.866   2.705  2.0484  1.0936  1.7732
 3497TIP3   OH210496   5.979   2.089   2.772 -0.1515 -0.2369 -0.1947
 3497TIP3    H110497   5.968   1.994   2.774  0.2078 -0.2762  0.1700
 3497TIP3    H210498   5.919   2.122   2.839  0.3964 -0.2834  0.3250
 3498TIP3   OH210499   5.473   1.438   0.539 -0.1580  0.2679  0.1097
 3498TIP3    H110500   5.527   1.427   0.617 -1.2451 -0.2781  0.8187
 3498TIP3    H210501   5.518   1.389   0.470  0.3557  0.0023  0.6315
 3499TIP3   OH210502   0.166   0.627   3.306 -0.0323 -0.4368 -0.5370
 3499TIP3    H110503   0.096   0.692   3.298  1.2275  0.9296 -0.9408
 3499TIP3    H210504   0.124   0.544   3.282 -2.0945 -0.0986  1.5517
 3500TIP3   OH210505   2.498   1.713   2.267 -0.3762  0.7335 -0.2667
 3500TIP3    H110506   2.476   1.801   2.237  0.9415  1.3175  0.4158
 3500TIP3    H210507   2.528   1.668   2.188 -1.1950  0.8444 -0.6459
 3501TIP3   OH210508   1.555   1.137   1.871  0.0668 -1.1598  0.2130
 3501TIP3    H110509   1.504   1.107   1.946 -0.1310 -0.5038  0.3484
 3501TIP3    H210510   1.494   1.191   1.821  0.7542  0.0463  0.6459
 3502TIP3   OH210511   6.374   1.060   3.232 -0.0881 -0.2252 -0.0227
 3502TIP3    H110512   6.326   1.126   3.282 -0.8718 -1.6383  1.1680
 3502TIP3    H210513   6.318   1.039   3.158  0.0853  0.3013 -0.3083
 3503TIP3   OH210514   1.449   3.123   4.317 -0.2807 -0.0576 -0.1342
 3503TIP3    H110515   1.445   3.058   4.387 -3.8509  1.5666  1.4272
 3503TIP3    H210516   1.453   3.207   4.363  0.4018  0.9728 -1.9953
 3504TIP3   OH210517   0.367   0.680   2.460 -0.4471 -0.0247 -0.2864
 3504TIP3    H110518   0.448   0.651   2.503  0.6034  1.3470 -1.2373
 3504TIP3    H210519   0.311   0.709   2.532 -0.1987 -1.1762  0.4071
 3505TIP3   OH210520   4.477   1.673   4.474  0.4580 -0.9245  0.6850
 3505TIP3    H110521   4.467   1.603   4.539 -0.0047 -0.2279  1.3898
 3505TIP3    H210522   4.407   1.657   4.411 -0.6069 -0.2771  1.6455
 3506TIP3   OH210523   1.075   3.337   0.621  0.1213  0.0488 -0.2189
 3506TIP3    H110524   1.029   3.258   0.649 -0.5580  0.5720  0.1837
 3506TIP3    H210525   1.158   3.306   0.585  0.7674 -0.7281  1.7808
 3507TIP3   OH210526   1.427   4.453   4.384  0.4232  0.1869 -0.2996
 3507TIP3    H110527   1.403   4.506   4.460 -0.5214 -1.0604  0.2903
 3507TIP3    H210528   1.510   4.412   4.409  1.1483  1.3060 -0.7493
 3508TIP3   OH210529   6.069   4.621   0.412  0.1734 -0.8325 -0.5055
 3508TIP3    H110530   6.063   4.543   0.358  1.1723 -1.0035 -0.3861
 3508TIP3    H210531   5.978   4.641   0.436 -0.3172 -0.5715 -2.4602
 3509TIP3   OH210532   3.185   0.945   0.741  0.5222 -0.3864  0.1006
 3509TIP3    H110533   3.257   0.978   0.794 -0.1650  1.8342 -0.2250
 3509TIP3    H210534   3.107   0.959   0.795 -0.0743  1.0393 -1.0576
 3510TIP3   OH210535   2.601   4.931   4.578  0.4040  0.0463  0.1697
 3510TIP3    H110536   2.671   4.976   4.531  0.6863  0.8420  1.2956
 3510TIP3    H210537   2.624   4.838   4.574 -0.1649 -0.0475 -2.1572
 3511TIP3   OH210538   3.336   1.800   1.659 -0.5940  0.6615  0.5082
 3511TIP3    H110539   3.316   1.834   1.572 -2.8363 -0.3619  0.5576
 3511TIP3    H210540   3.345   1.878   1.714 -0.8411  1.2746 -0.3088
 3512TIP3   OH210541   5.652   1.757   3.182 -0.6517 -0.0494  0.6305
 3512TIP3    H110542   5.662   1.775   3.089  0.0062  0.7788  0.8455
 3512TIP3    H210543   5.584   1.691   3.187 -0.1451 -0.6865 -0.4959
 3513TIP3   OH210544   1.125   4.551   2.970  0.4754 -0.4094  0.3935
 3513TIP3    H110545   1.076   4.571   2.890  1.7326 -0.3296 -0.3835
 3513TIP3    H210546   1.086   4.608   3.037  1.1856  1.5555 -0.7997
 3514TIP3   OH210547   3.908   4.366   1.791  0.5793 -0.2486  0.0227
 3514TIP3    H110548   3.849   4.354   1.716  1.0085  2.1921 -0.8115
 3514TIP3    H210549   3.992   4.332   1.761  0.1578 -1.6690  0.3903
 3515TIP3   OH210550   1.463   4.207   2.589  0.3266  0.1876  0.3601
 3515TIP3    H110551   1.437   4.235   2.501 -0.3284 -0.4410  0.3501
 3515TIP3    H210552   1.533   4.143   2.574 -1.1485 -1.4435  0.1891
 3516TIP3   OH210553   3.323   1.928   1.141  0.6035  0.2492 -0.3957
 3516TIP3    H110554   3.413   1.901   1.120  0.7190  1.0782 -1.0438
 3516TIP3    H210555   3.318   2.019   1.110  0.9995  1.9458  3.8605
 3517TIP3   OH210556   4.520   4.609   3.242  0.3832 -0.3591  0.3028
 3517TIP3    H110557   4.602   4.650   3.214 -0.6620  0.5899 -1.5104
 3517TIP3    H210558   4.464   4.613   3.165 -1.6879 -0.1541  1.7571
 3518TIP3   OH210559   4.160   0.853   4.963  0.1948 -0.0539 -0.5908
 3518TIP3    H110560   4.090   0.852   5.029 -0.4154  0.3427 -1.2142
 3518TIP3    H210561   4.230   0.904   5.002  0.6217 -1.4276  0.5169
 3519TIP3   OH210562   5.779   2.029   0.556 -0.1284  0.3108 -0.5711
 3519TIP3    H110563   5.849   1.965   0.571 -0.4974 -0.4075 -1.7673
 3519TIP3    H210564   5.803   2.104   0.611 -0.3892 -1.3335  1.9653
 3520TIP3   OH210565   5.591   0.737   5.054 -0.3283 -0.5880  0.3882
 3520TIP3    H110566   5.505   0.778   5.051 -0.7287 -1.4406 -0.1525
 3520TIP3    H210567   5.573   0.643   5.058  0.5736 -0.7614  0.6993
 3521TIP3   OH210568   3.928   3.685   1.453 -0.3396  0.2996 -0.1949
 3521TIP3    H110569   3.969   3.765   1.419 -0.0133  0.2528  0.0910
 3521TIP3    H210570   3.885   3.646   1.376  0.1413  0.3507 -0.4933
 3522TIP3   OH210571   6.277   2.476   2.374 -0.7546 -0.6067  0.1096
 3522TIP3    H110572   6.260   2.384   2.355  0.5482 -0.8252 -0.0902
 3522TIP3    H210573   6.361   2.494   2.333 -0.8175  0.5835  0.4565
 3523TIP3   OH210574   5.600   2.507   2.356 -0.5993 -0.0188  0.9011
 3523TIP3    H110575   5.610   2.412   2.343  5.8345  0.3996 -0.2977
 3523TIP3    H210576   5.561   2.538   2.275  3.1048 -1.3106 -1.6542
 3524TIP3   OH210577   6.041   1.043   4.740 -0.3360  0.2548  0.3618
 3524TIP3    H110578   6.073   0.986   4.670 -1.6599 -0.8531  0.6220
 3524TIP3    H210579   6.003   1.118   4.694 -2.9188 -1.3236 -0.3038
 3525TIP3   OH210580   0.617   5.741   4.799 -0.2511 -0.8996 -0.1799
 3525TIP3    H110581   0.558   5.771   4.729  0.3633  0.2624 -0.2145
 3525TIP3    H210582   0.692   5.703   4.753 -0.4716 -1.4073 -0.1335
 3526TIP3   OH210583   5.840   5.204   3.281 -0.2781 -0.2617 -0.4426
 3526TIP3    H110584   5.800   5.286   3.252  1.0556  0.3795 -0.5651
 3526TIP3    H210585   5.867   5.161   3.200 -1.7664 -1.2680 -0.4296
 3527TIP3   OH210586   6.346   1.120   4.452  0.5297  0.3169 -0.4115
 3527TIP3    H110587   6.322   1.035   4.490 -1.6154  1.0362  0.0040
 3527TIP3    H210588   6.378   1.098   4.364 -0.9025 -0.8913 -0.6819
 3528TIP3   OH210589   4.262   2.917   0.665 -0.3243  0.8163  0.0690
 3528TIP3    H110590   4.246   2.970   0.743 -0.6376 -0.5599  0.9752
 3528TIP3    H210591   4.342   2.868   0.685  0.1849  1.2233 -0.9155
 3529TIP3   OH210592   4.855   4.742   4.782  0.0353  0.2710 -0.0949
 3529TIP3    H110593   4.779   4.786   4.819 -0.0481  0.0676 -0.0276
 3529TIP3    H210594   4.856   4.768   4.690 -0.4813 -0.2430 -0.2459
 3530TIP3   OH210595   4.397   3.829   1.377  0.2127  0.0528 -0.2947
 3530TIP3    H110596   4.467   3.786   1.327  1.2723 -0.7286  1.7735
 3530TIP3    H210597   4.411   3.801   1.467 -2.0849  0.8363  0.3663
 3531TIP3   OH210598   4.509   4.271   4.890 -0.6716  0.2894  0.6518
 3531TIP3    H110599   4.510   4.354   4.842  1.2955 -0.7395 -1.1838
 3531TIP3    H210600   4.454   4.213   4.837  2.1058 -1.0794 -0.9411
 3532TIP3   OH210601   0.535   5.665   1.302 -0.2239 -0.0562  0.1703
 3532TIP3    H110602   0.619   5.629   1.330 -0.3408  1.0590  2.1940
 3532TIP3    H210603   0.519   5.737   1.363 -2.2992  0.2328 -0.6361
 3533TIP3   OH210604   5.373   4.568   3.666  0.1054 -0.0204  0.1307
 3533TIP3    H110605   5.329   4.641   3.622 -0.4040 -0.3520  0.0805
 3533TIP3    H210606   5.313   4.494   3.655 -0.3025  0.0187  1.8761
 3534TIP3   OH210607   0.154   4.314   4.493 -0.3930  0.3212 -0.2388
 3534TIP3    H110608   0.247   4.329   4.480 -0.3483 -0.7264 -1.3151
 3534TIP3    H210609   0.137   4.343   4.582  0.8751  0.9135 -0.1737
 3535TIP3   OH210610   3.274   3.909   3.574 -0.1007 -0.5256  0.0961
 3535TIP3    H110611   3.317   3.906   3.660 -0.1546 -0.5789  0.1215
 3535TIP3    H210612   3.329   3.852   3.519 -0.2020 -0.6845  0.1579
 3536TIP3   OH210613   4.620   4.792   5.071  0.2074  0.0427 -0.0950
 3536TIP3    H110614   4.691   4.776   5.133  0.4158 -1.7197 -0.7479
 3536TIP3    H210615   4.588   4.705   5.047 -0.7899  0.7276 -1.4005
 3537TIP3   OH210616   0.106   2.764   0.094  0.4787  0.1735 -0.3277
 3537TIP3    H110617   0.071   2.744   0.007 -2.0938 -4.4885  1.4477
 3537TIP3    H210618   0.031   2.797   0.144  1.0312 -0.4643  0.9752
 3538TIP3   OH210619   0.189   1.012   0.918 -0.1713 -0.4058 -0.0311
 3538TIP3    H110620   0.183   1.072   0.993  0.3427 -0.3968  0.0061
 3538TIP3    H210621   0.098   0.987   0.900 -0.4090  0.5007 -0.1419
 3539TIP3   OH210622   2.372   4.763   1.621 -0.0041 -0.0354 -0.2814
 3539TIP3    H110623   2.436   4.798   1.683 -1.4786  0.5865  0.9486
 3539TIP3    H210624   2.347   4.838   1.567 -0.9087  0.1338  0.3497
 3540TIP3   OH210625   3.607   5.950   4.789  0.1354  0.3383  0.1687
 3540TIP3    H110626   3.590   6.033   4.744 -2.4482 -0.0548  0.2686
 3540TIP3    H210627   3.594   5.883   4.722  3.8212 -0.0548 -0.3458
 3541TIP3   OH210628   2.224   4.271   3.557  0.3326  0.4634 -0.9929
 3541TIP3    H110629   2.243   4.190   3.603  1.7543  1.2420 -0.1531
 3541TIP3    H210630   2.145   4.251   3.506  0.6555 -1.4329 -0.8319
 3542TIP3   OH210631   0.265   1.384   4.673 -0.0240  0.5564 -0.5405
 3542TIP3    H110632   0.280   1.290   4.686 -1.0147  0.5022  0.2691
 3542TIP3    H210633   0.306   1.402   4.588  0.5558 -0.5122 -0.5182
 3543TIP3   OH210634   0.085   0.933   3.657 -0.2372 -0.0205 -0.1975
 3543TIP3    H110635   0.055   0.903   3.572 -2.6529 -1.2411  0.9644
 3543TIP3    H210636   0.033   1.012   3.674 -0.3578 -0.2275  0.4437
 3544TIP3   OH210637   4.417   1.600   4.733  0.0227 -0.0773 -0.7690
 3544TIP3    H110638   4.362   1.671   4.698 -1.3554 -1.4059 -1.4648
 3544TIP3    H210639   4.363   1.561   4.802  1.0718 -0.0047  0.1062
 3545TIP3   OH210640   2.702   5.303   0.809  0.0549 -0.2072  0.2607
 3545TIP3    H110641   2.758   5.225   0.814 -0.2379 -0.4570 -0.2952
 3545TIP3    H210642   2.653   5.293   0.727  0.4186  0.8426 -0.1017
 3546TIP3   OH210643   3.128   4.550   2.241 -0.0737  0.2954 -0.3745
 3546TIP3    H110644   3.219   4.523   2.228 -0.6943 -2.1876 -0.0636
 3546TIP3    H210645   3.091   4.482   2.296 -2.6023  0.2674 -1.9823
 3547TIP3   OH210646   4.620   5.388   2.832 -0.4199 -0.1341 -0.2030
 3547TIP3    H110647   4.711   5.360   2.825  0.0885  1.4489 -0.5129
 3547TIP3    H210648   4.572   5.311   2.861  0.8066 -1.3589 -1.3095
 3548TIP3   OH210649   0.396   5.599   3.117  0.2226 -0.6368  0.1650
 3548TIP3    H110650   0.383   5.688   3.086 -1.0197 -0.8447  0.0320
 3548TIP3    H210651   0.436   5.553   3.043  1.4790 -0.0560  0.4561
 3549TIP3   OH210652   2.578   2.618   4.252 -0.1274 -0.6579 -0.3562
 3549TIP3    H110653   2.549   2.671   4.327 -0.8379  0.0173 -1.0816
 3549TIP3    H210654   2.597   2.532   4.289 -0.6383 -0.3861  0.5747
 3550TIP3   OH210655   4.958   3.976   2.273  0.1235  0.1034  0.2775
 3550TIP3    H110656   4.924   3.896   2.233 -1.2268  0.7856 -0.0277
 3550TIP3    H210657   5.052   3.974   2.256  0.0447 -1.1788 -0.1219
 3551TIP3   OH210658   3.463   2.360   4.385  0.0616  0.7716  0.0947
 3551TIP3    H110659   3.474   2.455   4.387  0.2632  0.7565 -0.2432
 3551TIP3    H210660   3.383   2.344   4.435  0.7393  1.0043  1.2771
 3552TIP3   OH210661   5.323   3.624   3.354  0.6046  1.0942  0.1910
 3552TIP3    H110662   5.276   3.607   3.435  0.8040  1.1441  0.3158
 3552TIP3    H210663   5.405   3.663   3.381  0.7476  0.9443 -0.0254
 3553TIP3   OH210664   5.204   3.832   3.215 -0.3838  0.5871 -0.1379
 3553TIP3    H110665   5.213   3.752   3.266 -0.4888 -0.1438 -1.2455
 3553TIP3    H210666   5.277   3.887   3.243 -0.6713  0.3814  1.0897
 3554TIP3   OH210667   3.638   2.799   4.002 -0.1647 -0.0364 -0.0536
 3554TIP3    H110668   3.601   2.736   3.941 -0.4336  1.7709 -1.8649
 3554TIP3    H210669   3.720   2.827   3.962  0.2495  0.3440  1.0113
 3555TIP3   OH210670   4.093   4.967   2.479  0.6219  0.0820  0.1346
 3555TIP3    H110671   4.015   4.971   2.424  1.3846  0.8120 -0.9345
 3555TIP3    H210672   4.060   4.977   2.568 -0.3435  2.4222 -0.4097
 3556TIP3   OH210673   4.101   4.778   3.345 -0.1381  0.3082 -0.2301
 3556TIP3    H110674   4.143   4.706   3.391 -0.1768  0.1048 -0.5140
 3556TIP3    H210675   4.045   4.820   3.411  0.4855  0.5617  0.1450
 3557TIP3   OH210676   3.914   4.871   3.178 -0.3201  0.1344  0.1301
 3557TIP3    H110677   3.889   4.781   3.156  0.0683 -0.0580  0.4564
 3557TIP3    H210678   3.989   4.861   3.236 -0.2588  0.6740  0.1465
 3558TIP3   OH210679   2.208   2.185   2.530  0.2888  0.1487  0.7322
 3558TIP3    H110680   2.249   2.239   2.461 -0.5734 -0.4389 -0.2677
 3558TIP3    H210681   2.240   2.097   2.512  0.6655  0.1110  1.5709
 3559TIP3   OH210682   3.486   1.976   4.258  0.9838 -0.4795 -0.0328
 3559TIP3    H110683   3.556   2.038   4.281  1.1789 -0.5664 -0.3750
 3559TIP3    H210684   3.504   1.953   4.167  0.3471 -0.2942 -0.2091
 3560TIP3   OH210685   5.440   4.564   4.014  0.1002 -0.4223 -0.2325
 3560TIP3    H110686   5.531   4.537   4.011  0.2462  0.0257  0.1032
 3560TIP3    H210687   5.420   4.591   3.924  1.0114  1.7785  0.1755
 3561TIP3   OH210688   5.405   5.845   1.969  0.5683  0.2677 -0.0601
 3561TIP3    H110689   5.462   5.906   1.921  2.5602 -1.2365  0.2385
 3561TIP3    H210690   5.425   5.861   2.061 -2.1980  2.1620  0.3016
 3562TIP3   OH210691   3.285   1.618   4.850 -0.0654 -0.0894 -0.7968
 3562TIP3    H110692   3.198   1.645   4.881  0.2117 -1.7342  1.7487
 3562TIP3    H210693   3.268   1.541   4.796 -0.1604 -0.9310  0.4104
 3563TIP3   OH210694   3.650   2.660   0.653  0.1093 -0.5745  0.0993
 3563TIP3    H110695   3.651   2.744   0.700  0.6923 -0.3593 -0.2899
 3563TIP3    H210696   3.742   2.636   0.644  0.0175 -0.5569 -1.0217
 3564TIP3   OH210697   1.957   4.706   3.117 -0.1921 -0.2358 -0.3224
 3564TIP3    H110698   2.042   4.749   3.102  1.0606 -2.2610  0.5489
 3564TIP3    H210699   1.934   4.669   3.032  0.1950 -0.3164 -0.3965
 3565TIP3   OH210700   5.512   1.484   0.207  0.4103  0.4904 -0.1177
 3565TIP3    H110701   5.459   1.453   0.134 -0.2547  0.2799  0.4398
 3565TIP3    H210702   5.533   1.405   0.257  0.9337  0.6205 -0.1229
 3566TIP3   OH210703   1.294   4.279   2.139  0.3705  0.2477 -0.1672
 3566TIP3    H110704   1.233   4.316   2.075  1.6688  1.1131 -0.9551
 3566TIP3    H210705   1.374   4.264   2.089  0.1084 -3.1994  0.2416
 3567TIP3   OH210706   3.886   0.919   4.212  0.2796 -0.1911  0.0658
 3567TIP3    H110707   3.906   0.871   4.132 -0.3508  0.0546 -0.2425
 3567TIP3    H210708   3.950   0.991   4.213 -1.8852  1.9415 -2.0814
 3568TIP3   OH210709   2.375   3.653   0.080 -0.4143  0.3741  0.0831
 3568TIP3    H110710   2.286   3.671   0.050 -0.1868 -2.0486 -2.4298
 3568TIP3    H210711   2.424   3.633   0.000  2.1101  0.4306  1.5118
 3569TIP3   OH210712   6.116   3.304   3.880 -0.0006 -0.1189  0.1629
 3569TIP3    H110713   6.120   3.208   3.885  0.9922 -0.0687  0.6907
 3569TIP3    H210714   6.176   3.333   3.949  0.1449  0.8763 -0.3781
 3570TIP3   OH210715   5.482   1.810   2.687  0.4627  0.5602  0.1632
 3570TIP3    H110716   5.410   1.763   2.728 -0.4599 -1.2213 -3.1536
 3570TIP3    H210717   5.446   1.896   2.667  0.6310  1.1147  2.0201
 3571TIP3   OH210718   5.616   1.263   0.321  0.2704  0.3284  0.6403
 3571TIP3    H110719   5.639   1.175   0.293 -1.1224  0.1569 -0.0645
 3571TIP3    H210720   5.700   1.308   0.332  1.1830 -1.8172  3.6220
 3572TIP3   OH210721   2.521   1.950   0.248  0.3141 -0.0140 -0.7243
 3572TIP3    H110722   2.458   2.022   0.251 -0.5527 -0.7060 -1.6281
 3572TIP3    H210723   2.598   1.986   0.205  0.2405  0.6119 -0.3493
 3573TIP3   OH210724   3.786   5.862   4.400  0.0685  0.4373  0.6304
 3573TIP3    H110725   3.722   5.807   4.446 -0.2937  0.3490  0.0408
 3573TIP3    H210726   3.734   5.937   4.369  0.2250  0.3235  0.0746
 3574TIP3   OH210727   2.343   5.690   3.531  0.4767  0.0011 -0.2093
 3574TIP3    H110728   2.314   5.698   3.441 -1.6399  2.5395  0.5777
 3574TIP3    H210729   2.409   5.758   3.542 -1.1208  1.4799  0.7357
 3575TIP3   OH210730   4.518   5.136   3.609  0.2933 -0.4977  0.3739
 3575TIP3    H110731   4.537   5.132   3.703 -0.4867 -2.3448  0.5040
 3575TIP3    H210732   4.560   5.058   3.573  0.2119 -0.0463 -0.7526
 3576TIP3   OH210733   0.744   2.888   5.051 -0.4387 -0.5697  0.0079
 3576TIP3    H110734   0.676   2.955   5.046 -0.5191 -0.5891  0.8052
 3576TIP3    H210735   0.712   2.818   4.994 -0.8767 -0.3978  0.0386
 3577TIP3   OH210736   5.960   2.853   4.457  1.2446 -0.5566 -0.4636
 3577TIP3    H110737   6.037   2.797   4.460  1.2237 -0.5886 -0.5395
 3577TIP3    H210738   5.909   2.821   4.383 -0.2039 -2.3136  1.2158
 3578TIP3   OH210739   3.024   4.720   1.757 -0.2974  0.6029  0.6901
 3578TIP3    H110740   2.984   4.685   1.837 -1.8228  0.5571 -0.0460
 3578TIP3    H210741   2.991   4.663   1.687  0.4598  1.0538 -0.0472
 3579TIP3   OH210742   4.823   5.359   0.410 -0.4498  0.1862 -0.2692
 3579TIP3    H110743   4.731   5.387   0.413 -0.8753 -1.0755 -0.9394
 3579TIP3    H210744   4.828   5.302   0.333  0.4857 -1.1586  0.7385
 3580TIP3   OH210745   5.505   0.135   3.597  0.0110  0.0250  0.1920
 3580TIP3    H110746   5.600   0.142   3.585  0.2006  1.4442  2.0814
 3580TIP3    H210747   5.495   0.099   3.685 -1.2608 -2.5909 -0.8986
 3581TIP3   OH210748   4.562   3.964   0.371 -0.0162 -0.3440  0.2318
 3581TIP3    H110749   4.543   3.874   0.399  0.9346 -0.4742  0.5135
 3581TIP3    H210750   4.621   3.953   0.296 -0.5529  0.0431 -0.2561
 3582TIP3   OH210751   5.917   4.238   2.904 -0.2476  0.1537 -0.4121
 3582TIP3    H110752   6.002   4.271   2.935 -0.1513 -0.0424 -0.4635
 3582TIP3    H210753   5.939   4.157   2.858 -0.5989 -0.6173  0.7411
 3583TIP3   OH210754   5.827   4.025   4.880  0.0466  0.2270  0.0497
 3583TIP3    H110755   5.808   4.095   4.817  1.1250  0.3703 -0.1327
 3583TIP3    H210756   5.902   4.058   4.930 -0.8277  0.1362  1.4615
 3584TIP3   OH210757   2.346   1.519   0.774 -0.1293 -0.5378 -0.0965
 3584TIP3    H110758   2.306   1.561   0.697 -0.5179  0.0043  0.3959
 3584TIP3    H210759   2.432   1.560   0.782 -1.4201  2.0882  1.8543
 3585TIP3   OH210760   5.387   0.792   3.531  1.1348 -0.0972 -0.2442
 3585TIP3    H110761   5.331   0.757   3.461  2.1326  0.3338 -1.2951
 3585TIP3    H210762   5.400   0.718   3.591 -0.0500 -0.3674 -0.3020
 3586TIP3   OH210763   5.733   3.904   3.895 -0.1217 -0.3702 -0.2504
 3586TIP3    H110764   5.746   3.930   3.803 -0.3145  1.5489  0.2162
 3586TIP3    H210765   5.813   3.931   3.939 -0.4499 -0.3308  0.3298
 3587TIP3   OH210766   2.104   4.400   1.041  0.4520  0.0785 -0.0975
 3587TIP3    H110767   2.087   4.462   0.970 -0.0581 -1.5689 -1.4796
 3587TIP3    H210768   2.197   4.411   1.061  0.9439 -0.3432 -1.9827
 3588TIP3   OH210769   4.440   0.566   4.779 -0.1686 -0.3387  0.3838
 3588TIP3    H110770   4.446   0.474   4.803  0.5451 -0.3966  0.0120
 3588TIP3    H210771   4.490   0.612   4.846 -0.7999 -0.1797  0.7556
 3589TIP3   OH210772   0.763   3.565   2.631 -0.1590  0.0958 -0.2251
 3589TIP3    H110773   0.753   3.660   2.641  0.7412  0.1169  0.6655
 3589TIP3    H210774   0.778   3.534   2.720 -2.1090 -1.1213 -0.2730
 3590TIP3   OH210775   2.285   3.611   2.474 -0.2150 -0.3530 -0.5524
 3590TIP3    H110776   2.376   3.613   2.505 -0.1127 -2.3832 -0.6188
 3590TIP3    H210777   2.290   3.569   2.388 -1.4903 -3.1292  0.6393
 3591TIP3   OH210778   2.918   4.839   0.660  0.2855 -0.2438 -0.5104
 3591TIP3    H110779   2.976   4.873   0.592 -0.8357 -0.9422 -1.8776
 3591TIP3    H210780   2.976   4.795   0.722  1.3353  0.4363 -0.9838
 3592TIP3   OH210781   0.463   5.576   3.397 -0.5804 -0.5397 -0.7272
 3592TIP3    H110782   0.421   5.589   3.312  1.5185  1.1356 -1.5936
 3592TIP3    H210783   0.459   5.661   3.440 -0.9994 -1.1945  0.5919
 3593TIP3   OH210784   2.769   0.471   4.690  0.4863  0.1663  0.0611
 3593TIP3    H110785   2.805   0.424   4.615  0.1098 -0.3379  0.1860
 3593TIP3    H210786   2.844   0.513   4.731  0.7908 -0.1048 -0.2162
 3594TIP3   OH210787   4.791   5.618   3.316 -0.4436  0.1351 -0.5610
 3594TIP3    H110788   4.773   5.712   3.327 -1.4057  0.1034 -1.6002
 3594TIP3    H210789   4.829   5.591   3.399 -1.4346  1.1525  0.2686
 3595TIP3   OH210790   3.044   4.807   3.769  0.0169 -0.4938 -0.0461
 3595TIP3    H110791   2.964   4.776   3.726  1.4780 -0.4103 -3.0603
 3595TIP3    H210792   3.032   4.784   3.861 -2.9919 -1.4374 -0.5631
 3596TIP3   OH210793   6.303   3.439   4.997 -0.2562 -0.0058 -0.6468
 3596TIP3    H110794   6.254   3.442   4.915  0.8346  0.7754 -1.2935
 3596TIP3    H210795   6.388   3.402   4.972  0.9144  2.3164 -0.3512
 3597TIP3   OH210796   4.679   0.300   4.127  0.4936 -0.1411 -0.4026
 3597TIP3    H110797   4.698   0.207   4.117  1.0420 -0.1302  0.4191
 3597TIP3    H210798   4.587   0.309   4.104 -0.2803 -1.3167  1.8624
 3598TIP3   OH210799   5.227   1.683   3.639  0.4334  0.2614  0.4003
 3598TIP3    H110800   5.218   1.778   3.645 -0.3280  0.3651 -1.5034
 3598TIP3    H210801   5.204   1.662   3.548 -3.0358 -2.0895  1.5727
 3599TIP3   OH210802   2.126   5.235   1.605 -0.2581  0.5171  0.0687
 3599TIP3    H110803   2.145   5.229   1.512 -0.1234 -1.4818  0.1762
 3599TIP3    H210804   2.048   5.181   1.618  0.8921 -0.9316  1.3794
 3600TIP3   OH210805   2.683   0.032   5.164  0.2974  0.0759  0.3849
 3600TIP3    H110806   2.763   0.058   5.210 -0.8346  0.8322  2.0055
 3600TIP3    H210807   2.714  -0.001   5.079  2.4515 -1.1599  1.5557
 3601TIP3   OH210808   0.382   3.403   1.821  0.6723  0.1838  0.2206
 3601TIP3    H110809   0.325   3.417   1.746  0.0378 -0.6630  0.5248
 3601TIP3    H210810   0.455   3.464   1.808  1.7344 -1.4253 -2.2666
 3602TIP3   OH210811   5.892   3.621   2.684 -0.1392  0.2477  0.0123
 3602TIP3    H110812   5.861   3.656   2.768 -0.2284  2.9611 -1.0444
 3602TIP3    H210813   5.812   3.600   2.636 -0.1591  0.8663 -0.2292
 3603TIP3   OH210814   4.424   3.711   1.611 -0.4853 -0.0761  0.1649
 3603TIP3    H110815   4.482   3.728   1.684  0.6742 -2.3827 -0.1494
 3603TIP3    H210816   4.434   3.618   1.592 -3.5583 -0.3876 -0.5462
 3604TIP3   OH210817   1.251   3.113   4.134  0.1088 -0.1366 -0.0929
 3604TIP3    H110818   1.316   3.098   4.203 -0.1813  0.4580  0.3097
 3604TIP3    H210819   1.268   3.042   4.071 -1.2022 -2.2018  1.7312
 3605TIP3   OH210820   6.043   5.568   2.651 -0.5527 -0.4955 -0.0298
 3605TIP3    H110821   5.950   5.556   2.673 -0.4443 -0.9159  0.2319
 3605TIP3    H210822   6.051   5.535   2.562 -0.8978  0.7406 -0.5383
 3606TIP3   OH210823   4.033   0.598   3.455  0.8362 -0.6362 -0.1333
 3606TIP3    H110824   3.999   0.650   3.528 -0.0415 -3.2021  1.4390
 3606TIP3    H210825   4.127   0.616   3.455  0.9789 -1.0774  2.1519
 3607TIP3   OH210826   5.912   0.108   1.094  0.3960  0.1547 -0.0513
 3607TIP3    H110827   5.973   0.181   1.082  1.4937 -0.8206 -0.7973
 3607TIP3    H210828   5.934   0.048   1.022  0.5250 -1.5589  1.3467
 3608TIP3   OH210829   5.638   3.616   1.304 -0.2166  0.1192  0.1922
 3608TIP3    H110830   5.666   3.612   1.396  0.2736  1.4418  0.1260
 3608TIP3    H210831   5.547   3.644   1.308 -0.6465 -1.2074  0.2996
 3609TIP3   OH210832   6.023   2.220   1.521  0.0673 -0.0294 -0.0214
 3609TIP3    H110833   6.047   2.287   1.584  0.0265 -0.5329  0.5383
 3609TIP3    H210834   6.015   2.140   1.573  0.1256 -0.4700 -0.6798
 3610TIP3   OH210835   3.573   3.134   4.841  0.4965 -0.4756 -0.0114
 3610TIP3    H110836   3.503   3.119   4.904  0.7604 -0.6978  0.2301
 3610TIP3    H210837   3.652   3.099   4.883  1.3163  2.2397  0.9481
 3611TIP3   OH210838   3.916   4.297   3.972  0.2992 -0.2920 -0.1727
 3611TIP3    H110839   3.862   4.363   3.929  0.1096  0.0677  0.5884
 3611TIP3    H210840   3.916   4.222   3.913 -2.4109 -0.9312  0.5254
 3612TIP3   OH210841   4.329   4.424   4.034  0.6841 -0.2080  0.0637
 3612TIP3    H110842   4.236   4.442   4.052  0.9496  3.8943 -1.6057
 3612TIP3    H210843   4.328   4.382   3.948  0.3485 -0.2604  0.0898
 3613TIP3   OH210844   0.773   5.014   2.724  0.0942 -0.4962  0.1376
 3613TIP3    H110845   0.768   5.095   2.775 -1.4662 -0.9673  0.7971
 3613TIP3    H210846   0.706   4.958   2.762 -0.7234 -1.1056 -2.0527
 3614TIP3   OH210847   0.470   4.326   2.046  0.0957  0.0667 -0.1833
 3614TIP3    H110848   0.534   4.394   2.024  0.4883 -0.3620 -0.3822
 3614TIP3    H210849   0.462   4.331   2.142  1.9575 -1.1982  0.0947
 3615TIP3   OH210850   4.677   5.578   1.825 -0.5427  0.5580 -0.2558
 3615TIP3    H110851   4.679   5.609   1.734 -0.9704  1.6344  0.0762
 3615TIP3    H210852   4.659   5.657   1.876 -0.7460 -0.1096  0.7302
 3616TIP3   OH210853   6.041   5.043   2.960  0.3629 -0.3089  0.0640
 3616TIP3    H110854   6.036   4.950   2.938  1.1579 -0.2997 -0.1991
 3616TIP3    H210855   5.957   5.062   3.003  1.1483 -1.7195  2.4158
 3617TIP3   OH210856   0.377   2.116   4.812  0.1080 -0.3259 -0.0433
 3617TIP3    H110857   0.463   2.096   4.849 -0.2814 -0.3505  0.8669
 3617TIP3    H210858   0.379   2.210   4.797 -0.0765 -0.1532  0.9659
 3618TIP3   OH210859   4.461   4.252   3.777  0.1763 -0.2263  0.3395
 3618TIP3    H110860   4.520   4.215   3.711 -1.1782 -0.3070 -0.8809
 3618TIP3    H210861   4.413   4.176   3.811 -1.2277  0.1211 -0.7654
 3619TIP3   OH210862   0.061   2.793   0.524 -0.3947  0.1171  0.0540
 3619TIP3    H110863   0.048   2.701   0.549 -0.5554  0.3977  1.0374
 3619TIP3    H210864   0.156   2.803   0.517 -0.2549  0.3018  1.7146
 3620TIP3   OH210865   0.328   1.367   0.902  0.1206 -0.3288 -0.1864
 3620TIP3    H110866   0.416   1.349   0.936  0.0949  0.7827  0.4952
 3620TIP3    H210867   0.340   1.374   0.807  0.2317 -3.2161 -0.4650
 3621TIP3   OH210868   3.698   5.772   2.382 -0.1344 -0.1468  0.3485
 3621TIP3    H110869   3.742   5.689   2.362  0.2552  0.2698 -0.6019
 3621TIP3    H210870   3.751   5.838   2.338  0.2336  0.7508  2.0603
 3622TIP3   OH210871   4.292   2.698   3.156  0.7902  0.0212 -0.5584
 3622TIP3    H110872   4.347   2.774   3.173  1.6392 -0.3530 -1.5006
 3622TIP3    H210873   4.354   2.631   3.125 -0.1850 -0.4219 -1.6071
 3623TIP3   OH210874   5.394   2.110   2.985 -0.3473  0.0938  0.5570
 3623TIP3    H110875   5.362   2.026   3.020 -3.4371  1.2300  0.7730
 3623TIP3    H210876   5.346   2.121   2.903  2.9304 -0.0688 -1.5549
 3624TIP3   OH210877   1.557   4.287   3.401 -0.1838  0.2610  0.4240
 3624TIP3    H110878   1.588   4.341   3.473 -0.8525  0.2485  0.7314
 3624TIP3    H210879   1.553   4.347   3.326  0.0953  0.3762  0.5012
 3625TIP3   OH210880   4.254   1.849   0.811  0.1598 -0.1285 -0.1633
 3625TIP3    H110881   4.187   1.911   0.783 -1.0403 -1.5629 -0.6043
 3625TIP3    H210882   4.253   1.854   0.907 -0.2351  0.2119 -0.1831
 3626TIP3   OH210883   0.711   1.573   2.107 -0.1222  0.0347 -0.3116
 3626TIP3    H110884   0.793   1.539   2.141 -0.2313  0.3612  0.2937
 3626TIP3    H210885   0.646   1.506   2.127  0.0931 -0.4897 -1.3202
 3627TIP3   OH210886   4.280   5.494   3.954  0.2464 -1.4405 -0.5156
 3627TIP3    H110887   4.255   5.442   4.030 -3.2026 -1.4363 -1.4946
 3627TIP3    H210888   4.204   5.549   3.936  2.5204  1.7004 -1.4676
 3628TIP3   OH210889   1.170   3.998   4.261  0.3973 -0.4060  0.0943
 3628TIP3    H110890   1.151   3.905   4.271  0.0219 -0.2545  0.9220
 3628TIP3    H210891   1.168   4.014   4.167 -3.7677 -0.3854  0.0176
 3629TIP3   OH210892   0.860   1.974   2.765  0.3588 -0.2099  0.1299
 3629TIP3    H110893   0.854   1.889   2.720  2.8906 -0.0015 -0.7358
 3629TIP3    H210894   0.876   2.037   2.695  3.2325  0.2846  1.1042
 3630TIP3   OH210895   5.449   1.030   0.814 -0.0124 -0.4580  0.1013
 3630TIP3    H110896   5.521   1.084   0.845 -0.2752  0.5393 -0.9546
 3630TIP3    H210897   5.491   0.950   0.780  0.4178 -0.7147  1.2127
 3631TIP3   OH210898   2.704   0.649   0.080  0.2718 -0.4186  0.3762
 3631TIP3    H110899   2.701   0.554   0.094  1.9095 -0.6290 -0.3870
 3631TIP3    H210900   2.779   0.662   0.021  0.0982  1.3536  0.4848
 3632TIP3   OH210901   4.935   4.941   2.241  0.1072 -0.2467  0.0681
 3632TIP3    H110902   4.867   4.980   2.297  0.8833  2.1547 -0.5314
 3632TIP3    H210903   4.986   5.016   2.211  0.7694 -1.6296 -2.4795
 3633TIP3   OH210904   6.191   4.264   2.999 -0.1030 -0.4030  0.3743
 3633TIP3    H110905   6.157   4.252   3.088 -0.8911 -2.8283 -0.1656
 3633TIP3    H210906   6.220   4.177   2.973  0.6897  0.3882 -1.5312
 3634TIP3   OH210907   3.625   4.353   3.144  0.3866 -1.2559 -0.1553
 3634TIP3    H110908   3.646   4.439   3.109  1.0298 -1.9078 -1.4126
 3634TIP3    H210909   3.667   4.351   3.230  1.5699 -0.8170 -0.7076
 3635TIP3   OH210910   3.561   4.006   2.280 -0.4106  0.1742  0.5357
 3635TIP3    H110911   3.608   3.970   2.355 -0.3553  1.3651  1.1076
 3635TIP3    H210912   3.470   4.012   2.308 -0.4143  0.4968  0.4605
 3636TIP3   OH210913   1.358   2.107   2.577 -0.0528  0.3778  0.4031
 3636TIP3    H110914   1.273   2.135   2.612  0.7173  1.0368  1.8383
 3636TIP3    H210915   1.363   2.014   2.600 -0.7634  0.1039 -0.5034
 3637TIP3   OH210916   2.644   2.394   1.394  0.1791  0.0285 -0.1179
 3637TIP3    H110917   2.549   2.395   1.392  0.1135 -1.6730  0.3654
 3637TIP3    H210918   2.668   2.310   1.355  1.5000  0.5385 -0.4635
 3638TIP3   OH210919   6.236   2.731   2.491 -0.3072  0.4600 -0.0911
 3638TIP3    H110920   6.329   2.721   2.469 -0.4725  1.7160 -1.4879
 3638TIP3    H210921   6.192   2.664   2.438 -0.1465 -0.9207  1.4282
 3639TIP3   OH210922   2.393   2.965   1.087 -0.2081  0.4399 -0.0669
 3639TIP3    H110923   2.353   2.922   1.012 -0.8487 -0.7741  0.9361
 3639TIP3    H210924   2.441   2.896   1.132  1.5947  1.4983 -0.2485
 3640TIP3   OH210925   4.301   4.066   0.311 -0.1590  0.3364 -0.0191
 3640TIP3    H110926   4.343   4.126   0.250 -0.8464  2.1223  1.1653
 3640TIP3    H210927   4.371   4.039   0.370 -0.2465  1.7879  0.7899
 3641TIP3   OH210928   2.181   4.116   4.573 -0.3536  0.3492 -0.0448
 3641TIP3    H110929   2.267   4.140   4.608 -0.8832  0.7605  1.0237
 3641TIP3    H210930   2.126   4.192   4.592 -0.9385  0.1168 -0.7855
 3642TIP3   OH210931   4.535   4.724   2.260  0.1521  0.3865  0.4239
 3642TIP3    H110932   4.452   4.759   2.226 -0.1725 -0.6905  0.0668
 3642TIP3    H210933   4.514   4.635   2.288  1.5385 -0.5647 -1.3064
 3643TIP3   OH210934   2.084   5.347   4.339 -0.1641 -0.3856  0.0217
 3643TIP3    H110935   2.110   5.401   4.264  1.1659  1.0228  1.3979
 3643TIP3    H210936   2.092   5.257   4.308  2.0702  0.0990 -1.0513
 3644TIP3   OH210937   4.700   5.712   1.484  0.2823 -0.3926  0.0712
 3644TIP3    H110938   4.772   5.734   1.543  0.0176 -0.6498  0.4991
 3644TIP3    H210939   4.718   5.760   1.404  0.8945 -0.4046  0.2003
 3645TIP3   OH210940   4.776   4.646   2.427  0.3158 -0.0527  0.3881
 3645TIP3    H110941   4.784   4.551   2.434  0.7452  0.0799  2.2915
 3645TIP3    H210942   4.704   4.660   2.367 -1.3353 -1.6396  1.8897
 3646TIP3   OH210943   5.365   5.952   5.160  0.5191  0.2996 -0.3776
 3646TIP3    H110944   5.279   5.973   5.123 -0.7711 -1.5309  1.3798
 3646TIP3    H210945   5.380   6.020   5.226 -0.9683 -0.9597  1.3193
 3647TIP3   OH210946   1.998   5.266   0.271  0.1534  0.2883 -0.1093
 3647TIP3    H110947   2.033   5.231   0.189  0.5745 -0.6133  0.4462
 3647TIP3    H210948   1.957   5.191   0.314  0.8360  0.5247  0.9885
 3648TIP3   OH210949   2.851   0.190   4.812 -0.1187 -0.4632  0.5204
 3648TIP3    H110950   2.862   0.211   4.719 -1.4293 -0.2417  0.3901
 3648TIP3    H210951   2.936   0.156   4.839  1.0689  1.7550 -0.1374
 3649TIP3   OH210952   5.675   0.600   1.173 -0.2437  0.0423 -0.2284
 3649TIP3    H110953   5.674   0.696   1.172  1.2534  0.0894 -0.9442
 3649TIP3    H210954   5.587   0.575   1.200 -1.0139  1.6071 -1.1662
 3650TIP3   OH210955   4.489   3.305   0.958  0.5961 -0.8357  0.0600
 3650TIP3    H110956   4.426   3.269   0.895  0.3142 -0.5252  0.1633
 3650TIP3    H210957   4.465   3.397   0.966  1.3235 -0.6165 -0.2137
 3651TIP3   OH210958   0.808   3.202   4.902 -0.0073 -0.3938  0.4721
 3651TIP3    H110959   0.869   3.132   4.881 -0.2522 -0.6220  0.5132
 3651TIP3    H210960   0.815   3.213   4.997 -0.5243 -0.8855  0.5703
 3652TIP3   OH210961   2.603   1.587   3.992  0.4676  0.0593 -0.2766
 3652TIP3    H110962   2.603   1.536   3.910  0.4367 -0.9146  0.3137
 3652TIP3    H210963   2.625   1.523   4.060 -0.7259  0.5988  0.6469
 3653TIP3   OH210964   3.246   4.433   1.519  0.5588  0.2723 -0.1957
 3653TIP3    H110965   3.317   4.487   1.552  2.4500 -1.0130 -1.9338
 3653TIP3    H210966   3.212   4.388   1.597  1.7711  0.7791  0.6594
 3654TIP3   OH210967   2.838   4.412   3.881 -0.3882 -0.2885 -0.2616
 3654TIP3    H110968   2.856   4.435   3.973 -0.1172  1.1003 -0.6370
 3654TIP3    H210969   2.750   4.374   3.883 -0.4599 -0.1065  0.5561
 3655TIP3   OH210970   0.443   4.470   2.800  0.3017 -0.1609 -0.3744
 3655TIP3    H110971   0.521   4.505   2.843  1.2291 -1.8812 -0.5607
 3655TIP3    H210972   0.470   4.385   2.767 -1.0085  0.1623 -2.4690
 3656TIP3   OH210973   2.363   5.578   3.086  0.5216 -0.0483 -0.4560
 3656TIP3    H110974   2.380   5.641   3.016 -0.6042  0.3707 -0.3681
 3656TIP3    H210975   2.268   5.566   3.085  0.7476 -2.2382 -0.8836
 3657TIP3   OH210976   2.567   2.567   0.751 -0.5453  0.7343  0.3270
 3657TIP3    H110977   2.598   2.514   0.677 -2.0166  0.8833 -0.4214
 3657TIP3    H210978   2.639   2.563   0.814 -0.2296 -1.4381 -0.0608
 3658TIP3   OH210979   1.082   3.005   1.999  0.6239  0.1819 -0.0862
 3658TIP3    H110980   1.141   3.053   1.941  1.0898 -0.7338 -0.3977
 3658TIP3    H210981   1.043   2.938   1.943  0.7644 -0.4488  0.5541
 3659TIP3   OH210982   2.560   0.904   1.471 -0.2004  0.0285  0.0245
 3659TIP3    H110983   2.523   0.839   1.412 -0.8282  2.0461 -1.9631
 3659TIP3    H210984   2.485   0.948   1.510  0.0944  1.7421 -1.2425
 3660TIP3   OH210985   6.024   4.473   2.183  0.2500 -0.9713  0.1615
 3660TIP3    H110986   5.929   4.462   2.181  0.0618  0.4547  0.3703
 3660TIP3    H210987   6.058   4.398   2.134 -0.9685 -1.5801  0.2290
 3661TIP3   OH210988   5.166   4.671   0.697 -0.4019  1.1198 -0.6706
 3661TIP3    H110989   5.083   4.701   0.661  0.5468  1.7553 -2.4555
 3661TIP3    H210990   5.206   4.750   0.733 -1.1679  0.5588  1.5440
 3662TIP3   OH210991   2.347   3.658   2.966  0.1665  0.4276  0.2632
 3662TIP3    H110992   2.313   3.747   2.960  0.1297  0.3475 -1.2938
 3662TIP3    H210993   2.285   3.606   2.915 -0.2855 -0.6609  1.8658
 3663TIP3   OH210994   4.871   1.779   2.488  0.1870  0.1905  0.0719
 3663TIP3    H110995   4.901   1.715   2.423  1.1391 -0.7086  1.3453
 3663TIP3    H210996   4.940   1.778   2.555 -0.2148  1.9340  0.5328
 3664TIP3   OH210997   5.579   5.840   5.068  0.2544 -0.1050  0.0561
 3664TIP3    H110998   5.645   5.906   5.091 -1.9986  1.9725  0.9031
 3664TIP3    H210999   5.496   5.877   5.096 -1.4888 -2.0858 -2.0591
 3665TIP3   OH211000   5.400   4.132   4.525 -0.0912 -0.3808  0.2631
 3665TIP3    H111001   5.313   4.156   4.493 -0.2595  0.9505  1.6138
 3665TIP3    H211002   5.387   4.048   4.570 -0.6026 -0.3553  0.1676
 3666TIP3   OH211003   2.671   2.133   0.099 -0.4750 -0.3461  0.0057
 3666TIP3    H111004   2.621   2.128   0.017 -0.6474 -2.6648  0.1865
 3666TIP3    H211005   2.762   2.132   0.072 -0.4781  1.9900 -0.2447
 3667TIP3   OH211006   3.605   1.622   4.104 -0.5391  0.3570  0.3520
 3667TIP3    H111007   3.674   1.573   4.059 -1.0738  1.2663 -1.5627
 3667TIP3    H211008   3.635   1.713   4.103 -1.5592  0.7043 -0.1610
 3668TIP3   OH211009   2.512   1.442   5.019 -0.1068 -0.1951 -0.7219
 3668TIP3    H111010   2.569   1.366   5.010 -0.1497 -0.6997  2.2622
 3668TIP3    H211011   2.431   1.417   4.976  0.2269 -1.4488 -0.6413
 3669TIP3   OH211012   1.362   1.824   2.597  0.0141 -0.3987 -1.1834
 3669TIP3    H111013   1.304   1.763   2.643 -0.6430  0.3674 -0.9616
 3669TIP3    H211014   1.360   1.795   2.506  0.2881 -1.1457 -0.9538
 3670TIP3   OH211015   3.728   2.299   0.709 -0.3646 -0.5252  0.1077
 3670TIP3    H111016   3.757   2.357   0.638  0.5498  0.1346  0.9877
 3670TIP3    H211017   3.808   2.283   0.760 -0.6073 -2.5183 -0.0727
 3671TIP3   OH211018   3.165   0.696   0.885  0.2101  0.3077  0.0660
 3671TIP3    H111019   3.211   0.726   0.963 -0.0219  0.5712  0.1037
 3671TIP3    H211020   3.090   0.646   0.919  0.0506  0.5097  0.0166
 3672TIP3   OH211021   0.263   5.886   0.575 -0.3464 -0.2415  0.1690
 3672TIP3    H111022   0.328   5.820   0.552 -0.6377 -0.5166  0.1372
 3672TIP3    H211023   0.242   5.867   0.667 -0.8207 -0.5277  0.0061
 3673TIP3   OH211024   0.815   2.102   1.029  0.6392  0.0951  0.5337
 3673TIP3    H111025   0.726   2.111   0.996  0.4360 -1.4878  0.5895
 3673TIP3    H211026   0.859   2.183   1.002 -0.2247 -0.0174 -1.3070
 3674TIP3   OH211027   5.698   4.110   3.151  0.3608 -0.1527  0.1629
 3674TIP3    H111028   5.755   4.080   3.222 -0.4092  1.4819  1.5411
 3674TIP3    H211029   5.758   4.147   3.087  0.9541  0.6808  1.1593
 3675TIP3   OH211030   1.879   1.971   2.236  0.7961 -0.0555  0.3159
 3675TIP3    H111031   1.807   1.940   2.180  1.1267  1.3848 -0.9544
 3675TIP3    H211032   1.841   2.042   2.286  1.0424 -0.0274  0.4612
 3676TIP3   OH211033   0.345   2.958   3.552  0.0164 -0.2242 -0.3585
 3676TIP3    H111034   0.259   2.996   3.570 -0.1580 -0.0571 -1.4793
 3676TIP3    H211035   0.327   2.876   3.505  0.4512  1.0219 -2.8899
 3677TIP3   OH211036   1.312   4.988   0.599  0.1547 -0.3480 -0.3529
 3677TIP3    H111037   1.292   5.022   0.512 -3.8348  1.2633  1.0055
 3677TIP3    H211038   1.343   5.064   0.648 -1.4987 -0.2913  0.6609
 3678TIP3   OH211039   4.217   5.302   4.694 -0.1226 -0.6796 -0.2112
 3678TIP3    H111040   4.144   5.359   4.672  0.2918  0.7417  1.7754
 3678TIP3    H211041   4.284   5.323   4.628 -0.8887 -0.7723 -1.0354
 3679TIP3   OH211042   4.095   4.590   5.134  0.2844 -0.1996  0.4809
 3679TIP3    H111043   4.003   4.577   5.110  0.2470  1.1922 -0.2810
 3679TIP3    H211044   4.098   4.679   5.167  1.5761  0.2685 -0.7840
 3680TIP3   OH211045   3.256   5.357   0.805 -0.2815 -0.0278 -0.2090
 3680TIP3    H111046   3.297   5.271   0.796 -1.0747 -0.3918 -0.3741
 3680TIP3    H211047   3.295   5.409   0.735  0.6774 -0.0541  0.2856
 3681TIP3   OH211048   6.149   2.463   2.627 -0.1858  0.5874  0.4443
 3681TIP3    H111049   6.181   2.513   2.552 -0.9756  0.0168 -0.3042
 3681TIP3    H211050   6.205   2.489   2.700  0.0412  1.8108 -0.1446
 3682TIP3   OH211051   5.742   4.434   2.923  0.3897 -0.2802 -0.0751
 3682TIP3    H111052   5.789   4.352   2.911 -0.8147 -1.0557  0.3509
 3682TIP3    H211053   5.732   4.443   3.018 -1.2019 -0.6718 -0.1744
 3683TIP3   OH211054   3.432   3.798   0.714  0.3974 -0.0409  0.4327
 3683TIP3    H111055   3.396   3.717   0.679  0.6403 -0.3951  0.9890
 3683TIP3    H211056   3.507   3.771   0.767  0.6133  0.5657  0.4512
 3684TIP3   OH211057   2.086   0.153   2.905 -0.2373  0.3140  0.0436
 3684TIP3    H111058   2.077   0.182   2.814  0.4690  1.0177  0.1829
 3684TIP3    H211059   2.154   0.087   2.903  0.0672  0.6219  0.1134
 3685TIP3   OH211060   4.603   5.112   0.645  0.0353  0.2585 -0.5948
 3685TIP3    H111061   4.635   5.022   0.635  0.1817  0.3702 -1.2299
 3685TIP3    H211062   4.541   5.123   0.573 -1.3694  0.0913  0.5528
 3686TIP3   OH211063   3.122   1.313   0.551 -0.1898 -0.0033  0.0236
 3686TIP3    H111064   3.040   1.301   0.504  0.1549 -1.8090 -0.1788
 3686TIP3    H211065   3.095   1.342   0.639 -0.9722  0.4047 -0.3419
 3687TIP3   OH211066   4.296   1.756   5.008 -0.1768  0.0680  0.0368
 3687TIP3    H111067   4.326   1.836   4.964  2.6627 -1.0417 -0.2636
 3687TIP3    H211068   4.305   1.776   5.102  1.9151 -0.2768 -0.0370
 3688TIP3   OH211069   1.342   1.945   1.567  0.2235  0.3059  0.1276
 3688TIP3    H111070   1.365   1.857   1.595  1.2899  0.4635 -0.2044
 3688TIP3    H211071   1.333   1.994   1.649 -0.8836 -0.2116  0.3362
 3689TIP3   OH211072   1.597   3.232   2.190  0.6772  0.0024 -0.4036
 3689TIP3    H111073   1.621   3.139   2.188  0.2205 -0.1541  0.6055
 3689TIP3    H211074   1.507   3.234   2.157  1.0493  0.2338 -1.4475
 3690TIP3   OH211075   5.720   4.314   4.746  0.2152  0.7373 -0.4639
 3690TIP3    H111076   5.766   4.398   4.752  0.2924  0.8578 -2.2033
 3690TIP3    H211077   5.698   4.305   4.653  0.6430 -1.3947 -0.4131
 3691TIP3   OH211078   0.838   1.499   1.086 -1.2877 -0.5018  0.6752
 3691TIP3    H111079   0.876   1.501   1.174  0.0411 -0.3121  0.1307
 3691TIP3    H211080   0.752   1.540   1.096 -1.2148 -0.6065  1.9059
 3692TIP3   OH211081   1.958   4.733   1.729 -0.2475  0.3485 -0.0748
 3692TIP3    H111082   1.892   4.773   1.786 -1.5260 -1.5389 -0.1267
 3692TIP3    H211083   1.949   4.779   1.646 -1.4866  0.1736 -0.0603
 3693TIP3   OH211084   1.696   4.752   3.575 -0.1011  0.1832 -0.2160
 3693TIP3    H111085   1.752   4.756   3.497 -1.0664 -0.2044 -0.9662
 3693TIP3    H211086   1.640   4.830   3.567 -0.9784 -0.4529 -0.5577
 3694TIP3   OH211087   5.941   5.730   0.175 -0.2459  0.4248  0.5725
 3694TIP3    H111088   5.970   5.779   0.098  0.9456 -0.0881  0.6663
 3694TIP3    H211089   6.020   5.722   0.228  0.0603 -2.9527 -0.1871
 3695TIP3   OH211090   2.979   1.860   3.880  0.2253  0.4345  0.8689
 3695TIP3    H111091   2.975   1.874   3.785  0.1727 -0.5880  0.7088
 3695TIP3    H211092   2.893   1.888   3.912 -0.7721 -1.6986  0.2423
 3696TIP3   OH211093   1.216   5.888   0.657  0.1249 -0.4869 -0.2281
 3696TIP3    H111094   1.126   5.863   0.676  0.6319 -2.0206  0.2772
 3696TIP3    H211095   1.209   5.953   0.587 -1.4249  0.3399  0.6453
 3697TIP3   OH211096   4.948   1.416   3.100  0.2991  0.6301 -0.6430
 3697TIP3    H111097   4.885   1.450   3.163 -0.4160 -0.3784 -0.7839
 3697TIP3    H211098   4.933   1.321   3.099  1.1035  0.4898 -1.4537
 3698TIP3   OH211099   6.269   2.871   4.213  0.1481 -0.1529 -0.2401
 3698TIP3    H111100   6.174   2.884   4.206  0.1835 -0.2266 -0.9512
 3698TIP3    H211101   6.278   2.789   4.261 -0.1417  0.1035  0.2578
 3699TIP3   OH211102   4.428   4.480   2.354 -0.1998 -0.1966 -0.4693
 3699TIP3    H111103   4.420   4.421   2.430 -0.5615  2.1298  1.4272
 3699TIP3    H211104   4.341   4.478   2.314 -0.9118  0.7326  0.9576
 3700TIP3   OH211105   0.256   0.614   2.992  0.1457  0.0565 -0.1423
 3700TIP3    H111106   0.330   0.559   3.017  0.1075 -0.5379 -1.3004
 3700TIP3    H211107   0.211   0.632   3.075  2.6099  2.0305  0.9122
 3701TIP3   OH211108   4.202   4.339   1.446 -0.0720 -1.4670 -0.6782
 3701TIP3    H111109   4.138   4.364   1.380 -1.4099 -0.8354  0.7807
 3701TIP3    H211110   4.283   4.381   1.419 -1.0469  0.2948 -0.9607
 3702TIP3   OH211111   5.546   5.275   1.746 -0.1611 -0.2064  0.1316
 3702TIP3    H111112   5.582   5.188   1.729  0.0267  0.0314 -0.7425
 3702TIP3    H211113   5.623   5.330   1.759 -0.2913 -0.2629  1.1936
 3703TIP3   OH211114   5.268   1.592   2.739 -0.3573 -0.3922  0.0702
 3703TIP3    H111115   5.339   1.530   2.723 -0.1541 -0.1900  0.1807
 3703TIP3    H211116   5.258   1.592   2.834 -0.0519  0.0841  0.1014
 3704TIP3   OH211117   4.253   2.720   4.887  0.0394 -0.0565 -0.1078
 3704TIP3    H111118   4.231   2.778   4.814 -0.3771 -1.1738 -0.8997
 3704TIP3    H211119   4.285   2.778   4.955 -0.0996  1.0739 -0.9790
 3705TIP3   OH211120   0.887   5.300   2.753  0.2140  0.2730 -0.1961
 3705TIP3    H111121   0.965   5.265   2.797 -0.7320 -1.0226  0.5476
 3705TIP3    H211122   0.844   5.354   2.819 -0.5493 -0.6608  0.1093
 3706TIP3   OH211123   4.882   5.221   4.717  0.1330 -0.3826 -0.4020
 3706TIP3    H111124   4.813   5.155   4.724  1.2307 -1.4142  1.5827
 3706TIP3    H211125   4.857   5.273   4.641 -2.8117 -0.7238  0.1913
 3707TIP3   OH211126   4.635   3.564   3.726  0.4834  0.3131 -0.0671
 3707TIP3    H111127   4.652   3.613   3.806  1.3628  0.0300 -0.0749
 3707TIP3    H211128   4.629   3.631   3.658  0.8861  0.4722  0.0507
 3708TIP3   OH211129   2.188   5.782   0.297  0.1557 -0.5352 -0.1082
 3708TIP3    H111130   2.282   5.779   0.311  0.1124  1.1175  0.6972
 3708TIP3    H211131   2.150   5.774   0.384 -0.4687 -1.1377 -0.4218
 3709TIP3   OH211132   2.057   5.149   1.024  0.3395  0.4276 -0.5167
 3709TIP3    H111133   2.013   5.172   0.942 -0.3525 -1.1887 -0.6375
 3709TIP3    H211134   1.998   5.181   1.093 -1.6077 -2.4657 -0.6639
 3710TIP3   OH211135   0.681   5.621   2.791 -1.0283  0.5344  0.1198
 3710TIP3    H111136   0.702   5.557   2.723  0.4376  1.4582 -0.3695
 3710TIP3    H211137   0.743   5.693   2.775 -1.1364  1.0943  1.9988
 3711TIP3   OH211138   2.635   4.743   4.204  0.3512  0.2733 -0.2197
 3711TIP3    H111139   2.695   4.816   4.222  0.0158  0.3301  0.7286
 3711TIP3    H211140   2.552   4.771   4.242  0.7830 -1.5828  2.3349
 3712TIP3   OH211141   5.501   2.586   3.714  0.2171  0.6140  0.2925
 3712TIP3    H111142   5.524   2.628   3.631 -0.9135  1.6119  0.4629
 3712TIP3    H211143   5.512   2.655   3.780 -2.0095  0.8127  0.5321
 3713TIP3   OH211144   2.676   4.588   3.706  0.1546 -0.4023 -0.2001
 3713TIP3    H111145   2.764   4.555   3.726  0.1222 -2.0100 -2.3740
 3713TIP3    H211146   2.637   4.605   3.792  1.4134 -2.8659  0.9700
 3714TIP3   OH211147   4.536   5.227   1.145  0.3554 -0.7356  0.1295
 3714TIP3    H111148   4.456   5.262   1.184  1.0495  0.5095  0.4791
 3714TIP3    H211149   4.528   5.132   1.156 -1.4985 -0.7170 -0.6923
 3715TIP3   OH211150   2.218   4.551   2.692  0.0310  0.2714  0.0860
 3715TIP3    H111151   2.278   4.488   2.654  1.2695  0.5587  1.4914
 3715TIP3    H211152   2.269   4.632   2.699 -0.8688  0.8374  0.2922
 3716TIP3   OH211153   3.382   2.044   3.018  0.2839 -0.3971  0.0996
 3716TIP3    H111154   3.346   2.133   3.021  0.7606 -0.1271 -1.4293
 3716TIP3    H211155   3.468   2.051   3.060  0.3873 -0.0915 -0.1572
 3717TIP3   OH211156   1.322   0.217   2.191  0.1321 -0.3100 -0.1713
 3717TIP3    H111157   1.334   0.256   2.104 -0.8876 -0.4190 -0.3769
 3717TIP3    H211158   1.263   0.143   2.176  0.9268 -1.0863  0.4389
 3718TIP3   OH211159   1.233   5.444   3.161 -0.1791  0.7287  0.4259
 3718TIP3    H111160   1.320   5.423   3.125 -1.2997  0.1835 -2.2181
 3718TIP3    H211161   1.249   5.463   3.253  2.7177  0.4623  0.0726
 3719TIP3   OH211162   4.574   1.658   0.794  0.2939 -0.1214 -0.2519
 3719TIP3    H111163   4.666   1.638   0.779  0.5049 -0.1802  1.0486
 3719TIP3    H211164   4.543   1.689   0.709  1.9551  1.6023 -0.3042
 3720TIP3   OH211165   1.592   0.936   1.265 -0.2260 -0.2873  0.2676
 3720TIP3    H111166   1.582   1.011   1.206  0.6091  1.2736  2.0115
 3720TIP3    H211167   1.525   0.948   1.331  0.6551 -0.4134  1.2099
 3721TIP3   OH211168   5.201   0.371   5.107 -0.4531  0.0390  0.4320
 3721TIP3    H111169   5.196   0.376   5.202 -0.9371  1.5570  0.3513
 3721TIP3    H211170   5.131   0.310   5.083 -0.7417  0.1262  1.0236
 3722TIP3   OH211171   1.956   0.423   3.701  0.2352 -0.4640  0.3847
 3722TIP3    H111172   2.022   0.447   3.766 -1.3257  0.3520  1.7348
 3722TIP3    H211173   1.873   0.449   3.740 -0.7454  0.6080 -2.1790
 3723TIP3   OH211174   6.311   0.229   1.426 -0.8798 -0.0639 -0.1724
 3723TIP3    H111175   6.405   0.233   1.413 -1.2304  0.9032 -3.4919
 3723TIP3    H211176   6.290   0.309   1.475 -0.0241 -0.1393  0.3270
 3724TIP3   OH211177   1.072   4.272   4.040  0.6881  0.4249 -0.2451
 3724TIP3    H111178   1.144   4.329   4.068  0.0778  0.7171  0.7655
 3724TIP3    H211179   1.044   4.308   3.956  1.7335  0.2922 -0.6646
 3725TIP3   OH211180   1.927   1.780   1.375 -0.2391  0.3341 -0.5677
 3725TIP3    H111181   2.005   1.780   1.319  0.3354  1.8095  0.1691
 3725TIP3    H211182   1.867   1.840   1.333 -0.9734 -0.7240 -1.0756
 3726TIP3   OH211183   4.998   0.982   2.908 -0.0578 -0.1215 -0.0163
 3726TIP3    H111184   5.073   0.926   2.929  1.8397  2.6452  1.1110
 3726TIP3    H211185   5.019   1.021   2.824 -0.6084  0.1351 -0.0435
 3727TIP3   OH211186   3.757   0.542   2.311 -0.0740  0.5516 -0.0711
 3727TIP3    H111187   3.732   0.564   2.221 -0.4715 -0.9377 -0.3568
 3727TIP3    H211188   3.725   0.453   2.323  0.9531  0.3327  1.1902
 3728TIP3   OH211189   1.207   0.506   1.414  0.0701  0.1454 -0.6641
 3728TIP3    H111190   1.235   0.423   1.451  0.1335 -0.7456 -2.6158
 3728TIP3    H211191   1.287   0.557   1.404  0.3973 -0.5747 -1.8507
 3729TIP3   OH211192   1.233   2.814   4.601  0.1287  0.0488 -0.1537
 3729TIP3    H111193   1.311   2.862   4.573  0.4887  0.1422  0.9637
 3729TIP3    H211194   1.233   2.821   4.696 -0.8912 -0.5162 -0.0925
 3730TIP3   OH211195   4.750   0.290   3.197  0.2189 -0.4692 -0.0861
 3730TIP3    H111196   4.836   0.310   3.160 -0.8981 -0.5139 -3.0336
 3730TIP3    H211197   4.696   0.366   3.175 -0.5615 -0.4823  1.6212
 3731TIP3   OH211198   3.560   2.366   0.942 -0.3283 -0.2303  0.6748
 3731TIP3    H111199   3.593   2.319   1.018 -0.5849  1.7856  2.1026
 3731TIP3    H211200   3.619   2.340   0.871  0.2348 -1.7513  1.6387
 3732TIP3   OH211201   2.532   5.599   0.580  0.3612  0.1741 -0.4111
 3732TIP3    H111202   2.488   5.671   0.536  1.4782  0.1476 -1.6445
 3732TIP3    H211203   2.582   5.555   0.511  1.0681 -0.7356  0.6281
 3733TIP3   OH211204   3.200   0.991   4.137  0.5290  0.2719 -0.0087
 3733TIP3    H111205   3.134   1.057   4.159  1.0287 -0.0475  2.8137
 3733TIP3    H211206   3.282   1.040   4.134  0.4036  0.4716 -2.4294
 3734TIP3   OH211207   1.904   5.681   4.108  0.1329 -0.2159 -0.0803
 3734TIP3    H111208   1.976   5.739   4.132 -0.5436  0.4219  0.4645
 3734TIP3    H211209   1.878   5.710   4.020 -0.3495  0.4624  0.2815
 3735TIP3   OH211210   5.090   5.238   2.637 -0.2141 -0.1123  0.0937
 3735TIP3    H111211   5.007   5.196   2.615 -0.4665  1.3906 -2.1483
 3735TIP3    H211212   5.071   5.291   2.715 -1.9410  1.6652 -1.4238
 3736TIP3   OH211213   2.532   4.234   1.842  0.5491 -0.2056 -0.1968
 3736TIP3    H111214   2.468   4.239   1.913  1.1604  0.4840  0.3240
 3736TIP3    H211215   2.497   4.294   1.775  0.1881 -0.5325 -0.3037
 3737TIP3   OH211216   2.239   4.158   0.411  0.3008 -0.8803  0.1707
 3737TIP3    H111217   2.281   4.090   0.358 -0.7325 -2.1664  0.9440
 3737TIP3    H211218   2.149   4.162   0.378 -0.2906 -1.5318  1.6120
 3738TIP3   OH211219   2.296   5.407   3.593 -0.0609  0.1170 -0.0307
 3738TIP3    H111220   2.244   5.376   3.519  2.4293  0.6637 -2.1307
 3738TIP3    H211221   2.327   5.493   3.567 -0.7029  1.2553  2.5590
 3739TIP3   OH211222   4.733   0.299   3.500  0.4518 -0.2975  0.2602
 3739TIP3    H111223   4.732   0.248   3.419 -0.9162  1.8070 -1.1505
 3739TIP3    H211224   4.824   0.326   3.511  1.0495 -2.3169  0.6336
 3740TIP3   OH211225   3.439   5.411   4.350 -0.3219 -0.1832 -0.4719
 3740TIP3    H111226   3.494   5.333   4.362 -1.1466 -0.9237 -1.3064
 3740TIP3    H211227   3.375   5.405   4.420 -0.6147 -0.4693 -0.7603
 3741TIP3   OH211228   4.219   5.622   4.892 -0.2563 -0.1273  0.6113
 3741TIP3    H111229   4.143   5.670   4.924 -1.6411 -0.6781 -1.6113
 3741TIP3    H211230   4.188   5.578   4.813  2.7984  1.0127 -1.4122
 3742TIP3   OH211231   6.284   1.985   3.303  0.0454 -0.0934 -0.2779
 3742TIP3    H111232   6.308   1.993   3.210 -3.0520  0.2130 -1.1626
 3742TIP3    H211233   6.265   1.891   3.315 -2.0992  0.2243 -0.7524
 3743TIP3   OH211234   4.204   0.964   1.153  0.1193  0.3583 -0.2698
 3743TIP3    H111235   4.156   1.046   1.165  0.3299  0.2950  1.1512
 3743TIP3    H211236   4.138   0.895   1.161  0.0708  0.3592 -0.6612
 3744TIP3   OH211237   4.895   5.936   2.359 -0.3677  0.5333 -0.1866
 3744TIP3    H111238   4.939   6.015   2.328  1.7758 -0.2035  0.7416
 3744TIP3    H211239   4.856   5.961   2.443 -0.4907  0.8289 -0.3303
 3745TIP3   OH211240   5.596   5.391   1.367 -0.0591  0.1586 -0.0678
 3745TIP3    H111241   5.524   5.406   1.428 -0.0949  1.2178 -0.3510
 3745TIP3    H211242   5.560   5.333   1.301 -0.2399 -0.4051  0.5210
 3746TIP3   OH211243   1.282   2.560   2.076  0.6248  0.0035 -0.0780
 3746TIP3    H111244   1.233   2.478   2.074  1.0175 -0.2282 -0.1858
 3746TIP3    H211245   1.226   2.619   2.126  0.1199 -0.1839 -0.4093
 3747TIP3   OH211246   2.271   4.942   1.439  0.2214  0.6396 -0.0369
 3747TIP3    H111247   2.245   4.882   1.369  1.5112  2.1012 -1.8907
 3747TIP3    H211248   2.245   5.028   1.407  2.2250  1.5311  0.5555
 3748TIP3   OH211249   3.110   4.830   0.456  0.0786 -0.3834 -0.1124
 3748TIP3    H111250   3.155   4.914   0.457  0.0706 -0.3306  2.8124
 3748TIP3    H211251   3.077   4.822   0.366  0.0592  2.7304 -0.4938
 3749TIP3   OH211252   0.075   1.348   4.853  0.1737  0.5612  0.0150
 3749TIP3    H111253   0.120   1.371   4.772  1.3589 -2.8700 -0.4456
 3749TIP3    H211254   0.143   1.349   4.920  0.1993 -0.9700  0.0512
 3750TIP3   OH211255   1.143   4.059   0.144 -0.6071 -0.2277  0.8751
 3750TIP3    H111256   1.234   4.031   0.153 -0.5808 -0.0899  1.0399
 3750TIP3    H211257   1.105   3.997   0.082  0.2401  1.1070 -1.0844
 3751TIP3   OH211258   2.342   5.956   2.173 -0.4144  0.2143 -0.4465
 3751TIP3    H111259   2.402   5.970   2.247  1.7293 -0.5352 -1.9424
 3751TIP3    H211260   2.260   5.929   2.214  0.9495 -1.0678  1.6517
 3752TIP3   OH211261   3.592   4.629   3.073  0.1689 -0.4520  0.1310
 3752TIP3    H111262   3.547   4.610   3.156  0.2142  0.8635  0.4871
 3752TIP3    H211263   3.602   4.725   3.073  0.1998 -0.4386 -1.3883
 3753TIP3   OH211264   3.607   0.507   0.128 -0.3418  0.4495 -0.0061
 3753TIP3    H111265   3.553   0.582   0.106 -1.0405 -0.7868 -2.9654
 3753TIP3    H211266   3.550   0.451   0.182 -1.5128 -0.0255 -1.6430
 3754TIP3   OH211267   1.232   4.368   0.910  0.0822 -0.0534  0.1473
 3754TIP3    H111268   1.200   4.329   0.991  1.9047  0.7909  1.3359
 3754TIP3    H211269   1.154   4.373   0.854 -0.9974 -1.6823  1.4004
 3755TIP3   OH211270   2.723   3.269   4.796 -0.4482  0.0751 -0.1136
 3755TIP3    H111271   2.628   3.268   4.787 -0.5895 -1.5206  1.0604
 3755TIP3    H211272   2.751   3.183   4.767  0.2751 -0.5747  2.2414
 3756TIP3   OH211273   1.607   0.665   3.996  0.4019 -0.2856 -0.2209
 3756TIP3    H111274   1.522   0.654   3.953 -1.5068  2.1059  2.5785
 3756TIP3    H211275   1.626   0.579   4.033 -1.2454 -0.6597 -0.1719
 3757TIP3   OH211276   4.281   1.949   3.119  0.5045  0.5132  0.2431
 3757TIP3    H111277   4.318   1.970   3.205 -1.2117  1.7605  0.7189
 3757TIP3    H211278   4.355   1.955   3.059  1.5367  0.6042  1.4882
 3758TIP3   OH211279   2.376   0.589   0.078  0.3051  0.2113 -0.4518
 3758TIP3    H111280   2.453   0.606   0.132  0.4548 -0.2318 -0.5212
 3758TIP3    H211281   2.330   0.673   0.075 -0.9168 -0.2394  2.2652
 3759TIP3   OH211282   1.868   4.795   3.360 -0.2393  0.1481 -1.0400
 3759TIP3    H111283   1.891   4.734   3.289 -0.1891 -2.7714  1.2909
 3759TIP3    H211284   1.951   4.839   3.380  0.4387 -1.1169 -0.9375
 3760TIP3   OH211285   3.505   3.626   2.837  0.0035 -0.0422 -0.1502
 3760TIP3    H111286   3.464   3.699   2.884 -1.5674  0.4293 -2.1147
 3760TIP3    H211287   3.562   3.585   2.902 -1.8274  0.7167  2.0718
 3761TIP3   OH211288   3.850   5.670   0.772 -0.3166  0.0035 -0.3816
 3761TIP3    H111289   3.855   5.605   0.843 -1.9860  0.9615  0.6706
 3761TIP3    H211290   3.777   5.641   0.718 -0.3695  0.3949 -0.5240
 3762TIP3   OH211291   1.975   4.234   0.308 -0.4805  0.3135  0.1452
 3762TIP3    H111292   1.912   4.165   0.331 -1.3524  0.7657 -0.7927
 3762TIP3    H211293   1.922   4.302   0.267  0.5690  0.9170 -0.2493
 3763TIP3   OH211294   3.099   0.314   4.631 -0.4844  0.4768  0.3896
 3763TIP3    H111295   3.036   0.283   4.565  0.4279  0.8228 -0.6875
 3763TIP3    H211296   3.168   0.247   4.630 -0.5917  0.3508  1.2032
 3764TIP3   OH211297   1.920   5.013   4.812  0.1150  0.0871 -0.8543
 3764TIP3    H111298   1.904   5.104   4.786 -1.8139 -0.4937 -1.9201
 3764TIP3    H211299   1.892   5.008   4.903  0.8064  0.6834 -0.6031
 3765TIP3   OH211300   2.710   5.813   3.798  0.0820 -0.4160 -0.4994
 3765TIP3    H111301   2.804   5.818   3.814 -0.4927  2.5018  3.4420
 3765TIP3    H211302   2.678   5.751   3.864 -1.1026  2.3113  1.7006
 3766TIP3   OH211303   1.515   2.904   2.194 -0.0200 -0.1288 -0.1555
 3766TIP3    H111304   1.456   2.954   2.250 -0.7097 -0.8276 -0.2344
 3766TIP3    H211305   1.516   2.816   2.234 -0.4168 -0.5956 -1.1462
 3767TIP3   OH211306   1.539   5.721   5.142  0.6243  0.6982 -0.3218
 3767TIP3    H111307   1.623   5.692   5.107  0.1414 -0.4079 -0.5946
 3767TIP3    H211308   1.510   5.649   5.198 -0.2221  0.9956 -0.3616
 3768TIP3   OH211309   3.500   3.446   2.622 -0.1197  0.2190  0.5877
 3768TIP3    H111310   3.534   3.476   2.706 -0.5380  0.1426  0.7902
 3768TIP3    H211311   3.552   3.493   2.557  2.5489 -2.2123  0.7879
 3769TIP3   OH211312   3.801   2.999   3.903  0.0002 -0.2930  0.5725
 3769TIP3    H111313   3.882   2.953   3.878 -0.2432 -3.5573  4.7088
 3769TIP3    H211314   3.828   3.063   3.968 -0.5299  0.0811  0.4305
 3770TIP3   OH211315   3.937   5.940   1.889  0.1392 -0.4502  0.2556
 3770TIP3    H111316   3.911   6.026   1.857  0.3715  0.3419  2.0891
 3770TIP3    H211317   4.003   5.910   1.826  1.0610  1.3196  0.3047
 3771TIP3   OH211318   1.551   2.201   1.104 -0.0468 -0.3023 -0.4518
 3771TIP3    H111319   1.469   2.205   1.055  0.0793 -0.2836 -0.6620
 3771TIP3    H211320   1.539   2.128   1.164 -0.0412 -0.5948 -0.8038
 3772TIP3   OH211321   0.441   0.112   3.172 -0.3014 -0.4027  0.0521
 3772TIP3    H111322   0.445   0.168   3.249  3.4003 -0.7364  0.2495
 3772TIP3    H211323   0.484   0.162   3.103 -2.5509 -0.5715 -1.5933
 3773TIP3   OH211324   3.347   3.204   2.709  0.2115  0.2224  0.0766
 3773TIP3    H111325   3.404   3.225   2.635 -0.1277  1.9538  0.2760
 3773TIP3    H211326   3.407   3.185   2.781  0.6104 -3.2211 -0.9765
 3774TIP3   OH211327   0.515   4.145   2.744  0.1703 -0.4715 -0.0678
 3774TIP3    H111328   0.590   4.178   2.794 -1.2346  2.3837  0.3553
 3774TIP3    H211329   0.538   4.054   2.724  3.1790 -0.0856  1.0752
 3775TIP3   OH211330   0.925   5.578   3.742 -0.4369  0.5550 -0.2261
 3775TIP3    H111331   0.850   5.580   3.682  0.6820  0.8730 -1.6561
 3775TIP3    H211332   0.949   5.670   3.753 -0.1056  0.4407  0.0265
 3776TIP3   OH211333   0.332   0.355   4.394  0.1422  0.3185 -0.4777
 3776TIP3    H111334   0.411   0.406   4.412 -0.1642  0.5302  0.3225
 3776TIP3    H211335   0.285   0.353   4.478 -1.7317  1.9933 -1.3809
 3777TIP3   OH211336   2.319   0.602   5.115  0.1179 -0.2640  0.9417
 3777TIP3    H111337   2.378   0.530   5.090  1.9478  0.6954  2.2652
 3777TIP3    H211338   2.281   0.573   5.198 -0.6499 -0.5035  0.5176
 3778TIP3   OH211339   1.596   5.639   3.293 -0.2566 -0.9254  0.1312
 3778TIP3    H111340   1.509   5.672   3.275  0.0779  1.0687  1.8649
 3778TIP3    H211341   1.593   5.609   3.384  1.5215  1.8928  1.2522
 3779TIP3   OH211342   0.938   5.405   0.586 -0.4582  0.1617 -0.3168
 3779TIP3    H111343   1.026   5.435   0.606 -0.6359  0.5886 -0.1739
 3779TIP3    H211344   0.887   5.484   0.573 -0.9594 -0.0676  0.2052
 3780TIP3   OH211345   6.335   1.429   0.333 -0.0433  0.2260  0.3537
 3780TIP3    H111346   6.247   1.466   0.323 -0.3618 -0.2053  1.3769
 3780TIP3    H211347   6.321   1.349   0.385  1.0169  0.4374  0.9808
 3781TIP3   OH211348   4.591   3.358   4.387  0.5977  0.9631  0.1013
 3781TIP3    H111349   4.542   3.396   4.314 -1.2362 -0.4025  0.5504
 3781TIP3    H211350   4.578   3.264   4.379  1.1451  0.7188  1.6619
 3782TIP3   OH211351   2.365   0.816   0.899 -0.0748  0.1660 -0.3522
 3782TIP3    H111352   2.399   0.810   0.989 -1.3182  0.6505  0.1654
 3782TIP3    H211353   2.391   0.903   0.869 -1.6094  0.9203  0.3908
 3783TIP3   OH211354   4.985   4.003   3.352  0.4217  0.1900 -0.6829
 3783TIP3    H111355   4.969   3.909   3.354 -1.6351  0.4429 -1.7020
 3783TIP3    H211356   4.986   4.025   3.259  1.3140  1.1212 -0.4729
 3784TIP3   OH211357   2.088   4.074   0.859  0.1755  0.0236 -0.3450
 3784TIP3    H111358   2.083   4.156   0.810  0.0874  1.7421  2.3450
 3784TIP3    H211359   1.997   4.047   0.869  0.2694 -1.5152 -2.7962
 3785TIP3   OH211360   5.889   5.882   2.956 -0.5608  0.0813  0.4867
 3785TIP3    H111361   5.820   5.944   2.932  0.0342  0.6638  0.2568
 3785TIP3    H211362   5.941   5.927   3.022  0.0335 -0.0636  0.1262
 3786TIP3   OH211363   6.269   0.951   0.048  0.3095 -0.7411 -0.1745
 3786TIP3    H111364   6.276   1.036   0.003  1.2693 -0.9980 -0.5270
 3786TIP3    H211365   6.191   0.911   0.010 -0.9021  0.4870  0.8913
 3787TIP3   OH211366   5.613   1.302   4.489 -0.3011 -0.3362 -0.4178
 3787TIP3    H111367   5.534   1.259   4.522  0.4436 -2.4154 -1.1429
 3787TIP3    H211368   5.680   1.283   4.555  0.2570 -1.1334 -1.1886
 3788TIP3   OH211369   0.664   5.325   4.723  0.1337 -0.0783  0.5821
 3788TIP3    H111370   0.701   5.294   4.806  0.8250  2.5957  1.3781
 3788TIP3    H211371   0.579   5.361   4.747 -0.8283 -1.5794 -0.3854
 3789TIP3   OH211372   4.014   1.872   3.127  0.6512 -0.2381 -0.1066
 3789TIP3    H111373   4.109   1.883   3.122  0.6108 -0.2707 -1.6465
 3789TIP3    H211374   3.992   1.818   3.050 -0.7212  0.6453 -0.3864
 3790TIP3   OH211375   3.189   0.029   4.335  0.2424  0.3630 -1.0390
 3790TIP3    H111376   3.138   0.109   4.347  1.9616  1.2111  1.2839
 3790TIP3    H211377   3.132  -0.028   4.282 -2.1033  2.1113 -0.5604
 3791TIP3   OH211378   2.901   2.194   3.596  0.2744  0.9049 -0.0619
 3791TIP3    H111379   2.904   2.100   3.583  0.6416  1.2513 -3.2122
 3791TIP3    H211380   2.992   2.221   3.606  0.2031  0.9854  0.3969
 3792TIP3   OH211381   2.655   2.117   2.699  0.0118  0.1228  0.2439
 3792TIP3    H111382   2.744   2.115   2.734 -0.1323  2.2560  0.9095
 3792TIP3    H211383   2.601   2.082   2.770  0.2840 -1.1362 -0.1462
 3793TIP3   OH211384   4.236   1.040   2.770  0.3553 -0.2219 -0.1741
 3793TIP3    H111385   4.183   1.120   2.765  0.4753  0.1858  2.9490
 3793TIP3    H211386   4.315   1.067   2.816  1.6344 -1.6275 -1.4628
 3794TIP3   OH211387   3.128   3.661   2.987  0.5470  0.2201 -0.0977
 3794TIP3    H111388   3.175   3.592   2.941  0.9287  0.4353 -0.0421
 3794TIP3    H211389   3.111   3.625   3.074 -0.8944 -0.4903 -0.6563
 3795TIP3   OH211390   5.817   5.962   0.345 -0.4018  0.0130 -0.7378
 3795TIP3    H111391   5.828   5.894   0.279  1.7678  0.1215 -0.5705
 3795TIP3    H211392   5.864   6.038   0.309 -0.0326  0.3836  0.4718
 3796TIP3   OH211393   3.994   2.403   3.074 -0.0338  0.0928  0.1803
 3796TIP3    H111394   3.909   2.366   3.048  0.8735 -1.9038 -0.1925
 3796TIP3    H211395   4.003   2.379   3.166  0.2910 -0.0771  0.1058
 3797TIP3   OH211396   4.394   4.410   0.445  0.5766  0.1861  0.6211
 3797TIP3    H111397   4.379   4.333   0.499  1.2587 -0.4839 -0.1242
 3797TIP3    H211398   4.481   4.397   0.407  1.4848  2.1501  1.8439
 3798TIP3   OH211399   5.356   2.504   5.084  0.5103 -0.1546  0.3211
 3798TIP3    H111400   5.450   2.488   5.077  0.7647  1.1614  0.4852
 3798TIP3    H211401   5.347   2.599   5.082 -0.9075 -0.2710 -0.6794
 3799TIP3   OH211402   3.980  -0.011   4.731  0.0022 -0.1109 -0.6154
 3799TIP3    H111403   3.896  -0.053   4.747  0.4115 -1.7042 -2.3450
 3799TIP3    H211404   3.958   0.072   4.688 -0.6884 -0.0163 -0.1086
 3800TIP3   OH211405   4.221   3.479   3.448 -0.3955 -0.4529 -0.2744
 3800TIP3    H111406   4.223   3.393   3.489 -1.7525 -0.2654  0.2217
 3800TIP3    H211407   4.221   3.541   3.521 -2.7146 -0.1138 -0.4940
 3801TIP3   OH211408   3.696   0.919   0.354  0.0747  0.0477 -0.1560
 3801TIP3    H111409   3.782   0.947   0.384  0.3085  0.0385 -0.7988
 3801TIP3    H211410   3.675   0.979   0.282  0.1800 -0.8312 -0.9425
 3802TIP3   OH211411   2.444   6.005   3.814  0.1610  0.4239 -0.2602
 3802TIP3    H111412   2.479   5.997   3.726 -0.5196  0.9383 -0.5820
 3802TIP3    H211413   2.492   5.939   3.865 -0.2441 -0.6700 -1.2581
 3803TIP3   OH211414   1.832   2.623   0.522  0.4191  0.2624  0.3048
 3803TIP3    H111415   1.763   2.678   0.558  0.7463 -0.4701  2.1961
 3803TIP3    H211416   1.851   2.660   0.436  0.5090  2.9705  1.4066
 3804TIP3   OH211417   2.754   1.658   0.009 -0.7789 -0.3287 -0.7267
 3804TIP3    H111418   2.801   1.672   0.092 -2.1485 -0.6510  0.1470
 3804TIP3    H211419   2.809   1.599  -0.041 -0.5456 -1.2193  0.5375
 3805TIP3   OH211420   2.250   4.683   4.200 -0.1640  0.0712  0.3897
 3805TIP3    H111421   2.320   4.620   4.185 -1.0404 -1.1459  1.1971
 3805TIP3    H211422   2.291   4.752   4.252  0.8248  0.2374 -0.5570
 3806TIP3   OH211423   4.082   4.751   1.296  0.1059 -0.8156 -0.4778
 3806TIP3    H111424   4.125   4.693   1.233  0.7537  0.7026 -1.4998
 3806TIP3    H211425   4.103   4.839   1.264 -1.5049 -0.0274  0.5703
 3807TIP3   OH211426   6.056   0.933   1.501 -0.4592  0.1845 -0.0038
 3807TIP3    H111427   6.118   0.972   1.562 -2.0947  1.9944  0.6522
 3807TIP3    H211428   6.094   0.949   1.414  1.9688 -2.5614  0.4250
 3808TIP3   OH211429   1.505   1.997   4.219 -0.1122 -0.0163 -0.3886
 3808TIP3    H111430   1.442   2.058   4.183 -0.0800 -0.6435 -1.5404
 3808TIP3    H211431   1.490   2.000   4.314  0.9344  2.9119 -0.2109
 3809TIP3   OH211432   1.040   1.169   1.061  0.4240  0.4832  0.6349
 3809TIP3    H111433   0.988   1.109   1.113 -0.2561  0.9487  0.5067
 3809TIP3    H211434   1.076   1.231   1.124 -0.9763  1.4755  0.5117
 3810TIP3   OH211435   5.208   4.058   3.532 -0.3972  0.1130  0.2494
 3810TIP3    H111436   5.256   3.984   3.494  0.3623  0.5817  0.2598
 3810TIP3    H211437   5.127   4.063   3.482  0.2773  0.2989 -0.8593
 3811TIP3   OH211438   2.603   2.911   4.108  0.5038 -0.0324 -0.1668
 3811TIP3    H111439   2.658   2.929   4.032  1.5610 -0.7101  0.3938
 3811TIP3    H211440   2.634   2.825   4.139 -0.1747  0.0535  0.7861
 3812TIP3   OH211441   5.236   2.787   5.164  0.0260  0.2948  0.4384
 3812TIP3    H111442   5.271   2.821   5.246 -2.3989  4.4793  0.0520
 3812TIP3    H211443   5.295   2.819   5.097 -0.3192  0.6542  0.3008
 3813TIP3   OH211444   3.267   4.726   2.604  0.0254 -0.1167 -0.5242
 3813TIP3    H111445   3.308   4.652   2.560 -1.6409  0.1386 -2.6906
 3813TIP3    H211446   3.198   4.754   2.544 -2.7199  0.0609  2.4425
 3814TIP3   OH211447   2.772   4.317   1.488 -0.4719  1.0761 -0.3094
 3814TIP3    H111448   2.820   4.235   1.501 -0.9880  0.8615  0.2863
 3814TIP3    H211449   2.835   4.375   1.444  0.3181  0.7826  0.4037
 3815TIP3   OH211450   0.083   1.130   1.257  0.5538  0.0545  0.1129
 3815TIP3    H111451   0.092   1.226   1.255 -1.5335  0.2826  0.2675
 3815TIP3    H211452  -0.011   1.114   1.253  0.7743 -1.9669  1.4028
 3816TIP3   OH211453   2.856   1.265   0.463 -0.0758 -0.0579 -0.1089
 3816TIP3    H111454   2.860   1.182   0.415  0.7589 -0.4005  0.5293
 3816TIP3    H211455   2.766   1.267   0.498  0.6207 -2.0680  2.1579
 3817TIP3   OH211456   4.993   3.764   0.239  0.2302  0.1476 -0.1500
 3817TIP3    H111457   4.978   3.791   0.329  2.1528  0.8101  0.0078
 3817TIP3    H211458   5.049   3.687   0.245 -0.3288 -0.3240 -0.7692
 3818TIP3   OH211459   5.313   4.344   4.899 -0.2883  0.0454 -0.2139
 3818TIP3    H111460   5.336   4.431   4.933  1.0234 -0.0600 -0.7454
 3818TIP3    H211461   5.290   4.359   4.807  0.1959 -0.1940 -0.3782
 3819TIP3   OH211462   2.455   3.152   3.466  0.1265  0.0175 -0.4268
 3819TIP3    H111463   2.396   3.212   3.512  1.0345  0.4119  0.2684
 3819TIP3    H211464   2.397   3.093   3.418 -0.8124  0.7975 -0.2940
 3820TIP3   OH211465   0.703   3.364   1.582  0.4153  0.2086 -0.5774
 3820TIP3    H111466   0.677   3.452   1.555 -0.1820 -0.0685 -0.9241
 3820TIP3    H211467   0.625   3.311   1.569  0.2599 -0.0591  1.1933
 3821TIP3   OH211468   1.217   0.048   2.842 -0.4558  0.1667  0.4446
 3821TIP3    H111469   1.238   0.060   2.935 -1.0730  1.9506  0.3888
 3821TIP3    H211470   1.171  -0.037   2.838 -0.7883  0.2625  1.8290
 3822TIP3   OH211471   0.997   3.429   0.185 -0.4413  0.1791 -0.1031
 3822TIP3    H111472   0.905   3.447   0.202 -0.6626 -1.9148  1.2133
 3822TIP3    H211473   1.043   3.460   0.263 -0.0288  0.9457 -0.6297
 3823TIP3   OH211474   2.721   2.299   1.024  0.4461  0.1894  0.2154
 3823TIP3    H111475   2.757   2.222   0.980 -0.1946  0.5816 -1.0767
 3823TIP3    H211476   2.649   2.327   0.966 -1.2971 -0.0058  2.1682
 3824TIP3   OH211477   3.522   3.972   0.434 -0.2621 -0.1460 -0.6736
 3824TIP3    H111478   3.493   3.943   0.348 -0.0685 -1.2095 -0.4014
 3824TIP3    H211479   3.533   3.891   0.484 -1.9730  0.4952  0.8780
 3825TIP3   OH211480   0.280   4.693   3.603  0.3487  0.6619 -0.4574
 3825TIP3    H111481   0.293   4.637   3.527  0.5618  1.3249 -0.9177
 3825TIP3    H211482   0.321   4.776   3.579 -1.4238  1.5954 -0.4750
 3826TIP3   OH211483   3.980   4.607   4.352 -0.1505  0.6509  0.4305
 3826TIP3    H111484   3.920   4.660   4.404 -1.6635 -0.3849 -0.1746
 3826TIP3    H211485   4.055   4.592   4.409 -0.5696  1.7634  1.3144
 3827TIP3   OH211486   0.631   3.410   4.101 -0.2822 -0.1209  0.2787
 3827TIP3    H111487   0.559   3.432   4.042  0.0837  1.6147  0.4149
 3827TIP3    H211488   0.706   3.394   4.043  0.0528  1.4892  0.2182
 3828TIP3   OH211489   2.575   4.714   0.501 -0.4582  0.1590 -0.0794
 3828TIP3    H111490   2.611   4.720   0.589  2.0339 -2.9768 -0.6920
 3828TIP3    H211491   2.622   4.781   0.451 -0.3829  0.5638  0.5194
 3829TIP3   OH211492   2.519   3.251   1.018 -0.2032  0.2686  0.3521
 3829TIP3    H111493   2.532   3.182   0.952  0.8084  0.5515  0.2305
 3829TIP3    H211494   2.598   3.305   1.011 -1.0589  1.5550  0.3096
 3830TIP3   OH211495   1.053   2.221   3.711  0.1921 -0.2998 -0.3338
 3830TIP3    H111496   1.022   2.301   3.669  0.4394 -0.3269 -0.5678
 3830TIP3    H211497   0.982   2.196   3.770  0.2152  0.2214 -0.0830
 3831TIP3   OH211498   2.721   2.993   2.381  0.0662 -0.2165 -0.2219
 3831TIP3    H111499   2.662   3.005   2.307  0.8042  0.1687 -0.7563
 3831TIP3    H211500   2.780   3.068   2.376  0.7470 -0.7254  0.1745
 3832TIP3   OH211501   3.185   2.032   2.379  0.8177 -0.0109  0.4028
 3832TIP3    H111502   3.128   1.963   2.346  0.5494 -0.1327  1.1103
 3832TIP3    H211503   3.264   2.025   2.326  2.1229 -2.9237  2.4358
 3833TIP3   OH211504   3.773   3.886   2.438 -0.5578 -0.1836  0.5680
 3833TIP3    H111505   3.761   3.822   2.508 -0.6245  0.1584  0.8714
 3833TIP3    H211506   3.859   3.866   2.402 -1.1131 -1.2867 -0.2157
 3834TIP3   OH211507   3.601   0.721   2.771  0.1181  0.4749  0.1404
 3834TIP3    H111508   3.513   0.758   2.771 -0.2926 -0.4628  0.2837
 3834TIP3    H211509   3.642   0.756   2.692 -0.5934  0.4386 -0.2516
 3835TIP3   OH211510   1.818   3.696   3.904  0.2898 -0.0400 -0.1464
 3835TIP3    H111511   1.837   3.606   3.876 -1.7129 -1.2832  2.0733
 3835TIP3    H211512   1.875   3.751   3.850  2.0518 -2.6672 -1.1556
 3836TIP3   OH211513   4.229   0.749   3.084 -0.1761  0.0316  0.3170
 3836TIP3    H111514   4.257   0.822   3.138 -1.6901  0.7050  0.2410
 3836TIP3    H211515   4.181   0.789   3.011 -0.0882 -0.9732 -0.3198
 3837TIP3   OH211516   2.347   3.211   2.905 -0.2271  0.0250  0.3551
 3837TIP3    H111517   2.327   3.256   2.823  0.1056  1.2637  0.9408
 3837TIP3    H211518   2.319   3.121   2.889 -1.6911  0.6008 -0.5470
 3838TIP3   OH211519   0.280   3.633   2.411 -0.0100  0.2566  0.1249
 3838TIP3    H111520   0.303   3.633   2.504 -0.5427  2.2828  0.3175
 3838TIP3    H211521   0.362   3.657   2.367 -0.1166  0.8578  0.2355
 3839TIP3   OH211522   4.713   2.663   2.609  0.3155 -0.1682 -0.5148
 3839TIP3    H111523   4.734   2.589   2.666 -0.0904  1.4774  1.9352
 3839TIP3    H211524   4.625   2.690   2.636  0.0192  0.5743 -2.0875
 3840TIP3   OH211525   3.415   5.056   0.831 -0.0328 -0.5052  0.1509
 3840TIP3    H111526   3.377   4.992   0.891 -1.0051 -2.1275 -2.0326
 3840TIP3    H211527   3.430   5.007   0.750  1.7707  1.4140 -0.7933
 3841TIP3   OH211528   2.865   0.296   5.055 -0.1385 -0.0783  0.6511
 3841TIP3    H111529   2.934   0.240   5.090  0.7256 -0.4396 -1.4866
 3841TIP3    H211530   2.847   0.261   4.968 -0.7063  1.9883 -0.1200
 3842TIP3   OH211531   4.273   1.600   2.838 -0.1781 -0.3044  0.2764
 3842TIP3    H111532   4.364   1.571   2.822 -0.5112 -0.9206 -0.6105
 3842TIP3    H211533   4.234   1.603   2.751 -0.5551  1.5809  0.4858
 3843TIP3   OH211534   2.590   2.773   2.789  0.4135  0.0724 -0.3491
 3843TIP3    H111535   2.608   2.679   2.797 -1.8265 -0.3532  0.5468
 3843TIP3    H211536   2.613   2.809   2.874 -1.7463 -0.3037  0.4595
 3844TIP3   OH211537   0.572   4.634   2.222 -0.0668 -0.0882  0.1994
 3844TIP3    H111538   0.544   4.725   2.221  1.1812  0.3215  0.0660
 3844TIP3    H211539   0.588   4.612   2.131 -0.6903 -0.5531  0.1994
 3845TIP3   OH211540   1.479   0.267   0.294  0.6259  0.5465 -0.4084
 3845TIP3    H111541   1.507   0.254   0.204  1.9464  1.3035 -0.1261
 3845TIP3    H211542   1.492   0.360   0.311  3.1725 -0.0194  1.4128
 3846TIP3   OH211543   3.738   4.011   2.976 -0.3595  0.0283 -0.8648
 3846TIP3    H111544   3.715   4.020   2.884 -1.9641  0.5490 -0.4550
 3846TIP3    H211545   3.667   4.055   3.023  1.4567  1.6015  0.5743
 3847TIP3   OH211546   0.079   0.373   0.477 -0.1124  0.0765  0.1394
 3847TIP3    H111547   0.109   0.312   0.409  0.8433 -0.2415  0.8233
 3847TIP3    H211548   0.150   0.437   0.486  0.4793 -0.7475  1.8549
 3848TIP3   OH211549   1.930   4.655   0.347  0.1653 -0.1993 -0.0642
 3848TIP3    H111550   1.837   4.675   0.345  0.1730 -0.2030 -0.3845
 3848TIP3    H211551   1.973   4.735   0.317  0.3253  0.1951  1.1562
 3849TIP3   OH211552   3.192   1.413   2.198  0.0150 -0.0929  0.1352
 3849TIP3    H111553   3.179   1.360   2.120 -0.3053  0.6757 -0.3450
 3849TIP3    H211554   3.262   1.368   2.246  1.3307  0.2695 -1.3605
 3850TIP3   OH211555   3.607   5.277   1.705 -0.3453 -0.0641  0.3506
 3850TIP3    H111556   3.613   5.209   1.637  0.7414  2.0339 -1.7747
 3850TIP3    H211557   3.613   5.228   1.788  3.5616 -2.4010 -1.0359
 3851TIP3   OH211558   5.843   5.417   0.093  0.3579  0.4713  0.0159
 3851TIP3    H111559   5.814   5.457   0.011  1.1185 -0.2568 -0.6380
 3851TIP3    H211560   5.934   5.445   0.102  0.3906  0.2433  0.4084
 3852TIP3   OH211561   1.723   2.879   5.104  0.1414  0.3489 -0.1954
 3852TIP3    H111562   1.796   2.933   5.134  0.0718  0.4828 -0.2671
 3852TIP3    H211563   1.762   2.793   5.089  0.2514  0.3788 -0.0807
 3853TIP3   OH211564   1.148   0.798   4.909 -0.5274  0.0178 -0.3453
 3853TIP3    H111565   1.152   0.876   4.853 -0.3969 -0.5944 -1.2176
 3853TIP3    H211566   1.238   0.763   4.907 -0.4240  0.2096  0.5833
 3854TIP3   OH211567   0.763   1.897   1.233  0.3865 -0.1509 -0.0235
 3854TIP3    H111568   0.810   1.850   1.302  0.2560 -0.6606 -0.2729
 3854TIP3    H211569   0.825   1.963   1.203  1.4835 -1.6372 -1.2455
 3855TIP3   OH211570   2.013   1.863   0.248  0.5184 -0.0287  0.2214
 3855TIP3    H111571   2.095   1.840   0.204 -0.0087 -2.4403  0.3309
 3855TIP3    H211572   1.990   1.948   0.212  1.8768 -0.3593 -1.6113
 3856TIP3   OH211573   5.068   1.228   0.171  0.3533  0.0757 -0.2709
 3856TIP3    H111574   5.114   1.254   0.091  1.0533 -1.3683 -0.3690
 3856TIP3    H211575   5.134   1.182   0.223 -0.3200  0.2394  0.7577
 3857TIP3   OH211576   6.119   0.842   2.348 -0.2640 -0.4943  0.0175
 3857TIP3    H111577   6.148   0.869   2.435  1.2752 -0.1126 -0.5868
 3857TIP3    H211578   6.032   0.881   2.338  0.6815  1.8135  0.3195
 3858TIP3   OH211579   2.057   4.881   0.184 -0.4745 -0.4203 -0.1236
 3858TIP3    H111580   2.138   4.862   0.231 -1.0523 -0.7891  0.7662
 3858TIP3    H211581   2.047   4.976   0.190 -1.0051 -0.5388  1.3492
 3859TIP3   OH211582   6.219   3.626   3.833 -0.1327 -0.0973 -0.3316
 3859TIP3    H111583   6.288   3.575   3.791 -1.1107 -0.4933 -1.5207
 3859TIP3    H211584   6.252   3.644   3.920  0.9508 -1.3289 -0.4607
 3860TIP3   OH211585   0.592   2.343   3.016 -0.1076  0.1996  0.3452
 3860TIP3    H111586   0.658   2.277   2.996 -0.9259 -0.0612 -1.8448
 3860TIP3    H211587   0.516   2.293   3.044 -0.6577  0.1815 -1.1065
 3861TIP3   OH211588   1.323   0.695   3.921  0.3200 -0.3287 -0.1810
 3861TIP3    H111589   1.278   0.765   3.873  1.1484  0.2876 -0.0987
 3861TIP3    H211590   1.267   0.678   3.997 -2.5274 -3.2895 -2.6292
 3862TIP3   OH211591   2.762   5.734   0.116  0.5213 -0.3741 -0.3204
 3862TIP3    H111592   2.751   5.785   0.035  0.2806 -1.5971 -1.0786
 3862TIP3    H211593   2.816   5.790   0.172  2.8090 -0.5025 -2.2674
 3863TIP3   OH211594   0.300   4.148   1.690  0.6169 -0.3992  0.2836
 3863TIP3    H111595   0.343   4.232   1.708 -1.0427  0.8297 -1.0656
 3863TIP3    H211596   0.346   4.114   1.614 -0.1622  0.4786 -0.6124
 3864TIP3   OH211597   0.174   4.060   1.946 -0.0013  0.0858  0.5457
 3864TIP3    H111598   0.229   4.028   2.018 -0.3697  1.1871  1.3573
 3864TIP3    H211599   0.230   4.122   1.899 -0.4630  1.1127  1.2975
 3865TIP3   OH211600   5.162   0.112   3.327 -0.5722  0.3562  0.2653
 3865TIP3    H111601   5.229   0.123   3.260  2.1794 -1.8568  2.4650
 3865TIP3    H211602   5.108   0.039   3.296 -0.6096  0.6867 -0.4633
 3866TIP3   OH211603   3.724   5.977   2.604  0.2121  0.4380  0.4549
 3866TIP3    H111604   3.780   6.032   2.550  0.6896 -0.6164 -0.1682
 3866TIP3    H211605   3.771   5.893   2.608 -0.5185  0.0615  1.3173
 3867TIP3   OH211606   3.441   2.810   0.546  1.2592  0.1265  0.2774
 3867TIP3    H111607   3.491   2.731   0.565  1.4862  0.2217  0.0745
 3867TIP3    H211608   3.466   2.834   0.457  0.5826 -0.0249  0.0360
 3868TIP3   OH211609   1.504   5.465   0.796 -0.0764  0.0475 -0.1351
 3868TIP3    H111610   1.475   5.506   0.715  0.8886 -1.2460 -1.1656
 3868TIP3    H211611   1.582   5.514   0.822 -1.0269  1.1947  0.6716
 3869TIP3   OH211612   3.444   5.778   0.340  0.5072  0.0759 -0.1231
 3869TIP3    H111613   3.540   5.781   0.340  0.4840  0.8703 -0.0114
 3869TIP3    H211614   3.417   5.863   0.375 -0.2582  0.8475 -2.4044
 3870TIP3   OH211615   5.865   2.025   5.108 -0.5752  0.8185 -0.6145
 3870TIP3    H111616   5.931   1.958   5.092 -0.4357  0.9549 -0.6112
 3870TIP3    H211617   5.840   2.014   5.199 -0.2669  1.0268 -0.5047
 3871TIP3   OH211618   0.319   5.941   2.786 -0.0085 -0.1182 -0.4986
 3871TIP3    H111619   0.266   5.987   2.720  1.1550  0.1447 -1.2669
 3871TIP3    H211620   0.254   5.906   2.847 -0.9555  2.4644  0.0991
 3872TIP3   OH211621   1.230   0.927   1.268  0.0980  0.0871  0.0719
 3872TIP3    H111622   1.272   0.980   1.336 -0.7729  1.5409 -0.4829
 3872TIP3    H211623   1.150   0.895   1.310  0.3592 -0.3595  0.2355
 3873TIP3   OH211624   3.881   2.872   5.112  0.5316 -0.5387  0.5806
 3873TIP3    H111625   3.894   2.903   5.022  0.8767  1.3066  1.2238
 3873TIP3    H211626   3.857   2.950   5.161 -0.8808 -1.7381  1.8796
 3874TIP3   OH211627   2.568   2.387   4.448  0.2382 -0.4692 -0.1273
 3874TIP3    H111628   2.663   2.375   4.440  0.1157 -1.8009  0.2762
 3874TIP3    H211629   2.531   2.302   4.425 -0.8636 -0.0124 -0.1006
 3875TIP3   OH211630   3.458   1.174   5.031 -0.5947 -0.0257  0.3296
 3875TIP3    H111631   3.388   1.109   5.022  0.7121 -1.3664 -0.7816
 3875TIP3    H211632   3.489   1.164   5.120  0.9706 -2.5247 -0.3888
 3876TIP3   OH211633   3.618   1.785   1.397 -0.4979  0.0417 -0.3292
 3876TIP3    H111634   3.669   1.866   1.397  2.2900 -1.5488  1.0042
 3876TIP3    H211635   3.626   1.752   1.307  1.8395 -0.6523  0.0573
 3877TIP3   OH211636   0.056   2.715   3.088  0.4230  0.4170 -0.4075
 3877TIP3    H111637   0.080   2.722   3.180 -1.1938 -0.7312  0.1707
 3877TIP3    H211638   0.057   2.804   3.055 -0.0132  0.9844  1.0385
 3878TIP3   OH211639   2.256   3.179   1.559 -0.1817  0.1103  0.5866
 3878TIP3    H111640   2.273   3.273   1.564 -0.4409  0.2100 -0.2566
 3878TIP3    H211641   2.291   3.152   1.475 -1.5678 -0.2243  0.0812
 3879TIP3   OH211642   4.945   3.336   1.803  0.2684 -0.2468  0.1695
 3879TIP3    H111643   4.862   3.375   1.777  0.2716 -0.9444 -0.9259
 3879TIP3    H211644   4.976   3.290   1.726  1.9148  0.3692  0.4119
 3880TIP3   OH211645   1.325   3.961   1.895  0.2526  0.0494  0.1703
 3880TIP3    H111646   1.386   3.889   1.912  0.7195  0.6058  0.8981
 3880TIP3    H211647   1.344   3.987   1.805  2.7102  1.6801  1.0549
 3881TIP3   OH211648   0.821   2.923  -0.015 -0.2696 -0.1662  0.1130
 3881TIP3    H111649   0.867   2.852   0.030  0.5601  1.5328  2.0742
 3881TIP3    H211650   0.729   2.901  -0.006 -0.1854  0.3760  3.3014
 3882TIP3   OH211651   2.385   5.242   4.915 -0.1713  0.2051  0.3237
 3882TIP3    H111652   2.463   5.257   4.862 -0.7917  1.1222 -0.3587
 3882TIP3    H211653   2.326   5.192   4.859 -0.9861  1.5133 -0.0236
 3883TIP3   OH211654   1.163   0.093   3.179 -0.3418  0.1832  0.3843
 3883TIP3    H111655   1.129   0.179   3.157  0.5757  0.6379  0.7204
 3883TIP3    H211656   1.242   0.110   3.229 -0.4996 -0.8542  1.0186
 3884TIP3   OH211657   5.963   2.162   0.168 -0.1325  0.4767 -0.0344
 3884TIP3    H111658   5.924   2.192   0.250  0.5084  1.0213  0.0816
 3884TIP3    H211659   5.889   2.144   0.111 -0.6470 -1.3816  1.1514
 3885TIP3   OH211660   2.179   2.754   0.353  0.6165  0.0274 -0.5947
 3885TIP3    H111661   2.118   2.766   0.280  0.1344 -1.4528 -0.4603
 3885TIP3    H211662   2.206   2.663   0.346 -0.4332 -0.5342  1.8316
 3886TIP3   OH211663   4.014   1.469   3.252 -0.0750  0.4511 -0.4147
 3886TIP3    H111664   4.019   1.560   3.282 -1.0161  0.4121 -0.1091
 3886TIP3    H211665   4.071   1.467   3.175 -0.6232  1.5026 -0.8826
 3887TIP3   OH211666   2.779   3.096   4.197 -0.4181  0.3807  0.0477
 3887TIP3    H111667   2.819   3.137   4.120 -1.4790  1.7504  0.1890
 3887TIP3    H211668   2.692   3.069   4.168 -0.7559  0.7368  0.6918
 3888TIP3   OH211669   3.487   5.843   5.019 -0.1435  0.5854 -0.2823
 3888TIP3    H111670   3.479   5.926   4.972  0.2339  1.4929  1.1987
 3888TIP3    H211671   3.396   5.817   5.036 -0.3037 -0.1184 -2.0847
 3889TIP3   OH211672   6.289   5.801   4.369 -0.0858  0.4124  0.0604
 3889TIP3    H111673   6.270   5.709   4.347  1.2773  0.0076  0.4889
 3889TIP3    H211674   6.224   5.824   4.435 -0.6357 -0.1354 -0.2743
 3890TIP3   OH211675   4.365   5.451   4.486  0.2998 -0.2145 -0.4999
 3890TIP3    H111676   4.282   5.488   4.457 -0.2416 -0.4674  0.6858
 3890TIP3    H211677   4.422   5.526   4.498 -0.3312  0.1393  0.4419
 3891TIP3   OH211678   4.737   1.477   1.267  0.1781  0.0727  0.5051
 3891TIP3    H111679   4.679   1.552   1.266  0.7962  0.6662 -3.2020
 3891TIP3    H211680   4.689   1.408   1.221  2.1898  0.6092 -2.7465
 3892TIP3   OH211681   2.483   2.321   0.889 -0.4660  0.0516  0.2069
 3892TIP3    H111682   2.479   2.398   0.832  1.3629  0.1077  0.0719
 3892TIP3    H211683   2.399   2.278   0.877 -0.0050 -0.2558 -3.0462
 3893TIP3   OH211684   3.810   4.998   1.826 -0.4247 -0.0180 -0.2962
 3893TIP3    H111685   3.867   4.984   1.901  0.0374 -0.4411 -0.7207
 3893TIP3    H211686   3.723   4.969   1.855 -0.3262  0.1726  0.1917
 3894TIP3   OH211687   4.420   0.171   4.271 -0.3516  0.2851  0.0093
 3894TIP3    H111688   4.476   0.166   4.193 -0.5983  1.0604 -0.2259
 3894TIP3    H211689   4.474   0.213   4.337 -0.3762  0.2682  0.0404
 3895TIP3   OH211690   0.627   0.625   4.193  0.0546 -0.1355 -0.0394
 3895TIP3    H111691   0.538   0.659   4.179 -0.3333 -1.6813 -1.8428
 3895TIP3    H211692   0.672   0.694   4.240 -1.4648  1.6678 -1.0958
 3896TIP3   OH211693   6.115   0.285   1.096 -0.0744 -0.2130 -0.2813
 3896TIP3    H111694   6.188   0.279   1.157  0.7261 -1.2444 -1.2981
 3896TIP3    H211695   6.153   0.322   1.017 -1.1038  1.1193 -0.1934
 3897TIP3   OH211696   5.408   3.660   1.783  0.4831  0.2245  0.3571
 3897TIP3    H111697   5.473   3.602   1.744  0.1321 -0.0547  0.1768
 3897TIP3    H211698   5.327   3.608   1.783  0.0417  0.8897 -0.2720
 3898TIP3   OH211699   2.979   1.350   3.385 -0.3988 -0.1103 -0.1933
 3898TIP3    H111700   2.932   1.340   3.303  0.2701 -0.7972 -0.4997
 3898TIP3    H211701   3.004   1.442   3.387 -0.7905  0.0069 -0.5448
 3899TIP3   OH211702   4.409   0.168   0.023  0.1570 -0.0267 -0.1040
 3899TIP3    H111703   4.410   0.231  -0.049  0.4145 -0.3648 -0.4007
 3899TIP3    H211704   4.366   0.214   0.095  1.9314  1.1373  0.2728
 3900TIP3   OH211705   0.070   0.031   1.959 -0.1806  0.1227 -0.1189
 3900TIP3    H111706   0.061   0.072   1.873  0.7283 -0.5635 -0.5557
 3900TIP3    H211707   0.063   0.103   2.021  1.7683  1.0486 -0.8841
 3901TIP3   OH211708   4.259   3.647   1.142 -0.2138 -0.5934  0.8107
 3901TIP3    H111709   4.211   3.700   1.205  1.3315  2.7460 -0.6110
 3901TIP3    H211710   4.270   3.703   1.066  2.1517 -2.7364 -0.6102
 3902TIP3   OH211711   0.846   3.485   2.880 -0.0353 -0.6710 -0.1912
 3902TIP3    H111712   0.769   3.439   2.912 -0.4712 -1.0855 -1.7601
 3902TIP3    H211713   0.908   3.416   2.857 -0.0115 -0.4195 -0.9056
 3903TIP3   OH211714   0.783   3.809   1.876  0.4300  0.0351  0.0820
 3903TIP3    H111715   0.842   3.734   1.874  0.8555  0.3684 -0.0362
 3903TIP3    H211716   0.820   3.866   1.943  1.5780  1.3020 -1.5398
 3904TIP3   OH211717   0.264   3.868   1.106 -0.4123  0.5378  0.2426
 3904TIP3    H111718   0.188   3.907   1.149  0.6937  0.6439  2.2029
 3904TIP3    H211719   0.296   3.938   1.049 -1.2363  0.8056  0.0814
 3905TIP3   OH211720   4.828   0.812   0.678 -0.6625  0.4846  0.2809
 3905TIP3    H111721   4.800   0.903   0.686  0.1126  0.6303  1.6726
 3905TIP3    H211722   4.897   0.814   0.612 -0.1591  1.0345  0.8149
 3906TIP3   OH211723   4.069   2.263   1.904  0.0180 -0.0585 -0.2080
 3906TIP3    H111724   3.989   2.220   1.934 -0.5507  1.1074 -0.0115
 3906TIP3    H211725   4.135   2.193   1.904 -1.4613 -1.6069 -2.4827
 3907TIP3   OH211726   4.067   4.744   2.149 -0.2778  0.5301 -0.0390
 3907TIP3    H111727   4.041   4.827   2.109 -1.3875 -0.9470 -2.6868
 3907TIP3    H211728   3.991   4.718   2.201  0.0124  1.0584  0.6694
 3908TIP3   OH211729   5.976   1.511   2.228 -0.0218 -0.3138  0.3278
 3908TIP3    H111730   5.995   1.426   2.189  1.7969  0.3684 -0.3795
 3908TIP3    H211731   5.993   1.499   2.322  2.2284 -0.2850 -0.0049
 3909TIP3   OH211732   5.767   3.589   1.547 -0.1451  0.0336 -0.1537
 3909TIP3    H111733   5.846   3.558   1.591  0.3227  2.2951  0.7381
 3909TIP3    H211734   5.695   3.546   1.594  0.4999 -1.3850 -0.4202
 3910TIP3   OH211735   2.993   0.617   4.809 -0.6745  0.3030 -0.0126
 3910TIP3    H111736   2.918   0.612   4.868 -1.3285 -0.6474 -0.8951
 3910TIP3    H211737   3.069   0.602   4.865 -1.2713 -0.4075  0.6237
 3911TIP3   OH211738   4.785   3.770   0.862  0.6179  0.1288  0.1495
 3911TIP3    H111739   4.778   3.865   0.854  1.0462  0.0339 -2.5497
 3911TIP3    H211740   4.723   3.746   0.930  1.0143  2.3853  1.3810
 3912TIP3   OH211741   0.557   2.424   0.895 -0.2479  0.1987 -0.0838
 3912TIP3    H111742   0.575   2.375   0.815  0.4592  0.2071  0.0556
 3912TIP3    H211743   0.535   2.356   0.959 -3.6044  0.3451 -0.9197
 3913TIP3   OH211744   3.202   0.787   0.184 -0.3634 -0.0807  0.6842
 3913TIP3    H111745   3.119   0.748   0.210  0.1101 -1.3801  0.3434
 3913TIP3    H211746   3.207   0.774   0.090 -0.0370  0.5365  0.6053
 3914TIP3   OH211747   4.287   0.646   0.946  0.5374  0.1828 -0.2169
 3914TIP3    H111748   4.287   0.656   0.851 -0.6229  0.8369 -0.1709
 3914TIP3    H211749   4.324   0.728   0.979 -1.7067  1.2193 -0.0621
 3915TIP3   OH211750   3.854   2.076   0.613  0.1990 -0.5203  0.6256
 3915TIP3    H111751   3.784   2.137   0.636  0.0031 -1.0493  1.4484
 3915TIP3    H211752   3.851   2.071   0.517 -0.7157 -0.3476  0.6409
 3916TIP3   OH211753   5.674   5.680   1.045 -0.1828 -0.0290 -0.2664
 3916TIP3    H111754   5.714   5.722   0.969  1.5226  1.2720  1.2739
 3916TIP3    H211755   5.687   5.587   1.030  1.5866  0.2721 -0.8268
 3917TIP3   OH211756   1.907   0.052   0.423 -0.2926  0.1899 -0.3217
 3917TIP3    H111757   1.930  -0.028   0.375  2.8284 -0.2410  1.5552
 3917TIP3    H211758   1.930   0.123   0.364 -0.3248 -0.3052 -0.9404
 3918TIP3   OH211759   4.692   1.039   0.740  0.0871 -0.3028  0.0655
 3918TIP3    H111760   4.656   1.127   0.733 -1.1317 -0.7624  0.2670
 3918TIP3    H211761   4.700   1.023   0.834  0.7696 -0.2220  0.0196
 3919TIP3   OH211762   5.629   0.465   3.727  0.2631 -0.1889 -0.0172
 3919TIP3    H111763   5.702   0.514   3.764  1.2598 -0.9868 -0.8412
 3919TIP3    H211764   5.664   0.427   3.646 -0.1726 -2.8425  0.9160
 3920TIP3   OH211765   5.128   0.598   1.922 -0.2879  0.1845  0.1893
 3920TIP3    H111766   5.053   0.539   1.913 -0.3101  0.0678  1.0446
 3920TIP3    H211767   5.149   0.596   2.016  1.2343 -0.3340 -0.1478
 3921TIP3   OH211768   5.538   4.621   1.185  0.2935  0.3697  0.0215
 3921TIP3    H111769   5.520   4.545   1.241  1.3912 -0.6764 -1.0094
 3921TIP3    H211770   5.629   4.612   1.160  0.1633  1.5046 -0.9431
 3922TIP3   OH211771   0.026   0.177   3.715 -0.5562 -0.1818 -0.6459
 3922TIP3    H111772   0.070   0.149   3.795 -1.9757 -1.5303 -0.2923
 3922TIP3    H211773   0.067   0.126   3.645 -0.0490  0.2154 -0.6460
 3923TIP3   OH211774   0.477   3.701   5.051 -0.1797  0.0839  0.5510
 3923TIP3    H111775   0.495   3.759   4.977  2.4107  1.1688  1.8953
 3923TIP3    H211776   0.398   3.736   5.091 -0.0645  1.1711 -0.1420
 3924TIP3   OH211777   4.173   1.724   4.675 -0.2217  0.5035  0.0731
 3924TIP3    H111778   4.177   1.817   4.698  1.0648  0.3770  0.4140
 3924TIP3    H211779   4.095   1.692   4.719 -1.0894  1.5619 -0.6191
 3925TIP3   OH211780   5.902   2.280   3.662 -0.4556  0.0767 -0.0828
 3925TIP3    H111781   5.959   2.347   3.701 -1.1318  0.3628  0.4413
 3925TIP3    H211782   5.896   2.305   3.570 -0.2195  0.3941 -0.0156
 3926TIP3   OH211783   4.122   2.297   0.570  0.1729  1.3871 -0.5333
 3926TIP3    H111784   4.146   2.211   0.537 -1.2191  1.2274 -1.1938
 3926TIP3    H211785   4.172   2.307   0.650  0.8123  0.2233 -0.7677
 3927TIP3   OH211786   3.809   5.446   4.479  0.1066 -0.2024  0.0001
 3927TIP3    H111787   3.895   5.432   4.439  0.1118  0.0975 -0.0965
 3927TIP3    H211788   3.828   5.493   4.560  0.0695 -0.5172  0.1896
 3928TIP3   OH211789   2.866   1.893   2.488 -0.1541  0.6136 -0.0338
 3928TIP3    H111790   2.868   1.902   2.583  1.4671  0.3881 -0.0270
 3928TIP3    H211791   2.838   1.979   2.457 -2.7992  0.1098  0.6728
 3929TIP3   OH211792   4.030   0.590   2.378 -0.0456  0.1543  0.3790
 3929TIP3    H111793   3.935   0.586   2.386 -0.0737 -0.6657 -0.2101
 3929TIP3    H211794   4.056   0.501   2.355  0.7464  0.6211 -0.6656
 3930TIP3   OH211795   1.993   5.137   0.041 -0.3829  0.5638 -0.7731
 3930TIP3    H111796   1.974   5.063  -0.016  2.8133  1.1132 -2.8121
 3930TIP3    H211797   1.909   5.158   0.082 -2.5982 -0.8100 -4.1387
 3931TIP3   OH211798   2.115   0.788   2.979  0.0019 -0.7022 -0.0385
 3931TIP3    H111799   2.071   0.705   2.997 -1.2092 -0.0031  0.3917
 3931TIP3    H211800   2.048   0.855   2.997  1.3362  0.4301  0.9599
 3932TIP3   OH211801   6.098   4.309   2.657  0.2883  0.1728  0.3770
 3932TIP3    H111802   6.089   4.227   2.609 -0.7380 -1.1267  2.6016
 3932TIP3    H211803   6.041   4.370   2.611 -0.3629 -0.8894 -0.2697
 3933TIP3   OH211804   0.609   4.862   3.748 -0.4800  0.0076 -0.8140
 3933TIP3    H111805   0.624   4.773   3.715 -0.7907  0.1540 -1.3583
 3933TIP3    H211806   0.687   4.910   3.720  0.8012 -0.6021  1.4446
 3934TIP3   OH211807   5.339   1.151   0.230 -0.4752  0.8146 -0.2428
 3934TIP3    H111808   5.333   1.241   0.199 -0.1954  1.7770  2.3374
 3934TIP3    H211809   5.432   1.129   0.222 -0.7416  0.1225 -2.2998
 3935TIP3   OH211810   5.043   3.487   4.466  0.5956 -0.0606 -0.2746
 3935TIP3    H111811   5.011   3.420   4.527 -1.0815  0.3554 -0.6618
 3935TIP3    H211812   5.117   3.528   4.512  0.8131 -1.2806  0.5073
 3936TIP3   OH211813   4.051   2.049   0.780 -0.0313  0.2933  0.2156
 3936TIP3    H111814   4.042   2.126   0.835 -2.9465 -1.3306  2.3407
 3936TIP3    H211815   3.981   2.058   0.714  0.3187 -0.0256 -0.2063
 3937TIP3   OH211816   3.348   2.855   2.272 -0.1056 -0.6079  0.0900
 3937TIP3    H111817   3.377   2.945   2.258  0.9687 -0.7318  1.3497
 3937TIP3    H211818   3.289   2.837   2.199 -0.1575  1.0352 -0.2999
 3938TIP3   OH211819   2.818   2.929   0.749  0.1753  0.2874 -0.1782
 3938TIP3    H111820   2.779   2.857   0.700  1.0726  1.0317 -2.0841
 3938TIP3    H211821   2.805   3.006   0.693  2.4737  0.9261  0.0637
 3939TIP3   OH211822   3.281   4.815   1.677  0.1625  0.4580 -0.9045
 3939TIP3    H111823   3.340   4.740   1.668  0.3768  0.6885 -1.4453
 3939TIP3    H211824   3.198   4.777   1.706 -0.1219 -0.1438 -2.4529
 3940TIP3   OH211825   2.164   3.540   1.461 -0.2323 -0.1611 -0.1373
 3940TIP3    H111826   2.190   3.492   1.383 -0.1412  1.4819 -1.1801
 3940TIP3    H211827   2.100   3.604   1.429 -3.2124 -1.9315  1.7913
 3941TIP3   OH211828   3.841   5.605   0.461  0.7153  0.2530 -0.1076
 3941TIP3    H111829   3.884   5.524   0.489  1.3990  1.5250  3.0015
 3941TIP3    H211830   3.771   5.618   0.525 -0.2431  1.4368 -1.3560
 3942TIP3   OH211831   5.812   4.759   3.200 -0.6653  0.3694  0.2239
 3942TIP3    H111832   5.742   4.824   3.197 -1.2616 -0.2743 -1.0861
 3942TIP3    H211833   5.891   4.808   3.178 -1.1656  0.6260 -1.1358
 3943TIP3   OH211834   5.212   1.388   3.638  0.8064 -0.3290  0.4326
 3943TIP3    H111835   5.272   1.324   3.677 -1.9966 -1.3031  3.6661
 3943TIP3    H211836   5.223   1.466   3.692 -0.7140 -0.5092  1.0322
 3944TIP3   OH211837   0.543   1.514   1.150  0.0624  0.3807  0.1327
 3944TIP3    H111838   0.486   1.514   1.227  0.9959  1.2387  0.8434
 3944TIP3    H211839   0.535   1.425   1.115 -2.8132  0.8357 -0.6550
 3945TIP3   OH211840   0.981   2.895   0.534 -0.0930  0.3043  0.7861
 3945TIP3    H111841   0.957   2.803   0.523 -1.4798  0.4236  2.5228
 3945TIP3    H211842   1.077   2.893   0.540 -0.0238 -0.8964 -0.1556
 3946TIP3   OH211843   4.148   4.965   4.603  0.0780  0.8961 -0.5000
 3946TIP3    H111844   4.168   5.036   4.541 -2.3564  0.7631 -1.5399
 3946TIP3    H211845   4.206   4.893   4.577  0.3391  1.4397 -1.4678
 3947TIP3   OH211846   5.035   0.232   1.042  0.5941 -0.4226 -0.4776
 3947TIP3    H111847   5.075   0.313   1.074  0.4834 -0.2798 -0.6947
 3947TIP3    H211848   4.974   0.206   1.111 -0.8012  0.7294 -1.2339
 3948TIP3   OH211849   1.090   2.651   2.491  0.2890  0.3618  0.6217
 3948TIP3    H111850   1.035   2.620   2.419 -0.3430 -0.0728  1.2781
 3948TIP3    H211851   1.065   2.596   2.565  1.4364  0.3325  0.9953
 3949TIP3   OH211852   0.391   0.985   3.081  0.2042 -0.0585 -0.9063
 3949TIP3    H111853   0.485   1.007   3.086 -0.1406  1.9762 -2.3677
 3949TIP3    H211854   0.350   1.048   3.141 -0.3361 -0.1327 -1.2040
 3950TIP3   OH211855   5.436   5.219   0.309 -0.2506 -0.0142 -0.1379
 3950TIP3    H111856   5.416   5.210   0.216  0.7704 -0.3073 -0.3386
 3950TIP3    H211857   5.354   5.195   0.354 -0.5428 -0.5395 -0.9363
 3951TIP3   OH211858   1.231   0.859   3.703  0.2359  0.7654  0.8771
 3951TIP3    H111859   1.156   0.903   3.662 -0.2165  0.1674  1.0525
 3951TIP3    H211860   1.228   0.769   3.670  1.1121  0.8346  0.5822
 3952TIP3   OH211861   4.026   5.575   2.782  0.0022  0.1530 -0.7206
 3952TIP3    H111862   3.971   5.540   2.712  1.3024  0.9829 -2.1992
 3952TIP3    H211863   3.963   5.601   2.850 -1.2339 -1.4061 -1.1902
 3953TIP3   OH211864   4.287   1.898   1.136  0.4807  0.2311 -0.2574
 3953TIP3    H111865   4.373   1.876   1.100  0.0931 -1.0419 -0.4569
 3953TIP3    H211866   4.296   1.881   1.230  0.4132 -0.0244 -0.2965
 3954TIP3   OH211867   4.564   1.789   0.560  0.6050  0.0476 -0.4952
 3954TIP3    H111868   4.516   1.864   0.596 -0.3397 -0.3958 -0.7979
 3954TIP3    H211869   4.653   1.822   0.546  0.5289  0.7480  0.5380
 3955TIP3   OH211870   1.793   4.249   4.169 -0.1311 -0.6665 -0.1460
 3955TIP3    H111871   1.836   4.169   4.139 -1.8223 -1.8957  0.5921
 3955TIP3    H211872   1.857   4.291   4.227  1.3142 -0.7053 -1.6124
 3956TIP3   OH211873   5.495   3.419   4.717  0.3896 -0.2279  0.1294
 3956TIP3    H111874   5.510   3.496   4.771 -0.0507  1.9747 -2.6392
 3956TIP3    H211875   5.568   3.420   4.654  0.2208 -1.9420 -0.1529
 3957TIP3   OH211876   0.902   0.645   0.236 -0.1058  0.0220  0.1694
 3957TIP3    H111877   0.983   0.690   0.260  0.2897 -0.4600 -0.2171
 3957TIP3    H211878   0.930   0.554   0.220 -0.5489  0.0642 -0.9316
 3958TIP3   OH211879   4.511   2.778   0.653  0.1744 -0.7087 -0.1766
 3958TIP3    H111880   4.512   2.776   0.557 -1.2503  4.4010 -0.6254
 3958TIP3    H211881   4.602   2.793   0.678  0.1260  1.6401 -1.1601
 3959TIP3   OH211882   4.587   0.164   1.793 -0.5792  0.4706  0.6292
 3959TIP3    H111883   4.634   0.197   1.717 -1.2080 -0.1677 -0.0445
 3959TIP3    H211884   4.495   0.185   1.776 -0.6306  1.2326  1.6925
 3960TIP3   OH211885   1.601   1.338   2.514  0.2782  0.1621 -0.3970
 3960TIP3    H111886   1.655   1.263   2.491  1.0682  0.6788 -0.2640
 3960TIP3    H211887   1.605   1.341   2.610  0.9985  0.9004 -0.4389
 3961TIP3   OH211888   0.100   4.409   1.006  0.1745  0.0990  0.0782
 3961TIP3    H111889   0.132   4.346   1.071  0.3773 -0.7932 -0.8667
 3961TIP3    H211890   0.005   4.409   1.018  0.0153 -1.5567 -0.9201
 3962TIP3   OH211891   4.619   5.309   4.816 -0.7372 -0.1140 -0.3678
 3962TIP3    H111892   4.535   5.296   4.862  0.0188 -0.6063  0.9272
 3962TIP3    H211893   4.610   5.259   4.735 -0.6474 -2.7452  1.1045
 3963TIP3   OH211894   0.204   4.070   4.788  0.2631  0.1340 -0.6575
 3963TIP3    H111895   0.121   4.093   4.746  0.6752  0.8259 -1.1061
 3963TIP3    H211896   0.270   4.117   4.738  1.0893 -1.5415 -1.2095
 3964TIP3   OH211897   1.537   4.159   4.665 -0.0180 -0.0440 -0.7529
 3964TIP3    H111898   1.490   4.200   4.737  1.3669 -0.2509  0.3073
 3964TIP3    H211899   1.472   4.153   4.594 -0.9951  1.4806 -0.0320
 3965TIP3   OH211900   2.667   0.388   3.867 -0.0794  0.6605  0.1172
 3965TIP3    H111901   2.607   0.328   3.823 -0.8331  2.3376 -1.2323
 3965TIP3    H211902   2.703   0.443   3.797  1.2247  1.2507  1.2036
 3966TIP3   OH211903   3.707   1.317   1.005 -0.3227 -0.6303 -0.4887
 3966TIP3    H111904   3.693   1.251   0.937 -1.2148 -1.1643  0.1915
 3966TIP3    H211905   3.762   1.273   1.070 -1.5995 -1.0154  0.3680
 3967TIP3   OH211906   6.247   5.444   0.555 -0.0911  0.2503 -0.2070
 3967TIP3    H111907   6.156   5.432   0.529  0.1103 -0.6616 -0.5207
 3967TIP3    H211908   6.295   5.376   0.509  0.6334  0.1615  0.6365
 3968TIP3   OH211909   2.535   0.860   3.066 -0.0612  0.2558 -0.4425
 3968TIP3    H111910   2.593   0.836   3.138  1.6053  1.6474 -1.2355
 3968TIP3    H211911   2.459   0.901   3.108  0.3774  0.0613  0.5638
 3969TIP3   OH211912   4.850   1.728   0.718  0.7933  0.5483 -0.4003
 3969TIP3    H111913   4.829   1.800   0.659 -0.4607  1.4823  1.0663
 3969TIP3    H211914   4.887   1.771   0.796  0.6134 -0.4342  0.2480
 3970TIP3   OH211915   3.527   3.752  -0.004 -0.0881 -0.1063 -0.2852
 3970TIP3    H111916   3.618   3.735   0.021  0.1747  1.7726  0.1658
 3970TIP3    H211917   3.520   3.847  -0.005 -2.0718 -0.2191 -0.2855
 3971TIP3   OH211918   6.232   1.649   1.095  0.3834 -0.0387  0.5376
 3971TIP3    H111919   6.208   1.571   1.044 -0.3367  0.4010  0.1827
 3971TIP3    H211920   6.184   1.640   1.177 -0.5381  0.5307  0.0793
 3972TIP3   OH211921   1.001   3.760   0.247  0.0152 -0.2705 -0.7468
 3972TIP3    H111922   0.963   3.696   0.307 -1.3430  0.2520 -1.0149
 3972TIP3    H211923   0.998   3.843   0.295 -2.5853  0.4776 -2.0554
 3973TIP3   OH211924   2.587   4.175   4.398 -0.1186  0.3651 -0.4267
 3973TIP3    H111925   2.669   4.125   4.397 -0.0267  0.4889  0.1799
 3973TIP3    H211926   2.599   4.237   4.470 -1.4276 -0.7743  0.8331
 3974TIP3   OH211927   4.972   2.049   4.738  0.0692 -0.4476  0.0856
 3974TIP3    H111928   4.918   2.082   4.666  0.8139 -0.2115 -0.3843
 3974TIP3    H211929   4.940   2.095   4.815  1.6503  2.1329 -0.6760
 3975TIP3   OH211930   4.764   3.031   0.862 -0.2664 -0.1272 -0.6705
 3975TIP3    H111931   4.793   3.066   0.947  0.0524 -0.4169 -0.6612
 3975TIP3    H211932   4.805   2.945   0.856  1.1408  0.5990 -1.9126
 3976TIP3   OH211933   5.073   3.481   4.833 -0.3500  0.6381 -0.0332
 3976TIP3    H111934   5.007   3.550   4.838 -1.2969 -0.0255 -2.1303
 3976TIP3    H211935   5.093   3.460   4.924 -1.2829  2.4849  0.6438
 3977TIP3   OH211936   2.913   2.100   2.744  0.3720 -0.1900  0.4090
 3977TIP3    H111937   2.994   2.052   2.762  1.0656  0.8367  0.0691
 3977TIP3    H211938   2.941   2.177   2.694 -0.7995  0.2568  0.4166
 3978TIP3   OH211939   3.700   0.667   2.071 -0.2016  0.3853  0.3614
 3978TIP3    H111940   3.763   0.603   2.040  0.3690  0.9252  0.3809
 3978TIP3    H211941   3.714   0.744   2.015  1.1737  1.5609  2.2107
 3979TIP3   OH211942   5.536   2.941   3.718 -0.7346  0.0074  0.4846
 3979TIP3    H111943   5.591   3.013   3.749 -0.8484  0.0613  0.5589
 3979TIP3    H211944   5.467   2.983   3.668 -1.0490 -0.0198  0.8942
 3980TIP3   OH211945   3.735   1.437   3.297  0.5740 -0.0357 -1.0978
 3980TIP3    H111946   3.805   1.430   3.232  0.5478 -0.2626 -1.1013
 3980TIP3    H211947   3.725   1.531   3.311  1.3528 -0.0169 -0.5826
 3981TIP3   OH211948   1.311   0.079   0.432  0.2962  0.1686 -0.3372
 3981TIP3    H111949   1.345  -0.002   0.395  0.0438  0.2022 -0.6486
 3981TIP3    H211950   1.380   0.144   0.414  0.7099 -0.0691  0.3327
 3982TIP3   OH211951   0.292   5.769   3.844  0.1596 -0.0035 -1.0742
 3982TIP3    H111952   0.370   5.714   3.851 -0.1597 -0.2588  1.5961
 3982TIP3    H211953   0.219   5.707   3.848 -0.1929  0.4447 -0.5010
 3983TIP3   OH211954   3.431   1.674   2.544 -0.0572 -0.5175  0.0213
 3983TIP3    H111955   3.366   1.692   2.475 -1.2910  3.2549  1.8942
 3983TIP3    H211956   3.447   1.580   2.538 -1.8229 -0.7533 -3.8511
 3984TIP3   OH211957   4.076   2.416   3.746 -0.1795  0.1066  0.1631
 3984TIP3    H111958   4.127   2.356   3.691  0.2090 -1.1534  1.8089
 3984TIP3    H211959   4.037   2.478   3.685  0.2036 -1.2495 -1.5177
 3985TIP3   OH211960   5.370   3.968   5.050 -0.2183 -0.5332 -0.3233
 3985TIP3    H111961   5.412   4.013   4.976 -0.5183 -0.6450 -0.5658
 3985TIP3    H211962   5.339   4.039   5.107  0.0037 -0.4458 -0.3122
 3986TIP3   OH211963   2.852   1.744   4.164 -0.9344  0.1903  0.7103
 3986TIP3    H111964   2.835   1.827   4.120  2.9490 -0.4253 -2.6454
 3986TIP3    H211965   2.784   1.685   4.132 -1.4757  1.1576  0.0320
 3987TIP3   OH211966   3.665   4.256   2.327 -0.1159 -0.3111  0.3163
 3987TIP3    H111967   3.639   4.164   2.313 -0.4429 -0.1018 -0.5516
 3987TIP3    H211968   3.715   4.255   2.408 -1.7871 -0.9424  1.3927
 3988TIP3   OH211969   2.476   1.432   2.826 -0.6622  0.1163 -0.3509
 3988TIP3    H111970   2.457   1.392   2.741 -1.9645  0.0731 -0.0662
 3988TIP3    H211971   2.469   1.361   2.888 -0.7177  0.3453 -0.0929
 3989TIP3   OH211972   2.716   3.715   0.439  0.1907 -0.6295  0.5040
 3989TIP3    H111973   2.661   3.704   0.516  2.0242  0.3315  2.0177
 3989TIP3    H211974   2.655   3.710   0.365 -1.4354 -3.0589  1.8792
 3990TIP3   OH211975   0.018   5.638   3.859 -0.0885  0.0553  0.2387
 3990TIP3    H111976   0.041   5.612   3.948 -2.7795 -1.2679  0.6589
 3990TIP3    H211977   0.050   5.566   3.804 -0.8445 -0.4865  0.4928
 3991TIP3   OH211978   5.591   3.385   0.358 -0.5047 -0.1263 -0.5041
 3991TIP3    H111979   5.517   3.442   0.378 -2.8992 -3.4457  0.8458
 3991TIP3    H211980   5.579   3.362   0.266 -0.4635  0.2264 -0.5999
 3992TIP3   OH211981   1.800   2.798   3.579 -0.3724 -0.0013 -0.3636
 3992TIP3    H111982   1.778   2.787   3.486 -1.5018 -1.0935  0.0136
 3992TIP3    H211983   1.856   2.723   3.599 -0.8368 -0.2502  0.0357
 3993TIP3   OH211984   5.191   4.073   1.221 -0.1880  0.9787  0.0200
 3993TIP3    H111985   5.099   4.061   1.199  0.1500 -0.1723 -0.9119
 3993TIP3    H211986   5.229   4.118   1.145  0.4640 -0.6621 -0.6772
 3994TIP3   OH211987   0.225   2.012   3.099  0.2158 -0.2327  0.4209
 3994TIP3    H111988   0.233   1.926   3.142 -0.5416  0.2120  1.4866
 3994TIP3    H211989   0.141   2.008   3.054  0.8414 -0.5615 -0.7629
 3995TIP3   OH211990   1.772   5.808   3.917 -0.1795  0.0470  0.3905
 3995TIP3    H111991   1.689   5.849   3.940  0.0508  0.8142 -0.0836
 3995TIP3    H211992   1.777   5.817   3.822 -0.0502 -0.9701  0.2952
 3996TIP3   OH211993   4.965   3.656   1.839  0.0182  0.6708 -0.2606
 3996TIP3    H111994   4.952   3.563   1.821 -1.7346  0.8013  0.1774
 3996TIP3    H211995   4.910   3.701   1.775  0.1846  1.3891  0.0873
 3997TIP3   OH211996   0.782   5.972   2.112 -0.5209 -0.3717 -0.3686
 3997TIP3    H111997   0.813   5.955   2.201 -2.7735 -0.5181  0.4402
 3997TIP3    H211998   0.842   5.923   2.056  1.1298 -0.0394  1.0149
 3998TIP3   OH211999   2.603   0.386   4.379  0.4084  0.3807  0.2271
 3998TIP3    H112000   2.565   0.343   4.456  2.8432  0.2923  1.5070
 3998TIP3    H212001   2.628   0.314   4.321  2.3811  0.1039  1.3264
 3999TIP3   OH212002   4.714   4.372   3.142  0.1447 -0.0070  0.5311
 3999TIP3    H112003   4.648   4.436   3.115  0.5145  0.1613  0.0231
 3999TIP3    H212004   4.784   4.425   3.181  0.6980 -0.0422 -0.3811
 4000TIP3   OH212005   0.592   0.275   2.926 -0.0563 -0.0568  0.0335
 4000TIP3    H112006   0.513   0.250   2.877 -0.5460  1.3261  0.0675
 4000TIP3    H212007   0.570   0.360   2.964  1.9893  1.1060 -1.2364
 4001TIP3   OH212008   0.629   3.746   4.332  0.1351  0.0517 -0.2865
 4001TIP3    H112009   0.701   3.738   4.269  0.7872 -0.9620  0.5686
 4001TIP3    H212010   0.600   3.657   4.347 -0.4756  0.3476  0.3305
 4002TIP3   OH212011   5.125   3.273   4.653  0.2408 -0.0564  0.1191
 4002TIP3    H112012   5.202   3.228   4.688  1.7691  1.3928 -1.1838
 4002TIP3    H212013   5.081   3.310   4.730  1.8146  0.5058  0.7930
 4003TIP3   OH212014   2.509   5.909   0.718  0.4664  0.1571  0.4253
 4003TIP3    H112015   2.445   5.855   0.765  0.5190 -0.6473 -0.3847
 4003TIP3    H212016   2.457   5.971   0.668  0.2500 -0.8226 -0.6284
 4004TIP3   OH212017   0.025   3.852   1.277 -0.0524 -0.6438  0.3198
 4004TIP3    H112018   0.085   3.818   1.344 -1.3911 -0.8408  1.4641
 4004TIP3    H212019  -0.020   3.925   1.320  3.0516  3.1583 -2.1746
 4005TIP3   OH212020   5.448   0.912   4.367  0.5563  0.5595  0.1288
 4005TIP3    H112021   5.513   0.935   4.300 -1.4285  2.3002 -1.3071
 4005TIP3    H212022   5.417   0.996   4.400 -1.2941 -0.1999  0.4090
 4006TIP3   OH212023   5.166   5.622   2.996  0.0905  0.3370  0.2058
 4006TIP3    H112024   5.218   5.702   2.999  0.7603 -0.1017  0.7255
 4006TIP3    H212025   5.076   5.652   2.984  0.3919  1.1356 -0.1673
 4007TIP3   OH212026   1.432   0.990   3.101 -0.2211 -0.1252 -0.3252
 4007TIP3    H112027   1.506   0.996   3.162 -0.4661 -1.1290  0.0890
 4007TIP3    H212028   1.356   1.016   3.153 -0.6074 -2.1103  0.1726
 4008TIP3   OH212029   1.968   4.489   3.357 -0.6255 -0.1560  0.1280
 4008TIP3    H112030   2.055   4.529   3.353 -1.1391  0.8608 -2.8692
 4008TIP3    H212031   1.939   4.506   3.447  0.7680  2.8443  0.1549
 4009TIP3   OH212032   2.339   2.575   4.122  0.2228  0.2377 -0.2235
 4009TIP3    H112033   2.270   2.584   4.188 -0.1654 -1.7860 -0.2975
 4009TIP3    H212034   2.420   2.598   4.168 -0.1954  0.0869  0.6024
 4010TIP3   OH212035   5.601   2.064   4.782  0.2750  0.3299 -0.6388
 4010TIP3    H112036   5.512   2.082   4.752  0.5318  0.4189 -1.3464
 4010TIP3    H212037   5.613   1.971   4.766  0.8771  0.6411 -2.0462
 4011TIP3   OH212038   0.471   1.764   2.984  0.2287  0.2254  0.6242
 4011TIP3    H112039   0.511   1.789   3.067 -0.8840  0.1564  1.2006
 4011TIP3    H212040   0.472   1.844   2.931 -0.4054  0.6657  1.2648
 4012TIP3   OH212041   3.029   1.464   2.430 -0.1989  0.0767 -0.0011
 4012TIP3    H112042   3.071   1.417   2.359 -1.2303 -0.0889 -0.5215
 4012TIP3    H212043   2.948   1.416   2.446  0.5032 -0.5319  2.0232
 4013TIP3   OH212044   1.024   3.072   1.238  0.3368  0.1226  0.4074
 4013TIP3    H112045   1.022   3.114   1.324 -1.4671 -0.1573  0.5392
 4013TIP3    H212046   1.116   3.049   1.224  0.6012 -0.1997  2.4321
 4014TIP3   OH212047   1.639   1.376   0.547  0.1762 -0.0577 -0.0007
 4014TIP3    H112048   1.577   1.303   0.540  0.5107 -0.3971  0.5075
 4014TIP3    H212049   1.668   1.374   0.638  0.4589  0.4914 -0.0770
 4015TIP3   OH212050   2.305   0.232   4.195 -0.3866  0.4490 -0.2843
 4015TIP3    H112051   2.251   0.270   4.263 -1.4655 -1.1146 -0.2150
 4015TIP3    H212052   2.282   0.139   4.195  1.5583 -0.0973 -0.9499
 4016TIP3   OH212053   0.140   1.990   4.006 -0.5710 -0.0572  0.6110
 4016TIP3    H112054   0.057   2.005   4.051 -1.0952 -0.0638 -0.3219
 4016TIP3    H212055   0.133   2.041   3.925  1.2015  1.7024  1.4598
 4017TIP3   OH212056   4.050   0.219   0.905 -0.3995  0.7048 -0.4696
 4017TIP3    H112057   3.967   0.233   0.952  0.1268  3.6655 -0.1854
 4017TIP3    H212058   4.117   0.227   0.973  0.2011  0.9412 -1.0741
 4018TIP3   OH212059   3.868   2.137   2.286 -0.6543 -0.3382 -0.1747
 4018TIP3    H112060   3.878   2.081   2.364  0.7270  1.8724  1.3532
 4018TIP3    H212061   3.954   2.136   2.245  0.3687  2.8197  1.5473
 4019TIP3   OH212062   2.995   3.525   4.468 -0.3215 -0.2132  0.2759
 4019TIP3    H112063   2.948   3.452   4.508 -1.0378 -0.1468 -0.4117
 4019TIP3    H212064   2.929   3.593   4.457 -0.1180 -0.1621 -0.8296
 4020TIP3   OH212065   1.427   0.496   3.786 -0.0906  0.0497  0.3240
 4020TIP3    H112066   1.383   0.579   3.807 -0.3411  0.4586 -1.6181
 4020TIP3    H212067   1.473   0.514   3.704  0.2095 -1.6197  0.0982
 4021TIP3   OH212068   4.164   3.965   4.575 -0.2670 -0.5474 -0.3932
 4021TIP3    H112069   4.239   3.918   4.539 -0.0198 -0.0767 -0.4917
 4021TIP3    H212070   4.144   4.033   4.511  0.1652  0.2817  0.3370
 4022TIP3   OH212071   0.373   2.554   2.566  0.1181 -0.2647  0.2235
 4022TIP3    H112072   0.451   2.607   2.583  0.4082 -0.9342  1.0450
 4022TIP3    H212073   0.399   2.465   2.590 -0.5464 -0.6880 -0.5770
 4023TIP3   OH212074   4.156   4.585   1.094 -0.1277  0.6644 -0.6719
 4023TIP3    H112075   4.129   4.640   1.021 -1.6258 -1.6901 -2.0288
 4023TIP3    H212076   4.235   4.541   1.064 -0.1303  0.4977 -0.4428
 4024TIP3   OH212077   5.347   2.395   2.871 -0.4063 -0.3147  0.2461
 4024TIP3    H112078   5.381   2.350   2.793  0.6983  0.9699 -0.0536
 4024TIP3    H212079   5.253   2.400   2.856 -0.3428 -1.0060 -0.5088
 4025TIP3   OH212080   2.914   5.244   0.275 -0.4831  0.2969  0.4270
 4025TIP3    H112081   2.956   5.166   0.241 -1.5436 -0.9378  1.8100
 4025TIP3    H212082   2.987   5.300   0.304  0.2754 -0.2445 -0.3890
 4026TIP3   OH212083   0.859   1.260   0.079 -0.2746 -0.2654  0.0321
 4026TIP3    H112084   0.923   1.249   0.009 -0.7474 -0.1063 -0.4359
 4026TIP3    H212085   0.821   1.347   0.062  0.2449  0.1677  1.0190
 4027TIP3   OH212086   5.351   2.773   1.410  0.0130 -1.1355  0.1797
 4027TIP3    H112087   5.433   2.805   1.373  1.8798 -0.5144  4.3563
 4027TIP3    H212088   5.361   2.678   1.412  0.2140 -1.1224 -0.1162
 4028TIP3   OH212089   3.180   2.702   0.631 -0.1164 -0.7175  0.5760
 4028TIP3    H112090   3.262   2.712   0.582 -0.1369  1.7241  0.9383
 4028TIP3    H212091   3.172   2.783   0.681 -3.5997 -0.1395 -0.6910
 4029TIP3   OH212092   2.269   1.686   0.981 -0.0688  0.0391  0.4883
 4029TIP3    H112093   2.289   1.623   0.912  0.2343  0.6412  0.0246
 4029TIP3    H212094   2.287   1.771   0.942  0.3946  0.3722  1.4085
 4030TIP3   OH212095   2.295   0.609   3.839 -0.3063  0.0463 -0.2314
 4030TIP3    H112096   2.333   0.553   3.906  0.1079 -1.3584 -1.5706
 4030TIP3    H212097   2.369   0.658   3.804 -0.2101 -0.5264 -0.8455
 4031TIP3   OH212098   0.737   5.936   2.994  0.1092  0.0027  0.0550
 4031TIP3    H112099   0.707   5.954   2.906 -0.3664 -0.2669  0.1609
 4031TIP3    H212100   0.833   5.931   2.986  0.1622  1.1713 -0.2223
 4032TIP3   OH212101   5.818   2.386   5.036 -0.2098 -0.4392 -0.5633
 4032TIP3    H112102   5.821   2.301   4.993  2.4942  0.1533 -1.7807
 4032TIP3    H212103   5.890   2.435   4.997 -0.8650  1.9790  1.0234
 4033TIP3   OH212104   0.743   4.018   3.609  0.1165 -0.1524  0.2666
 4033TIP3    H112105   0.765   3.989   3.520  0.6166  0.4851  0.1747
 4033TIP3    H212106   0.800   4.093   3.624 -1.0409  0.6940  0.5493
 4034TIP3   OH212107   1.292   4.413   3.402 -0.0661 -0.8268 -0.3547
 4034TIP3    H112108   1.363   4.467   3.437  0.3202 -0.8504 -1.0788
 4034TIP3    H212109   1.336   4.347   3.348 -0.5679 -1.5369  0.0889
 4035TIP3   OH212110   0.517   2.549   2.864  0.3738 -0.0800 -0.3481
 4035TIP3    H112111   0.571   2.537   2.785  1.0825  0.3775  0.0545
 4035TIP3    H212112   0.547   2.481   2.924  0.3308  0.0167 -0.2158
 4036TIP3   OH212113   5.809   2.065   4.215  0.3830 -0.1772  0.0061
 4036TIP3    H112114   5.752   2.141   4.211  1.1562  0.3832 -0.9608
 4036TIP3    H212115   5.794   2.028   4.302 -2.2466 -0.7206 -0.5973
 4037TIP3   OH212116   2.843   3.039   4.732  0.0546 -0.1315 -0.3292
 4037TIP3    H112117   2.868   2.956   4.772  2.8067 -0.0934 -1.7450
 4037TIP3    H212118   2.818   3.017   4.643 -2.9596  0.1774  0.3461
 4038TIP3   OH212119   4.240   1.623   2.267 -0.0333 -0.2043  0.3619
 4038TIP3    H112120   4.254   1.711   2.230 -1.9838 -0.6004 -1.5079
 4038TIP3    H212121   4.329   1.587   2.276  0.6918  0.5428 -2.5765
 4039TIP3   OH212122   2.632   0.626   1.246  0.2696  0.3518 -0.2939
 4039TIP3    H112123   2.716   0.585   1.265  0.4858  1.0025  0.2185
 4039TIP3    H212124   2.570   0.554   1.242  1.0881 -0.3019 -2.1756
 4040TIP3   OH212125   4.625   4.101   3.620 -0.9843 -0.1177 -0.0440
 4040TIP3    H112126   4.661   4.014   3.635 -1.0717 -0.0800  0.3916
 4040TIP3    H212127   4.647   4.121   3.529  2.9057  1.1494  0.9661
 4041TIP3   OH212128   2.067   1.501   4.152  0.2205 -0.2063  0.0229
 4041TIP3    H112129   2.053   1.594   4.132  2.0852  0.7366  2.5076
 4041TIP3    H212130   2.159   1.485   4.130  0.2456 -1.1213  0.7151
 4042TIP3   OH212131   0.999   4.857   4.449 -0.6535 -0.5724  0.0177
 4042TIP3    H112132   0.965   4.925   4.390  1.8203  0.1699 -0.6670
 4042TIP3    H212133   1.006   4.779   4.393  0.4370 -0.2227 -0.3668
 4043TIP3   OH212134   5.624   2.664   3.971  0.3294 -0.5883  0.3556
 4043TIP3    H112135   5.712   2.629   3.963  0.1700 -1.2126  1.2060
 4043TIP3    H212136   5.581   2.607   4.035 -0.4619  0.1498  0.5038
 4044TIP3   OH212137   2.592   1.930   3.467  0.3397 -0.1699 -0.5509
 4044TIP3    H112138   2.678   1.888   3.457 -0.2641 -1.7644  0.5820
 4044TIP3    H212139   2.599   1.977   3.551 -0.5256 -2.0536  0.6385
 4045TIP3   OH212140   3.948   3.257   4.325  0.1413  0.1584  0.1122
 4045TIP3    H112141   3.916   3.302   4.403 -2.0180 -0.8910 -0.1079
 4045TIP3    H212142   4.021   3.311   4.295 -0.3018  1.7201  1.6759
 4046TIP3   OH212143   4.869   1.052   1.849  0.2149 -0.1746 -0.0983
 4046TIP3    H112144   4.936   0.984   1.847  1.9848  1.4907 -0.0609
 4046TIP3    H212145   4.874   1.087   1.938 -0.5386  0.1468 -0.1790
 4047TIP3   OH212146   1.614   3.775   3.518  0.2325 -0.3132  0.0641
 4047TIP3    H112147   1.637   3.862   3.487  0.3509  0.4117  2.0721
 4047TIP3    H212148   1.539   3.788   3.576  0.1967 -1.5600  0.3400
 4048TIP3   OH212149   2.668   5.963   5.119  0.6674  0.2111 -0.1438
 4048TIP3    H112150   2.627   5.976   5.034  1.6712 -0.8433 -0.8152
 4048TIP3    H212151   2.604   5.996   5.182 -0.9806 -0.9048 -1.1771
 4049TIP3   OH212152   2.158   1.903   2.716 -0.0779  0.4143  0.0204
 4049TIP3    H112153   2.097   1.850   2.665 -1.1371  1.7307 -0.1499
 4049TIP3    H212154   2.112   1.986   2.729  1.8128  1.5826 -0.3845
 4050TIP3   OH212155   1.020   3.765   3.169  0.1799  0.4779 -0.3730
 4050TIP3    H112156   1.001   3.854   3.140  1.3117  0.4884 -1.1359
 4050TIP3    H212157   0.945   3.714   3.140 -0.0109  1.0039 -0.8188
 4051TIP3   OH212158   3.134   1.123   0.169  0.1490 -0.6927  0.7538
 4051TIP3    H112159   3.179   1.194   0.122  0.2666 -1.4825 -0.3655
 4051TIP3    H212160   3.197   1.052   0.170 -0.0917 -0.9012  1.5839
 4052TIP3   OH212161   6.085   3.325   4.331  0.2224 -0.2284 -0.1002
 4052TIP3    H112162   6.119   3.236   4.336 -0.8088 -0.6404 -0.1133
 4052TIP3    H212163   6.019   3.329   4.400 -1.7718 -0.4079 -1.8870
 4053TIP3   OH212164   3.076   4.324   4.923 -0.0345  0.6001  0.6242
 4053TIP3    H112165   3.167   4.300   4.940  0.5298 -0.0044 -2.6820
 4053TIP3    H212166   3.072   4.418   4.943  2.0776  1.2710 -1.6227
 4054TIP3   OH212167   2.662   2.882   1.274  0.5470 -0.2930 -0.3311
 4054TIP3    H112168   2.667   2.932   1.192 -0.1581  0.0001 -0.2076
 4054TIP3    H212169   2.661   2.791   1.246 -2.5391 -0.2044 -0.9021
 4055TIP3   OH212170   3.292   2.397   4.647 -0.2740  0.1712 -0.1519
 4055TIP3    H112171   3.362   2.372   4.707 -1.3318  0.1445  1.1085
 4055TIP3    H212172   3.248   2.315   4.626 -0.6614  0.3320  0.0186
 4056TIP3   OH212173   4.677   4.617   1.551  0.3188 -0.2159  0.9659
 4056TIP3    H112174   4.695   4.680   1.620  0.9136  1.8084 -0.9054
 4056TIP3    H212175   4.625   4.666   1.487  0.2947 -1.8027 -0.3033
 4057TIP3   OH212176   4.481   3.698   0.407  0.4817  0.1609 -0.4135
 4057TIP3    H112177   4.428   3.671   0.332 -0.2802 -0.3061  0.2770
 4057TIP3    H212178   4.420   3.745   0.464  1.2864  1.4203 -0.5488
 4058TIP3   OH212179   6.161   1.794   2.518 -0.3114  0.3957 -0.1080
 4058TIP3    H112180   6.203   1.875   2.487 -0.0349  0.4425  0.3804
 4058TIP3    H212181   6.127   1.753   2.438  0.5523  0.4199 -0.5078
 4059TIP3   OH212182   4.539   0.534   3.285  0.2122  0.4593  0.2707
 4059TIP3    H112183   4.569   0.525   3.376 -0.2940 -1.2178  0.3100
 4059TIP3    H212184   4.498   0.450   3.266  2.0542  0.0253 -2.1814
 4060TIP3   OH212185   3.235   1.803   3.052 -0.0834 -0.0459  0.5173
 4060TIP3    H112186   3.270   1.776   2.967  1.0368 -0.1411  0.9868
 4060TIP3    H212187   3.284   1.882   3.073  0.6042 -0.7661  1.6810
 4061TIP3   OH212188   2.083   4.587   0.857 -0.2437 -0.5032 -0.2106
 4061TIP3    H112189   1.989   4.599   0.845 -0.0529  0.2915 -0.9853
 4061TIP3    H212190   2.123   4.621   0.777  0.7436 -0.2720  0.3554
 4062TIP3   OH212191   0.067   1.942   2.455  0.2187  0.4038  0.0396
 4062TIP3    H112192   0.142   1.951   2.396  0.6078 -0.7692  0.3194
 4062TIP3    H212193   0.087   1.864   2.507 -0.2705  1.2151  1.5109
 4063TIP3   OH212194   5.886   0.466   3.630 -0.9114 -0.4800  0.2819
 4063TIP3    H112195   5.877   0.462   3.535  1.0985  1.5954 -0.0672
 4063TIP3    H212196   5.941   0.391   3.652  0.7611  0.4254 -0.5853
 4064TIP3   OH212197   3.322   0.137   4.063  0.5570 -0.4268  0.0245
 4064TIP3    H112198   3.286   0.116   4.149 -1.9359  1.6824 -0.3814
 4064TIP3    H212199   3.308   0.058   4.011  0.3686 -1.0831  1.0516
 4065TIP3   OH212200   5.697   2.532   1.019 -0.6258  0.0427 -0.1314
 4065TIP3    H112201   5.741   2.605   1.063 -0.4084  1.1799 -2.0871
 4065TIP3    H212202   5.611   2.527   1.059 -0.6304  1.3775  0.0734
 4066TIP3   OH212203   0.515   3.846   3.511  0.2366 -0.0448 -0.1377
 4066TIP3    H112204   0.538   3.937   3.489  0.2076  0.5363  1.9950
 4066TIP3    H212205   0.422   3.839   3.491  0.2174  0.4406 -0.2302
 4067TIP3   OH212206   5.576   2.393   1.976 -0.0658 -0.3881  0.1801
 4067TIP3    H112207   5.665   2.360   1.965  0.2991  0.0710  1.6205
 4067TIP3    H212208   5.533   2.371   1.893  1.0244 -1.6835 -0.0790
 4068TIP3   OH212209   0.628   3.309   2.059  0.4125  0.3537 -0.1857
 4068TIP3    H112210   0.616   3.312   2.154  0.2494  1.1181 -0.2251
 4068TIP3    H212211   0.554   3.258   2.027  0.8342 -0.4813  0.1564
 4069TIP3   OH212212   5.113   4.266   3.039  0.1101  0.0561  0.0058
 4069TIP3    H112213   5.198   4.305   3.061  0.9460  0.3626 -3.3326
 4069TIP3    H212214   5.070   4.331   2.984 -1.1744 -1.1796 -0.5141
 4070TIP3   OH212215   4.304   3.378   1.394 -0.1285  0.0281 -0.0243
 4070TIP3    H112216   4.219   3.402   1.431 -0.4544 -1.5126  0.2730
 4070TIP3    H212217   4.283   3.313   1.327  0.6594  1.1284 -1.4159
 4071TIP3   OH212218   5.994   5.580   1.378 -0.4706 -0.1715  0.5010
 4071TIP3    H112219   5.909   5.586   1.420 -0.6003 -2.1704  0.6193
 4071TIP3    H212220   5.976   5.595   1.285 -0.7843  0.3506  0.6411
 4072TIP3   OH212221   0.487   5.867   4.596 -0.0885 -0.5890  0.0866
 4072TIP3    H112222   0.410   5.822   4.631  0.0522 -0.4092  0.6268
 4072TIP3    H212223   0.462   5.889   4.506 -0.4745 -0.9863  0.0927
 4073TIP3   OH212224   2.049   1.085   5.058  0.1126 -0.1525  0.1632
 4073TIP3    H112225   2.049   0.990   5.048 -0.7031 -0.2832  1.1898
 4073TIP3    H212226   2.120   1.103   5.119 -0.6143 -0.2499  1.0502
 4074TIP3   OH212227   4.743   2.520   2.372  0.7752  0.3363  0.5602
 4074TIP3    H112228   4.730   2.434   2.410 -0.0603  0.1093 -0.1922
 4074TIP3    H212229   4.808   2.562   2.428  1.5547 -0.9518  0.6540
 4075TIP3   OH212230   0.431   1.147   3.955 -0.4973 -0.2381  0.2600
 4075TIP3    H112231   0.417   1.191   3.872 -0.9166  1.1982  1.0516
 4075TIP3    H212232   0.416   1.054   3.937 -1.8447  0.1944 -0.9749
 4076TIP3   OH212233   2.130   5.301   4.603  0.2723 -0.3458  0.3033
 4076TIP3    H112234   2.201   5.238   4.609  1.7473  1.1766 -0.3985
 4076TIP3    H212235   2.109   5.306   4.510  0.6786  0.7223  0.2582
 4077TIP3   OH212236   2.442   2.633   1.791  0.0403  0.1265  0.7917
 4077TIP3    H112237   2.348   2.634   1.811 -0.4445 -0.0276 -1.2162
 4077TIP3    H212238   2.452   2.699   1.723  0.9726 -1.3915 -0.6158
 4078TIP3   OH212239   3.045   4.083   0.018  0.0787 -0.3393  0.4372
 4078TIP3    H112240   3.058   4.014   0.083  0.6306 -0.0477  0.6442
 4078TIP3    H212241   3.113   4.067  -0.048  0.1547 -0.0379  0.4441
 4079TIP3   OH212242   6.086   0.434   2.594 -0.4732  0.3395 -0.1042
 4079TIP3    H112243   6.008   0.490   2.604 -1.5137 -0.6691 -1.9942
 4079TIP3    H212244   6.144   0.483   2.536 -0.2644  0.5228  0.2548
 4080TIP3   OH212245   6.039   1.863   0.579 -0.2226 -0.6499  0.4787
 4080TIP3    H112246   6.049   1.789   0.520  1.9749 -0.1993  0.2098
 4080TIP3    H212247   6.090   1.839   0.656  0.5637  0.5815  0.3648
 4081TIP3   OH212248   3.151   4.205   2.107  0.1345  0.2486 -0.4863
 4081TIP3    H112249   3.153   4.259   2.028  0.3460 -0.0635 -0.6948
 4081TIP3    H212250   3.182   4.119   2.078  1.6860  0.5310  0.2373
 4082TIP3   OH212251   4.531   5.299   3.975 -0.2614  0.4354 -0.1099
 4082TIP3    H112252   4.600   5.305   3.908 -0.1105 -1.5137 -0.1900
 4082TIP3    H212253   4.456   5.263   3.928 -1.0135  1.5314  0.2226
 4083TIP3   OH212254   0.367   3.268   4.488  0.2720 -0.5396 -0.3223
 4083TIP3    H112255   0.277   3.239   4.500  0.5351 -1.0932  0.4159
 4083TIP3    H212256   0.393   3.230   4.404 -0.0119 -0.8369 -0.2804
 4084TIP3   OH212257   0.724   2.796   2.813  0.8654  0.1242  0.2505
 4084TIP3    H112258   0.653   2.827   2.869  0.4025 -1.2703  0.4679
 4084TIP3    H212259   0.729   2.861   2.744 -1.0793 -0.0651 -0.1365
 4085TIP3   OH212260   1.438   2.923   2.644 -0.3748  0.1219  0.4932
 4085TIP3    H112261   1.489   3.003   2.636  1.4446 -1.0235 -0.1945
 4085TIP3    H212262   1.347   2.951   2.639  0.1615  2.2604  1.6979
 4086TIP3   OH212263   1.146   0.607   1.856  0.4560  0.1603 -0.0928
 4086TIP3    H112264   1.200   0.528   1.859 -0.3130 -0.3851 -0.2137
 4086TIP3    H212265   1.121   0.622   1.947 -0.2678 -0.3658 -0.1937
 4087TIP3   OH212266   2.542   5.076   1.452  0.0714  0.0871 -0.4135
 4087TIP3    H112267   2.600   5.070   1.528 -0.8552  2.7845  0.6412
 4087TIP3    H212268   2.473   5.011   1.470  0.9865 -0.8047 -0.0372
 4088TIP3   OH212269   4.841   1.901   1.958  0.6594  0.7184 -0.1666
 4088TIP3    H112270   4.882   1.987   1.950  0.4097  0.6915 -2.2627
 4088TIP3    H212271   4.881   1.849   1.888 -1.1014 -0.0521 -0.6624
 4089TIP3   OH212272   5.991   1.065   1.866 -0.1328  0.2478 -0.6604
 4089TIP3    H112273   6.078   1.059   1.827  0.1056 -0.5890 -0.0357
 4089TIP3    H212274   5.966   0.974   1.883  0.1159  0.5878  1.8293
 4090TIP3   OH212275   5.960   3.118   0.143  0.3338 -0.2926 -0.8134
 4090TIP3    H112276   6.039   3.169   0.162 -1.1572  2.1638 -0.7683
 4090TIP3    H212277   5.981   3.070   0.062  1.5651  1.0412 -1.3250
 4091TIP3   OH212278   5.552   2.990   2.540  0.1008  0.0069 -0.0536
 4091TIP3    H112279   5.545   2.904   2.498  3.6726 -0.5122  0.1759
 4091TIP3    H212280   5.626   3.032   2.497  0.6850  1.5257  2.2846
 4092TIP3   OH212281   3.240   4.337   4.408  0.4311 -0.2145  0.5870
 4092TIP3    H112282   3.238   4.348   4.313 -1.1123  1.3434  0.7492
 4092TIP3    H212283   3.290   4.257   4.422 -0.5118 -1.2660 -1.5993
 4093TIP3   OH212284   6.056   5.195   2.723 -0.1169  0.7548  0.3598
 4093TIP3    H112285   6.070   5.165   2.813 -1.4559 -0.5050  0.1776
 4093TIP3    H212286   6.110   5.136   2.669 -1.6271 -0.4668  0.1216
 4094TIP3   OH212287   2.126   5.294   3.793  0.1674  0.0879  0.1042
 4094TIP3    H112288   2.203   5.316   3.739 -0.1413 -0.3643 -0.5283
 4094TIP3    H212289   2.115   5.370   3.850  1.6009 -0.1835  0.8097
 4095TIP3   OH212290   0.586   1.570   2.784  0.3061 -0.3421  0.3026
 4095TIP3    H112291   0.679   1.592   2.780  0.9720 -2.9360 -0.1104
 4095TIP3    H212292   0.548   1.637   2.841  2.4522  0.6183  0.7029
 4096TIP3   OH212293   1.936   5.553   1.161 -0.2179  0.2462 -0.0780
 4096TIP3    H112294   2.016   5.531   1.113 -1.0711  0.1004 -1.4718
 4096TIP3    H212295   1.893   5.468   1.174  0.8024  0.0400  2.5027
 4097TIP3   OH212296   2.643   3.648   2.984 -0.0999  0.1641 -0.1058
 4097TIP3    H112297   2.658   3.714   3.052  1.0273 -1.1184  0.9329
 4097TIP3    H212298   2.548   3.632   2.986 -0.0288 -0.2147  1.5295
 4098TIP3   OH212299   6.129   5.465   1.928  0.6883 -0.1470 -0.5917
 4098TIP3    H112300   6.182   5.418   1.863 -1.5815  0.1539 -2.8175
 4098TIP3    H212301   6.043   5.423   1.924 -0.2028  1.4651  0.4759
 4099TIP3   OH212302   0.759   0.577   0.978 -0.0014 -0.5047 -0.0203
 4099TIP3    H112303   0.827   0.569   1.045  0.4518  1.8042 -0.1242
 4099TIP3    H212304   0.802   0.546   0.898 -0.1473 -2.0830  0.4715
 4100TIP3   OH212305   4.339   2.659   0.869  0.0825  0.5032 -0.0647
 4100TIP3    H112306   4.259   2.642   0.819  1.2763 -2.3977 -1.1867
 4100TIP3    H212307   4.379   2.735   0.826 -1.0628  0.7505 -0.7292
 4101TIP3   OH212308   5.906   2.303   1.893  0.7454 -0.2887 -0.3841
 4101TIP3    H112309   5.888   2.215   1.926  0.1506 -0.6341 -1.6005
 4101TIP3    H212310   5.921   2.355   1.972  0.3675 -1.3130  0.3830
 4102TIP3   OH212311   1.704   3.922   0.669  0.0986 -0.1110 -0.5046
 4102TIP3    H112312   1.688   4.016   0.680 -0.7382 -0.1581 -1.2198
 4102TIP3    H212313   1.768   3.901   0.736 -1.4437  0.5019  1.2514
 4103TIP3   OH212314   0.741   3.583   2.139 -0.0071 -0.0184  0.1034
 4103TIP3    H112315   0.651   3.559   2.118  0.6023 -0.5656 -2.1105
 4103TIP3    H212316   0.782   3.600   2.055  1.6579  1.4611  1.1411
 4104TIP3   OH212317   0.591   3.421   2.456 -0.6125  0.1964  0.6207
 4104TIP3    H112318   0.546   3.505   2.460  1.0431  1.1875 -0.3128
 4104TIP3    H212319   0.679   3.440   2.490 -0.7556 -1.6099  2.1786
 4105TIP3   OH212320   0.408   4.032   2.452 -0.3058  0.2863 -0.1532
 4105TIP3    H112321   0.391   4.115   2.496  0.7929  0.2816  0.3022
 4105TIP3    H212322   0.503   4.030   2.441 -0.3358 -0.8588 -0.2669
 4106TIP3   OH212323   3.217   0.466   2.237 -0.7442  0.0233 -0.4138
 4106TIP3    H112324   3.259   0.451   2.322  0.3048  0.5028 -0.8408
 4106TIP3    H212325   3.158   0.391   2.227 -0.0086 -0.6631  0.2115
 4107TIP3   OH212326   3.457   1.544   4.333  0.0538 -0.3155  0.4331
 4107TIP3    H112327   3.498   1.598   4.400 -1.5821  0.5168  0.8005
 4107TIP3    H212328   3.501   1.568   4.252 -0.4286  1.3749  0.6370
 4108TIP3   OH212329   0.704   5.913   3.507 -0.7523  0.1545 -0.1808
 4108TIP3    H112330   0.650   5.944   3.580 -1.9144  0.0675 -0.9708
 4108TIP3    H212331   0.656   5.940   3.429 -1.1890 -2.5193 -0.9312
 4109TIP3   OH212332   2.036   4.148   3.082  0.7782  0.4345  0.6620
 4109TIP3    H112333   1.958   4.204   3.076 -1.6521 -2.7940 -1.0165
 4109TIP3    H212334   2.092   4.178   3.010 -0.0675  1.2213  0.2983
 4110TIP3   OH212335   5.840   4.661   3.639 -0.2481  0.1244 -0.1138
 4110TIP3    H112336   5.771   4.724   3.620  1.3153  1.4182 -1.7385
 4110TIP3    H212337   5.803   4.607   3.710 -2.8472  0.8168 -0.8166
 4111TIP3   OH212338   3.128   5.198   2.704  0.1253 -0.8553 -0.3600
 4111TIP3    H112339   3.066   5.125   2.699 -0.0244 -0.6514 -2.1693
 4111TIP3    H212340   3.080   5.273   2.668 -0.2245  0.5565  2.7930
 4112TIP3   OH212341   4.526   0.791   2.743  0.1022  0.6133  0.5245
 4112TIP3    H112342   4.610   0.826   2.774 -0.5247  1.7090  1.0481
 4112TIP3    H212343   4.494   0.738   2.816 -0.0703  0.9098  0.6639
 4113TIP3   OH212344   2.775   1.815   4.891 -0.9091 -0.1101  0.1658
 4113TIP3    H112345   2.755   1.866   4.812 -1.3658  1.2054  1.0965
 4113TIP3    H212346   2.769   1.878   4.963  1.2110 -0.8777  1.0987
 4114TIP3   OH212347   2.444   2.231   3.642 -0.2304 -0.5789  0.0308
 4114TIP3    H112348   2.404   2.202   3.560  1.3990 -0.1533 -0.9613
 4114TIP3    H212349   2.521   2.176   3.652  0.6128  0.6080  0.2786
 4115TIP3   OH212350   5.756   4.198   2.321 -0.0200  0.1292  0.3457
 4115TIP3    H112351   5.663   4.214   2.339 -1.0754 -1.9916 -2.5680
 4115TIP3    H212352   5.782   4.271   2.265 -0.1427  0.2722  0.4721
 4116TIP3   OH212353   0.026   5.820   3.535  0.1262  0.0652  0.2354
 4116TIP3    H112354   0.059   5.846   3.621 -1.0745  0.3646  0.6350
 4116TIP3    H212355  -0.047   5.761   3.555 -0.4784  0.5302 -0.5576
 4117TIP3   OH212356   2.717   1.764   3.031  0.0627 -0.0565  0.0835
 4117TIP3    H112357   2.807   1.782   3.003 -0.3684  0.5519 -0.9788
 4117TIP3    H212358   2.663   1.813   2.969 -0.9584  2.2241  2.5458
 4118TIP3   OH212359   2.657   2.424   0.066 -0.1349  0.1880 -0.0593
 4118TIP3    H112360   2.700   2.436  -0.019  0.6044  1.4209  0.4712
 4118TIP3    H212361   2.613   2.339   0.057 -0.1422  0.3164 -1.6947
 4119TIP3   OH212362   5.295   5.378   3.708 -0.0359 -0.1954  0.1664
 4119TIP3    H112363   5.328   5.452   3.657  1.2679 -0.0426  1.1680
 4119TIP3    H212364   5.265   5.315   3.644 -0.9991  1.1150 -0.7252
 4120TIP3   OH212365   3.719   5.406   4.817 -0.1150 -0.2728 -0.0041
 4120TIP3    H112366   3.679   5.489   4.841  0.4983  0.0363 -0.0202
 4120TIP3    H212367   3.702   5.348   4.892 -1.1382 -0.3480 -0.2862
 4121TIP3   OH212368   3.419   3.113   5.090  0.1240 -0.2564  0.1177
 4121TIP3    H112369   3.331   3.151   5.085  0.7089  1.1802  0.1978
 4121TIP3    H212370   3.413   3.047   5.159 -0.6325  0.5930  0.8977
 4122TIP3   OH212371   4.053   5.811   1.672  0.5573  0.1396  0.0902
 4122TIP3    H112372   3.968   5.838   1.638  0.2862 -0.9654 -0.1630
 4122TIP3    H212373   4.107   5.797   1.595  0.5702 -0.3945  0.1905
 4123TIP3   OH212374   3.163   4.718   4.641  1.0829 -0.6120  0.0297
 4123TIP3    H112375   3.179   4.805   4.676 -0.4791  0.1522 -1.0679
 4123TIP3    H212376   3.245   4.671   4.657  1.9584  1.0401  0.6454
 4124TIP3   OH212377   4.144   4.792   0.491  0.4711 -0.2931  0.4505
 4124TIP3    H112378   4.078   4.763   0.554 -1.3316 -1.1998 -1.6849
 4124TIP3    H212379   4.177   4.874   0.526 -3.6045  1.5531  0.5616
 4125TIP3   OH212380   2.420   5.094   3.056 -0.2197 -0.5684 -0.3069
 4125TIP3    H112381   2.347   5.140   3.014 -0.4012 -0.6488 -0.0794
 4125TIP3    H212382   2.476   5.066   2.983  1.7515  2.9723 -0.3979
 4126TIP3   OH212383   5.131   5.937   0.910 -0.1912  0.5457  0.4319
 4126TIP3    H112384   5.163   5.847   0.915 -0.3437  0.4966  0.5224
 4126TIP3    H212385   5.203   5.989   0.947  0.4410  0.5997 -0.8282
 4127TIP3   OH212386   5.494   5.811   3.912  0.1298  0.3952  0.7001
 4127TIP3    H112387   5.553   5.755   3.962  2.4269  2.1962  0.1960
 4127TIP3    H212388   5.450   5.752   3.851  0.5781 -1.1699  1.8472
 4128TIP3   OH212389   1.189   5.168   2.227 -0.7572 -0.1988  0.9520
 4128TIP3    H112390   1.177   5.135   2.138 -1.0246 -0.4814  1.0890
 4128TIP3    H212391   1.267   5.223   2.222  0.4525 -1.8200  0.9538
 4129TIP3   OH212392   0.196   4.169   3.175  0.6106  0.2026 -0.4707
 4129TIP3    H112393   0.224   4.243   3.121  0.9179  3.0522  3.2536
 4129TIP3    H212394   0.109   4.147   3.142  1.4496  0.5398 -3.1914
 4130TIP3   OH212395   5.686   1.074   3.302 -0.1436 -0.2061  0.1888
 4130TIP3    H112396   5.642   0.991   3.282 -1.4551  0.8188 -1.5225
 4130TIP3    H212397   5.624   1.121   3.358  0.2392 -0.0733  0.5012
 4131TIP3   OH212398   3.569   0.634   3.212  0.5402 -0.4004 -0.5742
 4131TIP3    H112399   3.624   0.697   3.259 -0.0959  0.0988 -0.4846
 4131TIP3    H212400   3.546   0.568   3.278  0.1263 -0.0130 -0.3259
 4132TIP3   OH212401   3.473   3.480   5.155  0.7048 -0.3400  0.2985
 4132TIP3    H112402   3.378   3.471   5.152  0.5179  1.4949 -0.3200
 4132TIP3    H212403   3.490   3.529   5.236  0.8370  1.9044 -1.0218
 4133TIP3   OH212404   3.451   3.554   0.522 -0.1900 -0.1709 -0.2729
 4133TIP3    H112405   3.426   3.588   0.436  0.0831  0.3357 -0.1596
 4133TIP3    H212406   3.546   3.566   0.526  0.1057 -2.0535 -0.6912
 4134TIP3   OH212407   2.051   5.737   1.351 -0.3562  0.5474 -0.1143
 4134TIP3    H112408   2.064   5.825   1.318 -0.6336  0.7287  0.2490
 4134TIP3    H212409   2.018   5.687   1.276 -0.6150  0.8581 -0.2063
 4135TIP3   OH212410   0.659   3.251   3.733  0.1430  0.0305 -0.5278
 4135TIP3    H112411   0.609   3.179   3.771 -0.5336  0.4860 -0.5253
 4135TIP3    H212412   0.737   3.210   3.696 -0.4631 -0.7722 -0.9507
 4136TIP3   OH212413   0.982   0.282   4.343 -0.1671 -0.5439 -0.1899
 4136TIP3    H112414   0.886   0.278   4.350 -0.3573  2.8141  1.2368
 4136TIP3    H212415   1.013   0.242   4.424 -0.4486 -0.4166 -0.0161
 4137TIP3   OH212416   3.696   1.778   2.672  0.2064 -0.4617  0.0589
 4137TIP3    H112417   3.609   1.739   2.665 -0.0575  0.2587 -0.8886
 4137TIP3    H212418   3.756   1.706   2.657 -0.2674 -0.5661 -1.4981
 4138TIP3   OH212419   2.964   5.212   1.873  0.4277 -0.6400 -0.4546
 4138TIP3    H112420   2.930   5.289   1.827  1.5601 -0.7727 -1.5808
 4138TIP3    H212421   2.978   5.241   1.963  0.7332  0.4527 -0.8414
 4139TIP3   OH212422   0.148   0.983   1.742  0.1649 -0.2396 -0.0440
 4139TIP3    H112423   0.168   0.948   1.655  0.1952  0.8053 -0.4632
 4139TIP3    H212424   0.141   0.905   1.797  0.8951 -0.8768 -0.8191
 4140TIP3   OH212425   4.586   1.225   4.451  0.2712  0.2331  0.9098
 4140TIP3    H112426   4.624   1.289   4.512 -2.4635  0.0187  3.0243
 4140TIP3    H212427   4.558   1.278   4.376  1.0581  0.9798  1.1271
 4141TIP3   OH212428   0.467   5.046   1.955  0.2037  1.1863 -0.4901
 4141TIP3    H112429   0.498   5.099   2.029 -0.2894  0.6544  0.1119
 4141TIP3    H212430   0.382   5.082   1.933 -0.7395 -0.1382  0.7855
 4142TIP3   OH212431   3.228   5.673   4.250 -0.1504  0.2755 -0.0940
 4142TIP3    H112432   3.267   5.633   4.172  0.4061 -0.3216  0.4847
 4142TIP3    H212433   3.298   5.727   4.288 -0.0812 -0.2780  0.5793
 4143TIP3   OH212434   5.220   4.011   2.204 -0.4146 -0.4986  0.1572
 4143TIP3    H112435   5.293   3.970   2.249 -0.3867 -0.6773 -0.0502
 4143TIP3    H212436   5.211   3.962   2.122 -0.5947 -0.3079  0.0609
 4144TIP3   OH212437   2.634   5.599   1.344  0.6249  0.2878 -0.5169
 4144TIP3    H112438   2.600   5.669   1.401 -1.0396 -1.0411  0.2056
 4144TIP3    H212439   2.639   5.523   1.401  0.0692 -0.7913 -1.8723
 4145TIP3   OH212440   2.106   2.590   1.581 -0.2275 -0.1219  0.0557
 4145TIP3    H112441   2.112   2.620   1.672 -2.3837 -1.1891  0.6213
 4145TIP3    H212442   2.109   2.494   1.588 -2.3252 -0.2843 -0.7578
 4146TIP3   OH212443   3.867   1.912   1.162 -0.3891 -0.0137  0.3417
 4146TIP3    H112444   3.839   1.902   1.071  2.4567 -2.0527 -0.4516
 4146TIP3    H212445   3.939   1.975   1.158  1.7561 -2.2817  0.5668
 4147TIP3   OH212446   5.815   5.877   2.535 -0.0186 -0.4161 -0.2150
 4147TIP3    H112447   5.741   5.932   2.560  1.7274  1.6749  0.6637
 4147TIP3    H212448   5.809   5.801   2.592 -2.3116 -1.0733 -1.2202
 4148TIP3   OH212449   1.004   3.584   1.063  0.3189 -0.1353 -0.5931
 4148TIP3    H112450   1.024   3.678   1.072 -1.0512  0.1607 -0.4451
 4148TIP3    H212451   1.040   3.560   0.977  1.6414  0.2408 -0.1787
 4149TIP3   OH212452   4.404   5.715   3.460  0.7245  0.4078  0.4737
 4149TIP3    H112453   4.415   5.638   3.406  0.2599 -0.2769  1.3342
 4149TIP3    H212454   4.316   5.707   3.497  0.7505  1.2338  0.7448
 4150TIP3   OH212455   4.410   0.186   5.191  0.3620 -0.1300  0.1182
 4150TIP3    H112456   4.369   0.116   5.141  0.4039 -0.5723  0.6957
 4150TIP3    H212457   4.381   0.266   5.149 -1.2619 -0.4178  0.6469
 4151TIP3   OH212458   1.137   2.993   1.483  0.3927 -0.1904 -0.1572
 4151TIP3    H112459   1.228   3.020   1.474  0.4794 -0.2244  0.5942
 4151TIP3    H212460   1.141   2.903   1.515  0.1229  0.5884  2.2737
 4152TIP3   OH212461   2.232   2.993   1.761 -0.1618  0.7880 -0.2291
 4152TIP3    H112462   2.162   2.965   1.820  0.0508  3.3062  1.3862
 4152TIP3    H212463   2.199   3.073   1.720  0.1964 -0.2210 -2.6953
 4153TIP3   OH212464   2.784   1.556   0.437  0.1490  0.0177 -0.1963
 4153TIP3    H112465   2.810   1.587   0.524  1.0138 -0.5588 -0.2331
 4153TIP3    H212466   2.832   1.474   0.426 -2.2451 -1.5219  0.0288
 4154TIP3   OH212467   5.054   4.263   2.560 -0.2462 -0.0581 -0.4228
 4154TIP3    H112468   5.132   4.303   2.522  0.4880  0.3160  1.3970
 4154TIP3    H212469   4.982   4.319   2.530  0.2867  0.2147 -1.2472
 4155TIP3   OH212470   1.500   3.666   4.299  0.0199  0.5005 -0.3249
 4155TIP3    H112471   1.573   3.701   4.350  0.3445 -0.9436  0.2720
 4155TIP3    H212472   1.522   3.685   4.208  0.4120  1.3674 -0.0531
 4156TIP3   OH212473   4.469   3.786   4.710  0.3610 -0.4667  0.0986
 4156TIP3    H112474   4.530   3.712   4.718  0.6916 -0.1119  1.0221
 4156TIP3    H212475   4.382   3.747   4.719  0.5373 -0.7501  0.6363
 4157TIP3   OH212476   0.475   4.176   1.228  0.1949  0.1321 -0.4532
 4157TIP3    H112477   0.386   4.175   1.193  0.2717 -0.9207 -0.6540
 4157TIP3    H212478   0.526   4.221   1.162  0.1281 -0.8372 -1.1878
 4158TIP3   OH212479   0.377   0.073   1.959 -0.3060 -0.3254  0.4091
 4158TIP3    H112480   0.368  -0.021   1.943  0.4529 -0.3999  0.4052
 4158TIP3    H212481   0.381   0.080   2.055 -0.0217 -0.3302  0.3980
 4159TIP3   OH212482   1.684   3.774   0.449 -0.4017 -0.7048 -0.2273
 4159TIP3    H112483   1.660   3.694   0.494 -1.9921 -0.2988 -0.3035
 4159TIP3    H212484   1.680   3.842   0.517 -0.8413 -0.4081 -0.5478
 4160TIP3   OH212485   5.912   3.955   2.729  0.7208 -0.1666  0.5177
 4160TIP3    H112486   5.985   3.927   2.674 -0.8770 -2.7739 -0.5057
 4160TIP3    H212487   5.903   3.885   2.794 -0.5212  0.3605  0.9523
 4161TIP3   OH212488   3.236   5.606   1.804  0.4551  0.3526  0.4120
 4161TIP3    H112489   3.239   5.513   1.782 -2.6880  0.0641  0.7039
 4161TIP3    H212490   3.206   5.608   1.895 -2.1695  1.5864 -0.3980
 4162TIP3   OH212491   1.850   2.179   1.049 -0.9382  0.2551  0.2383
 4162TIP3    H112492   1.788   2.222   1.107 -2.1993 -0.6517 -0.3865
 4162TIP3    H212493   1.819   2.089   1.042  0.3280 -0.1776 -0.2678
 4163TIP3   OH212494   3.521   4.118   3.096 -0.0788 -0.2501  0.3746
 4163TIP3    H112495   3.568   4.200   3.108 -0.0611  0.4105 -3.2075
 4163TIP3    H212496   3.437   4.144   3.056 -0.2434 -1.8996 -0.4446
 4164TIP3   OH212497   4.850   4.875   4.056 -0.3308  0.3774 -0.7990
 4164TIP3    H112498   4.937   4.858   4.019 -0.5367  1.2727 -1.7297
 4164TIP3    H212499   4.842   4.970   4.059 -0.7377  0.3339  0.6317
 4165TIP3   OH212500   1.223   0.988   5.115 -0.6378  0.1563  0.2088
 4165TIP3    H112501   1.178   0.906   5.092 -0.0527 -0.1254  0.0446
 4165TIP3    H212502   1.223   1.038   5.033 -1.1858  0.4199  0.3631
 4166TIP3   OH212503   3.032   3.627   1.661 -0.4514  0.0660 -0.2060
 4166TIP3    H112504   2.941   3.623   1.629 -0.4187 -1.8398 -0.1466
 4166TIP3    H212505   3.027   3.590   1.749  0.2608  0.7733  0.1368
 4167TIP3   OH212506   2.400   1.386   3.267  1.0469 -0.1133  0.0166
 4167TIP3    H112507   2.360   1.451   3.325 -0.4908 -1.3542  0.4357
 4167TIP3    H212508   2.480   1.428   3.234 -0.4401  2.4322 -0.6522
 4168TIP3   OH212509   5.662   4.693   2.181  0.4858 -0.4083 -0.2312
 4168TIP3    H112510   5.713   4.748   2.239  0.0722  1.4370 -1.5387
 4168TIP3    H212511   5.703   4.704   2.095 -0.5318 -0.9407 -0.8017
 4169TIP3   OH212512   1.142   1.903   3.161 -0.1763 -0.6284 -0.1717
 4169TIP3    H112513   1.177   1.989   3.186  0.0389 -0.6409 -0.4339
 4169TIP3    H212514   1.115   1.864   3.244  0.6941 -0.7369  0.0670
 4170TIP3   OH212515   2.787   4.157   1.881 -0.0402  0.0619 -0.0368
 4170TIP3    H112516   2.696   4.168   1.853  0.1725  1.3263 -0.2825
 4170TIP3    H212517   2.823   4.091   1.821 -0.0676  1.4762 -1.6663
 4171TIP3   OH212518   2.095   0.132   0.758  0.1592 -0.0132 -0.4925
 4171TIP3    H112519   2.058   0.174   0.836 -1.1950 -0.8640 -0.6552
 4171TIP3    H212520   2.090   0.039   0.777  1.4973 -0.1763 -0.8773
 4172TIP3   OH212521   5.190   0.383   3.301 -0.4032 -0.0774  0.3525
 4172TIP3    H112522   5.174   0.292   3.327 -1.3654  0.2459  0.9393
 4172TIP3    H212523   5.268   0.409   3.350 -0.1900 -0.5447  0.2653
 4173TIP3   OH212524   4.233   3.672   4.766 -0.0687 -0.6452  0.4255
 4173TIP3    H112525   4.155   3.726   4.775 -2.0017 -2.9759 -0.8945
 4173TIP3    H212526   4.221   3.602   4.830  0.3054 -1.6746 -0.5885
 4174TIP3   OH212527   4.513   5.452   0.763 -0.6096  0.0248  0.3391
 4174TIP3    H112528   4.549   5.368   0.734 -0.6817 -0.3421  1.2712
 4174TIP3    H212529   4.478   5.492   0.683  1.0444 -0.0005 -0.4463
 4175TIP3   OH212530   4.155   2.665   4.037  0.1543  0.2529 -0.1924
 4175TIP3    H112531   4.095   2.667   3.962  2.8018 -0.9343 -2.5422
 4175TIP3    H212532   4.238   2.695   4.001  1.6152 -0.6736  2.2155
 4176TIP3   OH212533   1.255   0.402   4.323 -0.4812  0.0944 -0.9803
 4176TIP3    H112534   1.286   0.491   4.340 -0.9031  0.0706 -0.0524
 4176TIP3    H212535   1.162   0.405   4.343 -0.7688 -0.2494 -2.1689
 4177TIP3   OH212536   1.129   0.180   0.237  0.2194  0.0830 -0.0932
 4177TIP3    H112537   1.180   0.141   0.307 -0.9771 -0.8906  0.2721
 4177TIP3    H212538   1.064   0.113   0.214 -1.2914  1.4869 -0.0922
 4178TIP3   OH212539   5.498   2.265   1.738  0.3413  0.9067 -0.0262
 4178TIP3    H112540   5.590   2.283   1.723 -0.0182  1.8437 -1.3261
 4178TIP3    H212541   5.464   2.240   1.652 -0.4055 -0.5086  0.6367
 4179TIP3   OH212542   2.354   4.053   3.679  0.6212 -0.3292 -0.8112
 4179TIP3    H112543   2.357   4.025   3.770  1.7986  1.6204 -0.2075
 4179TIP3    H212544   2.445   4.055   3.651  0.2672 -1.1554 -2.1602
 4180TIP3   OH212545   3.493   5.737   1.041  0.6377  0.3490  0.3831
 4180TIP3    H112546   3.534   5.778   1.117 -1.6837  1.2297  1.2507
 4180TIP3    H212547   3.509   5.644   1.052  0.0124  0.4278  2.1792
 4181TIP3   OH212548   1.299   3.204   0.224  0.1687  0.2260 -0.1127
 4181TIP3    H112549   1.221   3.149   0.225  0.3879 -0.0921 -0.1213
 4181TIP3    H212550   1.361   3.158   0.281  0.6112  0.0790 -0.7083
 4182TIP3   OH212551   1.107   3.505   0.825  0.5045 -0.4269  0.2488
 4182TIP3    H112552   1.096   3.444   0.752  0.1222  0.7120 -0.6784
 4182TIP3    H212553   1.174   3.465   0.880  0.9699 -1.1979 -0.8470
 4183TIP3   OH212554   5.594   1.011   5.184  0.3253 -0.3835  0.1280
 4183TIP3    H112555   5.579   1.077   5.115 -1.0140 -0.3596  0.4212
 4183TIP3    H212556   5.604   0.929   5.136 -0.8376 -0.4045 -0.1081
 4184TIP3   OH212557   0.616   2.380   0.235 -0.3933 -0.1938 -0.3054
 4184TIP3    H112558   0.537   2.335   0.266  0.5589 -1.4407  0.4179
 4184TIP3    H212559   0.667   2.396   0.314  1.2855 -1.8402 -0.9601
 4185TIP3   OH212560   5.908   0.344   0.307 -0.5651  0.4283 -0.2246
 4185TIP3    H112561   6.002   0.349   0.320 -0.5571  2.2582 -0.7589
 4185TIP3    H212562   5.871   0.347   0.395 -0.1396 -1.2499  0.0525
 4186TIP3   OH212563   1.113   0.304  -0.028  0.4641  0.4265  0.1569
 4186TIP3    H112564   1.140   0.257   0.051  1.2443  0.6078  0.0097
 4186TIP3    H212565   1.029   0.343  -0.006  1.2148  1.4518  1.3084
 4187TIP3   OH212566   4.440   0.623   2.947 -0.3411 -0.5627 -0.0052
 4187TIP3    H112567   4.358   0.633   2.900 -0.1342 -1.3441 -0.5432
 4187TIP3    H212568   4.417   0.634   3.039 -0.7946  0.6864 -0.2577
 4188TIP3   OH212569   1.688   5.046   1.052 -0.5816  0.4102  0.4576
 4188TIP3    H112570   1.598   5.048   1.022 -0.8914 -1.6255  1.1143
 4188TIP3    H212571   1.703   5.133   1.090 -2.1547  0.8537  0.1077
 4189TIP3   OH212572   3.977   3.900   2.820 -0.1775 -0.0560 -0.0159
 4189TIP3    H112573   3.940   3.814   2.801 -2.1205  1.0819 -1.7873
 4189TIP3    H212574   3.977   3.906   2.916 -0.2244 -1.8951  0.1277
 4190TIP3   OH212575   3.297   0.651   3.163 -0.1440  0.1159  0.0668
 4190TIP3    H112576   3.392   0.655   3.177  0.0584  0.4797 -1.2539
 4190TIP3    H212577   3.261   0.633   3.250  1.1941 -1.0241  0.4408
 4191TIP3   OH212578   3.590   0.856   3.030  0.1976 -0.4425  0.0356
 4191TIP3    H112579   3.569   0.802   3.106  1.2797 -2.3888 -0.9661
 4191TIP3    H212580   3.590   0.795   2.957  0.8325  1.0596 -1.2688
 4192TIP3   OH212581   6.288   4.047   3.191 -0.1593 -0.1985 -0.2863
 4192TIP3    H112582   6.212   3.990   3.195  1.2960 -2.2690 -0.5445
 4192TIP3    H212583   6.309   4.065   3.283 -0.7809  0.1303 -0.2097
 4193TIP3   OH212584   1.425   4.747   2.563 -0.2192  0.2988  0.0875
 4193TIP3    H112585   1.410   4.796   2.644 -2.0434 -2.4617  1.5592
 4193TIP3    H212586   1.398   4.808   2.494 -1.7913  1.6178  1.7494
 4194TIP3   OH212587   2.439   5.116   2.699  0.1654  0.2027  0.5282
 4194TIP3    H112588   2.533   5.119   2.718  0.0187 -1.6330  1.8385
 4194TIP3    H212589   2.400   5.183   2.755  0.6673  1.0138 -0.0679
 4195TIP3   OH212590   1.374   2.377   4.894  0.7015  0.1644 -0.8122
 4195TIP3    H112591   1.426   2.439   4.945  2.0942 -0.6006 -1.2363
 4195TIP3    H212592   1.296   2.361   4.947  2.7542 -1.7612  1.9032
 4196TIP3   OH212593   5.198   0.041   2.647 -0.2092 -0.1227 -0.2977
 4196TIP3    H112594   5.207   0.121   2.700 -1.6619 -0.9886  1.3662
 4196TIP3    H212595   5.275   0.041   2.590  1.7480  0.6399  2.1691
 4197TIP3   OH212596   6.016   3.240   1.422 -0.1622 -0.1713  0.4779
 4197TIP3    H112597   6.066   3.266   1.344 -0.8063  1.3742  0.5505
 4197TIP3    H212598   6.032   3.146   1.430  0.7490 -0.1676 -0.9175
 4198TIP3   OH212599   3.023   5.600   5.167  0.3641 -0.0715 -0.3244
 4198TIP3    H112600   2.936   5.583   5.130  0.2266  1.3248 -0.6933
 4198TIP3    H212601   3.075   5.524   5.141 -0.7266 -0.9223 -0.1178
 4199TIP3   OH212602   1.697   2.343   4.248 -0.0618  0.1038 -0.1196
 4199TIP3    H112603   1.698   2.271   4.186 -1.1610 -1.9152  2.0339
 4199TIP3    H212604   1.621   2.395   4.224  0.5516  0.4056 -1.4994
 4200TIP3   OH212605   1.021   3.422   5.151  0.1358 -0.2575 -0.4233
 4200TIP3    H112606   1.023   3.326   5.150  1.2816 -0.3267  1.9201
 4200TIP3    H212607   1.073   3.448   5.075  0.1114 -1.4888 -0.8870
 4201TIP3   OH212608   0.624   2.051   4.959 -0.6051  0.5136  0.5652
 4201TIP3    H112609   0.614   2.049   5.054 -0.2463  1.3528  0.6309
 4201TIP3    H212610   0.718   2.064   4.945 -0.7710  1.2610  0.1159
 4202TIP3   OH212611   1.794   5.453   1.400  0.5900 -0.0551  0.0477
 4202TIP3    H112612   1.838   5.524   1.448 -0.0750  0.8413 -0.6226
 4202TIP3    H212613   1.747   5.498   1.329 -0.1431 -1.1367 -0.1761
 4203TIP3   OH212614   0.527   0.939   4.199 -0.3682  0.3005  0.1227
 4203TIP3    H112615   0.454   0.879   4.181 -0.8478  0.9899 -0.2915
 4203TIP3    H212616   0.486   1.013   4.244  0.2693  0.1846  0.9087
 4204TIP3   OH212617   4.235   2.670   0.386  0.3857 -0.1609 -0.0228
 4204TIP3    H112618   4.310   2.729   0.399  0.2990 -0.1689  0.5385
 4204TIP3    H212619   4.274   2.586   0.364  0.4989  0.3478 -2.0119
 4205TIP3   OH212620   1.188   0.090   4.478 -0.3076 -0.3936 -0.5663
 4205TIP3    H112621   1.230   0.103   4.392  1.5674 -1.3476  0.1527
 4205TIP3    H212622   1.261   0.089   4.540 -1.5018 -1.2088  0.8771
 4206TIP3   OH212623   2.029   3.122   4.516  0.4716  0.3858 -0.1675
 4206TIP3    H112624   1.966   3.150   4.450  0.1686 -1.0845 -0.5492
 4206TIP3    H212625   2.100   3.081   4.466 -0.4796 -2.1500  0.4041
 4207TIP3   OH212626   3.712   4.366   0.744 -0.3603  0.0765 -0.0964
 4207TIP3    H112627   3.773   4.374   0.671  0.0768  1.2888  0.3742
 4207TIP3    H212628   3.628   4.342   0.704  0.1839 -0.5882 -0.8472
 4208TIP3   OH212629   5.227   5.027   0.378 -0.6704 -1.1393 -0.8342
 4208TIP3    H112630   5.301   4.978   0.342 -0.9315 -1.3532 -1.0879
 4208TIP3    H212631   5.257   5.058   0.463 -0.1754 -0.9488 -1.0752
 4209TIP3   OH212632   0.998   1.916   2.073 -0.1664  0.6266 -0.0774
 4209TIP3    H112633   1.054   1.866   2.133 -1.2311  0.3819  0.7472
 4209TIP3    H212634   1.057   1.982   2.035  0.2656  1.6838  2.2705
 4210TIP3   OH212635   4.244   4.997   3.544 -0.5544 -0.0489  0.1453
 4210TIP3    H112636   4.316   5.038   3.593 -0.5101  0.8756 -0.6712
 4210TIP3    H212637   4.197   4.945   3.610 -0.2429  0.8333  1.0909
 4211TIP3   OH212638   1.681   5.401   1.112 -0.2251 -0.6044 -0.4106
 4211TIP3    H112639   1.597   5.355   1.126 -2.2156  3.0783  1.0821
 4211TIP3    H212640   1.680   5.425   1.020 -1.2663  0.1457 -0.2189
 4212TIP3   OH212641   0.360   4.405   1.772 -0.1053 -0.0362  0.3586
 4212TIP3    H112642   0.415   4.414   1.850  0.4049 -0.0813  0.0045
 4212TIP3    H212643   0.271   4.408   1.806  0.0758  1.5682  0.7890
 4213TIP3   OH212644   6.026   5.252   1.637 -0.2771 -0.2261 -0.2372
 4213TIP3    H112645   5.962   5.276   1.571 -0.3922  0.2138  0.0285
 4213TIP3    H212646   6.106   5.233   1.588 -0.1414  0.8398 -0.4516
 4214TIP3   OH212647   2.087   5.728   5.051 -0.5107 -0.8880 -0.3617
 4214TIP3    H112648   2.123   5.644   5.022 -0.0074 -1.6255  2.1376
 4214TIP3    H212649   2.002   5.704   5.090  0.2865 -0.5287  1.7160
 4215TIP3   OH212650   0.900   5.381   4.189  0.2934 -0.2069  0.2237
 4215TIP3    H112651   0.876   5.289   4.204 -0.1363 -0.0817  0.3081
 4215TIP3    H212652   0.863   5.402   4.104  1.6590 -0.5420 -0.4746
 4216TIP3   OH212653   2.988   5.215   4.044  0.3743 -0.0233  0.4521
 4216TIP3    H112654   3.043   5.149   4.087  0.0826  0.6310  1.8757
 4216TIP3    H212655   2.915   5.166   4.009  1.7725 -0.9079 -1.4004
 4217TIP3   OH212656   0.314   1.930   0.489 -0.1056  0.1397  0.2557
 4217TIP3    H112657   0.316   1.996   0.420 -0.4864  0.5360  0.6209
 4217TIP3    H212658   0.221   1.912   0.504 -0.0429  0.3301  0.9221
 4218TIP3   OH212659   2.019   0.084   3.783 -0.8816  0.0014  0.0951
 4218TIP3    H112660   2.029   0.077   3.688  1.5115 -2.3380  0.3804
 4218TIP3    H212661   2.090   0.142   3.810  0.1217 -1.3901  0.5900
 4219TIP3   OH212662   0.143   5.784   4.156 -0.1779 -0.4179 -0.1274
 4219TIP3    H112663   0.185   5.700   4.178 -0.8781 -1.1512 -1.4983
 4219TIP3    H212664   0.062   5.784   4.206  0.0131 -0.3580  0.1895
 4220TIP3   OH212665   1.849   0.640   1.288  0.2031  0.1245 -0.3948
 4220TIP3    H112666   1.851   0.583   1.211  1.2854  0.4972 -0.6491
 4220TIP3    H212667   1.931   0.622   1.334 -0.9364 -0.9599  1.3261
 4221TIP3   OH212668   0.103   4.992   2.947 -0.4859 -0.1526  0.0766
 4221TIP3    H112669   0.131   5.083   2.939  0.4066 -0.1929  2.0630
 4221TIP3    H212670   0.053   4.975   2.867 -0.1629  1.8778 -0.6214
 4222TIP3   OH212671   3.144   5.968   3.988 -0.1831 -0.1124 -0.1252
 4222TIP3    H112672   3.078   5.951   3.921  1.0770 -1.4941 -1.0690
 4222TIP3    H212673   3.115   5.917   4.064 -0.9728  0.5077  0.0102
 4223TIP3   OH212674   2.185   1.269   2.795  0.5022  0.8843  0.6708
 4223TIP3    H112675   2.242   1.276   2.871  1.4103  0.8527  0.0186
 4223TIP3    H212676   2.110   1.325   2.815  0.4307  0.3968  1.8295
 4224TIP3   OH212677   1.721   1.245   4.810 -0.2113  0.1829  0.3149
 4224TIP3    H112678   1.692   1.159   4.781 -1.5579  0.4187  0.8779
 4224TIP3    H212679   1.743   1.233   4.902 -1.6195  0.6804  0.7446
 4225TIP3   OH212680   1.740   0.072   5.094  0.4999 -0.2229 -0.5650
 4225TIP3    H112681   1.779   0.098   5.178 -1.1039  2.4411 -0.5320
 4225TIP3    H212682   1.711  -0.018   5.107  1.6680 -0.3850  1.2034
 4226TIP3   OH212683   4.755   0.889   2.848 -0.8037  0.2221  0.5111
 4226TIP3    H112684   4.838   0.936   2.852  1.0733 -2.6036 -1.3387
 4226TIP3    H212685   4.764   0.818   2.911 -1.2631 -0.8163 -0.5401
 4227TIP3   OH212686   3.935   5.364   0.541 -0.2774  0.1433 -0.3084
 4227TIP3    H112687   3.932   5.309   0.463 -0.4564 -0.7889  0.3366
 4227TIP3    H212688   4.003   5.324   0.595  2.3501  2.7470 -1.4017
 4228TIP3   OH212689   0.402   2.019   1.804  0.3125  0.3801 -0.4400
 4228TIP3    H112690   0.347   2.075   1.748 -0.9541 -0.5137 -0.1426
 4228TIP3    H212691   0.426   1.945   1.748  1.2005  0.7348 -0.5492
 4229TIP3   OH212692   0.710   2.489   3.830  0.2146  0.2980 -0.0430
 4229TIP3    H112693   0.629   2.535   3.807  0.2928  0.5343  0.1532
 4229TIP3    H212694   0.778   2.534   3.780  0.3798  0.7901  0.6164
 4230TIP3   OH212695   3.859   4.964   2.314  0.0547 -0.3438 -0.2368
 4230TIP3    H112696   3.810   5.044   2.293  1.7951  0.6423 -0.6882
 4230TIP3    H212697   3.809   4.894   2.270 -1.2150  0.5355 -0.2651
 4231TIP3   OH212698   5.671   5.712   1.705 -0.5443 -0.1857 -0.6628
 4231TIP3    H112699   5.635   5.792   1.743 -0.6728 -0.4770 -0.1684
 4231TIP3    H212700   5.679   5.652   1.779  0.3144 -0.3572 -0.8816
 4232TIP3   OH212701   1.764   5.570   0.827 -0.1075 -0.1223  0.2220
 4232TIP3    H112702   1.774   5.576   0.732  1.6401  1.2845  0.4243
 4232TIP3    H212703   1.854   5.561   0.860 -0.7612 -1.5913  1.7030
 4233TIP3   OH212704   3.191   2.456   0.715 -0.2461  0.2836 -0.2331
 4233TIP3    H112705   3.167   2.538   0.672  1.9016 -0.1401 -2.3993
 4233TIP3    H212706   3.267   2.479   0.769 -0.4565 -0.0419  0.2104
 4234TIP3   OH212707   4.465   2.671   4.147 -0.4853 -0.2278  0.4788
 4234TIP3    H112708   4.404   2.688   4.219 -2.0179 -0.8849 -0.6111
 4234TIP3    H212709   4.512   2.753   4.135 -1.8684  0.6272  0.7044
 4235TIP3   OH212710   3.345   4.819   0.653  0.2710  0.1777 -0.0022
 4235TIP3    H112711   3.256   4.826   0.617 -0.7920 -0.7383  2.2284
 4235TIP3    H212712   3.347   4.733   0.695  3.1726 -1.0240 -2.2408
 4236TIP3   OH212713   0.148   1.311   3.891  0.1083  0.4406 -0.1719
 4236TIP3    H112714   0.207   1.366   3.942 -1.5063  1.6686  0.4642
 4236TIP3    H212715   0.093   1.267   3.956 -0.4786  0.2492 -0.7828
 4237TIP3   OH212716   2.153   1.748   2.047 -0.1399 -0.2388 -0.4705
 4237TIP3    H112717   2.091   1.736   1.975  0.4927  1.6620 -1.4120
 4237TIP3    H212718   2.168   1.843   2.050  0.9700 -0.4166  1.2403
 4238TIP3   OH212719   3.553   1.426   2.436 -0.0609  0.1317 -0.1342
 4238TIP3    H112720   3.592   1.476   2.364 -1.7231  1.7096 -0.0352
 4238TIP3    H212721   3.603   1.451   2.513  0.7749 -0.3984 -0.4971
 4239TIP3   OH212722   2.288   5.893   2.471  0.6078  0.3327 -0.1369
 4239TIP3    H112723   2.308   5.817   2.525  0.7919  0.7717  0.4303
 4239TIP3    H212724   2.374   5.933   2.455  0.7053 -0.5032 -1.8483
 4240TIP3   OH212725   1.496   1.307   5.192  0.2792  0.6212 -0.0302
 4240TIP3    H112726   1.504   1.271   5.104  1.0911 -0.8455  0.6073
 4240TIP3    H212727   1.422   1.367   5.187  0.5027  0.8028 -1.7726
 4241TIP3   OH212728   5.431   2.363   3.860 -0.0914  0.5258 -1.2024
 4241TIP3    H112729   5.335   2.361   3.859 -0.0736 -1.1602 -1.5092
 4241TIP3    H212730   5.452   2.451   3.829 -1.5210  2.0631  1.7222
 4242TIP3   OH212731   5.820   5.704   3.718 -0.3182  0.2974 -0.2580
 4242TIP3    H112732   5.883   5.776   3.710  0.2791 -0.0948  0.8359
 4242TIP3    H212733   5.765   5.713   3.640  2.1453 -0.4030 -2.2050
 4243TIP3   OH212734   1.645   3.044   4.135 -0.2706 -0.2375  0.1468
 4243TIP3    H112735   1.563   3.019   4.179  0.3515 -1.8851  0.4122
 4243TIP3    H212736   1.617   3.082   4.052 -1.3473  0.5060  0.8095
 4244TIP3   OH212737   2.616   0.668   4.528 -0.6331 -0.0548 -0.7546
 4244TIP3    H112738   2.610   0.757   4.560 -0.7825 -0.1273 -0.5746
 4244TIP3    H212739   2.645   0.617   4.603 -1.1710 -0.2552 -0.6727
 4245TIP3   OH212740   2.463   1.412   2.330 -0.2114 -0.1691  0.6100
 4245TIP3    H112741   2.539   1.412   2.273 -0.1416 -0.7111  0.7059
 4245TIP3    H212742   2.398   1.465   2.283 -0.1222 -0.5309  0.0763
 4246TIP3   OH212743   0.116   5.408   1.382  0.2066  1.0207 -0.4000
 4246TIP3    H112744   0.028   5.386   1.351  0.2424 -0.9959  0.7667
 4246TIP3    H212745   0.102   5.463   1.459 -0.0673  0.3733  0.0216
 4247TIP3   OH212746   5.966   0.088   3.363 -0.3400 -0.2477  0.0920
 4247TIP3    H112747   5.891   0.064   3.309  2.0463 -2.6119 -2.4796
 4247TIP3    H212748   5.998   0.169   3.325 -0.1781 -0.5378 -0.3979
 4248TIP3   OH212749   4.780   3.399   0.181  0.1884 -0.2783 -0.2577
 4248TIP3    H112750   4.851   3.454   0.147 -0.9103  0.7612 -0.9312
 4248TIP3    H212751   4.750   3.445   0.260  1.3959 -1.6408  1.0746
 4249TIP3   OH212752   3.337   4.185   1.746  0.2124 -0.0428 -0.1811
 4249TIP3    H112753   3.310   4.111   1.799  2.2411  0.1471  1.2255
 4249TIP3    H212754   3.298   4.169   1.660 -1.4262 -1.4306  0.7777
 4250TIP3   OH212755   5.967   0.587   1.239  0.0862 -0.0716 -0.0952
 4250TIP3    H112756   5.892   0.613   1.187 -0.3327 -1.0327  0.0105
 4250TIP3    H212757   6.038   0.575   1.175 -0.2979 -0.7744 -0.4043
 4251TIP3   OH212758   5.585   3.633   0.658  0.3216 -0.1544 -0.5470
 4251TIP3    H112759   5.664   3.583   0.677 -0.5788 -3.3120 -4.0575
 4251TIP3    H212760   5.524   3.607   0.727  1.2129 -0.4773  0.1455
 4252TIP3   OH212761   6.111   2.115   0.546  0.0345 -0.6050  0.4146
 4252TIP3    H112762   6.072   2.027   0.546  0.4023 -0.7837  1.0908
 4252TIP3    H212763   6.046   2.171   0.504 -0.6392 -1.0271  0.8699
 4253TIP3   OH212764   1.797   1.514   4.800  0.0943 -0.3791 -0.0135
 4253TIP3    H112765   1.772   1.423   4.812 -0.6030 -0.1765  0.1331
 4253TIP3    H212766   1.889   1.518   4.827 -0.2895 -0.7309  1.4009
 4254TIP3   OH212767   1.382   1.058   2.072 -0.4212  0.3869  0.0444
 4254TIP3    H112768   1.401   1.042   2.164  1.2033 -1.2992 -0.5136
 4254TIP3    H212769   1.353   0.974   2.038 -0.5819  0.8730 -1.0716
 4255TIP3   OH212770   1.115   4.144   3.412  0.2953  0.2904  0.1372
 4255TIP3    H112771   1.119   4.239   3.400 -0.3066  0.5572  1.7391
 4255TIP3    H212772   1.070   4.112   3.334  0.3347  1.3363 -0.3342
 4256TIP3   OH212773   0.865   1.049   4.186 -1.0652 -0.1812  0.2458
 4256TIP3    H112774   0.811   0.976   4.216 -2.7485  0.1952 -1.6363
 4256TIP3    H212775   0.847   1.120   4.247 -0.7529 -0.7921  1.0673
 4257TIP3   OH212776   1.304   0.795   2.015 -0.4385 -0.1304  0.0346
 4257TIP3    H112777   1.285   0.724   2.076  0.1598 -1.6147 -1.4247
 4257TIP3    H212778   1.360   0.755   1.948 -2.9432  0.7274 -2.7929
 4258TIP3   OH212779   4.689   0.037   1.378  0.1282 -0.5113 -0.2656
 4258TIP3    H112780   4.663   0.117   1.333  0.6759 -0.2008 -0.0334
 4258TIP3    H212781   4.732  -0.015   1.310  1.6464  0.2808  0.0486
 4259TIP3   OH212782   3.977   0.867   1.790  0.2677  0.1994  0.2648
 4259TIP3    H112783   4.024   0.784   1.781  0.9120  0.6499 -0.6799
 4259TIP3    H212784   3.890   0.842   1.822 -0.5294 -1.1633 -2.6249
 4260TIP3   OH212785  -0.007   0.112   1.692 -0.0572  0.2582  0.2174
 4260TIP3    H112786   0.058   0.179   1.675 -0.9648  1.0943 -0.0300
 4260TIP3    H212787  -0.034   0.081   1.606 -0.0661 -0.0045  0.3138
 4261TIP3   OH212788   3.271   3.087   4.262  0.3425 -0.2466  0.5238
 4261TIP3    H112789   3.292   3.040   4.342  0.6757 -2.1789 -0.6248
 4261TIP3    H212790   3.283   3.180   4.284  0.0786 -0.6872  2.7694
 4262TIP3   OH212791   4.882   4.567   2.156 -0.2834 -0.1946 -0.5875
 4262TIP3    H112792   4.957   4.578   2.097 -0.6243 -0.3438 -1.0590
 4262TIP3    H212793   4.904   4.619   2.233  1.6845 -2.6163  0.6285
 4263TIP3   OH212794   5.416   4.444   0.164  0.3139 -0.6826 -0.1285
 4263TIP3    H112795   5.379   4.357   0.182 -0.7413 -0.6849 -2.0672
 4263TIP3    H212796   5.401   4.458   0.071  1.2939  1.2228 -0.0514
 4264TIP3   OH212797   0.619   2.505   2.161 -0.3308  0.0096  1.1073
 4264TIP3    H112798   0.632   2.583   2.214  0.5089  0.7414 -0.1306
 4264TIP3    H212799   0.597   2.537   2.074  0.3420 -1.1100  0.4944
 4265TIP3   OH212800   1.656   3.639   0.908 -0.2033  1.0178  0.2192
 4265TIP3    H112801   1.586   3.683   0.957  1.0066  3.3900 -0.0662
 4265TIP3    H212802   1.699   3.583   0.973 -1.6345  0.3583  0.6469
 4266TIP3   OH212803   4.327   1.710   1.689  0.2786 -0.0834  0.0376
 4266TIP3    H112804   4.260   1.686   1.624  0.0200  0.6197  0.0401
 4266TIP3    H212805   4.403   1.657   1.665 -0.2811 -0.9137  0.0451
 4267TIP3   OH212806   4.090   1.708   1.921 -0.3462 -0.3020 -0.0449
 4267TIP3    H112807   4.116   1.781   1.865  0.4390 -0.2305  0.3999
 4267TIP3    H212808   4.012   1.740   1.966 -0.6110 -0.1259 -0.6215
 4268TIP3   OH212809   3.989   0.785   1.202 -0.6963  0.3395 -0.2031
 4268TIP3    H112810   3.898   0.767   1.180 -0.5645  2.6835 -3.5027
 4268TIP3    H212811   3.985   0.850   1.272 -1.6176  1.1578 -0.9920
 4269TIP3   OH212812   6.050   5.514   3.171 -0.0787 -0.5288  0.0011
 4269TIP3    H112813   6.144   5.535   3.166 -0.2035  0.1579  0.4170
 4269TIP3    H212814   6.047   5.432   3.221  0.2175  0.3308  1.5216
 4270TIP3   OH212815   2.229   1.511   2.156 -0.2365  0.5006 -0.1851
 4270TIP3    H112816   2.175   1.455   2.100  0.6047  0.2282 -0.7259
 4270TIP3    H212817   2.207   1.600   2.129 -0.0567  0.3783 -0.7342
 4271TIP3   OH212818   5.164   2.596   1.886 -0.2859 -0.2653  0.1262
 4271TIP3    H112819   5.207   2.670   1.928  0.8002 -0.0940 -1.2213
 4271TIP3    H212820   5.130   2.543   1.958  0.6270  0.5333  1.1680
 4272TIP3   OH212821   3.379   5.019   2.462  0.1157 -0.1966 -1.1576
 4272TIP3    H112822   3.309   4.959   2.435  0.6199 -0.9584 -0.7949
 4272TIP3    H212823   3.439   4.965   2.512  0.2145  0.7669 -0.1930
 4273TIP3   OH212824   2.345   0.590   3.112 -0.1794  0.7416 -0.0063
 4273TIP3    H112825   2.281   0.548   3.055 -0.8304 -0.6783  1.6807
 4273TIP3    H212826   2.424   0.599   3.057 -0.7588 -0.5821 -1.1225
 4274TIP3   OH212827   0.711   1.120   4.933  0.0746  0.2205 -0.6863
 4274TIP3    H112828   0.761   1.119   4.851  2.1657 -1.8807  0.4953
 4274TIP3    H212829   0.764   1.069   4.994 -2.8350 -0.8571  1.1464
 4275TIP3   OH212830   1.737   0.379   3.512  0.1105  0.2548  0.0506
 4275TIP3    H112831   1.699   0.296   3.542  0.6960 -0.8344 -2.0655
 4275TIP3    H212832   1.808   0.396   3.574  1.3674 -1.9774 -0.6597
 4276TIP3   OH212833   3.028   5.156   0.595 -0.1627  0.8199 -0.2982
 4276TIP3    H112834   3.102   5.138   0.537 -1.0794  1.5693 -1.7560
 4276TIP3    H212835   3.064   5.211   0.664  1.0340 -0.3809  0.0654
 4277TIP3   OH212836   6.016   2.570   4.972 -0.9412 -0.8255 -0.1644
 4277TIP3    H112837   5.943   2.607   4.922 -0.6156 -0.1310 -0.1473
 4277TIP3    H212838   6.061   2.647   5.008  0.6949 -1.1434 -1.4105
 4278TIP3   OH212839   2.424   5.796   3.278 -0.0707  0.3469 -0.2296
 4278TIP3    H112840   2.410   5.736   3.205 -0.3955  0.8327 -0.5718
 4278TIP3    H212841   2.467   5.871   3.239 -1.5827  1.2548 -0.2209
 4279TIP3   OH212842   3.921   5.694   4.244 -0.2975 -0.1630  0.0277
 4279TIP3    H112843   3.849   5.744   4.282  0.2209  1.1452 -0.6629
 4279TIP3    H212844   3.912   5.707   4.149 -0.0120 -1.2121 -0.1622
 4280TIP3   OH212845   0.363   2.939   0.159  0.0907 -0.4698  0.2708
 4280TIP3    H112846   0.377   2.851   0.191 -2.1487 -0.7961  0.4854
 4280TIP3    H212847   0.268   2.945   0.143  0.2302  1.7514 -0.1218
 4281TIP3   OH212848   1.777   0.135   3.896  0.1282 -0.1313  0.8497
 4281TIP3    H112849   1.751   0.221   3.862  0.4594 -1.1996 -2.4776
 4281TIP3    H212850   1.866   0.123   3.863  0.1280 -1.6902  1.3710
 4282TIP3   OH212851   4.751   4.642   3.071  0.3345 -0.3337 -0.4345
 4282TIP3    H112852   4.754   4.652   2.976  1.4577  1.2284 -0.2713
 4282TIP3    H212853   4.839   4.613   3.095 -0.0221 -0.9823  0.1163
 4283TIP3   OH212854   5.331   1.844   4.186  0.0491  0.1106 -0.1775
 4283TIP3    H112855   5.388   1.773   4.159 -0.9141 -0.8755  0.2840
 4283TIP3    H212856   5.390   1.911   4.221  0.9799 -0.4346 -0.6753
 4284TIP3   OH212857   1.595   5.913   4.781  0.4310  0.2106  0.3323
 4284TIP3    H112858   1.526   5.937   4.842  1.9901  2.7537  1.2293
 4284TIP3    H212859   1.549   5.893   4.699 -1.4164  0.7145  1.2097
 4285TIP3   OH212860   4.000   2.485   1.778 -0.0584 -0.1476  0.3014
 4285TIP3    H112861   3.910   2.482   1.809  0.1556 -1.3321  0.8652
 4285TIP3    H212862   4.035   2.398   1.797  0.9244 -0.0121 -0.7614
 4286TIP3   OH212863   4.434   1.710   3.505 -0.6518 -0.3425 -0.0257
 4286TIP3    H112864   4.371   1.781   3.510 -0.8268 -0.5686  1.1055
 4286TIP3    H212865   4.437   1.673   3.593  0.8353 -0.5308 -0.1171
 4287TIP3   OH212866   0.859   3.368   3.947 -0.3622  0.8544  0.1001
 4287TIP3    H112867   0.954   3.355   3.939 -0.1028  1.5930  1.5351
 4287TIP3    H212868   0.827   3.366   3.857  1.0924  1.0738 -0.4580
 4288TIP3   OH212869   3.495   1.999   4.590 -0.2887 -0.2313 -0.3068
 4288TIP3    H112870   3.590   2.014   4.586 -0.4207  0.9570  0.4963
 4288TIP3    H212871   3.480   1.968   4.679 -0.4882 -1.8716 -0.8831
 4289TIP3   OH212872   3.744   2.917   0.196  0.0127 -0.0631 -0.1812
 4289TIP3    H112873   3.742   2.890   0.104 -1.2285  1.9698 -0.8243
 4289TIP3    H212874   3.830   2.891   0.228  0.2182 -1.4006 -1.7150
 4290TIP3   OH212875   3.049   3.734   2.743  0.2214  0.1640 -0.4023
 4290TIP3    H112876   3.071   3.748   2.835  1.2580 -1.4790 -0.3669
 4290TIP3    H212877   2.955   3.717   2.743  0.5548 -2.0374  0.6904
 4291TIP3   OH212878   3.532   5.161   1.965  0.3274 -0.3546  0.1046
 4291TIP3    H112879   3.480   5.133   1.890 -0.7986  1.9504 -0.0725
 4291TIP3    H212880   3.514   5.096   2.033 -1.6073 -0.4423 -0.4420
 4292TIP3   OH212881   5.943   1.363   1.052 -0.3462 -0.8119 -0.4947
 4292TIP3    H112882   5.981   1.277   1.033  0.9491 -0.3210 -0.2405
 4292TIP3    H212883   5.999   1.399   1.121 -0.3925  0.5649 -1.1456
 4293TIP3   OH212884   2.937   2.989   3.954 -0.0877 -0.5183 -0.1970
 4293TIP3    H112885   2.943   2.959   4.045 -0.7981 -0.3237 -0.0819
 4293TIP3    H212886   2.849   2.963   3.926 -0.9217  1.7979  0.0543
 4294TIP3   OH212887   6.266   3.746   3.433 -0.5736  0.5916 -0.1076
 4294TIP3    H112888   6.354   3.735   3.471 -1.7195 -0.1945  2.5899
 4294TIP3    H212889   6.235   3.829   3.470 -0.6316  1.4216 -1.9101
 4295TIP3   OH212890   2.395   3.111   1.327  0.6252  0.0720  0.4328
 4295TIP3    H112891   2.392   3.096   1.233 -1.7277 -0.2967  0.5043
 4295TIP3    H212892   2.401   3.024   1.366 -3.6302 -0.3921  0.6194
 4296TIP3   OH212893   2.148   0.438   0.146 -0.1127 -0.3616 -0.0550
 4296TIP3    H112894   2.164   0.345   0.130  1.6943 -0.4399  1.7210
 4296TIP3    H212895   2.229   0.481   0.121 -0.4360  0.5623  0.4335
 4297TIP3   OH212896   4.634   3.740   1.792  0.4239 -0.1693  0.2492
 4297TIP3    H112897   4.707   3.769   1.738 -0.6407 -0.1442 -1.2321
 4297TIP3    H212898   4.643   3.791   1.873  1.2680  0.8369 -0.4475
 4298TIP3   OH212899   2.393   3.572   4.672 -0.3027 -0.1034  0.5199
 4298TIP3    H112900   2.351   3.612   4.596  2.3896  3.2449  0.5526
 4298TIP3    H212901   2.481   3.552   4.643 -0.4143 -2.6848  1.7006
 4299TIP3   OH212902   2.764   3.445   0.955 -0.3347 -0.1045 -0.1441
 4299TIP3    H112903   2.854   3.418   0.937 -0.5177  0.6608 -2.5509
 4299TIP3    H212904   2.733   3.483   0.873 -2.7029  0.1294  0.7663
 4300TIP3   OH212905   1.315   3.593   1.147 -0.0237  0.5081  0.4706
 4300TIP3    H112906   1.334   3.534   1.075  0.5429  1.1011  0.1213
 4300TIP3    H212907   1.259   3.542   1.206  1.1781 -0.6951  0.6307
 4301TIP3   OH212908   4.958   1.190   4.826  0.0917 -0.2126 -0.2747
 4301TIP3    H112909   4.927   1.264   4.879 -0.4303 -0.2793 -0.4845
 4301TIP3    H212910   4.906   1.194   4.746  1.6592  0.5621 -1.3044
 4302TIP3   OH212911   5.729   3.075   2.342 -0.2947 -0.6173 -0.4348
 4302TIP3    H112912   5.728   3.040   2.253 -0.2487 -0.5924 -0.4452
 4302TIP3    H212913   5.741   3.169   2.331 -2.4347 -0.2990 -0.4833
 4303TIP3   OH212914   1.823   1.586   3.604 -0.4153  0.0464  0.4054
 4303TIP3    H112915   1.765   1.626   3.539 -0.7130  0.1182  0.7112
 4303TIP3    H212916   1.765   1.538   3.662  0.0015 -1.4795 -0.3915
 4304TIP3   OH212917   1.894   4.107   3.559  0.2000 -0.0537 -0.3921
 4304TIP3    H112918   1.809   4.075   3.527  0.3031 -0.3498 -0.3740
 4304TIP3    H212919   1.931   4.155   3.484 -0.0319  0.1713 -0.3630
 4305TIP3   OH212920   1.433   5.189   2.806  0.2372 -0.0323 -0.0440
 4305TIP3    H112921   1.387   5.272   2.795 -1.8594 -0.8857  1.4871
 4305TIP3    H212922   1.415   5.163   2.896 -0.1935 -2.6958 -0.8007
 4306TIP3   OH212923   0.137   1.390   3.217  0.7817  0.0572  0.5141
 4306TIP3    H112924   0.218   1.440   3.207  1.8539 -1.3669  1.6048
 4306TIP3    H212925   0.166   1.301   3.239 -1.0114 -1.2364 -1.8406
 4307TIP3   OH212926   5.315   1.941   3.250 -0.4721  0.2449 -0.7227
 4307TIP3    H112927   5.279   2.010   3.305  0.3617  0.1172  0.0018
 4307TIP3    H212928   5.372   1.891   3.308 -0.2758 -0.4430 -1.4862
 4308TIP3   OH212929   4.797   3.113   1.145 -0.1082  0.2769  0.5178
 4308TIP3    H112930   4.892   3.106   1.139 -0.2660 -0.6910 -1.5101
 4308TIP3    H212931   4.778   3.205   1.131  0.4975  0.3800  0.3604
 4309TIP3   OH212932   0.951   4.728   4.936  0.0772 -0.2579  0.3314
 4309TIP3    H112933   0.856   4.724   4.936  0.0962 -0.8595 -0.2815
 4309TIP3    H212934   0.972   4.803   4.992 -0.7525 -0.0821  0.4169
 4310TIP3   OH212935   0.829   4.741   1.268 -0.1899 -0.5405  0.1978
 4310TIP3    H112936   0.769   4.804   1.228 -0.6554 -1.4051 -0.5224
 4310TIP3    H212937   0.775   4.694   1.331  0.2637  0.0587  1.0485
 4311TIP3   OH212938   5.283   5.064   1.540 -0.1087  0.0153  0.0285
 4311TIP3    H112939   5.234   5.104   1.611  0.1985  1.1671 -0.3883
 4311TIP3    H212940   5.268   5.121   1.465  2.1363  0.6153 -0.0338
 4312TIP3   OH212941   0.289   3.332   0.840  0.5726 -0.2983 -0.2360
 4312TIP3    H112942   0.330   3.343   0.754 -2.1948  0.6780 -1.5523
 4312TIP3    H212943   0.290   3.238   0.855 -0.6492 -0.7314 -2.3569
 4313TIP3   OH212944   2.952   0.336   2.727 -0.1538 -0.0138  0.3709
 4313TIP3    H112945   2.876   0.311   2.780  0.6073  0.8192  1.9327
 4313TIP3    H212946   3.026   0.294   2.770  0.3080 -0.7087 -1.0536
 4314TIP3   OH212947   5.545   5.923   0.118 -0.0810 -0.4307 -0.3227
 4314TIP3    H112948   5.452   5.902   0.119 -0.3900  0.8555  1.1037
 4314TIP3    H212949   5.585   5.859   0.176 -0.2721 -0.2265  0.0396
 4315TIP3   OH212950   0.174   5.482   4.058  0.3638 -0.3568  0.1981
 4315TIP3    H112951   0.168   5.405   4.000  1.7277  0.2886 -0.8726
 4315TIP3    H212952   0.261   5.474   4.098  1.6380  1.8769 -1.8782
 4316TIP3   OH212953   3.719   5.289   4.254  0.3565  0.3880  0.2135
 4316TIP3    H112954   3.696   5.352   4.185  1.3555 -0.6607 -1.1379
 4316TIP3    H212955   3.743   5.344   4.329  0.3874  1.6060 -0.6424
 4317TIP3   OH212956   0.235   3.743   1.445 -0.1449  0.2780 -0.1325
 4317TIP3    H112957   0.272   3.657   1.425 -0.2727 -0.3317  2.0313
 4317TIP3    H212958   0.287   3.776   1.517 -1.4574  1.0479  0.5044
 4318TIP3   OH212959   4.556   1.573   2.824 -0.2736 -0.2129 -0.3794
 4318TIP3    H112960   4.626   1.608   2.880 -1.8061  0.5515  1.1698
 4318TIP3    H212961   4.577   1.604   2.736  1.1655  0.2467  0.1046
 4319TIP3   OH212962   1.778   2.953   3.868 -0.1977  0.9489 -0.4018
 4319TIP3    H112963   1.840   2.926   3.935  0.5300 -2.0264 -2.0646
 4319TIP3    H212964   1.815   2.920   3.786 -3.1135  0.5210 -1.6928
 4320TIP3   OH212965   6.132   1.872   5.120 -0.4927  0.3197  0.1369
 4320TIP3    H112966   6.211   1.843   5.074 -1.2287 -1.5277 -0.0637
 4320TIP3    H212967   6.143   1.840   5.209 -1.7172 -1.5002 -0.3067
 4321TIP3   OH212968   2.790   4.793   3.982  0.1645  0.2350 -0.0102
 4321TIP3    H112969   2.870   4.746   4.004  0.8250  1.4731  0.3023
 4321TIP3    H212970   2.724   4.759   4.043  0.7864  0.1697  0.6330
 4322TIP3   OH212971   4.937   1.427   3.907  0.2312  0.2021 -0.3247
 4322TIP3    H112972   5.007   1.486   3.935 -0.2932 -0.0870  1.8319
 4322TIP3    H212973   4.951   1.348   3.960 -0.6766 -0.5520 -1.1726
 4323TIP3   OH212974   2.992   2.010   3.194  0.2642  0.1958  0.1861
 4323TIP3    H112975   2.999   1.956   3.116  1.3224  0.1983  0.2646
 4323TIP3    H212976   2.937   1.960   3.254 -1.6706  0.7742 -1.0216
 4324TIP3   OH212977   2.991   5.757   4.142  0.7284  0.3822  0.7813
 4324TIP3    H112978   3.058   5.726   4.203  1.0440 -0.2797  0.1089
 4324TIP3    H212979   2.970   5.681   4.089  1.5630  1.3058 -0.9487
 4325TIP3   OH212980   0.070   4.587   4.466  0.3087  0.5222 -0.3706
 4325TIP3    H112981  -0.026   4.586   4.461  0.3220  0.8247 -0.8397
 4325TIP3    H212982   0.096   4.496   4.452  0.1573  0.7223 -2.2396
 4326TIP3   OH212983   1.572   3.828   1.999 -0.2361  0.0937  0.1137
 4326TIP3    H112984   1.666   3.843   2.002 -0.4580  1.4646  0.8906
 4326TIP3    H212985   1.547   3.810   2.089 -0.7007 -0.4970 -0.1228
 4327TIP3   OH212986   0.514   2.618   3.136 -0.4607  0.1968 -0.8258
 4327TIP3    H112987   0.583   2.565   3.177  0.4661  1.2258 -1.0167
 4327TIP3    H212988   0.529   2.606   3.042 -0.9459 -0.0729 -0.8714
 4328TIP3   OH212989   1.228   5.085   5.033 -0.3015  1.0539 -0.0876
 4328TIP3    H112990   1.280   5.025   4.980  1.9574  2.1354  0.7720
 4328TIP3    H212991   1.183   5.028   5.096  0.4940  0.1130 -0.3385
 4329TIP3   OH212992   0.571   2.987   2.936  0.5050  0.1427 -0.4788
 4329TIP3    H112993   0.479   2.979   2.962  0.7136 -0.0667  0.2279
 4329TIP3    H212994   0.618   2.990   3.019  1.3262 -1.9379 -0.8066
 4330TIP3   OH212995   1.170   3.343   1.605  0.2194 -0.0499  0.2418
 4330TIP3    H112996   1.209   3.260   1.630 -0.5248 -0.6017 -0.3594
 4330TIP3    H212997   1.185   3.401   1.679 -0.6984 -1.2093  1.3782
 4331TIP3   OH212998   2.060   1.561   4.897  0.2903 -0.2075 -0.1708
 4331TIP3    H112999   2.123   1.629   4.917 -0.8514  1.3206 -1.4487
 4331TIP3    H213000   2.079   1.537   4.806 -1.2512  0.7109 -0.7896
 4332TIP3   OH213001   0.916   2.519   2.287  0.6300 -0.1332  0.1210
 4332TIP3    H113002   0.939   2.507   2.195  0.7639 -0.4761  0.2001
 4332TIP3    H213003   0.834   2.472   2.297  1.0437 -0.8070  0.3779
 4333TIP3   OH213004   0.780   5.134   4.559  0.9961 -0.4751 -0.0529
 4333TIP3    H113005   0.866   5.111   4.596  0.0699 -0.5140  2.2493
 4333TIP3    H213006   0.748   5.205   4.615 -2.5658 -3.6742  2.4924
 4334TIP3   OH213007   4.645   4.806   0.637 -0.2214  0.0365 -0.4441
 4334TIP3    H113008   4.735   4.810   0.670 -0.4665  1.0098  0.1518
 4334TIP3    H213009   4.647   4.738   0.570  0.6253 -0.9720  0.5621
 4335TIP3   OH213010   5.863   0.209   1.626  0.1838 -0.0237 -0.5246
 4335TIP3    H113011   5.912   0.210   1.543 -0.1248 -0.0397 -0.7079
 4335TIP3    H213012   5.930   0.219   1.693  0.5257 -0.8479 -0.7343
 4336TIP3   OH213013   4.165   4.436   0.099  0.4111  0.2277  0.4611
 4336TIP3    H113014   4.070   4.444   0.090  0.2655 -0.9221  0.9062
 4336TIP3    H213015   4.197   4.430   0.009  0.0075  0.0765  0.3270
 4337TIP3   OH213016   2.306   2.526   1.091 -0.4402  0.1956 -0.5975
 4337TIP3    H113017   2.232   2.467   1.081  0.2132 -0.5154 -1.4782
 4337TIP3    H213018   2.302   2.583   1.014 -0.2966  0.4114 -0.4479
 4338TIP3   OH213019   2.568   3.989   3.381 -0.0013 -0.4472  0.0368
 4338TIP3    H113020   2.477   3.977   3.409  0.4556 -1.8393  1.0605
 4338TIP3    H213021   2.612   4.027   3.457  0.5555 -1.1023  0.0547
 4339TIP3   OH213022   4.841   1.702   3.463  0.0470  0.4552  0.1900
 4339TIP3    H113023   4.912   1.721   3.402  0.1724  2.6591  0.9513
 4339TIP3    H213024   4.885   1.672   3.543  0.2748  2.7091  0.9885
 4340TIP3   OH213025   0.061   2.345   4.743  0.2848 -0.3647 -0.5216
 4340TIP3    H113026   0.018   2.308   4.666 -1.1327 -1.3422  0.6899
 4340TIP3    H213027   0.111   2.272   4.781 -0.0622 -0.2461  0.1834
 4341TIP3   OH213028   6.345   0.220   4.232 -0.0707  0.8295  0.3419
 4341TIP3    H113029   6.325   0.256   4.318  2.3628 -0.0351  1.3529
 4341TIP3    H213030   6.338   0.125   4.243 -1.3766  0.7384 -0.9133
 4342TIP3   OH213031   2.647   3.923   1.533  0.1604  0.3972 -0.5777
 4342TIP3    H113032   2.578   3.875   1.486 -0.7935  1.3245 -0.1672
 4342TIP3    H213033   2.727   3.903   1.485 -0.5674  0.1669 -1.7459
 4343TIP3   OH213034   3.408   5.070   4.506 -0.5222  0.0210 -0.4538
 4343TIP3    H113035   3.422   4.991   4.558  0.5925  0.0772 -0.6486
 4343TIP3    H213036   3.485   5.124   4.522  1.1182 -0.9828 -3.9640
 4344TIP3   OH213037   2.184   1.019   2.387 -0.3171  0.9254  0.1020
 4344TIP3    H113038   2.248   0.950   2.397  0.1715  1.4393  0.6043
 4344TIP3    H213039   2.111   0.978   2.341  0.8118  0.6074 -1.4793
 4345TIP3   OH213040   1.208   5.501   3.718 -0.1952  0.0831 -0.3366
 4345TIP3    H113041   1.116   5.526   3.717  0.5703  3.3204 -0.5495
 4345TIP3    H213042   1.234   5.505   3.810 -0.3311 -1.2526 -0.2239
 4346TIP3   OH213043   1.787   1.184   2.391  0.1974 -0.3310  0.3033
 4346TIP3    H113044   1.791   1.271   2.351  1.0851  0.2746  1.6046
 4346TIP3    H213045   1.858   1.186   2.457 -1.8606 -0.8351  2.6832
 4347TIP3   OH213046   5.761   4.716   0.411  0.1293 -1.0820 -0.2593
 4347TIP3    H113047   5.763   4.748   0.320 -0.3579 -0.7984 -0.1729
 4347TIP3    H213048   5.749   4.795   0.463 -0.1908 -1.3124  0.0151
 4348TIP3   OH213049   5.094   4.825   3.951 -0.0316 -0.0526 -0.0285
 4348TIP3    H113050   5.178   4.870   3.946  0.5152 -0.7725  1.8387
 4348TIP3    H213051   5.108   4.753   4.013 -2.3742  0.6499  1.4729
 4349TIP3   OH213052   1.042   5.290   5.058  0.0694 -0.2021  0.3929
 4349TIP3    H113053   1.100   5.215   5.054  1.2859  0.5978  1.8522
 4349TIP3    H213054   0.993   5.287   4.976  1.1552 -1.7133 -0.2477
 4350TIP3   OH213055   1.197   2.790   4.888 -0.2339 -0.6284 -0.2938
 4350TIP3    H113056   1.131   2.721   4.893 -0.4240 -0.3849  0.7390
 4350TIP3    H213057   1.276   2.751   4.925 -0.1486 -0.5011 -0.3390
 4351TIP3   OH213058   2.615   0.390   2.552  0.2744 -0.3751  0.2372
 4351TIP3    H113059   2.644   0.370   2.641  2.0243 -1.8679 -0.6117
 4351TIP3    H213060   2.568   0.311   2.524 -0.0010 -0.0373 -0.2771
 4352TIP3   OH213061   2.871   0.202   4.129 -0.1020 -0.6420  0.2854
 4352TIP3    H113062   2.909   0.120   4.160 -1.0209 -2.0751 -2.1345
 4352TIP3    H213063   2.779   0.197   4.156  0.1757  0.4089  1.5549
 4353TIP3   OH213064   2.740   3.776   3.394  0.4245  0.0438  0.1436
 4353TIP3    H113065   2.650   3.808   3.391  0.4722  0.2024  0.3395
 4353TIP3    H213066   2.743   3.722   3.473  0.6308  0.4413  0.4103
 4354TIP3   OH213067   5.053   5.499   1.329 -0.0058 -0.0143  0.0604
 4354TIP3    H113068   4.983   5.483   1.266  1.2097 -1.1106 -1.0893
 4354TIP3    H213069   5.033   5.440   1.402 -0.5617  0.0752 -0.0154
 4355TIP3   OH213070   5.968   3.381   2.561 -0.3889 -0.4665 -0.1015
 4355TIP3    H113071   5.887   3.352   2.604  0.1490  1.0973  2.0989
 4355TIP3    H213072   5.986   3.467   2.598  2.1587 -0.6376 -0.7641
 4356TIP3   OH213073   5.365   4.296   3.118 -0.1703  0.3398  0.1376
 4356TIP3    H113074   5.378   4.206   3.149 -1.4950  0.1508  0.2089
 4356TIP3    H213075   5.406   4.350   3.186  0.4263 -0.1876  0.2143
 4357TIP3   OH213076   3.339   3.321   2.415 -0.5390  0.2571 -0.4647
 4357TIP3    H113077   3.397   3.376   2.467  0.0537  0.3351 -1.1859
 4357TIP3    H213078   3.377   3.234   2.420  0.3307  0.5168 -1.8675
 4358TIP3   OH213079   5.941   1.808   2.693  1.1956 -0.0525 -0.4719
 4358TIP3    H113080   5.851   1.807   2.662  0.8107 -0.0612  0.6078
 4358TIP3    H213081   5.994   1.815   2.614  0.2447  0.0380 -1.1081
 4359TIP3   OH213082   4.189   0.079   0.525 -0.7297  0.2770 -0.0546
 4359TIP3    H113083   4.136   0.084   0.446 -0.2764  0.1332 -0.3732
 4359TIP3    H213084   4.130   0.106   0.596 -1.3553 -0.3157 -0.3365
 4360TIP3   OH213085   4.295   5.369   0.283 -0.2903 -0.1771  0.2064
 4360TIP3    H113086   4.265   5.407   0.200 -0.0950  0.2369  0.3217
 4360TIP3    H213087   4.280   5.275   0.273  0.8861 -0.2951 -0.7881
 4361TIP3   OH213088   0.345   4.802   4.903  0.0330  0.1136 -0.2693
 4361TIP3    H113089   0.309   4.797   4.815 -0.9303 -0.1759  0.1274
 4361TIP3    H213090   0.300   4.732   4.951 -1.0056  1.5635  0.9685
 4362TIP3   OH213091   0.662   1.696   5.021 -0.1775  0.5071 -0.4682
 4362TIP3    H113092   0.680   1.756   4.948 -1.1820 -0.9614 -2.0013
 4362TIP3    H213093   0.664   1.609   4.981 -2.3309 -0.2386  0.8997
 4363TIP3   OH213094   0.728   3.936   1.658 -0.2151  0.0930  0.0501
 4363TIP3    H113095   0.635   3.941   1.680 -0.2194 -3.3999  1.3526
 4363TIP3    H213096   0.765   3.876   1.722  3.0566  1.4851 -0.3175
 4364TIP3   OH213097   5.547   0.003   0.914  0.4303  0.1759 -0.3968
 4364TIP3    H113098   5.614  -0.053   0.953 -0.4955 -0.6033  0.1055
 4364TIP3    H213099   5.563   0.089   0.953  0.9701 -0.0637 -0.0784
 4365TIP3   OH213100   4.143   1.106   4.187 -0.6671  0.1203 -0.5439
 4365TIP3    H113101   4.234   1.122   4.162 -0.8942  0.7043 -1.0057
 4365TIP3    H213102   4.129   1.161   4.264 -1.1190  1.3676 -1.4784
 4366TIP3   OH213103   0.412   5.133   4.099  0.0753  0.0738 -0.6670
 4366TIP3    H113104   0.326   5.098   4.075  0.5625 -0.3654 -1.8683
 4366TIP3    H213105   0.407   5.226   4.074 -0.4004  0.3229  0.2876
 4367TIP3   OH213106   3.675   4.174   1.054 -0.6131 -0.5753  0.2143
 4367TIP3    H113107   3.706   4.188   1.143  1.0639 -0.9040 -0.2922
 4367TIP3    H213108   3.619   4.096   1.060 -0.8145 -0.3805  1.0175
 4368TIP3   OH213109   2.078   3.552   0.956 -0.4197 -0.4915 -0.6489
 4368TIP3    H113110   2.068   3.550   0.861  1.6725  1.1944 -0.9841
 4368TIP3    H213111   2.171   3.532   0.971 -0.5295  0.0522  0.9914
 4369TIP3   OH213112   0.651   4.073   2.360  0.0387 -0.0475 -0.0621
 4369TIP3    H113113   0.717   4.039   2.421 -0.9447 -0.6915  0.6774
 4369TIP3    H213114   0.700   4.132   2.302  1.1937 -0.2384  0.6818
 4370TIP3   OH213115   4.469  -0.020   2.726  0.6516 -0.1024 -0.0354
 4370TIP3    H113116   4.428  -0.034   2.641  1.0279 -1.8939  0.0383
 4370TIP3    H213117   4.453   0.072   2.746 -2.2003 -0.3978 -0.5898
 4371TIP3   OH213118   6.071   2.624   4.003  0.1170  0.0757  0.2716
 4371TIP3    H113119   6.098   2.587   4.087 -1.2133 -0.3554  0.5392
 4371TIP3    H213120   6.144   2.607   3.944  0.4123 -1.0626  0.9413
 4372TIP3   OH213121   1.456   3.560   1.945 -0.0203  0.4385  0.0232
 4372TIP3    H113122   1.525   3.496   1.926 -0.4438  0.2308 -0.9099
 4372TIP3    H213123   1.499   3.645   1.935 -0.1612  0.3396 -1.8398
 4373TIP3   OH213124   5.815   1.513   3.674  0.3382  0.3692 -1.0420
 4373TIP3    H113125   5.824   1.447   3.743  0.1608 -0.2501 -1.6039
 4373TIP3    H213126   5.866   1.587   3.706 -2.0744  1.2593  1.1519
 4374TIP3   OH213127   6.188   0.992   1.249  0.2888 -0.3301  0.0482
 4374TIP3    H113128   6.130   1.034   1.185  0.3691 -0.0881  0.1329
 4374TIP3    H213129   6.207   0.906   1.211  0.5732 -0.0749 -0.3947
 4375TIP3   OH213130   1.984   4.012   2.293 -0.1337  0.2955 -0.6815
 4375TIP3    H113131   1.912   4.075   2.292  1.0010  1.6092 -0.7572
 4375TIP3    H213132   2.011   4.004   2.202 -0.4062 -0.5054 -0.7092
 4376TIP3   OH213133   2.158   4.758   2.298  0.0428 -0.1486 -0.6054
 4376TIP3    H113134   2.214   4.835   2.288 -0.6449  0.6379  1.1107
 4376TIP3    H213135   2.220   4.684   2.305  0.8620  0.5924  0.3856
 4377TIP3   OH213136   4.618   2.515   1.097  0.4629  0.1871  0.2534
 4377TIP3    H113137   4.557   2.587   1.110 -0.1591 -0.3360  0.2817
 4377TIP3    H213138   4.613   2.464   1.179  0.2711 -0.3433 -0.0796
 4378TIP3   OH213139   1.027   1.548   3.766 -0.5443  0.4384 -0.0475
 4378TIP3    H113140   1.023   1.459   3.802  1.1734  0.5181  0.4307
 4378TIP3    H213141   1.095   1.591   3.817 -2.1912  2.4649  0.6027
 4379TIP3   OH213142   2.918   5.713   1.560 -0.1034  0.2119 -0.0811
 4379TIP3    H113143   2.877   5.729   1.645  1.1634 -0.1480  0.6124
 4379TIP3    H213144   2.883   5.782   1.504  0.1133  1.3239  1.1025
 4380TIP3   OH213145   0.221   0.162   1.307 -0.0625 -0.4139  0.2820
 4380TIP3    H113146   0.270   0.148   1.226 -1.4038 -0.6516 -0.5225
 4380TIP3    H213147   0.285   0.198   1.368  0.8201  0.5150 -1.1251
 4381TIP3   OH213148   2.326   4.313   4.336  0.0195 -0.4857  0.3963
 4381TIP3    H113149   2.410   4.268   4.341 -0.3261 -1.0464  2.2346
 4381TIP3    H213150   2.334   4.386   4.398  0.1150  1.2739 -1.5798
 4382TIP3   OH213151   1.624   2.763   4.271 -0.0423 -0.0857  0.4564
 4382TIP3    H113152   1.613   2.725   4.358 -1.8590  0.8996  0.6938
 4382TIP3    H213153   1.543   2.810   4.254  0.0453 -0.6746 -2.0068
 4383TIP3   OH213154   1.145   4.345   5.168  0.5419 -0.3387 -0.3256
 4383TIP3    H113155   1.199   4.279   5.126  1.1974  0.1901 -0.3182
 4383TIP3    H213156   1.123   4.407   5.098  0.7820 -0.0102 -0.1104
 4384TIP3   OH213157   2.649   5.423   1.061 -0.3832 -0.1440 -0.1647
 4384TIP3    H113158   2.561   5.449   1.089  0.2118  1.3665  0.4236
 4384TIP3    H213159   2.693   5.395   1.141  0.0524  0.2956 -0.2431
 4385TIP3   OH213160   4.312   2.523   3.442 -0.2045 -0.1833  0.4556
 4385TIP3    H113161   4.313   2.493   3.351 -1.5264 -0.2432  0.4390
 4385TIP3    H213162   4.394   2.570   3.452 -0.0778 -0.0897 -0.8071
 4386TIP3   OH213163   4.108   5.176   1.696 -0.0034 -0.0891 -0.0095
 4386TIP3    H113164   4.037   5.239   1.705 -0.0827 -0.1994  0.1418
 4386TIP3    H213165   4.152   5.177   1.781  1.0192  0.9794 -0.5205
 4387TIP3   OH213166   3.712   3.131   1.163  0.1102  0.0785  0.2691
 4387TIP3    H113167   3.621   3.136   1.136 -0.3134 -0.8369  1.4573
 4387TIP3    H213168   3.761   3.121   1.081 -0.9601 -0.6054 -0.3002
 4388TIP3   OH213169   4.511   3.868   1.059  0.1580  0.4277 -0.0383
 4388TIP3    H113170   4.502   3.881   0.964  3.0233 -0.2671 -0.4992
 4388TIP3    H213171   4.463   3.787   1.077 -1.0337  0.9546 -0.7205
 4389TIP3   OH213172   2.120   4.967   3.439 -0.4566  0.5442 -0.0954
 4389TIP3    H113173   2.086   4.980   3.528  0.1223  1.0445  0.0583
 4389TIP3    H213174   2.096   5.046   3.392 -1.7878 -0.2064 -0.7325
 4390TIP3   OH213175   1.145   3.907   2.584  0.7420  0.1648 -0.0746
 4390TIP3    H113176   1.126   3.844   2.653 -3.9500  0.3152 -0.9049
 4390TIP3    H213177   1.200   3.859   2.522  0.4359 -1.8047  1.0930
 4391TIP3   OH213178   2.139   3.568   2.787  0.3105  0.3996  0.4234
 4391TIP3    H113179   2.046   3.564   2.812 -0.1007  0.7042 -0.9187
 4391TIP3    H213180   2.157   3.482   2.749  0.2728  0.6705 -0.2299
 4392TIP3   OH213181   5.497   1.452   2.662  0.1278  0.1385  0.2099
 4392TIP3    H113182   5.553   1.454   2.741 -0.0947  2.2356  0.3718
 4392TIP3    H213183   5.559   1.462   2.590  0.3421 -1.8764  0.0338
 4393TIP3   OH213184   3.624   3.277   3.284 -0.2073  0.2193 -0.6374
 4393TIP3    H113185   3.598   3.192   3.318 -0.6657  0.3949 -0.5466
 4393TIP3    H213186   3.575   3.286   3.202  2.0605 -0.8943 -2.2139
 4394TIP3   OH213187   3.012   4.430   1.395 -0.4381  0.0111 -0.2655
 4394TIP3    H113188   3.041   4.520   1.382  0.3822 -0.2855 -0.5631
 4394TIP3    H213189   3.080   4.389   1.449 -1.0316 -0.3088  0.2583
 4395TIP3   OH213190   1.374   4.437   0.682 -0.3247 -0.4408 -0.2183
 4395TIP3    H113191   1.403   4.460   0.770  2.0140  1.2916 -1.3396
 4395TIP3    H213192   1.279   4.430   0.690 -0.2524  0.4036  2.2788
 4396TIP3   OH213193   0.980   0.730   2.647  0.2671  0.0289 -0.3304
 4396TIP3    H113194   0.999   0.761   2.735 -0.3101 -1.2372  0.2563
 4396TIP3    H213195   0.993   0.635   2.651  1.1503  0.0509 -1.8550
 4397TIP3   OH213196   6.182   0.436   2.112 -0.0375  0.0107  0.0558
 4397TIP3    H113197   6.271   0.403   2.122  0.2223  0.6844 -0.0291
 4397TIP3    H213198   6.177   0.466   2.021  0.0475  1.1402  0.4184
 4398TIP3   OH213199   6.011   2.341   4.757  0.1477  0.2527  0.1830
 4398TIP3    H113200   6.065   2.359   4.834 -1.1125  1.3740  0.8465
 4398TIP3    H213201   5.954   2.269   4.785  0.1114  0.2422  0.0805
 4399TIP3   OH213202   0.112   0.805   0.504  0.1662 -0.8138 -0.3597
 4399TIP3    H113203   0.192   0.810   0.556  0.3451  0.1441 -0.7109
 4399TIP3    H213204   0.124   0.870   0.435 -1.1132 -0.3148 -0.1401
 4400TIP3   OH213205   4.120   0.640   1.804  0.3227  0.2591  0.4809
 4400TIP3    H113206   4.112   0.547   1.785 -0.8639  0.1442  1.4466
 4400TIP3    H213207   4.139   0.644   1.898 -1.2145  1.0067  0.7988
 4401TIP3   OH213208   3.573   1.003   0.634  0.4191 -0.4586 -0.1683
 4401TIP3    H113209   3.630   0.970   0.565  1.2504  0.2902  0.1342
 4401TIP3    H213210   3.538   1.085   0.598 -1.3300 -1.4285 -0.7735
 4402TIP3   OH213211   0.504   2.181   0.376 -0.7609  0.2464 -0.5246
 4402TIP3    H113212   0.521   2.132   0.456 -3.2139  0.9821  0.5392
 4402TIP3    H213213   0.557   2.138   0.309  0.8896 -0.7739  1.3307
 4403TIP3   OH213214   1.722   4.204   1.323 -0.4660 -0.1224  0.6969
 4403TIP3    H113215   1.766   4.140   1.267  1.1905  0.6160  1.1075
 4403TIP3    H213216   1.767   4.287   1.306 -2.7351  1.0579 -0.0312
 4404TIP3   OH213217   4.783   0.921   3.478 -0.5182  0.3220 -0.0945
 4404TIP3    H113218   4.861   0.975   3.493 -0.3362  0.4039 -1.2018
 4404TIP3    H213219   4.714   0.962   3.530 -0.0240  0.7597  0.2193
 4405TIP3   OH213220   5.157   2.914   3.724  0.1459  0.7830 -0.4361
 4405TIP3    H113221   5.209   2.944   3.799  0.4533 -0.3267 -0.1747
 4405TIP3    H213222   5.093   2.854   3.763 -0.8171  1.5054 -0.8622
 4406TIP3   OH213223   3.149   1.733   1.153 -0.3462 -0.0469 -0.1616
 4406TIP3    H113224   3.206   1.798   1.111 -0.6076  1.2510  1.3881
 4406TIP3    H213225   3.096   1.784   1.215 -0.9591 -1.6674  0.7042
 4407TIP3   OH213226   6.343   0.838   3.384  0.1848 -0.0615  0.6116
 4407TIP3    H113227   6.368   0.906   3.322  0.1566 -0.7461 -0.1679
 4407TIP3    H213228   6.247   0.843   3.387  0.2355  2.3831  3.3957
 4408TIP3   OH213229   4.440   3.881   4.458 -0.2784 -0.4639  0.1697
 4408TIP3    H113230   4.463   3.857   4.548 -1.1884 -0.6241  0.3708
 4408TIP3    H213231   4.481   3.967   4.445 -0.8008 -0.0683  1.0186
 4409TIP3   OH213232   3.288   5.264   4.119  0.0246 -0.2895 -0.6511
 4409TIP3    H113233   3.205   5.304   4.093  1.4081  2.8633 -0.7213
 4409TIP3    H213234   3.336   5.335   4.162  1.5128 -2.8094  2.2199
 4410TIP3   OH213235   1.430   3.302   3.168 -0.3150  0.0555 -0.3084
 4410TIP3    H113236   1.444   3.253   3.249  1.4498  0.7633 -0.1378
 4410TIP3    H213237   1.335   3.316   3.164 -0.4647 -0.2239  1.4896
 4411TIP3   OH213238   3.337   0.421   1.979 -0.6770  0.2662 -0.0489
 4411TIP3    H113239   3.297   0.446   2.062 -0.9580  1.5553 -0.5496
 4411TIP3    H213240   3.383   0.338   1.998 -0.3283  0.7809  1.4944
 4412TIP3   OH213241   5.275   4.417   1.843 -0.2871  0.3157  0.6737
 4412TIP3    H113242   5.214   4.358   1.887  2.4792 -3.7511 -0.4245
 4412TIP3    H213243   5.228   4.448   1.766 -1.4219 -1.6096  0.5443
 4413TIP3   OH213244   2.541   0.732   2.810  0.5366 -0.0198  0.3478
 4413TIP3    H113245   2.527   0.784   2.889 -1.5220 -0.6364  0.4430
 4413TIP3    H213246   2.629   0.695   2.821  0.6496  0.6403  1.9108
 4414TIP3   OH213247   2.169   0.571   0.478 -0.3797 -0.2787 -0.5973
 4414TIP3    H113248   2.227   0.536   0.545 -0.1162  1.1796 -0.0264
 4414TIP3    H213249   2.111   0.498   0.456  1.3495 -1.6526 -0.8743
 4415TIP3   OH213250   3.049   4.957   1.910  0.3988  0.1232 -0.2232
 4415TIP3    H113251   3.021   5.044   1.880 -1.5143 -0.5494 -0.5384
 4415TIP3    H213252   3.043   4.902   1.831 -1.7578 -1.0142  0.6537
 4416TIP3   OH213253   5.487   3.723   4.382  0.3559  0.5642  0.1577
 4416TIP3    H113254   5.470   3.634   4.353  1.7734  0.1797  0.4143
 4416TIP3    H213255   5.442   3.731   4.466 -0.0321  0.1978 -0.0161
 4417TIP3   OH213256   0.706   0.715   1.779  0.3756 -0.4099  0.2313
 4417TIP3    H113257   0.747   0.788   1.733  0.6912 -0.9288 -0.3253
 4417TIP3    H213258   0.703   0.743   1.871  1.4356 -0.1143  0.1892
 4418TIP3   OH213259   1.819   0.171   2.861 -0.2263 -0.5677  0.0190
 4418TIP3    H113260   1.820   0.097   2.801  0.1774 -1.7836  1.4505
 4418TIP3    H213261   1.908   0.175   2.897 -0.4410  0.1428  0.5033
 4419TIP3   OH213262   3.873   2.897   2.193  0.8073 -0.8536  0.0186
 4419TIP3    H113263   3.832   2.957   2.130 -3.4683 -2.3245  1.0896
 4419TIP3    H213264   3.888   2.817   2.143 -0.3253 -1.2334  0.2731
 4420TIP3   OH213265   5.534   4.277   2.043 -0.5467 -0.3718 -0.4262
 4420TIP3    H113266   5.533   4.189   2.004  0.6903 -0.4354 -0.3441
 4420TIP3    H213267   5.513   4.263   2.135 -1.0646 -0.4945 -0.5593
 4421TIP3   OH213268   5.856   4.365   3.165 -0.2812 -0.4857  0.0045
 4421TIP3    H113269   5.904   4.304   3.221  0.5298 -0.3339 -0.5125
 4421TIP3    H213270   5.924   4.407   3.112 -1.0195 -0.4858 -0.9617
 4422TIP3   OH213271   2.855   2.275   4.448 -0.5996  0.0102 -0.2915
 4422TIP3    H113272   2.820   2.200   4.400 -1.1828  0.0532  0.0654
 4422TIP3    H213273   2.909   2.235   4.517 -0.5117 -0.0650 -0.4013
 4423TIP3   OH213274   1.404   4.635   4.868  0.1659  0.0216 -0.2028
 4423TIP3    H113275   1.470   4.606   4.805  0.6643  0.0556  0.3023
 4423TIP3    H213276   1.403   4.566   4.934  0.2116  0.3774  0.1671
 4424TIP3   OH213277   3.276   2.065   0.807  0.1664 -0.0799 -0.5216
 4424TIP3    H113278   3.320   2.117   0.875 -0.5235 -1.0015  0.6741
 4424TIP3    H213279   3.192   2.108   0.795 -0.0721 -0.4219 -0.1251
 4425TIP3   OH213280   4.198   3.058   0.998 -0.2364 -0.0899 -0.4829
 4425TIP3    H113281   4.282   3.027   1.032 -0.1976 -0.5623 -0.9976
 4425TIP3    H213282   4.220   3.109   0.920 -0.3195  1.0529  0.2313
 4426TIP3   OH213283   0.303   0.949   2.826 -0.4551 -0.1350 -0.8233
 4426TIP3    H113284   0.349   0.935   2.909  0.0827 -0.1687 -1.1187
 4426TIP3    H213285   0.240   1.018   2.844 -1.5750 -1.3517  0.0667
 4427TIP3   OH213286   2.045   5.176   3.275  0.2537 -0.0540 -0.1366
 4427TIP3    H113287   1.987   5.249   3.298 -0.2005 -0.0224 -1.3412
 4427TIP3    H213288   2.061   5.186   3.181  2.1323 -0.1350  0.1395
 4428TIP3   OH213289   2.150   1.670   2.902  0.2783  0.1279  0.1131
 4428TIP3    H113290   2.233   1.639   2.937  0.2480 -1.4048 -1.0217
 4428TIP3    H213291   2.174   1.724   2.826  0.2903 -1.9433 -1.4584
 4429TIP3   OH213292   2.772   5.070   3.461  0.0841  0.3875 -0.5943
 4429TIP3    H113293   2.804   4.982   3.483  0.4929 -0.0833 -2.8382
 4429TIP3    H213294   2.713   5.056   3.386  0.3618  2.0498 -1.1567
 4430TIP3   OH213295   4.494   2.941   0.886 -0.4121  0.2835 -0.4122
 4430TIP3    H113296   4.587   2.916   0.882 -0.1574  1.3151 -2.1484
 4430TIP3    H213297   4.488   3.003   0.959 -0.3711 -1.9978  1.6481
 4431TIP3   OH213298   0.873   1.119   4.704  0.1208 -0.2933  0.4837
 4431TIP3    H113299   0.900   1.164   4.624 -0.8898  0.2543  0.4345
 4431TIP3    H213300   0.866   1.027   4.678  1.3923 -0.3822  0.3777
 4432TIP3   OH213301   4.990   4.425   2.857 -0.5882  0.7888 -0.4228
 4432TIP3    H113302   4.896   4.444   2.850 -0.3117  1.6830 -2.2337
 4432TIP3    H213303   5.014   4.392   2.771  0.8806  1.1174 -0.1639
 4433TIP3   OH213304   2.127   5.419   0.982  0.4494  0.2805 -0.0143
 4433TIP3    H113305   2.148   5.474   0.907 -1.6569  0.2868 -0.6675
 4433TIP3    H213306   2.112   5.332   0.945  0.7166 -0.0312  0.5928
 4434TIP3   OH213307   1.286   5.600   4.471 -0.7432  0.0777  0.2810
 4434TIP3    H113308   1.236   5.533   4.424 -0.5364  0.1988 -0.1136
 4434TIP3    H213309   1.367   5.556   4.495  0.2780  0.7529 -1.7544
 4435TIP3   OH213310   5.273   1.530   0.767 -0.1848 -0.6727 -0.6195
 4435TIP3    H113311   5.245   1.440   0.781 -1.3454 -0.3335 -0.6082
 4435TIP3    H213312   5.339   1.524   0.697  0.5452 -1.6222  0.1156
 4436TIP3   OH213313   3.056   3.374   4.220  0.4674 -0.0068  0.2807
 4436TIP3    H113314   3.001   3.360   4.297  0.1476 -2.0419 -0.2420
 4436TIP3    H213315   3.146   3.367   4.254  0.3392 -0.1473  0.6022
 4437TIP3   OH213316   5.438   4.418   4.622  0.2190  0.8984 -0.4992
 4437TIP3    H113317   5.460   4.344   4.566 -0.8497 -0.6423  0.9894
 4437TIP3    H213318   5.343   4.425   4.616  0.3656  2.7285 -1.2494
 4438TIP3   OH213319   1.419   5.426   2.270  0.3477 -0.1681 -0.0595
 4438TIP3    H113320   1.467   5.345   2.251  3.1800  1.4062 -0.2322
 4438TIP3    H213321   1.396   5.460   2.184 -0.2771 -0.4405 -0.0074
 4439TIP3   OH213322   1.465   5.720   3.574  0.0577 -0.0229  0.4806
 4439TIP3    H113323   1.548   5.745   3.615  0.9211 -0.3045 -1.0076
 4439TIP3    H213324   1.453   5.628   3.598 -0.0296  0.1272  1.0211
 4440TIP3   OH213325   0.593   4.346   1.026  0.0850 -0.0375  0.1012
 4440TIP3    H113326   0.678   4.356   1.071 -0.0749 -0.2446  0.4499
 4440TIP3    H213327   0.538   4.414   1.065 -0.4168 -0.9704  1.0884
 4441TIP3   OH213328   5.090   0.484   0.278 -0.4183 -0.0394  0.0324
 4441TIP3    H113329   5.103   0.571   0.241 -1.7489 -0.1098 -0.6725
 4441TIP3    H213330   5.178   0.451   0.295  0.1411  0.9706 -0.8289
 4442TIP3   OH213331   4.295   2.850   2.916 -0.1012  0.6329 -0.1950
 4442TIP3    H113332   4.274   2.920   2.855 -2.2183 -0.0768 -0.3617
 4442TIP3    H213333   4.390   2.840   2.909 -0.2552  0.1201 -3.9657
 4443TIP3   OH213334   3.919   1.939   3.648  0.6008  0.0222  0.2305
 4443TIP3    H113335   3.921   1.907   3.557  2.2548 -2.7851  1.1308
 4443TIP3    H213336   4.008   1.968   3.665  0.8274 -1.3114  1.4943
 4444TIP3   OH213337   3.112   2.209   2.583  0.7802  0.0250  0.0135
 4444TIP3    H113338   3.182   2.197   2.647  0.2717 -1.7667  0.2883
 4444TIP3    H213339   3.132   2.145   2.513  1.1085  1.6579 -1.4516
 4445TIP3   OH213340   1.378   1.706   4.106  0.3201  0.4496  0.2181
 4445TIP3    H113341   1.391   1.798   4.129  0.4186  0.3093  0.7316
 4445TIP3    H213342   1.320   1.672   4.174 -0.2414  0.2910 -0.3318
 4446TIP3   OH213343   2.386   4.322   3.299 -0.0076 -0.0452  0.0169
 4446TIP3    H113344   2.357   4.233   3.278  1.5135 -0.7424  0.6967
 4446TIP3    H213345   2.408   4.360   3.215  0.9202 -0.9163 -0.1501
 4447TIP3   OH213346   0.770   1.662   1.801 -0.2107  0.1406 -0.0842
 4447TIP3    H113347   0.779   1.721   1.726  0.5762  0.1271 -0.0041
 4447TIP3    H213348   0.739   1.718   1.872 -0.4304  0.2593 -0.2713
 4448TIP3   OH213349   3.709   4.909   0.040  0.0990 -0.5453 -0.4481
 4448TIP3    H113350   3.751   4.939   0.120  1.8264  0.8987 -1.8222
 4448TIP3    H213351   3.625   4.955   0.038  0.8771  0.9307 -0.3978
 4449TIP3   OH213352   5.758   4.985   3.465  0.4056 -0.5520 -0.1066
 4449TIP3    H113353   5.688   4.925   3.439  1.8099 -2.5128  0.4153
 4449TIP3    H213354   5.789   5.023   3.383 -0.1574 -0.9609 -0.5136
 4450TIP3   OH213355   5.263   3.284   4.390  0.3610 -0.1517  0.5017
 4450TIP3    H113356   5.257   3.189   4.398  2.9510 -0.2793  2.2052
 4450TIP3    H213357   5.233   3.317   4.475  0.2399  0.5025  0.2080
 4451TIP3   OH213358   5.479   4.853   0.312 -0.2053  0.5976 -0.2384
 4451TIP3    H113359   5.423   4.781   0.282  2.7415 -1.9093 -0.2259
 4451TIP3    H213360   5.541   4.867   0.240  2.0397 -0.0680  1.4192
 4452TIP3   OH213361   5.735   5.545   1.970  0.3359 -0.2022  0.5196
 4452TIP3    H113362   5.664   5.502   2.017 -0.4856 -1.8762 -1.9958
 4452TIP3    H213363   5.797   5.474   1.950 -0.1919  0.0035 -2.2492
 4453TIP3   OH213364   5.381   4.293   5.154  0.6524  0.1781  0.4758
 4453TIP3    H113365   5.336   4.340   5.084  0.3362  0.5360  0.9150
 4453TIP3    H213366   5.467   4.272   5.117 -0.2608 -1.5795 -0.8293
 4454TIP3   OH213367   2.259   0.161   0.484 -0.2953  0.2408  0.0390
 4454TIP3    H113368   2.294   0.078   0.516  0.0272 -0.0668 -1.0841
 4454TIP3    H213369   2.178   0.173   0.534  0.2155 -0.1832  1.0124
 4455TIP3   OH213370   2.005   3.595   4.296 -0.1996  0.4357  0.1245
 4455TIP3    H113371   1.983   3.664   4.359  0.6737  1.3781 -0.5854
 4455TIP3    H213372   2.087   3.623   4.257  0.7481 -1.5555  0.5856
 4456TIP3   OH213373   5.163   1.463   4.858 -0.2719 -0.6977 -0.1534
 4456TIP3    H113374   5.070   1.457   4.877 -0.1627 -1.1547  0.2755
 4456TIP3    H213375   5.206   1.426   4.935  0.3684  1.8302  0.7983
 4457TIP3   OH213376   1.955   5.096   3.701 -0.2643  0.6279  0.2085
 4457TIP3    H113377   1.867   5.129   3.686 -0.7096 -0.0292  1.3022
 4457TIP3    H213378   2.006   5.175   3.722 -0.9440  0.8401  1.1281
 4458TIP3   OH213379   0.329   1.056   0.675  0.0007  0.0059 -0.2237
 4458TIP3    H113380   0.341   1.149   0.655  0.2042  0.0097 -0.0957
 4458TIP3    H213381   0.301   1.056   0.767  0.9856 -0.1063  0.0902
 4459TIP3   OH213382   3.311   3.330   4.388 -0.0519  0.2613  0.4693
 4459TIP3    H113383   3.314   3.325   4.484  0.6351  0.8294  0.4886
 4459TIP3    H213384   3.366   3.406   4.367  0.9621 -0.6830 -0.4428
 4460TIP3   OH213385   0.408   5.864   4.328 -0.6124  0.5108  0.3586
 4460TIP3    H113386   0.324   5.845   4.285 -0.4108 -0.5982  0.4325
 4460TIP3    H213387   0.436   5.947   4.289 -1.4136  0.5557 -0.1607
 4461TIP3   OH213388   1.117   4.351   0.118  0.3438 -0.2374  0.1290
 4461TIP3    H113389   1.152   4.273   0.074  1.6277  1.4993 -2.2004
 4461TIP3    H213390   1.179   4.368   0.189  0.6223 -0.7726  0.0209
 4462TIP3   OH213391   1.844   2.532   2.461 -0.7627 -0.2405  0.8889
 4462TIP3    H113392   1.790   2.610   2.470 -0.0608  0.6138 -1.6377
 4462TIP3    H213393   1.813   2.490   2.381 -0.7391 -2.3102  1.8865
 4463TIP3   OH213394   0.106   2.277   0.080 -0.2564  0.5880  0.2367
 4463TIP3    H113395   0.075   2.236   0.161  0.1141 -0.9229 -0.3490
 4463TIP3    H213396   0.198   2.251   0.075 -0.2481  0.7737 -0.6130
 4464TIP3   OH213397   2.884   4.784   4.469 -0.3250 -0.3667  0.1031
 4464TIP3    H113398   2.821   4.717   4.442 -0.7741 -0.1567  0.6013
 4464TIP3    H213399   2.969   4.745   4.451 -0.5516  0.3033 -2.9448
 4465TIP3   OH213400   3.116   2.323   1.249  0.2935  0.3856  0.6557
 4465TIP3    H113401   3.119   2.311   1.344  0.7946 -0.0152  0.5944
 4465TIP3    H213402   3.052   2.259   1.219  0.8080 -0.1214  0.6313
 4466TIP3   OH213403   6.272   0.430   4.060  0.4259 -0.6874 -0.8531
 4466TIP3    H113404   6.295   0.356   4.117  1.3460  0.6704  0.6221
 4466TIP3    H213405   6.178   0.443   4.074  0.6599 -0.3178  0.4501
 4467TIP3   OH213406   3.909   2.737   0.972  0.4875  0.0495 -0.2129
 4467TIP3    H113407   3.962   2.792   1.030 -0.9472 -2.4764  3.9635
 4467TIP3    H213408   3.964   2.662   0.952  0.4930  0.2615 -1.0378
 4468TIP3   OH213409   4.139   4.757   0.206 -0.4990  0.1639  0.7930
 4468TIP3    H113410   4.134   4.750   0.302  0.9880 -0.8652  0.8278
 4468TIP3    H213411   4.055   4.721   0.176 -0.8073  0.0800  1.6939
 4469TIP3   OH213412   3.160   1.111   1.153 -0.1004 -0.9871  0.6029
 4469TIP3    H113413   3.232   1.173   1.143 -0.8023 -0.5759 -3.7589
 4469TIP3    H213414   3.113   1.140   1.231  1.5522  1.8168  0.6694
 4470TIP3   OH213415   5.330   3.229   4.829  0.4548  0.0991 -0.4871
 4470TIP3    H113416   5.391   3.291   4.788 -0.6947  1.1644 -0.6340
 4470TIP3    H213417   5.386   3.173   4.883  1.4559  1.7189  0.2086
 4471TIP3   OH213418   1.468   0.039   4.226 -0.4748 -0.0251  0.2321
 4471TIP3    H113419   1.377   0.013   4.219  0.0443 -1.9556  0.2370
 4471TIP3    H213420   1.513  -0.038   4.259  1.1130  1.0094  0.6222
 4472TIP3   OH213421   2.571   3.913   3.116 -0.0393 -0.3237 -0.0966
 4472TIP3    H113422   2.512   3.914   3.192 -0.2992 -0.5969 -0.2889
 4472TIP3    H213423   2.655   3.943   3.150 -0.3862  0.4563  0.1033
 4473TIP3   OH213424   0.133   4.522   0.249 -0.1220 -0.4243 -0.3777
 4473TIP3    H113425   0.208   4.525   0.308 -0.7421  1.3037  0.3977
 4473TIP3    H213426   0.147   4.444   0.196  1.8206 -0.5491  0.2508
 4474TIP3   OH213427   6.120   2.287   5.012 -0.3547 -0.2360 -0.6221
 4474TIP3    H113428   6.071   2.348   5.068 -1.1258  0.0774 -1.6037
 4474TIP3    H213429   6.168   2.231   5.073 -2.0053 -0.6038  0.4113
 4475TIP3   OH213430   5.834   4.695   5.029 -0.1220  0.2222 -0.2650
 4475TIP3    H113431   5.748   4.733   5.011 -0.0626  0.6947  0.4607
 4475TIP3    H213432   5.818   4.633   5.100  0.0876  0.0909 -0.3322
 4476TIP3   OH213433   4.430   1.370   2.245  0.0821 -0.5862  0.5532
 4476TIP3    H113434   4.398   1.312   2.314 -0.2515 -0.1866  0.7434
 4476TIP3    H213435   4.389   1.338   2.165  1.6225 -1.9745  0.2658
 4477TIP3   OH213436   4.387   4.967   1.977  0.3719 -0.5131  0.2130
 4477TIP3    H113437   4.464   4.925   1.939  0.2140 -1.5127  0.9508
 4477TIP3    H213438   4.317   4.950   1.914  0.6172 -0.1310 -0.1658
 4478TIP3   OH213439   0.711   4.839   1.576 -0.0248  0.0563 -0.1109
 4478TIP3    H113440   0.699   4.871   1.665  2.1757 -0.3131  0.3805
 4478TIP3    H213441   0.704   4.917   1.521 -1.4681  0.2756  0.3415
 4479TIP3   OH213442   2.017   1.630   4.413 -0.7990  0.3895  0.0150
 4479TIP3    H113443   2.009   1.543   4.373  0.1048  0.7033 -0.8822
 4479TIP3    H213444   2.057   1.614   4.498 -0.8137 -0.0905 -0.0665
 4480TIP3   OH213445   3.227   1.101   3.379  0.4642  0.0827 -0.4614
 4480TIP3    H113446   3.297   1.103   3.444  1.1989  2.5682 -1.1999
 4480TIP3    H213447   3.261   1.045   3.309  0.2997 -1.3757  0.5821
 4481TIP3   OH213448   5.131   2.001   2.447  0.0506 -0.1194 -0.0639
 4481TIP3    H113449   5.049   1.993   2.399  1.2385 -0.5195 -2.1758
 4481TIP3    H213450   5.153   1.911   2.472  1.0835 -0.3935 -1.8077
 4482TIP3   OH213451   1.464   3.348   1.394  0.8393  0.6849 -0.0700
 4482TIP3    H113452   1.526   3.344   1.467 -0.1236  1.6940  0.8385
 4482TIP3    H213453   1.425   3.435   1.401 -0.1194  0.3489 -1.0844
 4483TIP3   OH213454   4.860   3.619   0.046  0.3815 -0.0240 -0.0879
 4483TIP3    H113455   4.782   3.662   0.011 -0.5800 -1.3488  0.3455
 4483TIP3    H213456   4.906   3.688   0.094 -1.1499  0.5228  0.6696
 4484TIP3   OH213457   3.635   3.836   4.684  0.0379  0.1484  0.2532
 4484TIP3    H113458   3.730   3.828   4.693 -0.2871 -2.5960  2.7617
 4484TIP3    H213459   3.604   3.850   4.773 -1.8371  5.3720 -0.8434
 4485TIP3   OH213460   2.662   5.121   2.905  0.0232 -0.2447  0.4106
 4485TIP3    H113461   2.670   5.214   2.927 -1.7766 -0.3499  1.6642
 4485TIP3    H213462   2.714   5.077   2.972 -1.9522 -0.3004  1.9943
 4486TIP3   OH213463   3.181   1.148   1.498  0.0245 -0.2087 -0.1242
 4486TIP3    H113464   3.154   1.200   1.422 -0.3285 -1.5756 -0.9821
 4486TIP3    H213465   3.220   1.211   1.558 -0.7765  1.0931 -0.9232
 4487TIP3   OH213466   6.310   5.856   0.873  0.1555  0.0938 -0.3527
 4487TIP3    H113467   6.221   5.855   0.908  1.3024 -1.2725  2.9912
 4487TIP3    H213468   6.333   5.763   0.864  1.2755  0.4179 -1.0564
 4488TIP3   OH213469   3.034   1.718   4.880 -0.6135 -0.4412 -0.2096
 4488TIP3    H113470   2.942   1.690   4.877 -0.6906 -0.1297 -0.9730
 4488TIP3    H213471   3.052   1.748   4.792  0.7164 -2.0345 -0.5365
 4489TIP3   OH213472   0.925   5.030   0.686  0.3086 -0.0158  0.1320
 4489TIP3    H113473   0.946   5.059   0.597  1.5907  0.8090  0.6806
 4489TIP3    H213474   0.863   5.096   0.718 -0.6567 -0.6685 -0.3607
 4490TIP3   OH213475   5.636   2.488   5.208 -0.0124 -0.3561  0.1333
 4490TIP3    H113476   5.656   2.578   5.183  0.6847 -0.1868  1.2269
 4490TIP3    H213477   5.701   2.435   5.161 -1.4007 -0.4858 -1.7751
 4491TIP3   OH213478   3.442   3.268   0.847 -0.3831  0.0554  0.3003
 4491TIP3    H113479   3.446   3.212   0.769 -0.9996  1.8828 -1.1223
 4491TIP3    H213480   3.439   3.206   0.920  0.5583 -1.7421 -1.0730
 4492TIP3   OH213481   3.182   3.093   3.979  0.4435 -0.1675 -0.4371
 4492TIP3    H113482   3.191   3.094   4.074  1.1173  0.8797 -0.4849
 4492TIP3    H213483   3.099   3.050   3.962  0.2024 -0.1404  0.6435
 4493TIP3   OH213484   4.518   1.289   4.818 -0.1004  0.8330  0.0935
 4493TIP3    H113485   4.465   1.301   4.739 -1.2931  1.4859  0.9596
 4493TIP3    H213486   4.509   1.372   4.865  1.2922  0.7592  0.5098
 4494TIP3   OH213487   3.211   0.322   0.858  0.0529 -0.6079 -0.3583
 4494TIP3    H113488   3.171   0.342   0.942 -1.9154 -1.2037 -1.1004
 4494TIP3    H213489   3.170   0.240   0.830  0.6818 -0.4413 -1.8794
 4495TIP3   OH213490   0.240   1.619   0.647  0.3496 -0.3543 -0.2360
 4495TIP3    H113491   0.329   1.653   0.660  0.4342 -0.1830 -1.1934
 4495TIP3    H213492   0.222   1.634   0.555 -1.5309  1.7157  0.3678
 4496TIP3   OH213493   1.651   1.701   4.646  0.2005  0.1116 -0.5535
 4496TIP3    H113494   1.711   1.647   4.697 -2.3186 -1.5703  0.8001
 4496TIP3    H213495   1.693   1.708   4.560  1.2927 -2.8401 -0.3698
 4497TIP3   OH213496   6.231   0.937   2.109 -0.2249 -0.6249 -0.4857
 4497TIP3    H113497   6.175   0.919   2.184  0.9952  0.6229  0.8046
 4497TIP3    H213498   6.316   0.902   2.134  0.1264 -0.4562 -1.4137
 4498TIP3   OH213499   5.526   1.794   4.861  0.3145  0.4922  0.1479
 4498TIP3    H113500   5.441   1.770   4.823  1.5025 -1.2347 -1.6292
 4498TIP3    H213501   5.504   1.834   4.945 -2.2455 -0.1786 -0.1063
 4499TIP3   OH213502   1.748   4.533   4.253  0.5583 -0.7676 -0.4308
 4499TIP3    H113503   1.690   4.460   4.274  0.0080 -0.1329  0.3067
 4499TIP3    H213504   1.832   4.508   4.290  0.2790 -0.8656  0.1399
 4500TIP3   OH213505   0.765   5.264   2.512  0.0643 -0.6833 -0.3520
 4500TIP3    H113506   0.828   5.254   2.584  0.9627  2.3662 -0.6022
 4500TIP3    H213507   0.806   5.219   2.438  2.2777  1.5718 -0.6238
 4501TIP3   OH213508   4.349   1.086   4.996  0.2690 -0.1356 -0.0725
 4501TIP3    H113509   4.442   1.078   4.974  0.5814  2.5970 -0.1968
 4501TIP3    H213510   4.313   1.141   4.927 -1.1165  0.0314  0.7350
 4502TIP3   OH213511   1.337   0.659   4.353 -0.5477  0.3738  0.7085
 4502TIP3    H113512   1.258   0.675   4.302  0.3055  0.2828 -0.7136
 4502TIP3    H213513   1.392   0.736   4.337  0.1937 -0.1709  0.5549
 4503TIP3   OH213514   4.537   1.834   1.021 -0.3026  0.3151  0.3696
 4503TIP3    H113515   4.622   1.809   1.059 -0.0753  1.0287  0.3443
 4503TIP3    H213516   4.525   1.774   0.948  0.0040 -0.0395  0.6033
 4504TIP3   OH213517   5.058   1.238   1.353  0.4560  0.0877  0.4840
 4504TIP3    H113518   4.982   1.214   1.407 -0.2538  0.9199 -0.1237
 4504TIP3    H213519   5.128   1.181   1.385 -0.8008 -1.7918  0.0485
 4505TIP3   OH213520   3.480   5.530   3.094  0.8495 -0.6756  0.1693
 4505TIP3    H113521   3.573   5.528   3.071  0.8024  1.8338 -0.6287
 4505TIP3    H213522   3.476   5.579   3.176  0.1637  0.6946 -0.6426
 4506TIP3   OH213523   2.968   0.703   1.335  0.2710 -0.2150  0.0558
 4506TIP3    H113524   3.007   0.791   1.334  0.2582 -0.1790  1.1094
 4506TIP3    H213525   2.895   0.710   1.396 -0.7082 -0.5759 -1.0419
 4507TIP3   OH213526   3.087   4.220   1.606  0.1341 -0.4530 -0.5485
 4507TIP3    H113527   3.006   4.171   1.615 -0.3023  0.3516  0.0431
 4507TIP3    H213528   3.143   4.164   1.553 -1.3445 -0.3783 -2.2899
 4508TIP3   OH213529   3.572   4.894   3.732  0.4660  0.7221 -0.1556
 4508TIP3    H113530   3.536   4.892   3.643  1.5079  1.2305 -0.5968
 4508TIP3    H213531   3.614   4.980   3.739  1.0023  0.4034  0.5916
 4509TIP3   OH213532   6.021   2.927   4.043  0.7386  0.1904  0.3824
 4509TIP3    H113533   6.086   2.936   3.973 -0.1982  1.0569 -0.3941
 4509TIP3    H213534   6.010   2.832   4.052  0.1868  0.0599 -1.3029
 4510TIP3   OH213535   2.204   1.117   3.997  0.4844 -0.3295 -0.4745
 4510TIP3    H113536   2.219   1.197   3.946 -0.8121  0.9757  1.0989
 4510TIP3    H213537   2.162   1.058   3.936  1.0040  0.3533 -1.5386
 4511TIP3   OH213538   2.705   3.801   2.055  0.1433 -0.1155  0.0346
 4511TIP3    H113539   2.700   3.835   1.966 -0.2337 -0.0102  0.0908
 4511TIP3    H213540   2.654   3.864   2.107 -2.1183 -1.6877 -0.1359
 4512TIP3   OH213541   2.306   3.860   2.714 -0.0646  0.1450  0.0660
 4512TIP3    H113542   2.385   3.880   2.764 -2.0617  0.1947  3.4518
 4512TIP3    H213543   2.273   3.946   2.686  0.8763  0.1420 -1.1201
 4513TIP3   OH213544   3.637   3.375   1.529 -0.1006  0.0494 -0.2969
 4513TIP3    H113545   3.569   3.332   1.477 -1.8103 -0.1441  1.9511
 4513TIP3    H213546   3.613   3.467   1.528  0.5051  0.2109 -0.7316
 4514TIP3   OH213547   4.866   0.102   1.645  0.1097  0.5452  0.5065
 4514TIP3    H113548   4.869   0.115   1.740 -1.7184  0.3906  0.6195
 4514TIP3    H213549   4.814   0.176   1.613 -3.3734 -1.7905  0.2179
 4515TIP3   OH213550   1.354   2.769   4.184 -0.5055  0.4751  0.1993
 4515TIP3    H113551   1.320   2.750   4.096  0.1746  1.6691 -0.3446
 4515TIP3    H213552   1.281   2.750   4.243 -1.4662  1.1238 -0.7526
 4516TIP3   OH213553   5.324   5.974   2.509  0.2205  0.3825  0.0725
 4516TIP3    H113554   5.374   5.919   2.568  2.5174  2.2923  0.0368
 4516TIP3    H213555   5.248   6.001   2.560  1.4581  0.9016  1.7203
 4517TIP3   OH213556   3.390   4.552   2.426 -0.1692  0.0317  0.0037
 4517TIP3    H113557   3.468   4.540   2.480  0.6518 -0.2658 -1.2201
 4517TIP3    H213558   3.370   4.465   2.392 -0.1502  0.3514 -0.8601
 4518TIP3   OH213559   5.540   3.050   2.805  0.0393 -0.2825  0.1581
 4518TIP3    H113560   5.455   3.042   2.850 -0.2564  1.2052 -0.0812
 4518TIP3    H213561   5.516   3.066   2.713  0.4264  3.0614  0.5139
 4519TIP3   OH213562   1.906   2.363   0.374  0.3625  0.2645  0.2975
 4519TIP3    H113563   1.820   2.354   0.333  0.8639  0.9763 -0.9963
 4519TIP3    H213564   1.910   2.455   0.401  1.9612  1.2384 -2.7942
 4520TIP3   OH213565   3.452   0.456   3.883 -0.5380  0.1168  0.5094
 4520TIP3    H113566   3.495   0.540   3.870 -0.0306 -0.1740  0.2963
 4520TIP3    H213567   3.399   0.468   3.962  0.7516  0.1504  1.3827
 4521TIP3   OH213568   5.710   3.672   2.081 -0.1301 -0.0919  0.0982
 4521TIP3    H113569   5.797   3.705   2.104 -0.3971 -0.0929  1.2034
 4521TIP3    H213570   5.724   3.614   2.007  0.4533  1.9817 -1.5109
 4522TIP3   OH213571   0.186   0.295   1.658  0.4198 -0.0395  0.5926
 4522TIP3    H113572   0.223   0.322   1.742  0.9519  1.0380  0.0389
 4522TIP3    H213573   0.261   0.289   1.599  0.0119 -0.3522  0.0912
 4523TIP3   OH213574   5.397   1.842   5.132  0.1958  0.1174  0.1849
 4523TIP3    H113575   5.325   1.828   5.071 -0.9086  0.0206  1.4564
 4523TIP3    H213576   5.388   1.933   5.160  1.2167  0.4250 -0.4048
 4524TIP3   OH213577   2.367   0.464   4.055 -0.0776  0.1195  0.3637
 4524TIP3    H113578   2.276   0.477   4.081 -0.6652 -0.4656 -1.2509
 4524TIP3    H213579   2.376   0.369   4.046  0.1709  0.2631 -1.1513
 4525TIP3   OH213580   2.108   3.279   4.718 -0.5818 -0.3252  0.6830
 4525TIP3    H113581   2.068   3.209   4.668  0.4214 -1.2880  1.1871
 4525TIP3    H213582   2.061   3.279   4.802 -1.0961  0.1320  0.4013
 4526TIP3   OH213583  -0.001   3.596   4.385  0.4894  0.2408  0.0170
 4526TIP3    H113584   0.064   3.529   4.365  0.0403  0.0205 -0.7667
 4526TIP3    H213585  -0.023   3.582   4.477  0.5848 -0.5311 -0.0688
 4527TIP3   OH213586   5.666   0.901   1.191 -0.7747  0.1934  0.2112
 4527TIP3    H113587   5.594   0.943   1.238 -0.0430  0.6105  0.9902
 4527TIP3    H213588   5.681   0.958   1.116 -1.0667  0.2593  0.2001
 4528TIP3   OH213589   2.695   0.747   3.868  0.0029  0.1733 -0.0077
 4528TIP3    H113590   2.640   0.822   3.847  0.8284  0.7058 -0.3305
 4528TIP3    H213591   2.727   0.716   3.783 -1.1416 -1.2035  0.0217
 4529TIP3   OH213592   1.836   2.113   1.592 -0.8238  0.2148  0.2348
 4529TIP3    H113593   1.754   2.160   1.580 -0.2357  1.1522 -0.2680
 4529TIP3    H213594   1.813   2.021   1.578 -1.5289  0.5926 -1.3809
 4530TIP3   OH213595   4.675   5.572   2.564  0.6101  0.1392 -0.2505
 4530TIP3    H113596   4.715   5.533   2.486  1.8000  1.3685 -0.2980
 4530TIP3    H213597   4.711   5.520   2.637  1.6006  0.6349 -0.3623
 4531TIP3   OH213598   4.307   2.275   3.985 -0.2376 -0.2694 -0.3307
 4531TIP3    H113599   4.214   2.282   3.966  0.0775  1.1904 -1.4547
 4531TIP3    H213600   4.351   2.283   3.900  0.9149 -1.2773  0.1308
 4532TIP3   OH213601   6.035   1.036   0.682  0.2511  0.3402  0.5648
 4532TIP3    H113602   6.048   1.077   0.768 -1.5082 -0.2002  1.1105
 4532TIP3    H213603   5.946   1.002   0.684  0.4742 -0.4536 -1.1716
 4533TIP3   OH213604   0.669   5.021   4.861 -0.7138 -0.2729 -0.3253
 4533TIP3    H113605   0.652   4.926   4.857 -1.2040 -0.2370  0.7048
 4533TIP3    H213606   0.583   5.060   4.877 -0.2551  0.2115  1.0528
 4534TIP3   OH213607   5.430   4.830   1.331  0.2411 -0.3780  0.4735
 4534TIP3    H113608   5.354   4.853   1.279  0.1309 -1.0017  0.3454
 4534TIP3    H213609   5.465   4.751   1.289  1.3891  0.3070  0.0832
 4535TIP3   OH213610   3.233   0.246   2.910 -0.7513 -0.3223 -0.0428
 4535TIP3    H113611   3.176   0.169   2.912 -0.3816 -0.6677 -1.5138
 4535TIP3    H213612   3.194   0.307   2.973 -1.7225 -1.2461  0.2748
 4536TIP3   OH213613   1.787   5.372   4.478 -0.5914  0.3276  0.2500
 4536TIP3    H113614   1.780   5.281   4.447 -3.7983  0.3997  0.4037
 4536TIP3    H213615   1.843   5.414   4.414  2.6473 -2.0972  1.2241
 4537TIP3   OH213616   4.976   3.408   0.455 -0.1453  0.2634  0.3648
 4537TIP3    H113617   4.932   3.355   0.521  0.0093  0.0398  0.2906
 4537TIP3    H213618   4.933   3.493   0.459  1.3492  1.0001  2.3156
 4538TIP3   OH213619   4.991   5.763   2.709  0.0775 -0.2031 -0.2747
 4538TIP3    H113620   5.029   5.851   2.706 -2.1163  1.0972  3.1852
 4538TIP3    H213621   4.908   5.771   2.663 -1.5502  0.5403  2.5812
 4539TIP3   OH213622   4.194   1.223   4.810  0.0661 -0.3234  0.0884
 4539TIP3    H113623   4.261   1.237   4.743  1.3907  0.6296  1.5385
 4539TIP3    H213624   4.127   1.288   4.792  0.9671  0.6982  0.3359
 4540TIP3   OH213625   6.150   3.866   0.532 -0.2779 -0.5137  0.3292
 4540TIP3    H113626   6.187   3.789   0.575 -1.7326 -1.3670  0.1498
 4540TIP3    H213627   6.219   3.931   0.534  0.0610 -0.8598  3.0428
 4541TIP3   OH213628   6.012   5.558   5.174 -0.4495  0.0931  0.4186
 4541TIP3    H113629   5.962   5.504   5.235  0.3465 -1.6405 -0.3842
 4541TIP3    H213630   6.064   5.495   5.123 -0.7352  1.4857 -1.7405
 4542TIP3   OH213631   6.078   3.502   2.941 -0.5221  0.6417  0.1894
 4542TIP3    H113632   6.124   3.472   2.862 -0.4560  1.7900 -0.2260
 4542TIP3    H213633   6.059   3.594   2.924 -1.9783  0.4898  0.8362
 4543TIP3   OH213634   2.666   0.814   3.354  0.3089 -0.2390  0.2147
 4543TIP3    H113635   2.624   0.793   3.437  0.1624 -0.1588  0.1616
 4543TIP3    H213636   2.759   0.821   3.375  0.2214  0.2064  0.4540
 4544TIP3   OH213637   4.369   4.871   3.995 -0.4568  0.0725 -0.2235
 4544TIP3    H113638   4.433   4.800   3.986 -1.5381 -0.6830 -2.6468
 4544TIP3    H213639   4.286   4.826   4.009 -0.9826  0.9144 -0.6200
 4545TIP3   OH213640   3.764   4.492   4.770  0.0998 -0.2754 -0.0671
 4545TIP3    H113641   3.843   4.479   4.718 -1.0705 -1.0398 -1.7470
 4545TIP3    H213642   3.794   4.492   4.860  2.2660  1.3827 -0.7037
 4546TIP3   OH213643   4.578   5.513   4.191 -0.1060 -0.1224  0.8782
 4546TIP3    H113644   4.518   5.513   4.265 -0.5301 -0.2275  0.5341
 4546TIP3    H213645   4.569   5.426   4.152  0.2059 -0.1111  0.7709
 4547TIP3   OH213646   3.342   5.386   0.538 -0.7286  0.1542 -0.3131
 4547TIP3    H113647   3.341   5.482   0.536 -0.9403  0.1641  0.0790
 4547TIP3    H213648   3.435   5.363   0.539 -0.6600  0.3111 -1.9139
 4548TIP3   OH213649   4.023   4.188   3.338  0.4518 -0.0132 -0.2352
 4548TIP3    H113650   4.064   4.124   3.397  0.3066 -1.9635 -2.1442
 4548TIP3    H213651   4.096   4.234   3.298  0.6180 -0.2039 -0.1536
 4549TIP3   OH213652   6.015   0.088   0.277 -0.4164  0.5766  0.4131
 4549TIP3    H113653   5.995   0.162   0.219 -1.8623 -0.5739 -0.6403
 4549TIP3    H213654   5.949   0.093   0.346 -1.2625 -0.3775 -0.3088
 4550TIP3   OH213655   2.642   3.593   1.762 -0.2418  0.5155  0.3127
 4550TIP3    H113656   2.673   3.585   1.672 -2.2511  0.8410 -0.4706
 4550TIP3    H213657   2.619   3.686   1.772  0.5298  0.6109  1.3775
 4551TIP3   OH213658   5.653   1.406   3.253 -0.1983  0.4066  0.1938
 4551TIP3    H113659   5.741   1.406   3.217 -0.6871 -0.0391 -1.0694
 4551TIP3    H213660   5.657   1.467   3.327  2.2026 -2.6959  2.9292
 4552TIP3   OH213661   4.367   2.701   2.032  0.1412  0.1425  0.1109
 4552TIP3    H113662   4.272   2.694   2.023  0.2616 -0.1303 -1.1053
 4552TIP3    H213663   4.392   2.624   2.084 -0.2927  0.2335  0.4592
 4553TIP3   OH213664   1.842   4.066   1.101 -0.3621  0.1953  0.2822
 4553TIP3    H113665   1.932   4.092   1.124 -0.0099 -0.5507 -0.2263
 4553TIP3    H213666   1.853   3.994   1.039 -1.2417  2.2936 -2.5274
 4554TIP3   OH213667   3.821   2.097   4.075  0.2801 -0.1690 -0.6028
 4554TIP3    H113668   3.840   2.157   4.147  1.4288 -0.2339 -0.8292
 4554TIP3    H213669   3.729   2.114   4.053  0.4297  1.1383 -0.3164
 4555TIP3   OH213670   0.898   2.344   5.134  0.5307 -0.8323  0.3468
 4555TIP3    H113671   0.871   2.414   5.193 -0.6728 -0.5352 -0.5108
 4555TIP3    H213672   0.862   2.369   5.049  2.1327 -1.2933 -0.5049
 4556TIP3   OH213673   2.328   2.923   2.951  0.4088 -0.2202  0.8567
 4556TIP3    H113674   2.349   2.949   3.040  0.8872 -0.5176  0.8382
 4556TIP3    H213675   2.344   2.828   2.949 -0.3676 -0.3544  0.6711
 4557TIP3   OH213676   4.053   3.589   3.164 -0.2918  0.2240 -0.0353
 4557TIP3    H113677   4.095   3.593   3.250  1.0449 -0.5257 -0.6158
 4557TIP3    H213678   3.974   3.641   3.173  0.8162  1.7947  1.0816
 4558TIP3   OH213679   6.224   1.635   0.203  0.1349 -0.2449  0.1866
 4558TIP3    H113680   6.134   1.603   0.202  0.4267 -1.1180  0.4092
 4558TIP3    H213681   6.267   1.587   0.132 -0.1166  1.9058 -1.5137
 4559TIP3   OH213682   5.488   2.348   4.620  0.1973 -0.1419  0.1002
 4559TIP3    H113683   5.562   2.371   4.676 -0.6946  0.2761  1.1402
 4559TIP3    H213684   5.453   2.267   4.658  1.6257 -1.8042 -1.8973
 4560TIP3   OH213685   5.647   4.674   4.242  0.1237  0.5034  0.2042
 4560TIP3    H113686   5.568   4.670   4.188 -0.0121  0.1780  0.4308
 4560TIP3    H213687   5.631   4.615   4.314 -0.1233  1.7436  1.2004
 4561TIP3   OH213688   1.269   1.432   0.194  0.0627 -0.3405 -0.0008
 4561TIP3    H113689   1.250   1.470   0.280 -2.0656 -1.4575  0.0669
 4561TIP3    H213690   1.286   1.508   0.138  0.3837  0.4566  1.1379
 4562TIP3   OH213691   0.756   6.012   1.352  0.0052  0.4496  0.0103
 4562TIP3    H113692   0.679   5.958   1.369 -0.2220  0.7782  0.0423
 4562TIP3    H213693   0.818   5.987   1.420  0.4923 -0.8677 -0.8698
 4563TIP3   OH213694   1.202   1.957   4.179 -0.2051  0.5445 -0.0545
 4563TIP3    H113695   1.152   2.018   4.233 -0.9695  0.4127 -0.5904
 4563TIP3    H213696   1.187   1.871   4.218 -0.3937  0.5072 -0.2049
 4564TIP3   OH213697   1.977   4.726   5.068 -0.1594 -0.5319  0.0299
 4564TIP3    H113698   2.046   4.712   5.133  0.1227 -0.5572 -0.2775
 4564TIP3    H213699   1.948   4.816   5.083 -1.3148 -1.0781  1.3648
 4565TIP3   OH213700   3.221   4.253   3.589 -0.3183  0.4343 -0.6615
 4565TIP3    H113701   3.171   4.328   3.621 -0.0890  0.0889  0.5440
 4565TIP3    H213702   3.312   4.275   3.605 -0.0197  1.0472 -2.8321
 4566TIP3   OH213703   3.633   1.289   2.124 -0.2692  0.7247 -0.2186
 4566TIP3    H113704   3.568   1.219   2.117 -1.9124  2.1493  0.1308
 4566TIP3    H213705   3.681   1.269   2.205 -0.6895  0.0006 -0.1337
 4567TIP3   OH213706   1.989   1.469   3.882 -0.6703  0.0702  0.1977
 4567TIP3    H113707   1.973   1.464   3.976 -3.1150  5.0008  0.3839
 4567TIP3    H213708   1.904   1.490   3.844  0.6974  0.8205 -2.7910
 4568TIP3   OH213709   5.149   2.652   3.185  0.1323 -0.1500  0.4120
 4568TIP3    H113710   5.123   2.642   3.094  0.1590 -0.2987  0.4209
 4568TIP3    H213711   5.154   2.562   3.219  2.5760 -0.2568 -0.0974
 4569TIP3   OH213712   5.186   3.306   0.227  0.2718 -0.2199 -0.1094
 4569TIP3    H113713   5.188   3.385   0.281  2.0371  0.4801 -1.1051
 4569TIP3    H213714   5.236   3.242   0.277  0.5914 -0.0562 -0.2170
 4570TIP3   OH213715   4.803   5.580   3.978  0.4283  0.1726  0.2602
 4570TIP3    H113716   4.789   5.610   4.068 -1.7054 -0.1663  0.0751
 4570TIP3    H213717   4.798   5.659   3.924  2.1913  0.4490  0.4314
 4571TIP3   OH213718   2.474   1.597   4.681 -0.1311 -1.1530 -0.0031
 4571TIP3    H113719   2.405   1.532   4.670  0.5699 -1.6106 -2.1695
 4571TIP3    H213720   2.475   1.646   4.598  1.9497 -0.9996  0.0558
 4572TIP3   OH213721   3.592   1.725   3.020 -0.1226 -0.5125 -0.4038
 4572TIP3    H113722   3.628   1.743   3.106  1.4606 -1.2999 -0.8664
 4572TIP3    H213723   3.568   1.810   2.985  0.3899 -0.0639  0.3226
 4573TIP3   OH213724   4.839   2.764   2.192 -0.1195  0.4222 -0.2423
 4573TIP3    H113725   4.845   2.718   2.108  1.9201  0.2607 -0.0603
 4573TIP3    H213726   4.814   2.696   2.255 -0.0541  0.2006 -0.4563
 4574TIP3   OH213727   0.845   3.171   0.188  0.2144 -0.0413  0.8971
 4574TIP3    H113728   0.846   3.266   0.195 -2.0363  0.0172  1.1616
 4574TIP3    H213729   0.816   3.153   0.098 -0.7031 -0.4184  1.2460
 4575TIP3   OH213730   3.827   4.494   5.026 -0.6549  0.3760 -0.4237
 4575TIP3    H113731   3.761   4.528   5.087 -0.0442  0.8650 -0.0227
 4575TIP3    H213732   3.852   4.409   5.062 -0.1218  0.7684  0.1531
 4576TIP3   OH213733   6.010   2.996   1.098  0.4369 -0.3786  0.4430
 4576TIP3    H113734   6.050   2.910   1.106  0.9793 -0.1139  0.6316
 4576TIP3    H213735   6.078   3.057   1.127  1.0395  0.3484 -2.2017
 4577TIP3   OH213736   2.555   0.977   2.579 -0.1713  0.4626 -0.7408
 4577TIP3    H113737   2.519   0.890   2.565  1.5609 -0.2147 -1.2370
 4577TIP3    H213738   2.500   1.015   2.647  0.6363 -2.0687  1.5135
 4578TIP3   OH213739   0.122   1.722   1.214  0.1340 -0.7512 -0.2438
 4578TIP3    H113740   0.198   1.685   1.170  0.3885 -1.4037  0.7028
 4578TIP3    H213741   0.047   1.683   1.170  0.3663 -0.8857 -0.5214
 4579TIP3   OH213742   4.738   2.976   2.337  0.4862  0.3882 -0.3854
 4579TIP3    H113743   4.753   2.885   2.314  0.2701  0.0400  0.7949
 4579TIP3    H213744   4.811   3.024   2.296 -1.1620  0.2182 -3.9539
 4580TIP3   OH213745   2.281   0.957   3.136  0.0838 -0.1053  0.1654
 4580TIP3    H113746   2.235   0.897   3.078  1.4747  1.4328 -2.7214
 4580TIP3    H213747   2.229   1.038   3.134  0.5502  0.2106  0.4904
 4581TIP3   OH213748   5.524   0.649   4.051  0.0514 -0.0090  0.5313
 4581TIP3    H113749   5.430   0.661   4.033  0.3726 -0.3522 -1.6379
 4581TIP3    H213750   5.566   0.727   4.015  0.7435 -0.6714 -0.1394
 4582TIP3   OH213751   4.365   5.366   2.641  0.3365  0.1021  0.1908
 4582TIP3    H113752   4.434   5.402   2.696 -0.5521  0.8883  0.8256
 4582TIP3    H213753   4.409   5.302   2.585  1.4733  0.2100  0.9415
 4583TIP3   OH213754   4.668   0.453   2.936  0.1857  0.1244 -0.0511
 4583TIP3    H113755   4.591   0.507   2.921 -0.1173 -0.3676 -0.2869
 4583TIP3    H213756   4.634   0.369   2.967  0.6148 -0.1279 -0.2462
 4584TIP3   OH213757   0.069   5.541   1.622 -0.3952  0.4055  0.3253
 4584TIP3    H113758   0.163   5.551   1.635 -0.2423  0.3193 -0.6662
 4584TIP3    H213759   0.034   5.630   1.631 -0.2845  0.3788  1.1126
 4585TIP3   OH213760   5.996   3.057   3.103 -0.4015  0.2134 -0.2569
 4585TIP3    H113761   5.984   3.053   3.008  0.6057 -1.6741 -0.3394
 4585TIP3    H213762   5.922   3.009   3.140  0.4220 -1.0939 -0.2325
 4586TIP3   OH213763   6.083   2.774   3.268  0.0614  0.2670 -0.3256
 4586TIP3    H113764   6.142   2.845   3.294  1.6185 -1.6653  1.9690
 4586TIP3    H213765   5.996   2.812   3.272  0.7505  1.8562  1.7482
 4587TIP3   OH213766   2.134   4.969   0.802 -0.1358  0.4272  0.6123
 4587TIP3    H113767   2.085   4.919   0.736  0.9159  0.3495 -0.1386
 4587TIP3    H213768   2.083   5.049   0.813  0.0983  0.8208 -0.9416
 4588TIP3   OH213769   6.289   2.542   4.905  0.0682 -0.2639  0.3378
 4588TIP3    H113770   6.320   2.475   4.844 -0.0553 -1.2860  1.3754
 4588TIP3    H213771   6.209   2.506   4.942  0.6685 -0.1165  1.8429
 4589TIP3   OH213772   4.817   4.899   0.978 -0.0615 -0.1811 -0.1743
 4589TIP3    H113773   4.858   4.815   0.958  1.6665  0.9166 -1.6255
 4589TIP3    H213774   4.870   4.935   1.049 -1.4361 -0.7183  1.1707
 4590TIP3   OH213775   4.992   3.189   4.234 -0.1443 -0.2097 -0.8190
 4590TIP3    H113776   5.009   3.145   4.317 -0.5453 -1.9301 -1.5980
 4590TIP3    H213777   5.079   3.197   4.194  0.1724  1.4452  0.1082
 4591TIP3   OH213778   0.583   2.393   2.617  0.4060 -0.0479  0.3059
 4591TIP3    H113779   0.621   2.334   2.553  0.2741  0.6861 -0.4725
 4591TIP3    H213780   0.657   2.444   2.650  0.0432  2.3808 -2.2535
 4592TIP3   OH213781   0.594   1.263   0.984 -0.4050 -0.1867  1.0093
 4592TIP3    H113782   0.673   1.250   1.036  1.8772 -2.3511 -2.6051
 4592TIP3    H213783   0.551   1.178   0.984 -2.4086  0.7427  2.2073
 4593TIP3   OH213784   6.026   4.617   4.844  0.2045  0.1319 -0.4866
 4593TIP3    H113785   5.975   4.640   4.922 -0.5383 -1.7234 -0.3753
 4593TIP3    H213786   5.970   4.639   4.770 -0.2753 -0.7172 -0.3932
 4594TIP3   OH213787   4.238   0.918   4.540  0.5093 -0.1693  0.0166
 4594TIP3    H113788   4.189   0.999   4.550  0.4847 -0.1649 -0.1364
 4594TIP3    H213789   4.171   0.849   4.542  0.2863 -0.0715 -1.8973
 4595TIP3   OH213790   5.676   4.282   1.293 -0.0106 -0.4894 -0.7120
 4595TIP3    H113791   5.611   4.222   1.329  0.0593  0.0400  0.3231
 4595TIP3    H213792   5.666   4.274   1.198 -1.6488 -0.3489 -0.5819
 4596TIP3   OH213793   5.216   4.330   3.593  0.8214  0.0709  0.3345
 4596TIP3    H113794   5.123   4.315   3.608  1.0846  0.2917  2.5185
 4596TIP3    H213795   5.247   4.250   3.550 -0.7833  0.9546 -2.7642
 4597TIP3   OH213796   5.306   3.010   3.503 -0.1526 -0.2629 -0.1837
 4597TIP3    H113797   5.298   3.104   3.515  0.8322 -0.2105  0.1576
 4597TIP3    H213798   5.250   2.972   3.571 -0.8307  0.0619 -0.5468
 4598TIP3   OH213799   0.557   4.614   0.687 -0.0286  0.6145 -0.5086
 4598TIP3    H113800   0.626   4.582   0.746  0.0912 -0.9098 -1.4278
 4598TIP3    H213801   0.511   4.681   0.738  1.1347  0.5437  0.6891
 4599TIP3   OH213802   3.317   4.296   0.798 -0.4600  0.0527 -0.5204
 4599TIP3    H113803   3.369   4.264   0.724 -1.6730 -1.2605 -0.8467
 4599TIP3    H213804   3.300   4.217   0.850 -2.7614  0.3013 -0.8320
 4600TIP3   OH213805   3.529   3.276   4.151  0.5823 -0.0041  0.2672
 4600TIP3    H113806   3.467   3.206   4.170 -1.1689  1.5192  0.5119
 4600TIP3    H213807   3.550   3.265   4.058 -0.5679 -0.1905  0.0166
 4601TIP3   OH213808   5.178   5.601   4.581 -0.7047 -0.0613 -0.0831
 4601TIP3    H113809   5.121   5.547   4.635 -0.5799  2.0348  2.3344
 4601TIP3    H213810   5.262   5.602   4.628 -0.0909  0.5674 -1.1464
 4602TIP3   OH213811   1.944   3.615   4.645  0.5426  0.1151  0.5530
 4602TIP3    H113812   2.008   3.587   4.710 -0.0075 -0.1883  0.9698
 4602TIP3    H213813   1.953   3.710   4.641  1.2375  0.0492  0.3742
 4603TIP3   OH213814   1.375   1.755   3.708 -0.0791  0.1052  0.3785
 4603TIP3    H113815   1.434   1.769   3.634 -0.0594 -1.3097  0.1091
 4603TIP3    H213816   1.433   1.745   3.784 -0.1120  2.0006  0.7013
 4604TIP3   OH213817   4.846   5.118   1.976  0.3351  0.3865 -0.1012
 4604TIP3    H113818   4.838   5.024   1.990  0.6084  0.0853 -1.7921
 4604TIP3    H213819   4.940   5.135   1.981  0.1982  0.9109  1.9187
 4605TIP3   OH213820   4.621   3.262   3.252 -0.4516 -0.4009 -0.0144
 4605TIP3    H113821   4.683   3.222   3.191  0.0708  0.3028  0.0381
 4605TIP3    H213822   4.666   3.261   3.337 -0.5745 -0.0277  0.0579
 4606TIP3   OH213823   2.057   5.575   3.392  0.1945  0.0664 -0.1105
 4606TIP3    H113824   1.983   5.547   3.339  1.9064  1.4056 -3.4941
 4606TIP3    H213825   2.126   5.511   3.375  0.1312 -0.8136  2.4935
 4607TIP3   OH213826   0.412   2.982   0.552  0.3401  0.1034  0.1946
 4607TIP3    H113827   0.414   3.052   0.486  0.4914  0.5622  0.6833
 4607TIP3    H213828   0.437   3.025   0.634 -0.7107 -0.2699  0.7336
 4608TIP3   OH213829   1.847   2.663   4.501  0.3534 -0.4076 -0.4355
 4608TIP3    H113830   1.883   2.684   4.587 -0.9711  1.5181 -0.2989
 4608TIP3    H213831   1.752   2.660   4.514  0.1164  0.0849 -1.8553
 4609TIP3   OH213832   4.668   1.070   1.258 -0.1228 -0.7603  0.4638
 4609TIP3    H113833   4.664   1.160   1.223 -1.5446 -1.2783 -0.8104
 4609TIP3    H213834   4.717   1.079   1.339 -1.1217  1.3541  0.9238
 4610TIP3   OH213835   5.561   1.466   4.825  0.1045 -0.0339  0.0689
 4610TIP3    H113836   5.544   1.555   4.795 -0.3752  0.2705  1.1895
 4610TIP3    H213837   5.490   1.414   4.787  0.9971 -0.1658 -1.4926
 4611TIP3   OH213838   3.576   2.097   3.949 -0.2564 -0.6250  0.3850
 4611TIP3    H113839   3.481   2.111   3.954 -0.0315  0.6464  1.4180
 4611TIP3    H213840   3.589   2.053   3.865 -1.6725 -0.0603 -0.1596
 4612TIP3   OH213841   1.466   1.328   4.657  0.5253 -0.0572 -0.2597
 4612TIP3    H113842   1.539   1.315   4.718 -0.2428 -0.0887  0.6809
 4612TIP3    H213843   1.419   1.403   4.692 -0.9223 -1.1325  0.2095
 4613TIP3   OH213844   1.404   0.477   2.515 -0.3286 -0.2177 -0.1601
 4613TIP3    H113845   1.378   0.522   2.595 -2.9833  1.0246 -1.6030
 4613TIP3    H213846   1.455   0.542   2.466 -0.0731 -0.4313 -0.1807
 4614TIP3   OH213847   6.044   1.777   0.878 -0.7136 -0.0276  0.1090
 4614TIP3    H113848   5.999   1.693   0.890  0.5140 -0.8531 -0.9755
 4614TIP3    H213849   6.135   1.755   0.863 -0.5775  1.4238 -1.5359
 4615TIP3   OH213850   4.615   0.671   4.224  0.4569  0.1645 -0.0719
 4615TIP3    H113851   4.602   0.737   4.155 -1.8653 -0.9709 -0.8453
 4615TIP3    H213852   4.638   0.722   4.302 -0.3670  1.8432 -0.8668
 4616TIP3   OH213853   2.617   1.982   1.782 -0.2282 -0.2729 -0.1281
 4616TIP3    H113854   2.574   1.980   1.697 -1.3401  1.6029  0.3394
 4616TIP3    H213855   2.685   2.048   1.773 -0.4844  0.0823  0.4991
 4617TIP3   OH213856   3.268   0.892   1.475  0.2661  0.3939 -0.5648
 4617TIP3    H113857   3.243   0.983   1.487 -0.5208  0.2243 -0.8569
 4617TIP3    H213858   3.196   0.842   1.515 -0.1280 -0.1075 -1.8502
 4618TIP3   OH213859   5.491   5.662   3.576  0.2439  0.4361 -0.6221
 4618TIP3    H113860   5.403   5.689   3.599  0.6391  0.5314  0.8429
 4618TIP3    H213861   5.539   5.744   3.563  1.3904  0.6431  3.6273
 4619TIP3   OH213862   3.898   1.909   0.340 -0.3399  0.6260  0.5798
 4619TIP3    H113863   3.906   1.839   0.276  0.1626  1.7417 -0.6297
 4619TIP3    H213864   3.804   1.911   0.361 -0.2105 -1.1032  1.4918
 4620TIP3   OH213865   5.729   4.856   4.459 -0.3729 -0.0618  0.4914
 4620TIP3    H113866   5.635   4.838   4.465 -0.2131 -0.6835  1.2369
 4620TIP3    H213867   5.735   4.932   4.401 -1.3483  0.1188  0.6119
 4621TIP3   OH213868   4.383   2.075   4.198 -0.1316  0.3074 -0.5283
 4621TIP3    H113869   4.428   2.008   4.145 -0.6108  1.0750 -1.9781
 4621TIP3    H213870   4.337   2.129   4.133  0.3716  2.1469  0.5750
 4622TIP3   OH213871   4.916   0.098   3.900  0.1301  0.0389 -0.3193
 4622TIP3    H113872   4.859   0.160   3.854  0.7456  0.4313 -0.5780
 4622TIP3    H213873   4.886   0.012   3.872 -1.5541  0.1443  1.0032
 4623TIP3   OH213874   4.921   4.579   3.461  0.1207 -0.2696 -0.2071
 4623TIP3    H113875   4.851   4.637   3.492  0.6165  0.3271 -0.1734
 4623TIP3    H213876   4.968   4.554   3.540  1.6891  1.6486 -0.4498
 4624TIP3   OH213877   1.028   1.886   2.446 -0.0127  0.9000  0.3534
 4624TIP3    H113878   1.111   1.870   2.401 -0.3123 -1.3926  0.5163
 4624TIP3    H213879   1.005   1.975   2.420  1.0266  0.5609 -2.1169
 4625TIP3   OH213880   1.278   3.423   4.645  0.0368 -0.0680 -0.0370
 4625TIP3    H113881   1.336   3.425   4.569  1.6558 -1.0564  1.1033
 4625TIP3    H213882   1.292   3.336   4.683 -2.2118 -0.3249  0.3091
 4626TIP3   OH213883   6.014   1.122   0.415 -0.2379 -0.3446  0.5695
 4626TIP3    H113884   6.003   1.079   0.499 -1.7725 -2.6299 -0.6978
 4626TIP3    H213885   6.101   1.094   0.385  1.0392  1.8016  2.0133
 4627TIP3   OH213886   2.956   3.441   4.778  0.2310 -0.6424  0.5046
 4627TIP3    H113887   2.963   3.364   4.834 -1.2864 -1.2124 -0.0305
 4627TIP3    H213888   2.909   3.410   4.701 -0.5977  0.8628  0.3684
 4628TIP3   OH213889   3.092   3.355   2.310 -0.6168 -0.2884 -0.6383
 4628TIP3    H113890   3.187   3.343   2.312 -0.2291  2.2742  0.4479
 4628TIP3    H213891   3.057   3.280   2.358  0.8722 -1.1602 -0.8707
 4629TIP3   OH213892   4.700   4.694   1.146 -0.4839 -0.1232 -0.2541
 4629TIP3    H113893   4.614   4.723   1.115 -0.4733 -0.7322 -0.8683
 4629TIP3    H213894   4.720   4.617   1.093  0.2063 -0.2998  0.2526
 4630TIP3   OH213895   4.647   4.917   3.050  0.2033  0.6944  0.1807
 4630TIP3    H113896   4.715   4.857   3.080  0.1988  0.4923 -0.2093
 4630TIP3    H213897   4.586   4.923   3.123 -1.0842 -1.6485 -0.5883
 4631TIP3   OH213898   4.519   5.155   2.946 -0.0417 -0.5438 -0.7824
 4631TIP3    H113899   4.461   5.111   2.883  1.8196 -1.1212 -2.1958
 4631TIP3    H213900   4.557   5.084   2.996  1.9841 -0.5318 -2.1919
 4632TIP3   OH213901   5.569   2.554   1.400 -0.2014 -0.1899 -0.1939
 4632TIP3    H113902   5.494   2.502   1.371 -0.6670  1.1554 -1.5188
 4632TIP3    H213903   5.645   2.497   1.384 -0.8932 -1.5123  1.0407
 4633TIP3   OH213904   4.997   5.273   3.929  0.3294  0.2777  0.0599
 4633TIP3    H113905   4.999   5.239   3.840 -0.0663 -0.5612  0.3582
 4633TIP3    H213906   5.089   5.285   3.953  0.4298  1.9250 -0.9620
 4634TIP3   OH213907   5.765   5.478   4.629 -0.0776 -0.5744  0.5911
 4634TIP3    H113908   5.781   5.443   4.716 -1.9197  1.6715  1.9545
 4634TIP3    H213909   5.672   5.460   4.612 -0.2414  0.7244 -0.0262
 4635TIP3   OH213910   3.805   0.166   4.614  0.4468  0.5581 -0.0642
 4635TIP3    H113911   3.837   0.256   4.608  0.1304  0.8790  2.1933
 4635TIP3    H213912   3.711   0.175   4.631  0.6822 -0.0977  1.8441
 4636TIP3   OH213913   2.990   2.920   1.290  0.4342 -0.3918  0.4035
 4636TIP3    H113914   2.966   2.830   1.271  0.5193 -0.4081  0.3712
 4636TIP3    H213915   2.921   2.953   1.347  0.5505 -0.5636  0.6447
 4637TIP3   OH213916   1.739   5.247   0.440  0.1380  0.3328 -0.5928
 4637TIP3    H113917   1.739   5.220   0.532 -1.9892 -0.7313 -0.8352
 4637TIP3    H213918   1.767   5.169   0.392  1.4476  0.9493 -0.8545
 4638TIP3   OH213919   2.030   2.910   2.201 -0.0767 -0.0359  0.3668
 4638TIP3    H113920   2.015   2.823   2.163  1.4785  0.2321 -0.9592
 4638TIP3    H213921   2.117   2.904   2.242 -0.3563  0.6331  1.0871
 4639TIP3   OH213922   5.366   5.202   1.980  0.7728  0.2807 -0.4243
 4639TIP3    H113923   5.402   5.256   1.910  1.7775  0.1237 -0.0404
 4639TIP3    H213924   5.442   5.160   2.021  0.0886 -0.7124 -0.1241
 4640TIP3   OH213925   3.332   5.216   3.824  0.5061  0.2011  0.1351
 4640TIP3    H113926   3.333   5.300   3.871  2.8698  0.6916 -0.6833
 4640TIP3    H213927   3.250   5.175   3.851 -1.2194  3.1614 -0.1530
 4641TIP3   OH213928   5.815   4.355   3.533  0.2299 -0.1622 -0.0584
 4641TIP3    H113929   5.801   4.421   3.465  0.8274 -0.6521 -0.6781
 4641TIP3    H213930   5.756   4.380   3.604  0.1964  0.8284 -0.4242
 4642TIP3   OH213931   2.282   1.944   0.917  0.1231 -0.5378  0.0685
 4642TIP3    H113932   2.216   2.013   0.912 -0.4277 -1.0491  0.0772
 4642TIP3    H213933   2.360   1.982   0.877  0.7974  1.1491  2.7426
 4643TIP3   OH213934   0.125   2.443   4.331  0.5250  0.2358  0.6398
 4643TIP3    H113935   0.044   2.419   4.376 -0.0537  1.3953  0.2691
 4643TIP3    H213936   0.131   2.382   4.258  0.8325 -0.8776  1.5721
 4644TIP3   OH213937   4.920   2.315   4.128  0.1157 -0.6421 -0.1332
 4644TIP3    H113938   4.878   2.257   4.193  0.4930 -2.7010 -1.6255
 4644TIP3    H213939   4.856   2.321   4.057 -0.0777  1.1717  0.1403
 4645TIP3   OH213940   0.274   4.776   1.670  0.8313  0.3932 -0.0507
 4645TIP3    H113941   0.286   4.862   1.712 -1.1048  1.0964 -0.7809
 4645TIP3    H213942   0.249   4.718   1.742  1.0857  0.7000  0.2951
 4646TIP3   OH213943   2.899   3.394   0.181  0.2536 -0.1172 -0.4845
 4646TIP3    H113944   2.893   3.430   0.092  2.0232 -0.2876 -0.7259
 4646TIP3    H213945   2.892   3.471   0.238 -3.6744 -0.2599 -0.5324
 4647TIP3   OH213946   3.521   3.464   1.941  0.0268  0.5410 -0.1005
 4647TIP3    H113947   3.549   3.552   1.915 -0.5934  0.2451 -1.9182
 4647TIP3    H213948   3.602   3.414   1.947  0.2183  0.6254 -1.6170
 4648TIP3   OH213949   4.957   5.517   2.493  0.4762 -0.1485 -0.3908
 4648TIP3    H113950   5.007   5.473   2.562 -0.5353 -0.4078  0.2011
 4648TIP3    H213951   5.006   5.597   2.475 -0.1316  0.8439  1.9213
 4649TIP3   OH213952   4.028   2.199   3.897  0.1538  0.6562 -0.0974
 4649TIP3    H113953   4.016   2.279   3.845  0.5930 -0.0439 -1.3270
 4649TIP3    H213954   3.947   2.191   3.947  0.0979  1.8615  0.0440
 4650TIP3   OH213955   3.902   4.843   4.888 -0.2305 -0.5203 -0.1561
 4650TIP3    H113956   3.917   4.934   4.860  0.6235 -0.4714  0.3899
 4650TIP3    H213957   3.887   4.795   4.807  2.1488 -0.3896 -0.7549
 4651TIP3   OH213958   4.454   4.827   4.818  0.0153  0.1719 -0.3272
 4651TIP3    H113959   4.480   4.799   4.905 -0.5160 -3.0985 -1.0860
 4651TIP3    H213960   4.368   4.867   4.830  0.5356  0.9976  0.7754
 4652TIP3   OH213961   4.393   3.642   3.857 -0.3975 -0.3598  0.3275
 4652TIP3    H113962   4.456   3.630   3.928 -1.6507 -0.6176  1.4302
 4652TIP3    H213963   4.418   3.725   3.816  1.1670 -0.8780  0.1776
 4653TIP3   OH213964   0.161   3.458   0.529 -0.3869  0.5438 -0.1622
 4653TIP3    H113965   0.248   3.430   0.557 -0.2927  1.4781  0.5186
 4653TIP3    H213966   0.101   3.410   0.586 -0.2532  1.1098  0.4670
 4654TIP3   OH213967   2.872   1.810   4.424  0.3993 -0.2690 -0.5752
 4654TIP3    H113968   2.847   1.895   4.386  0.3848  0.1682  0.3861
 4654TIP3    H213969   2.899   1.757   4.349  0.9016  0.7593 -1.1414
 4655TIP3   OH213970   5.461   1.990   0.656 -0.0080  0.0163  0.3753
 4655TIP3    H113971   5.556   2.000   0.661 -0.0677  0.7226  0.0830
 4655TIP3    H213972   5.430   2.065   0.606 -0.8448  0.4274  1.4602
 4656TIP3   OH213973   0.684   5.869   0.470 -0.6369  0.3166  0.6628
 4656TIP3    H113974   0.777   5.891   0.468 -0.1004 -1.7598 -0.3382
 4656TIP3    H213975   0.639   5.953   0.462  1.1122  1.4480  2.0361
 4657TIP3   OH213976   0.567   4.982   4.292  0.0681  0.3623  0.4788
 4657TIP3    H113977   0.506   5.044   4.251  0.8315  0.6463 -0.2502
 4657TIP3    H213978   0.551   4.990   4.385 -1.9505 -0.5223  0.2617
 4658TIP3   OH213979   2.412   4.952   0.598 -0.4491  0.0108  0.1292
 4658TIP3    H113980   2.350   4.913   0.659  0.7115 -0.2387  1.1986
 4658TIP3    H213981   2.496   4.910   0.619  0.1896  0.7150 -0.9071
 4659TIP3   OH213982   5.357   1.328   4.693 -0.0181  0.1027 -0.2395
 4659TIP3    H113983   5.272   1.346   4.732 -0.2933  0.4042 -0.9653
 4659TIP3    H213984   5.361   1.385   4.617  0.4533 -0.5831 -0.7366
 4660TIP3   OH213985   1.594   5.296   1.805 -0.5598 -0.0760  0.5283
 4660TIP3    H113986   1.556   5.379   1.834 -1.7429 -0.3881 -0.0876
 4660TIP3    H213987   1.672   5.286   1.860  0.2255  1.9563 -0.1055
 4661TIP3   OH213988   6.162   0.031   3.564 -0.3810  0.8069 -0.2998
 4661TIP3    H113989   6.230   0.078   3.516 -0.2139  1.3012  0.3898
 4661TIP3    H213990   6.088   0.026   3.503 -0.2149  1.5235 -0.5763
 4662TIP3   OH213991   2.776   2.692   3.999 -0.3482 -0.1464 -0.4985
 4662TIP3    H113992   2.735   2.607   4.009 -1.1732  0.3397  0.4529
 4662TIP3    H213993   2.837   2.699   4.072  0.3532 -0.2599 -1.0613
 4663TIP3   OH213994   0.935   5.994   0.451 -0.1523 -0.3149 -0.3593
 4663TIP3    H113995   0.895   6.042   0.379 -0.4004  0.2278  0.1396
 4663TIP3    H213996   0.972   5.916   0.410  0.2811  0.3143 -1.1746
 4664TIP3   OH213997   0.659   3.970   2.953  0.5279 -0.5423  0.2130
 4664TIP3    H113998   0.650   3.942   2.862  0.3231  1.5991 -0.4834
 4664TIP3    H213999   0.752   3.990   2.962  0.5027 -0.5083  0.3981
 4665TIP3   OH214000   1.793   1.685   1.109  0.4258  0.0999  0.2729
 4665TIP3    H114001   1.819   1.773   1.082 -2.2751  0.6369 -1.0480
 4665TIP3    H214002   1.747   1.650   1.032  0.1530 -1.8940  1.2806
 4666TIP3   OH214003   5.969   3.311   2.107  0.1106 -0.1272  0.1663
 4666TIP3    H114004   6.021   3.387   2.082  0.8046  0.3780  2.8094
 4666TIP3    H214005   6.029   3.257   2.159 -1.0672 -1.2344  0.4479
 4667TIP3   OH214006   5.762   4.584   3.384  0.9109  0.0912  0.5359
 4667TIP3    H114007   5.772   4.621   3.297  1.4964 -0.1796  0.4844
 4667TIP3    H214008   5.830   4.625   3.436  0.8975 -0.1343  0.7365
 4668TIP3   OH214009   0.711   0.450   2.484 -0.0247  0.0445 -0.5685
 4668TIP3    H114010   0.733   0.452   2.577  0.0076  1.1182 -0.5919
 4668TIP3    H214011   0.793   0.425   2.441  0.1402  0.2040 -0.3542
 4669TIP3   OH214012   3.262   2.365   3.365  0.0182 -0.0478 -0.2165
 4669TIP3    H114013   3.325   2.436   3.365 -0.7103  0.6078 -0.6909
 4669TIP3    H214014   3.271   2.324   3.279 -0.1268 -0.0320 -0.2389
 4670TIP3   OH214015   1.888   5.887   4.479  0.1741 -0.6194  0.0617
 4670TIP3    H114016   1.914   5.901   4.570  1.7021  1.6953 -0.6314
 4670TIP3    H214017   1.932   5.806   4.453  0.7735 -0.6257  1.0450
 4671TIP3   OH214018   0.032   5.230   0.360 -0.6173  0.2178  0.3214
 4671TIP3    H114019  -0.045   5.184   0.395  0.1956 -1.4192  0.0451
 4671TIP3    H214020   0.070   5.168   0.297 -0.6086  2.0768 -1.6187
 4672TIP3   OH214021   6.312   1.224   0.512  0.7969 -0.5073  0.1245
 4672TIP3    H114022   6.294   1.131   0.503 -0.0567 -0.4558  1.0923
 4672TIP3    H214023   6.262   1.251   0.589  2.1530  0.4481  0.7121
 4673TIP3   OH214024   4.537   2.437   4.668 -0.1645  0.2417  0.4731
 4673TIP3    H114025   4.479   2.469   4.737 -0.3886  0.9135 -0.0097
 4673TIP3    H214026   4.481   2.382   4.613  0.4075 -1.7080  1.7538
 4674TIP3   OH214027   6.010   5.109   2.176 -0.5599  0.5655  0.3668
 4674TIP3    H114028   6.080   5.060   2.218  0.0775  0.1808 -1.0587
 4674TIP3    H214029   6.054   5.157   2.105 -1.7813 -0.0417 -0.8455
 4675TIP3   OH214030   5.045   5.495   4.132 -0.1796 -0.1026 -0.1137
 4675TIP3    H114031   5.006   5.506   4.045  0.0648 -0.5373 -0.2823
 4675TIP3    H214032   5.139   5.506   4.117 -0.1687  0.1682  0.1563
 4676TIP3   OH214033   3.323   2.735   0.183 -0.3244  0.2182  0.3614
 4676TIP3    H114034   3.315   2.803   0.116  2.3576  0.9299  0.6616
 4676TIP3    H214035   3.391   2.767   0.241  0.7825 -2.5605  0.7296
 4677TIP3   OH214036   5.470   4.640   2.830  0.3734  0.1438  0.0594
 4677TIP3    H114037   5.383   4.629   2.868  0.4215 -0.3518  0.0399
 4677TIP3    H214038   5.520   4.565   2.863  0.6584  0.1738 -0.2998
 4678TIP3   OH214039   4.496   3.215   2.231  0.3270 -0.2792  0.0598
 4678TIP3    H114040   4.559   3.216   2.303  2.0584  0.1007 -1.3773
 4678TIP3    H214041   4.446   3.134   2.244  0.9868 -0.5079  1.3528
 4679TIP3   OH214042   4.675   1.869   4.411  0.3495 -0.1936  0.0656
 4679TIP3    H114043   4.622   1.903   4.339  1.1219  0.6545 -0.1218
 4679TIP3    H214044   4.621   1.800   4.449 -0.7586  0.4319 -0.3072
 4680TIP3   OH214045   6.324   1.196   3.660  0.2572  0.2566 -0.0207
 4680TIP3    H114046   6.377   1.273   3.678 -0.6791  0.7425  0.7086
 4680TIP3    H214047   6.234   1.223   3.679 -0.1175 -0.9266 -0.0212
 4681TIP3   OH214048   2.950   5.544   0.533  0.2035  0.6657  0.9743
 4681TIP3    H114049   2.874   5.545   0.591 -0.7012  0.7348 -0.1802
 4681TIP3    H214050   2.926   5.601   0.460  0.5895 -0.7920 -0.3572
 4682TIP3   OH214051   6.053   0.676   1.681 -0.2775  0.0762  0.3963
 4682TIP3    H114052   6.072   0.681   1.775 -1.7220  1.3926  0.6451
 4682TIP3    H214053   6.022   0.763   1.658 -0.8637 -0.5050 -1.1126
 4683TIP3   OH214054   2.457   1.056   4.463 -0.7389  0.4955 -0.3809
 4683TIP3    H114055   2.458   1.002   4.542 -0.0517  0.9515 -0.0624
 4683TIP3    H214056   2.387   1.020   4.409 -1.2585  0.2136  0.4670
 4684TIP3   OH214057   0.089   4.757   0.108  0.0894 -0.3745 -0.4939
 4684TIP3    H114058   0.108   4.677   0.157 -0.3610  0.2439  0.7331
 4684TIP3    H214059   0.164   4.814   0.125 -0.6041  0.2855  0.4834
 4685TIP3   OH214060   3.310   0.780   0.447  0.0036 -0.1307  0.5617
 4685TIP3    H114061   3.242   0.785   0.380 -0.8390 -1.6586  1.2814
 4685TIP3    H214062   3.390   0.805   0.400 -0.8210  0.4315 -0.6055
 4686TIP3   OH214063   3.394   2.841   4.168  0.0100 -0.1695  0.5971
 4686TIP3    H114064   3.353   2.912   4.217 -1.2161 -1.5535  1.6603
 4686TIP3    H214065   3.440   2.885   4.097  0.8345  1.8377  2.2379
 4687TIP3   OH214066   5.404   2.101   0.278 -0.9589 -0.1868  0.2043
 4687TIP3    H114067   5.315   2.134   0.268 -0.7709  0.2894  0.1134
 4687TIP3    H214068   5.456   2.177   0.301 -0.4575 -0.3495 -0.3721
 4688TIP3   OH214069   5.713   5.058   3.842 -0.1397  0.6205 -0.0845
 4688TIP3    H114070   5.692   5.076   3.750 -0.3280  0.0627 -0.1575
 4688TIP3    H214071   5.806   5.080   3.850 -0.5633  2.5438  0.0960
 4689TIP3   OH214072   0.965   1.873   1.457 -0.0583  0.6255 -0.2463
 4689TIP3    H114073   0.917   1.890   1.538  1.3999  2.1136  0.3816
 4689TIP3    H214074   1.006   1.788   1.470  0.5027  1.0398  0.7880
 4690TIP3   OH214075   1.860   2.872   1.676  0.1044  0.5287 -0.2580
 4690TIP3    H114076   1.860   2.821   1.595  0.1851  0.6382 -0.3274
 4690TIP3    H214077   1.774   2.855   1.714  0.7172 -0.9267  0.5303
 4691TIP3   OH214078   3.384   5.850   0.036 -0.0383  0.0297  0.1321
 4691TIP3    H114079   3.295   5.814   0.030 -0.2067  0.6484 -1.5302
 4691TIP3    H214080   3.410   5.832   0.126 -0.9112 -2.3669 -0.0015
 4692TIP3   OH214081   4.196   2.597   0.644  0.6811 -0.4302 -0.6308
 4692TIP3    H114082   4.181   2.641   0.560 -1.7134 -0.0733 -0.0996
 4692TIP3    H214083   4.241   2.516   0.621  0.1869 -0.2757 -2.2580
 4693TIP3   OH214084   5.139   5.483   3.234 -0.2324  0.1754 -0.3499
 4693TIP3    H114085   5.063   5.448   3.186  0.8807 -0.8026 -1.4553
 4693TIP3    H214086   5.184   5.539   3.171  1.5607 -1.5638 -0.7248
 4694TIP3   OH214087   0.049   0.988   3.962  0.4086 -0.7683 -0.8521
 4694TIP3    H114088  -0.011   0.944   3.902  0.1044 -1.6924  0.1016
 4694TIP3    H214089   0.123   1.014   3.907 -1.2523  1.2812 -2.2623
 4695TIP3   OH214090   0.931   5.926   1.533 -0.0538 -0.0371  0.1263
 4695TIP3    H114091   0.959   5.845   1.490  0.8844  1.2915 -1.9855
 4695TIP3    H214092   0.931   5.906   1.626 -1.0015 -2.7738 -0.3747
 4696TIP3   OH214093   5.413   5.169   2.480 -0.2400  0.2874  0.4256
 4696TIP3    H114094   5.330   5.128   2.506  0.1195  0.2843  1.6264
 4696TIP3    H214095   5.465   5.170   2.560  1.2135 -0.3707 -0.4784
 4697TIP3   OH214096   1.147   1.151   0.566  0.5578  0.3210 -0.0129
 4697TIP3    H114097   1.161   1.173   0.658 -0.0792  0.9985 -0.0698
 4697TIP3    H214098   1.118   1.233   0.526  0.4280 -0.0682 -0.7346
 4698TIP3   OH214099   2.937   4.480   0.279 -0.4390  0.1318  0.0554
 4698TIP3    H114100   3.022   4.439   0.292 -0.1741  0.4113 -0.7629
 4698TIP3    H214101   2.955   4.574   0.277 -0.7982  0.2028  0.1399
 4699TIP3   OH214102   2.530   1.734   4.994  1.0417 -0.3708  0.1131
 4699TIP3    H114103   2.623   1.752   4.983  0.7957  0.6130 -0.4883
 4699TIP3    H214104   2.519   1.645   4.960  1.7793 -0.5503  0.3266
 4700TIP3   OH214105   1.799   5.642   0.584  0.0594  0.3749  0.6837
 4700TIP3    H114106   1.809   5.737   0.582  1.9011  0.2563  1.8781
 4700TIP3    H214107   1.759   5.620   0.500 -1.0302  2.2483  0.6661
 4701TIP3   OH214108   5.531   0.745   2.124  0.4500 -0.0184  0.5124
 4701TIP3    H114109   5.444   0.733   2.088  0.4728  0.0986  0.4143
 4701TIP3    H214110   5.590   0.707   2.058  0.4835  0.0737  0.4877
 4702TIP3   OH214111   5.301   2.385   4.274  0.2340  0.0079 -0.1998
 4702TIP3    H114112   5.248   2.341   4.208  1.1549 -1.3625 -0.0690
 4702TIP3    H214113   5.240   2.402   4.346 -0.2479 -0.6086 -0.4543
 4703TIP3   OH214114   1.999   5.379   0.587 -0.4336  0.1280  0.5146
 4703TIP3    H114115   1.930   5.444   0.580  0.8568  1.5947  0.9403
 4703TIP3    H214116   2.054   5.394   0.510 -0.5386 -1.0034  0.1956
 4704TIP3   OH214117   1.783   0.088   3.411 -0.6826  0.0504  0.2430
 4704TIP3    H114118   1.822   0.158   3.463  0.1417  0.0622 -0.3655
 4704TIP3    H214119   1.757   0.022   3.475  0.1444  0.1471  0.6953
 4705TIP3   OH214120   4.243   3.278   0.456 -0.1565 -0.0734  0.0288
 4705TIP3    H114121   4.308   3.231   0.403  0.8026  2.1948 -0.9606
 4705TIP3    H214122   4.173   3.215   0.470 -0.3100 -0.9255 -3.6769
 4706TIP3   OH214123   2.774   0.676   1.561  0.3216  0.4015 -0.1333
 4706TIP3    H114124   2.768   0.596   1.509  0.1614  0.7448 -0.6444
 4706TIP3    H214125   2.684   0.690   1.593  0.4936 -0.0184  0.5615
 4707TIP3   OH214126   5.414   0.955   3.776  0.3522  0.5967  0.0534
 4707TIP3    H114127   5.412   0.893   3.703  2.6939  0.3762  0.0794
 4707TIP3    H214128   5.356   0.918   3.842  0.5357 -0.7791 -0.5302
 4708TIP3   OH214129   3.031   4.474   0.993 -0.2241  0.7837 -0.2100
 4708TIP3    H114130   3.117   4.484   1.034  0.6542  0.0224 -1.7741
 4708TIP3    H214131   3.027   4.382   0.968 -1.0023  1.0788 -1.2171
 4709TIP3   OH214132   3.770   3.706   1.215 -0.5638  0.2671  0.2844
 4709TIP3    H114133   3.725   3.751   1.286  1.7300  0.8819  1.4385
 4709TIP3    H214134   3.719   3.626   1.201 -2.3508  1.2294  1.0391
 4710TIP3   OH214135   5.146   4.311   4.678  0.2018 -0.0190 -0.0631
 4710TIP3    H114136   5.068   4.287   4.727 -0.2184  2.1509  0.4126
 4710TIP3    H214137   5.127   4.286   4.588  0.0500 -1.9036  0.4551
 4711TIP3   OH214138   2.801   1.720   1.130  0.1905 -0.6421 -0.5182
 4711TIP3    H114139   2.722   1.772   1.144  0.9057  0.7399 -1.4496
 4711TIP3    H214140   2.857   1.775   1.075  1.1721 -2.2212 -1.1572
 4712TIP3   OH214141   4.241   0.031   3.641 -0.5538  0.2278 -0.9621
 4712TIP3    H114142   4.168   0.023   3.580 -1.6010 -0.1438  0.2814
 4712TIP3    H214143   4.230  -0.042   3.701 -0.1355  1.1103  0.2377
 4713TIP3   OH214144   5.289   0.027   4.455 -0.0940 -0.6347 -0.0220
 4713TIP3    H114145   5.375  -0.009   4.478 -0.5035 -0.6042  1.6446
 4713TIP3    H214146   5.307   0.086   4.381  1.1466 -1.3779 -0.3524
 4714TIP3   OH214147   1.754   2.917   0.431 -0.4177 -0.0174 -0.1678
 4714TIP3    H114148   1.758   2.915   0.526 -1.9106 -1.0763 -0.0960
 4714TIP3    H214149   1.802   2.996   0.407 -0.7333  0.7372  1.5104
 4715TIP3   OH214150   0.963   5.601   3.263  0.4252 -0.3569 -0.2265
 4715TIP3    H114151   0.880   5.566   3.296 -0.8703  1.0074 -1.8752
 4715TIP3    H214152   1.030   5.549   3.308 -1.3214 -2.8363 -0.2845
 4716TIP3   OH214153   1.519   5.180   3.510 -0.3167 -0.0359 -0.2228
 4716TIP3    H114154   1.553   5.131   3.586  0.9060  0.1781 -0.6184
 4716TIP3    H214155   1.424   5.184   3.525 -0.2928 -1.4485  0.4462
 4717TIP3   OH214156   6.359   1.990   0.687  0.1749 -0.0821 -0.5531
 4717TIP3    H114157   6.272   2.008   0.722  1.1257  0.6222  1.6434
 4717TIP3    H214158   6.402   1.939   0.755  1.0053 -1.8561 -2.2840
 4718TIP3   OH214159   2.330   1.381   4.575  0.0322  0.5216  0.5008
 4718TIP3    H114160   2.281   1.302   4.597  1.4526 -0.1438  1.4437
 4718TIP3    H214161   2.384   1.356   4.500 -3.5070  2.2836 -2.9630
 4719TIP3   OH214162   1.726   4.347   0.187  0.3444  0.0504 -0.9826
 4719TIP3    H114163   1.653   4.353   0.248 -0.8029 -0.1095 -2.2756
 4719TIP3    H214164   1.706   4.272   0.131  2.1294 -0.7597 -0.6198
 4720TIP3   OH214165   4.342   2.829   4.347 -0.1292 -0.3091 -0.4986
 4720TIP3    H114166   4.384   2.914   4.333 -0.3172 -0.1725 -0.2394
 4720TIP3    H214167   4.250   2.850   4.365 -0.1092 -0.5440 -0.1119
 4721TIP3   OH214168   3.000   1.110   3.566  0.2329 -0.0457 -0.7608
 4721TIP3    H114169   3.067   1.068   3.512 -2.4199 -2.5300 -2.3660
 4721TIP3    H214170   2.984   1.194   3.522  2.0106  0.4918 -0.4842
 4722TIP3   OH214171   6.259   0.355   4.465  0.4465 -0.0707 -0.1797
 4722TIP3    H114172   6.244   0.389   4.553  0.5372 -1.7761  0.5335
 4722TIP3    H214173   6.319   0.419   4.425  0.5331  0.6478  1.0453
 4723TIP3   OH214174   0.841   4.601   3.641 -0.8611  0.6006 -0.0680
 4723TIP3    H114175   0.773   4.574   3.703 -0.0503  0.6431  0.8655
 4723TIP3    H214176   0.901   4.654   3.693  1.9683 -2.4633  0.1316
 4724TIP3   OH214177   2.533   0.654   1.735 -0.0818  0.2826  0.4570
 4724TIP3    H114178   2.575   0.629   1.818  2.0380 -1.9244 -1.1220
 4724TIP3    H214179   2.442   0.673   1.759  0.7302  1.0161  3.4405
 4725TIP3   OH214180   2.092   5.543   3.069  0.7077  0.5855 -0.1062
 4725TIP3    H114181   1.999   5.542   3.093  0.6403 -2.7970 -0.0455
 4725TIP3    H214182   2.091   5.547   2.973  0.6679  3.1156 -0.0708
 4726TIP3   OH214183   2.750   1.247   5.001 -0.5347  0.8021  0.4315
 4726TIP3    H114184   2.785   1.332   4.975 -0.1182  0.4803 -0.0661
 4726TIP3    H214185   2.826   1.197   5.029 -0.4393 -0.1827 -1.4246
 4727TIP3   OH214186   5.937   2.064   3.868 -0.1602  0.2491 -0.0577
 4727TIP3    H114187   5.972   2.089   3.782  0.4778  0.3521  0.2230
 4727TIP3    H214188   5.859   2.119   3.879  1.9518  3.2951  1.1433
 4728TIP3   OH214189   2.647   3.385   1.341 -0.1344  0.2070  0.8288
 4728TIP3    H114190   2.632   3.307   1.395  0.4501 -0.8609 -0.4827
 4728TIP3    H214191   2.561   3.404   1.302  0.1146 -1.0271 -0.4008
 4729TIP3   OH214192   5.276   0.483   4.248  0.0728  0.1095  0.2300
 4729TIP3    H114193   5.216   0.409   4.243  1.3029 -0.8912 -0.5189
 4729TIP3    H214194   5.327   0.467   4.328  1.4152 -0.7777 -0.7455
 4730TIP3   OH214195   4.403   0.846   0.579 -0.7187 -0.0066 -0.1581
 4730TIP3    H114196   4.327   0.818   0.629 -0.0152 -2.4613 -0.3407
 4730TIP3    H214197   4.473   0.856   0.644 -0.3304 -1.1796 -0.3803
 4731TIP3   OH214198   2.209   4.977   4.984  0.3331  0.1141 -0.2245
 4731TIP3    H114199   2.265   4.952   5.058 -1.1643  0.7175  1.1707
 4731TIP3    H214200   2.143   5.034   5.023 -1.5945 -1.0172 -1.6941
 4732TIP3   OH214201   6.225   3.410   2.747 -0.1639  0.6411  0.3603
 4732TIP3    H114202   6.291   3.349   2.780 -0.2732 -0.5091 -1.3981
 4732TIP3    H214203   6.275   3.472   2.693 -0.4443 -0.2091 -0.9425
 4733TIP3   OH214204   3.843   1.417   1.706  0.0138  0.2239 -0.5894
 4733TIP3    H114205   3.772   1.360   1.735 -0.0003 -0.7193 -2.3570
 4733TIP3    H214206   3.839   1.493   1.764 -1.7960 -0.2763 -0.0272
 4734TIP3   OH214207   4.760   2.109   4.989 -0.2245  0.3436 -0.0952
 4734TIP3    H114208   4.788   2.128   5.079  1.2667  2.1071 -0.8454
 4734TIP3    H214209   4.667   2.130   4.988 -0.7230 -1.5028  1.4491
 4735TIP3   OH214210   2.744   5.108   1.671 -0.0109 -0.4856  0.2306
 4735TIP3    H114211   2.809   5.052   1.627  1.6130  1.3841  0.0932
 4735TIP3    H214212   2.784   5.129   1.755 -1.6035 -1.2957  1.2384
 4736TIP3   OH214213   0.216   4.529   0.533 -0.7417  0.2283  0.3901
 4736TIP3    H114214   0.293   4.494   0.577 -0.6486  1.1651  0.9787
 4736TIP3    H214215   0.161   4.452   0.518 -0.3846 -0.2320  1.3403
 4737TIP3   OH214216   2.977   5.547   3.973  0.1571 -0.3629 -0.0693
 4737TIP3    H114217   2.948   5.567   3.884  0.6238  0.2260 -0.0966
 4737TIP3    H214218   2.945   5.459   3.989 -1.5782  0.2312 -0.1229
 4738TIP3   OH214219   6.245   2.086   4.099  0.1510 -0.0580  0.4903
 4738TIP3    H114220   6.199   2.014   4.141 -1.7297  0.5159 -0.4634
 4738TIP3    H214221   6.180   2.156   4.093  1.6561  1.4012  0.5631
 4739TIP3   OH214222   2.186   2.077   0.450  0.3516  0.6914  0.3769
 4739TIP3    H114223   2.211   2.163   0.481  0.9883  0.7722 -0.3205
 4739TIP3    H214224   2.219   2.073   0.360 -1.0187  0.2984 -0.1337
 4740TIP3   OH214225   4.185   4.226   3.066  0.5138 -0.4577  0.6357
 4740TIP3    H114226   4.166   4.135   3.091  0.7024 -0.7828 -0.3725
 4740TIP3    H214227   4.106   4.256   3.022  1.2989 -0.9260 -1.1465
 4741TIP3   OH214228   5.842   1.467   4.311  0.1898  0.2378  0.2929
 4741TIP3    H114229   5.815   1.375   4.312 -0.0104  0.2510 -1.4858
 4741TIP3    H214230   5.781   1.511   4.370  0.1892 -0.7252  1.0321
 4742TIP3   OH214231   4.053   0.338   2.258  0.2722  0.3296 -0.3120
 4742TIP3    H114232   4.082   0.269   2.317  0.1188  0.7684  0.2791
 4742TIP3    H214233   4.049   0.295   2.172  1.2802 -0.1033 -0.1560
 4743TIP3   OH214234   5.652   1.571   3.482 -0.6575  0.6055 -0.0575
 4743TIP3    H114235   5.707   1.553   3.558 -0.6625 -0.5986 -0.3256
 4743TIP3    H214236   5.585   1.631   3.515 -0.3955  0.4607  0.7715
 4744TIP3   OH214237   0.328   2.194   1.594 -0.4258  0.2098 -0.3506
 4744TIP3    H114238   0.321   2.232   1.506 -0.2079  0.5799 -0.2106
 4744TIP3    H214239   0.411   2.228   1.629 -0.5823  0.1826  0.0539
 4745TIP3   OH214240   5.053   2.098   2.689  0.1126  0.6425  0.1169
 4745TIP3    H114241   5.027   2.080   2.599 -1.2630  0.2550  0.5689
 4745TIP3    H214242   5.049   2.193   2.696 -0.1717  0.6501 -0.1221
 4746TIP3   OH214243   0.441   1.312   4.199  0.5079 -0.4533 -0.2251
 4746TIP3    H114244   0.433   1.245   4.267  2.8722 -0.7990 -0.2093
 4746TIP3    H214245   0.408   1.269   4.119 -0.9260 -0.5317  0.3816
 4747TIP3   OH214246   3.576   0.646   3.511  0.6409 -0.4474 -0.1344
 4747TIP3    H114247   3.508   0.683   3.566  1.3276  1.7630 -0.6834
 4747TIP3    H214248   3.658   0.677   3.550  1.3998 -2.8003  0.3387
 4748TIP3   OH214249   5.826   0.451   0.915 -0.1584  0.3379  0.3370
 4748TIP3    H114250   5.739   0.491   0.912 -0.5903 -0.5782  0.4830
 4748TIP3    H214251   5.830   0.407   0.999  0.9604  1.4684  0.9063
 4749TIP3   OH214252   0.580   1.201   0.594 -0.2620 -0.3249  0.3781
 4749TIP3    H114253   0.562   1.122   0.543 -0.9366  0.2651 -0.3322
 4749TIP3    H214254   0.604   1.266   0.528  0.9435 -0.0989  1.0118
 4750TIP3   OH214255   0.391   3.636   2.664 -0.1675 -0.1512  0.2950
 4750TIP3    H114256   0.432   3.719   2.687  3.3482 -1.9241  1.1513
 4750TIP3    H214257   0.413   3.577   2.736 -0.3707 -2.4519 -1.4019
 4751TIP3   OH214258   5.871   4.785   4.105 -0.0065 -0.4200  0.3990
 4751TIP3    H114259   5.902   4.702   4.068  1.0721 -0.0730  0.4816
 4751TIP3    H214260   5.798   4.761   4.162  1.3335 -1.5134  1.7094
 4752TIP3   OH214261   4.704   4.958   2.384  0.4780 -0.2398  0.1338
 4752TIP3    H114262   4.618   5.000   2.377  0.7581  0.1946 -1.1094
 4752TIP3    H214263   4.686   4.864   2.382 -0.0894 -0.1934  1.8981
 4753TIP3   OH214264   5.993   0.184   2.495  0.4034  0.0875 -0.6300
 4753TIP3    H114265   5.982   0.266   2.544 -1.8467 -0.2352 -0.4926
 4753TIP3    H214266   6.044   0.209   2.418  2.1071  1.0416  0.7427
 4754TIP3   OH214267   1.817   3.404   4.542 -0.1510 -0.0741  0.0895
 4754TIP3    H114268   1.842   3.379   4.453 -0.1447 -0.0548  0.0858
 4754TIP3    H214269   1.877   3.476   4.565 -1.5863  1.4563 -0.7259
 4755TIP3   OH214270   0.086   5.778   1.915 -0.0184 -0.4596  0.5964
 4755TIP3    H114271   0.125   5.790   2.002  2.8671 -0.8164 -0.5637
 4755TIP3    H214272   0.119   5.694   1.885  0.8927  0.6572 -1.7397
 4756TIP3   OH214273   0.846   4.218   2.221 -0.1148  0.6162 -0.0193
 4756TIP3    H114274   0.881   4.226   2.310 -1.8622 -0.6357  0.8339
 4756TIP3    H214275   0.876   4.297   2.177 -0.8058  2.2600  2.2537
 4757TIP3   OH214276   5.290   3.978   0.377 -0.2516 -0.3378  0.4543
 4757TIP3    H114277   5.246   3.932   0.448  0.4219  0.9256  1.7585
 4757TIP3    H214278   5.343   4.045   0.421  0.6727  0.0932 -1.2138
 4758TIP3   OH214279   4.198   3.710   4.042 -0.0705  0.8837  0.2722
 4758TIP3    H114280   4.277   3.758   4.068  0.8745 -0.5989  0.2900
 4758TIP3    H214281   4.230   3.641   3.985 -1.2946 -0.0887  0.7211
 4759TIP3   OH214282   3.385   3.586   1.075 -0.0788 -0.0430  0.1801
 4759TIP3    H114283   3.299   3.546   1.084 -0.6629  0.9434 -0.6814
 4759TIP3    H214284   3.372   3.677   1.102  0.8869 -0.0750  0.7950
 4760TIP3   OH214285   3.863   3.893   3.366  0.3151 -0.0423  0.1119
 4760TIP3    H114286   3.935   3.839   3.399 -0.0222 -1.0410 -0.7352
 4760TIP3    H214287   3.813   3.835   3.309 -1.0831  0.6763  0.5504
 4761TIP3   OH214288   6.146   5.307   0.036 -0.1009  0.2679 -0.0213
 4761TIP3    H114289   6.140   5.277  -0.054  1.3364  0.1123 -0.0777
 4761TIP3    H214290   6.144   5.227   0.089 -0.4745  0.3306  0.0607
 4762TIP3   OH214291   0.410   5.492   5.080 -0.2033 -0.3315  0.2969
 4762TIP3    H114292   0.436   5.491   5.172  1.9922  0.8096 -0.2303
 4762TIP3    H214293   0.488   5.463   5.033 -1.3531 -1.1339 -1.2331
 4763TIP3   OH214294   2.566   5.313   4.691 -0.7253  0.8532 -0.1701
 4763TIP3    H114295   2.632   5.244   4.682 -1.8251 -0.2041 -0.5769
 4763TIP3    H214296   2.613   5.388   4.726  0.8327  0.3832 -1.1651
 4764TIP3   OH214297   0.257   0.304   3.245  0.1872  0.6366 -0.3756
 4764TIP3    H114298   0.240   0.216   3.211 -2.2059  1.6439 -2.0372
 4764TIP3    H214299   0.256   0.294   3.340  2.5880 -1.5171 -0.4618
 4765TIP3   OH214300   4.034   0.709   4.488 -0.0213 -0.1657  0.1722
 4765TIP3    H114301   3.951   0.711   4.440 -0.2901  0.0190  0.6329
 4765TIP3    H214302   4.060   0.617   4.488 -0.1077 -0.1928 -0.1688
 4766TIP3   OH214303   5.538   1.015   2.156  0.0402  0.3315  0.9555
 4766TIP3    H114304   5.444   1.025   2.170 -0.2524 -0.9927  0.0551
 4766TIP3    H214305   5.552   0.921   2.149  0.8262  0.5762 -2.8067
 4767TIP3   OH214306   5.993   3.171   3.371  0.1736 -0.6667  0.3014
 4767TIP3    H114307   5.902   3.202   3.375  0.2872 -0.1423 -0.7133
 4767TIP3    H214308   6.001   3.133   3.283  0.6200 -1.7669  0.8079
 4768TIP3   OH214309   4.214   0.875   2.515  0.0185 -0.1142  0.1224
 4768TIP3    H114310   4.224   0.870   2.610 -0.4305 -4.2408  0.1354
 4768TIP3    H214311   4.123   0.849   2.499 -0.4451  2.1265 -1.4749
 4769TIP3   OH214312   1.524   4.205   4.119 -0.6355 -0.1451  0.1731
 4769TIP3    H114313   1.617   4.231   4.121 -0.5807 -0.3599  0.4033
 4769TIP3    H214314   1.521   4.123   4.167 -1.1003  0.3530  1.0088
 4770TIP3   OH214315   5.942   4.471   0.777  0.5216 -0.3637  0.5026
 4770TIP3    H114316   6.023   4.522   0.770  0.5504 -0.5348 -0.5929
 4770TIP3    H214317   5.964   4.386   0.738 -0.3193 -0.2458 -0.2657
 4771TIP3   OH214318   0.376   0.519   1.619  0.3075 -0.0596  0.2987
 4771TIP3    H114319   0.471   0.506   1.614  0.0471 -2.0334 -0.6403
 4771TIP3    H214320   0.361   0.605   1.579  1.8178  1.0816  2.0473
 4772TIP3   OH214321   4.005   0.677   0.962 -0.4198 -0.9202  0.5251
 4772TIP3    H114322   4.100   0.669   0.951 -0.3831  0.1909 -0.2109
 4772TIP3    H214323   3.995   0.733   1.040 -0.4073  0.2111 -0.2540
 4773TIP3   OH214324   2.296   2.013   4.160 -0.8663  0.0336  0.1334
 4773TIP3    H114325   2.222   1.973   4.206 -0.3459 -1.4007 -0.2224
 4773TIP3    H214326   2.264   2.024   4.070 -0.1206 -2.2090 -0.4572
 4774TIP3   OH214327   2.172   2.384   2.005 -0.2159 -0.6150 -0.4017
 4774TIP3    H114328   2.235   2.314   1.987 -1.7395 -2.0193 -0.4126
 4774TIP3    H214329   2.096   2.340   2.042 -1.8752  0.8280 -1.9196
 4775TIP3   OH214330   3.960   3.750   4.639  0.2119  0.5134  0.5675
 4775TIP3    H114331   4.024   3.820   4.624 -1.0936  1.6934  0.3325
 4775TIP3    H214332   3.908   3.748   4.559  0.2845 -0.8122  0.5318
 4776TIP3   OH214333   1.677   5.850   4.232  0.5320  0.0046 -0.3782
 4776TIP3    H114334   1.686   5.887   4.144  2.3825  0.3348 -0.1018
 4776TIP3    H214335   1.754   5.794   4.242 -0.9516 -2.0578  0.1308
 4777TIP3   OH214336   5.100   1.446   2.038  0.3878  0.3525  0.2336
 4777TIP3    H114337   5.186   1.486   2.049  0.8565  0.7255 -3.5987
 4777TIP3    H214338   5.048   1.511   1.992  0.4657 -2.2515 -4.1313
 4778TIP3   OH214339   2.178   0.937   4.756 -0.0091 -0.2618  0.0784
 4778TIP3    H114340   2.200   0.929   4.663  1.6207 -0.0642  0.4084
 4778TIP3    H214341   2.219   0.861   4.797 -2.2867 -1.3868  0.4433
 4779TIP3   OH214342   3.924   1.903   2.500 -0.2516 -0.0903 -0.0410
 4779TIP3    H114343   3.936   1.823   2.449 -1.0360  0.8678 -1.8343
 4779TIP3    H214344   3.975   1.889   2.579 -0.8296 -2.5810 -0.0298
 4780TIP3   OH214345   2.600   0.187   4.198 -0.0556 -0.7739 -0.2396
 4780TIP3    H114346   2.607   0.183   4.102 -0.2097  0.2120 -0.3082
 4780TIP3    H214347   2.506   0.190   4.215 -0.0245  0.5187 -0.1595
 4781TIP3   OH214348   4.410   3.843   3.300 -0.4556 -0.2859  0.0317
 4781TIP3    H114349   4.422   3.756   3.262 -0.6198 -0.2203 -0.1727
 4781TIP3    H214350   4.463   3.901   3.244  0.4342 -0.3884  0.7355
 4782TIP3   OH214351   3.938   3.317   0.478  0.5301  0.4415  0.0161
 4782TIP3    H114352   3.995   3.392   0.495 -0.6128  0.8771  2.3395
 4782TIP3    H214353   3.880   3.346   0.407 -2.3042  3.3706  3.1249
 4783TIP3   OH214354   0.107   3.518   0.922 -0.1719  0.0815 -0.1594
 4783TIP3    H114355   0.172   3.588   0.913 -1.3513  1.0559 -1.5188
 4783TIP3    H214356   0.156   3.438   0.905  1.0522  0.6124  0.7016
 4784TIP3   OH214357   5.351   0.092   5.159 -0.3849  0.3111 -0.2389
 4784TIP3    H114358   5.339  -0.002   5.165 -1.0845  0.3720 -0.5542
 4784TIP3    H214359   5.291   0.128   5.224  1.5129  0.4813  1.5368
 4785TIP3   OH214360   2.913   4.955   1.532 -0.3431 -0.0323  0.4438
 4785TIP3    H114361   2.891   4.862   1.523  0.0414 -0.0458 -0.4725
 4785TIP3    H214362   3.007   4.959   1.511 -0.5464  0.6703 -0.4095
 4786TIP3   OH214363   2.465   0.071   3.381 -0.2923 -0.5277  0.5759
 4786TIP3    H114364   2.539   0.027   3.339 -2.8671 -2.0082 -2.8379
 4786TIP3    H214365   2.482   0.164   3.369  1.1386 -0.8154  0.1550
 4787TIP3   OH214366   3.511   3.722   1.802  0.2223 -0.0888 -0.2167
 4787TIP3    H114367   3.533   3.754   1.890  0.9884  0.5809 -0.6428
 4787TIP3    H214368   3.588   3.742   1.749 -0.8910  1.0774 -1.4452
 4788TIP3   OH214369   5.768   3.357   0.564 -0.1667 -0.7575  0.4018
 4788TIP3    H114370   5.707   3.368   0.490  1.4071 -1.1237 -1.0006
 4788TIP3    H214371   5.716   3.312   0.631 -1.4923 -0.9234 -0.6923
 4789TIP3   OH214372   0.390   5.827   1.827  0.3186 -0.5085  0.3264
 4789TIP3    H114373   0.470   5.830   1.774 -1.3026  0.4798 -2.2870
 4789TIP3    H214374   0.358   5.737   1.817 -0.0975 -0.2660 -0.6221
 4790TIP3   OH214375   3.263   5.503   3.722 -0.5840 -0.2235  0.4845
 4790TIP3    H114376   3.268   5.592   3.687  0.3248  0.0613  1.2903
 4790TIP3    H214377   3.257   5.446   3.645 -2.6264  0.5932 -0.0230
 4791TIP3   OH214378   3.853   5.678   3.002  0.0136 -0.0689  0.3691
 4791TIP3    H114379   3.915   5.698   3.072 -1.4000  0.4885  1.5096
 4791TIP3    H214380   3.797   5.756   2.996 -0.0721 -0.2206 -1.1954
 4792TIP3   OH214381   5.079   0.566   3.076  0.3517 -0.3609 -0.5687
 4792TIP3    H114382   5.145   0.632   3.054 -0.0056  0.1546 -0.1119
 4792TIP3    H214383   5.127   0.501   3.127  1.0532 -1.2543 -2.2742
 4793TIP3   OH214384   4.219   0.979   2.113 -0.0698  0.0810  0.1350
 4793TIP3    H114385   4.313   0.968   2.126  0.3820  3.2671  0.4973
 4793TIP3    H214386   4.208   0.986   2.019  0.3954  1.5322  0.1598
 4794TIP3   OH214387   4.816   4.945   1.575  0.1813  0.2274 -0.2069
 4794TIP3    H114388   4.723   4.967   1.587  0.3429 -0.2952  2.7671
 4794TIP3    H214389   4.861   5.029   1.576 -0.1790  0.4428 -1.0413
 4795TIP3   OH214390   3.701   3.762   4.417 -0.3836  0.4834 -0.7708
 4795TIP3    H114391   3.666   3.766   4.506 -0.9113 -0.4363 -0.9273
 4795TIP3    H214392   3.630   3.793   4.361 -0.4887 -0.1122 -0.9741
 4796TIP3   OH214393   1.673   1.990   0.847  0.0255 -0.1628 -0.0715
 4796TIP3    H114394   1.595   1.937   0.862  0.4342 -1.5157 -2.3338
 4796TIP3    H214395   1.640   2.077   0.823 -0.8109 -0.7290 -1.0244
 4797TIP3   OH214396   0.902   0.634   4.923  0.2917 -0.3513 -0.3674
 4797TIP3    H114397   0.988   0.675   4.917 -0.6981  1.8988 -0.3180
 4797TIP3    H214398   0.898   0.575   4.848  1.4921  0.2778 -0.9600
 4798TIP3   OH214399   2.031   4.218   3.358 -0.4854 -0.2601  0.4880
 4798TIP3    H114400   2.020   4.186   3.268 -0.9948 -2.6108  1.3159
 4798TIP3    H214401   1.997   4.307   3.356  0.1060 -0.0187 -1.7858
 4799TIP3   OH214402   5.193   0.069   3.040  0.0371  0.4324 -0.1983
 4799TIP3    H114403   5.183  -0.022   3.066  1.6577  0.3862  0.3858
 4799TIP3    H214404   5.104   0.102   3.032 -0.6299 -1.5092 -1.5983
 4800TIP3   OH214405   2.748   4.097   0.972  0.5635  0.3744 -1.1878
 4800TIP3    H114406   2.832   4.142   0.984 -0.4985  2.1481  0.1103
 4800TIP3    H214407   2.682   4.163   0.992 -1.1278 -1.6818  0.5049
 4801TIP3   OH214408   1.132   1.319   1.278  0.5794  0.0958  0.0681
 4801TIP3    H114409   1.210   1.315   1.333 -0.3958  1.6639  1.6765
 4801TIP3    H214410   1.118   1.412   1.263 -0.8487 -0.1700 -0.3682
 4802TIP3   OH214411   1.484   5.158   2.118 -0.3964  0.3775 -0.5209
 4802TIP3    H114412   1.576   5.184   2.115 -0.7005  1.5378 -0.3355
 4802TIP3    H214413   1.459   5.150   2.026  0.0133 -0.4247 -0.5678
 4803TIP3   OH214414   2.889   4.934   4.682 -0.2543 -0.2369 -0.0670
 4803TIP3    H114415   2.973   4.956   4.721 -0.2956 -0.6792  0.2735
 4803TIP3    H214416   2.910   4.875   4.611 -0.2376  0.0323 -0.2868
 4804TIP3   OH214417   1.134   5.131   3.840 -0.3014  0.2280  0.8155
 4804TIP3    H114418   1.190   5.056   3.862  0.0302 -0.2397 -1.3159
 4804TIP3    H214419   1.144   5.191   3.914  4.2799  0.8487  0.0408
 4805TIP3   OH214420   5.691   3.922   0.582 -0.0630 -0.1238  0.8058
 4805TIP3    H114421   5.677   4.001   0.635  0.4655 -0.8571  2.0910
 4805TIP3    H214422   5.650   3.852   0.632 -0.4070 -0.6964 -0.2608
 4806TIP3   OH214423   0.223   5.280   2.238  0.3294 -0.2434 -0.8140
 4806TIP3    H114424   0.167   5.243   2.170 -1.3399  0.0172  0.3432
 4806TIP3    H214425   0.218   5.375   2.225 -0.5966 -0.1513  0.0712
 4807TIP3   OH214426   3.239   3.258   2.069  0.1135 -0.0956  0.1831
 4807TIP3    H114427   3.233   3.335   2.125 -2.0471 -0.9313  1.1937
 4807TIP3    H214428   3.167   3.201   2.097 -0.4078 -1.0526 -2.7200
 4808TIP3   OH214429   3.522   5.203   0.054  0.1253  0.0632 -0.6691
 4808TIP3    H114430   3.575   5.256  -0.005  2.3945  0.4762  1.5389
 4808TIP3    H214431   3.454   5.263   0.085 -0.3690  0.1742 -1.9031
 4809TIP3   OH214432   3.377   1.804   2.761 -0.3257  0.0837  0.7475
 4809TIP3    H114433   3.436   1.771   2.830 -0.2093  1.1506  1.1752
 4809TIP3    H214434   3.394   1.746   2.687 -0.8081 -1.4077  1.7457
 4810TIP3   OH214435   1.979   0.990   3.906 -0.2502  0.0881  0.6201
 4810TIP3    H114436   1.987   0.999   3.811 -0.3247  1.9498  0.7604
 4810TIP3    H214437   2.014   0.903   3.925  0.0410 -0.1932 -1.0752
 4811TIP3   OH214438   3.234   5.799   5.135 -0.1206  0.4500 -0.1036
 4811TIP3    H114439   3.184   5.718   5.128 -1.2805  1.1865 -0.7206
 4811TIP3    H214440   3.273   5.796   5.222 -0.5705 -0.5346  0.0742
 4812TIP3   OH214441   2.572   4.906   1.024  0.1577  0.2452 -0.0118
 4812TIP3    H114442   2.483   4.939   1.037  0.2300  0.5943 -0.3709
 4812TIP3    H214443   2.628   4.976   1.059  0.3159  0.5451 -0.8406
 4813TIP3   OH214444   2.988   1.585   3.270  0.2677 -0.0655  0.4523
 4813TIP3    H114445   2.931   1.520   3.230  0.8116 -0.2641 -0.0105
 4813TIP3    H214446   2.996   1.655   3.205 -0.7837  0.7589  1.1736
 4814TIP3   OH214447   3.442   1.791   3.517  0.0973 -0.7189  0.1259
 4814TIP3    H114448   3.534   1.771   3.501  0.1690  0.7766 -1.6784
 4814TIP3    H214449   3.394   1.737   3.454 -0.1563 -0.4392  0.0750
 4815TIP3   OH214450   4.037   3.903   3.892  0.2810 -0.5872 -0.4927
 4815TIP3    H114451   4.019   3.838   3.824  0.6442 -0.4080 -0.7618
 4815TIP3    H214452   4.089   3.857   3.957  1.2323 -0.3504 -1.0782
 4816TIP3   OH214453   2.951   4.175   4.745 -0.3149 -0.3997  0.3147
 4816TIP3    H114454   2.991   4.237   4.806  0.8485 -0.5322 -0.2799
 4816TIP3    H214455   2.929   4.228   4.668 -1.3877 -0.3143  0.6652
 4817TIP3   OH214456   4.528   3.938   3.065 -0.5714 -0.7257 -0.2974
 4817TIP3    H114457   4.618   3.969   3.065 -1.0122  0.7539  1.3824
 4817TIP3    H214458   4.484   3.993   3.000 -0.5545 -0.4295 -0.0617
 4818TIP3   OH214459   0.288   3.413   3.586 -0.1726  0.3646  0.3291
 4818TIP3    H114460   0.246   3.452   3.510  0.1893 -1.5509 -0.9206
 4818TIP3    H214461   0.378   3.446   3.584 -0.1699  0.3353 -0.0643
 4819TIP3   OH214462   1.514   2.133   1.415  0.2588  0.7128 -0.0046
 4819TIP3    H114463   1.453   2.205   1.425  0.4557  0.9344 -0.3790
 4819TIP3    H214464   1.468   2.056   1.449 -0.4101  0.7804 -0.7461
 4820TIP3   OH214465   4.962   3.110   3.174 -0.8460 -0.3510 -0.3763
 4820TIP3    H114466   4.967   3.090   3.080 -1.0232 -2.2435 -0.0263
 4820TIP3    H214467   5.010   3.038   3.216  3.0842  2.5929  0.8431
 4821TIP3   OH214468   2.596   1.155   0.243 -0.3653 -0.1674 -0.0952
 4821TIP3    H114469   2.592   1.250   0.230 -0.3719 -0.1529  0.0094
 4821TIP3    H214470   2.688   1.132   0.230  0.1445  0.2153  2.2948
 4822TIP3   OH214471   0.344   1.858   4.400 -0.3900 -0.2218  0.1646
 4822TIP3    H114472   0.269   1.869   4.459 -0.9655 -0.4272 -0.5107
 4822TIP3    H214473   0.399   1.935   4.416 -1.1548  0.3537  0.0794
 4823TIP3   OH214474   3.000   5.924   4.871  0.1104  0.4356 -0.3656
 4823TIP3    H114475   3.018   5.860   4.939  2.2389 -0.1023 -1.3555
 4823TIP3    H214476   2.965   6.000   4.918 -0.0136 -0.5026  1.1122
 4824TIP3   OH214477   2.355   0.598   2.548 -0.0385 -0.2264 -0.3453
 4824TIP3    H114478   2.434   0.553   2.578  0.7962  1.5699  0.2746
 4824TIP3    H214479   2.315   0.632   2.628 -1.0320 -0.4248 -0.7346
 4825TIP3   OH214480   4.332   1.102   0.462 -0.3022  0.1710  0.1241
 4825TIP3    H114481   4.341   1.012   0.492  1.0963 -0.1338 -1.0820
 4825TIP3    H214482   4.312   1.152   0.541  0.5741 -0.9599  1.1036
 4826TIP3   OH214483   1.726   3.575   2.645  0.3676 -0.1216  0.5696
 4826TIP3    H114484   1.802   3.596   2.699  2.2252 -1.1423 -1.4839
 4826TIP3    H214485   1.681   3.505   2.692  1.8933 -0.9365  0.8587
 4827TIP3   OH214486   1.779   3.979   4.732 -0.1320 -0.1250  0.5342
 4827TIP3    H114487   1.737   4.011   4.653 -0.2558 -1.3165  0.0883
 4827TIP3    H214488   1.734   3.897   4.752  0.7857 -0.5271  1.0615
 4828TIP3   OH214489   2.220   1.572   2.599 -0.5088  0.2697 -0.1549
 4828TIP3    H114490   2.143   1.605   2.553 -0.8627  0.7886  0.7975
 4828TIP3    H214491   2.226   1.480   2.573 -0.5110  0.6251 -1.4881
 4829TIP3   OH214492   5.524   4.300   1.687 -0.3240 -0.3866  0.2713
 4829TIP3    H114493   5.467   4.293   1.611  0.2927  0.5748 -0.2943
 4829TIP3    H214494   5.575   4.218   1.686 -1.5465 -1.1772  0.6927
 4830TIP3   OH214495   5.917   4.031   3.286 -0.0226  0.7005  0.1985
 4830TIP3    H114496   5.954   4.001   3.369 -1.3964 -0.1247  0.5564
 4830TIP3    H214497   5.950   3.969   3.221 -0.7310 -0.0224  0.5107
 4831TIP3   OH214498   6.100   2.407   1.729 -0.2078  0.3139 -0.3674
 4831TIP3    H114499   6.119   2.500   1.741  2.3987 -0.2395  0.3101
 4831TIP3    H214500   6.046   2.384   1.805 -0.0884  1.0778 -0.0354
 4832TIP3   OH214501   4.180   3.848   0.146  0.4343  0.8381 -0.2848
 4832TIP3    H114502   4.212   3.765   0.180  1.5670  1.2361 -0.3302
 4832TIP3    H214503   4.215   3.914   0.207 -0.5351  1.2750 -0.1847
 4833TIP3   OH214504   6.200   4.379   4.883  0.3648 -0.4873  0.1564
 4833TIP3    H114505   6.157   4.459   4.853 -0.0115 -0.8650 -0.3261
 4833TIP3    H214506   6.223   4.396   4.974  1.2128  0.5575 -0.2400
 4834TIP3   OH214507   5.184   4.016   2.607  0.8680  0.2168 -0.5099
 4834TIP3    H114508   5.113   4.062   2.562  1.0807  0.5087 -0.5490
 4834TIP3    H214509   5.199   4.068   2.686  0.2181 -0.5147  0.1132
 4835TIP3   OH214510   2.863   3.279   1.997 -0.0328 -0.6529  0.1225
 4835TIP3    H114511   2.870   3.199   2.050 -2.4660 -0.1695  1.2678
 4835TIP3    H214512   2.779   3.317   2.021 -0.9892 -0.0156 -3.6126
 4836TIP3   OH214513   0.588   2.836   3.672  0.3693 -0.3115  0.1714
 4836TIP3    H114514   0.541   2.759   3.705 -0.3348 -0.3333 -0.8058
 4836TIP3    H214515   0.520   2.903   3.663  0.8581  0.2215  0.3893
 4837TIP3   OH214516   3.631   1.962   2.441  0.2124  0.5608  0.1269
 4837TIP3    H114517   3.612   1.893   2.504  0.3554  0.1440 -0.2829
 4837TIP3    H214518   3.725   1.979   2.450  0.2086  0.5893  0.1148
 4838TIP3   OH214519   0.686   4.181   0.216  0.3302 -0.4356 -0.2455
 4838TIP3    H114520   0.776   4.199   0.242  0.0442  0.5247  0.1026
 4838TIP3    H214521   0.640   4.264   0.227 -0.6532 -0.9658 -0.2172
 4839TIP3   OH214522   2.001   2.481   1.029  0.2090 -0.5615  0.1472
 4839TIP3    H114523   1.934   2.465   0.963  1.1532 -0.5028 -0.8519
 4839TIP3    H214524   2.030   2.571   1.012  0.6798 -0.6567  0.4299
 4840TIP3   OH214525   3.668   5.191   2.370  0.3967  0.3758 -0.4475
 4840TIP3    H114526   3.577   5.221   2.365 -0.0033 -0.4871  1.0121
 4840TIP3    H214527   3.715   5.244   2.306 -1.2771  0.3047 -1.7886
 4841TIP3   OH214528   2.955   3.774   0.831  0.1187  0.2516 -0.0450
 4841TIP3    H114529   2.935   3.803   0.742  1.9856  0.1162 -0.5293
 4841TIP3    H214530   3.046   3.745   0.828 -0.1846 -1.0336  1.6015
 4842TIP3   OH214531   0.923   3.924   0.463  0.3214 -0.6065 -0.1029
 4842TIP3    H114532   0.842   3.872   0.466 -0.1092  0.0450 -0.0653
 4842TIP3    H214533   0.980   3.884   0.528 -0.5483 -0.1819  0.9621
 4843TIP3   OH214534   5.678   1.715   0.074  0.0644  0.6334  0.3366
 4843TIP3    H114535   5.629   1.775   0.131  0.7912  0.7125  0.8937
 4843TIP3    H214536   5.742   1.770   0.029  0.0587  0.4367  0.0852
 4844TIP3   OH214537   3.176   2.414   0.141 -0.4227 -0.9025  0.1025
 4844TIP3    H114538   3.135   2.481   0.195  1.3273 -0.0409  0.4076
 4844TIP3    H214539   3.186   2.455   0.055  0.7794 -0.7053  0.3284
 4845TIP3   OH214540   4.197   5.010   1.231 -0.3418 -0.0216  0.7008
 4845TIP3    H114541   4.245   5.093   1.230 -0.3194 -0.0125  1.6019
 4845TIP3    H214542   4.225   4.965   1.151  0.2553  0.5003  0.6075
 4846TIP3   OH214543   5.461   1.697   3.853  0.1700  0.1915  0.1220
 4846TIP3    H114544   5.515   1.764   3.810  0.0481  0.7902  0.8808
 4846TIP3    H214545   5.387   1.683   3.794 -0.4943  1.6973  0.5595
 4847TIP3   OH214546   5.759   2.994   2.084 -0.2759  0.0729 -0.3859
 4847TIP3    H114547   5.797   3.057   2.024 -0.9194  1.6069  0.7338
 4847TIP3    H214548   5.788   2.908   2.052  1.1507  0.9662 -1.5799
 4848TIP3   OH214549   4.386   3.330   2.645 -0.3943 -0.2026  0.5059
 4848TIP3    H114550   4.448   3.356   2.577 -1.0603 -0.5466 -0.2385
 4848TIP3    H214551   4.300   3.345   2.607 -0.8233  1.7151  2.0605
 4849TIP3   OH214552   1.882   4.406   4.872 -0.2910 -0.0216  0.2541
 4849TIP3    H114553   1.842   4.440   4.952  0.3564 -1.4559  1.2420
 4849TIP3    H214554   1.857   4.314   4.870  1.5577 -0.5732  0.0515
 4850TIP3   OH214555   4.874   5.150   3.128  0.2569  0.3073  0.1302
 4850TIP3    H114556   4.780   5.145   3.113  0.4390 -2.1811 -0.6400
 4850TIP3    H214557   4.899   5.061   3.155  2.2006  1.2264  1.6478
 4851TIP3   OH214558   1.807   0.067   4.428 -0.2949  1.1265 -0.3915
 4851TIP3    H114559   1.883   0.115   4.461  1.2506 -0.7227 -1.0406
 4851TIP3    H214560   1.812   0.076   4.333 -1.9160  2.4105 -0.3823
 4852TIP3   OH214561   4.720   0.324   3.852 -0.0218 -0.9637  0.3221
 4852TIP3    H114562   4.720   0.324   3.948  3.4110 -1.1982  0.4600
 4852TIP3    H214563   4.654   0.389   3.828  0.3163  0.4689  2.9031
 4853TIP3   OH214564   6.062   2.528   3.651 -0.2545  0.2331  0.2787
 4853TIP3    H114565   6.132   2.545   3.588 -0.8662 -0.5078 -0.6322
 4853TIP3    H214566   5.982   2.537   3.600 -0.8574  1.4587  1.4045
 4854TIP3   OH214567   4.472   0.098   3.477 -0.1695  0.1366 -0.0794
 4854TIP3    H114568   4.405   0.082   3.545  0.8192  2.1596  1.4826
 4854TIP3    H214569   4.516   0.014   3.468 -1.8818 -0.8232  0.0094
 4855TIP3   OH214570   4.090   3.837   1.918 -0.1298 -0.1731  0.0660
 4855TIP3    H114571   4.124   3.843   1.829  0.1201 -0.5754  0.1352
 4855TIP3    H214572   4.090   3.928   1.949 -1.2883  0.1167 -0.7356
 4856TIP3   OH214573   5.063   4.263   2.210  0.1543 -0.0293 -0.0776
 4856TIP3    H114574   5.122   4.189   2.221 -1.5273 -1.4580 -0.2642
 4856TIP3    H214575   4.988   4.243   2.266 -0.4966  1.3842 -0.3840
 4857TIP3   OH214576   5.670   3.434   1.914  0.3490 -0.3865 -0.0431
 4857TIP3    H114577   5.701   3.454   1.826 -0.4104 -0.5495 -0.3569
 4857TIP3    H214578   5.640   3.344   1.909  0.5420 -0.4811  0.4544
 4858TIP3   OH214579   3.807   4.104   0.845 -0.5088 -0.4961  0.1547
 4858TIP3    H114580   3.795   4.189   0.804  1.5487  0.1348  0.7101
 4858TIP3    H214581   3.767   4.113   0.932  0.3083  0.1760  0.4767
 4859TIP3   OH214582   1.549   1.640   3.905  0.1477  0.4704  0.3026
 4859TIP3    H114583   1.626   1.696   3.909 -0.0314  0.6842  0.9351
 4859TIP3    H214584   1.491   1.675   3.972 -0.0108 -0.4149  0.6394
 4860TIP3   OH214585   2.623   4.851   0.740 -0.1566 -0.0730  0.3075
 4860TIP3    H114586   2.591   4.857   0.830 -1.0408  2.4125 -0.0971
 4860TIP3    H214587   2.699   4.910   0.737 -0.3546  0.1494 -0.6580
 4861TIP3   OH214588   4.567   3.303   3.727 -0.1772 -0.3638 -0.0292
 4861TIP3    H114589   4.588   3.393   3.702 -0.1271 -0.4047 -0.1401
 4861TIP3    H214590   4.641   3.274   3.779  0.9104 -1.0856 -1.8544
 4862TIP3   OH214591   3.417   1.697   5.089  0.1722 -0.2051 -0.1171
 4862TIP3    H114592   3.394   1.642   5.014  1.1438 -0.0022 -0.5929
 4862TIP3    H214593   3.469   1.640   5.145 -1.2727 -0.6102  0.8572
 4863TIP3   OH214594   0.979   0.352   2.343  0.4254  0.0510  0.1703
 4863TIP3    H114595   1.050   0.309   2.391  1.3025  1.2726 -0.0020
 4863TIP3    H214596   1.009   0.354   2.252  0.1290  0.4898  0.0784
 4864TIP3   OH214597   3.186   5.342   1.706  0.0411 -0.0742  0.8212
 4864TIP3    H114598   3.244   5.330   1.631  1.3989  0.4287  1.7531
 4864TIP3    H214599   3.216   5.278   1.770 -1.7437 -1.1815  0.6073
 4865TIP3   OH214600   1.085   0.991   4.011 -0.1192 -0.0066  0.3798
 4865TIP3    H114601   1.107   1.038   3.931 -1.1671 -0.7414 -0.3575
 4865TIP3    H214602   1.014   1.041   4.051 -2.0062 -1.4730 -0.9748
 4866TIP3   OH214603   4.388   5.169   2.178  0.2273  0.4891 -0.0962
 4866TIP3    H114604   4.390   5.096   2.116 -1.7312 -0.4589  0.8817
 4866TIP3    H214605   4.298   5.201   2.175  0.7535  2.1118  0.3965
 4867TIP3   OH214606   2.061   5.924   2.213  0.1592 -0.2360 -0.1100
 4867TIP3    H114607   2.000   5.934   2.140  0.5505 -0.3472 -0.4535
 4867TIP3    H214608   2.029   5.986   2.279 -0.2732 -0.2330 -0.3210
 4868TIP3   OH214609   0.238   0.717   2.699 -0.1053 -0.5355 -0.2190
 4868TIP3    H114610   0.196   0.662   2.765 -2.0497 -0.2108 -1.1148
 4868TIP3    H214611   0.256   0.799   2.745  0.1526 -0.9022  0.3520
 4869TIP3   OH214612   0.877   1.210   1.470 -0.0476 -0.1139 -0.5449
 4869TIP3    H114613   0.799   1.156   1.457 -0.0702 -0.2497  0.1185
 4869TIP3    H214614   0.869   1.242   1.560 -0.2922  1.4256 -1.0799
 4870TIP3   OH214615   4.571   4.030   2.769 -0.3788 -0.2833 -0.1050
 4870TIP3    H114616   4.527   4.069   2.844 -0.6718 -1.4263  0.3395
 4870TIP3    H214617   4.663   4.052   2.781 -0.4315 -0.3898  0.5671
 4871TIP3   OH214618   3.509   2.205   3.590 -0.1842 -0.0788 -0.2494
 4871TIP3    H114619   3.525   2.128   3.646 -0.9048  1.0859  1.6624
 4871TIP3    H214620   3.507   2.170   3.501  0.6598 -2.0919  0.4543
 4872TIP3   OH214621   2.926   5.021   2.445 -0.2469  0.4643 -0.2953
 4872TIP3    H114622   2.925   4.989   2.535 -1.3913 -0.1182 -0.4902
 4872TIP3    H214623   2.835   5.048   2.429 -0.3514 -0.6157 -1.6800
 4873TIP3   OH214624   1.673   1.722   2.296 -0.0064 -0.2772  0.3986
 4873TIP3    H114625   1.709   1.713   2.384  2.2370 -2.0613 -0.5860
 4873TIP3    H214626   1.727   1.663   2.242 -2.0179 -0.1081 -1.9682
 4874TIP3   OH214627   0.087   1.644   2.891 -0.5223  0.3738 -0.3325
 4874TIP3    H114628  -0.003   1.677   2.881 -1.1999 -0.7800  1.5338
 4874TIP3    H214629   0.137   1.720   2.921 -0.8447  1.0214 -1.3641
 4875TIP3   OH214630   4.066   3.255   3.287 -0.0489 -0.1659 -0.0863
 4875TIP3    H114631   4.026   3.288   3.207 -0.2846 -0.9938 -0.3187
 4875TIP3    H214632   4.129   3.322   3.312 -0.2911  0.3054 -0.7174
 4876TIP3   OH214633   4.605   0.787   3.208 -0.3953 -0.2284 -0.0996
 4876TIP3    H114634   4.584   0.695   3.219 -1.8082  0.0297 -0.4196
 4876TIP3    H214635   4.677   0.788   3.144 -1.5413 -1.0471 -1.4657
 4877TIP3   OH214636   6.272   4.855   4.151  0.6839  0.3501 -0.3832
 4877TIP3    H114637   6.244   4.888   4.236  0.9696 -0.4054  0.0143
 4877TIP3    H214638   6.297   4.764   4.167  1.7074  0.4892 -1.0666
 4878TIP3   OH214639   2.878   4.484   1.745  0.3946  0.1937  0.1585
 4878TIP3    H114640   2.825   4.413   1.710 -0.1255  0.9596 -0.6367
 4878TIP3    H214641   2.822   4.561   1.740  0.9569  0.6814  0.9837
 4879TIP3   OH214642   5.144   3.528   4.225 -0.7615 -0.0111  0.1415
 4879TIP3    H114643   5.094   3.513   4.145 -0.7085  0.4274  0.0243
 4879TIP3    H214644   5.090   3.490   4.294 -1.0360  0.0386 -0.0419
 4880TIP3   OH214645   0.326   5.247   2.497  0.3746  0.1167 -0.0934
 4880TIP3    H114646   0.287   5.331   2.519  0.5245  0.0006  0.6359
 4880TIP3    H214647   0.313   5.239   2.402  1.0474  1.3164 -0.3110
 4881TIP3   OH214648   4.664   2.895   4.548  0.2067  0.0461 -0.1335
 4881TIP3    H114649   4.622   2.947   4.480  1.0441 -0.5056 -1.1186
 4881TIP3    H214650   4.627   2.807   4.537 -0.8825  0.3099  1.2351
 4882TIP3   OH214651   1.918   5.653   1.569  0.3673 -0.4439 -0.2498
 4882TIP3    H114652   1.971   5.663   1.490 -0.3185  0.0727 -0.6555
 4882TIP3    H214653   1.840   5.707   1.553 -0.7686 -1.9560 -0.0879
 4883TIP3   OH214654   6.000   0.290   1.402 -0.5429 -0.4030  0.6716
 4883TIP3    H114655   6.071   0.240   1.363  1.5364  0.3717  3.1804
 4883TIP3    H214656   6.037   0.377   1.416 -2.2100  0.2206  1.4596
 4884TIP3   OH214657   3.613   0.474   1.431 -0.1060 -0.0594 -0.0630
 4884TIP3    H114658   3.665   0.393   1.434 -0.7385 -0.4800 -0.2963
 4884TIP3    H214659   3.555   0.468   1.507 -0.7083 -0.2114 -0.5271
 4885TIP3   OH214660   4.733   2.910   3.186 -0.0577  0.3140  0.2591
 4885TIP3    H114661   4.778   2.880   3.265 -0.1664  2.2416  1.1174
 4885TIP3    H214662   4.767   2.998   3.171  0.7838 -0.3784 -2.5252
 4886TIP3   OH214663   1.992   2.988   2.461 -0.0052 -0.0744 -0.4949
 4886TIP3    H114664   1.930   3.058   2.480  0.2610 -0.0778  0.4457
 4886TIP3    H214665   1.991   2.980   2.366 -0.2317  1.0231 -0.5986
 4887TIP3   OH214666   4.862   2.410   3.656 -0.1458  0.3316 -0.5841
 4887TIP3    H114667   4.942   2.464   3.655 -0.0949  0.2437 -1.3272
 4887TIP3    H214668   4.893   2.323   3.682 -0.3429  0.8122  1.4474
 4888TIP3   OH214669   3.150   3.512   1.911  0.0715 -0.0779  0.2414
 4888TIP3    H114670   3.213   3.516   1.983  0.8491  0.5043 -0.4555
 4888TIP3    H214671   3.066   3.499   1.954  0.5385  0.1146  1.2497
 4889TIP3   OH214672   2.549   0.493   4.843 -0.1632  0.0594  0.6256
 4889TIP3    H114673   2.605   0.469   4.769 -0.7580  0.9770 -0.1557
 4889TIP3    H214674   2.569   0.585   4.859 -0.3422 -0.0250  1.3344
 4890TIP3   OH214675   2.749   2.942   2.008 -0.1200  0.4667 -0.2585
 4890TIP3    H114676   2.654   2.939   1.995 -0.1855  0.9692  0.0590
 4890TIP3    H214677   2.783   2.983   1.929 -0.2471  0.9875 -0.0494
 4891TIP3   OH214678   4.242   3.543   5.018 -0.1107  0.0984  0.2253
 4891TIP3    H114679   4.166   3.578   5.064  0.9955 -0.2914  2.5164
 4891TIP3    H214680   4.316   3.566   5.074  1.2814 -0.9527 -1.0939
 4892TIP3   OH214681   5.658   1.152   2.369  0.1300 -0.1162 -0.0337
 4892TIP3    H114682   5.626   1.237   2.337 -0.1388 -0.4015 -0.5317
 4892TIP3    H214683   5.626   1.089   2.305 -1.2319 -0.8361  1.2930
 4893TIP3   OH214684   3.185   1.184   2.510  0.0325 -0.3916  0.2493
 4893TIP3    H114685   3.174   1.136   2.428  0.6928 -0.2012  0.0395
 4893TIP3    H214686   3.129   1.138   2.573 -2.2001  0.7433 -0.8059
 4894TIP3   OH214687   1.796   4.599   0.868 -0.2853 -0.9971  0.7430
 4894TIP3    H114688   1.790   4.662   0.939 -1.0691 -0.1244 -0.0739
 4894TIP3    H214689   1.708   4.560   0.863 -0.5453 -0.3353 -0.3566
 4895TIP3   OH214690   5.380   2.594   0.200  0.6952 -0.5511 -0.0622
 4895TIP3    H114691   5.294   2.554   0.188 -0.6234  2.3928 -1.6242
 4895TIP3    H214692   5.442   2.526   0.176 -1.1886 -2.5324  0.3354
 4896TIP3   OH214693   6.123   2.811   5.058 -0.3075  0.0826 -0.4690
 4896TIP3    H114694   6.174   2.831   5.136 -1.1715 -0.3568  0.2295
 4896TIP3    H214695   6.065   2.886   5.047 -2.7414 -1.3957  1.4801
 4897TIP3   OH214696   4.381   2.216   1.686 -0.2462  0.8550 -0.1052
 4897TIP3    H114697   4.353   2.307   1.699 -1.5103  0.6293 -1.0195
 4897TIP3    H214698   4.322   2.183   1.618 -0.4393 -0.9309  0.8660
 4898TIP3   OH214699   0.598   4.351   3.571 -0.3228  0.2833 -0.3323
 4898TIP3    H114700   0.678   4.361   3.621  0.1750  1.0807 -1.2443
 4898TIP3    H214701   0.576   4.440   3.543 -0.9978 -0.0411 -0.8822
 4899TIP3   OH214702   6.294   1.672   3.987  0.1731  0.3091 -0.8915
 4899TIP3    H114703   6.211   1.623   3.988  1.6674 -2.4261  0.4887
 4899TIP3    H214704   6.303   1.706   4.076  0.4786  0.7567 -1.0890
 4900TIP3   OH214705   1.455   2.813   5.010  0.2276  0.1063  1.0080
 4900TIP3    H114706   1.383   2.828   5.071 -0.9365  0.2493 -0.3331
 4900TIP3    H214707   1.532   2.846   5.055 -0.1266 -1.9717  3.3588
 4901TIP3   OH214708   2.501   1.073   4.137  0.1161  0.5478  0.8787
 4901TIP3    H114709   2.504   1.019   4.216  0.8782  0.6452  0.9237
 4901TIP3    H214710   2.442   1.145   4.160 -0.2698  0.1732  1.0884
 4902TIP3   OH214711   3.215   5.624   1.237 -0.3482  0.0882  0.2884
 4902TIP3    H114712   3.213   5.658   1.326  0.5855 -0.8389  0.6847
 4902TIP3    H214713   3.293   5.569   1.234 -1.9439 -2.3055 -0.1813
 4903TIP3   OH214714   5.592   5.198   3.563 -0.3521 -0.2469  0.3656
 4903TIP3    H114715   5.647   5.129   3.527 -0.3258  0.0968 -0.2705
 4903TIP3    H214716   5.627   5.279   3.525 -0.3039  0.1383  1.1927
 4904TIP3   OH214717   5.292   2.810   4.697 -0.5784  0.5157  0.1373
 4904TIP3    H114718   5.310   2.716   4.692 -0.5956  0.3345  2.3462
 4904TIP3    H214719   5.302   2.831   4.790 -1.8564  2.4416 -0.1080
 4905TIP3   OH214720   0.223   3.437   4.316 -0.4392 -0.6598  0.2687
 4905TIP3    H114721   0.286   3.394   4.258 -0.9638 -1.8780  0.5549
 4905TIP3    H214722   0.241   3.530   4.308  0.5490 -0.9169 -0.6237
 4906TIP3   OH214723   4.074   2.098   1.136  0.0337  0.1204 -0.3150
 4906TIP3    H114724   4.155   2.048   1.129 -0.3393 -0.6487  0.6874
 4906TIP3    H214725   4.099   2.179   1.181  0.0614 -0.6364  1.0941
 4907TIP3   OH214726   6.141   2.115   4.433  0.0770  0.1929 -0.2276
 4907TIP3    H114727   6.229   2.088   4.407 -0.4447  0.1330 -2.0509
 4907TIP3    H214728   6.104   2.038   4.477 -0.2593 -1.0491 -2.5434
 4908TIP3   OH214729   5.259   2.807   2.072 -0.0949  0.8635 -0.5069
 4908TIP3    H114730   5.325   2.859   2.116  0.7267  0.8333 -1.6774
 4908TIP3    H214731   5.227   2.862   2.001 -1.2611  0.8353 -0.0309
 4909TIP3   OH214732   1.423   4.043   1.658 -0.5106 -0.0955 -0.6702
 4909TIP3    H114733   1.514   4.041   1.629 -0.4154  0.4052 -0.4238
 4909TIP3    H214734   1.395   4.133   1.643 -1.1154 -0.3654 -1.1823
 4910TIP3   OH214735   5.162   2.226   0.243  0.6730 -0.6146 -0.0420
 4910TIP3    H114736   5.172   2.305   0.189 -0.6544 -0.1107  0.4084
 4910TIP3    H214737   5.068   2.209   0.244  0.8323 -1.5612  0.7827
 4911TIP3   OH214738   1.727   1.867   4.076 -0.0050 -0.0328 -0.0309
 4911TIP3    H114739   1.720   1.917   4.157  1.8053 -0.8341  0.6717
 4911TIP3    H214740   1.653   1.897   4.023  0.1654  2.2925  0.9194
 4912TIP3   OH214741   1.143   3.726   2.801  0.1121 -0.6436 -0.3543
 4912TIP3    H114742   1.122   3.680   2.882  1.2139 -1.6448 -0.6160
 4912TIP3    H214743   1.239   3.733   2.801  0.0890 -0.0962 -1.2640
 4913TIP3   OH214744   2.614   0.114   0.122 -0.2806 -0.1152 -0.5101
 4913TIP3    H114745   2.620   0.038   0.063  0.0653  0.8905 -1.8307
 4913TIP3    H214746   2.520   0.125   0.137 -0.4146 -0.0585 -1.3336
 4914TIP3   OH214747   5.578   0.221   1.071  0.1414 -0.1641  0.1339
 4914TIP3    H114748   5.647   0.281   1.097 -0.8756  1.0662  0.0968
 4914TIP3    H214749   5.547   0.181   1.152 -1.2943  1.7531  0.5990
 4915TIP3   OH214750   0.907   4.294   0.881 -0.0655 -0.2448 -0.3224
 4915TIP3    H114751   0.884   4.378   0.840  3.6499  0.1178 -1.9742
 4915TIP3    H214752   0.920   4.234   0.808  3.7119 -0.4009  0.2902
 4916TIP3   OH214753   3.242   0.076   2.109 -0.0763 -0.3344  0.1677
 4916TIP3    H114754   3.264   0.051   2.199 -1.0143 -1.2117  0.1648
 4916TIP3    H214755   3.178   0.011   2.080 -0.0440  0.1330 -1.0250
 4917TIP3   OH214756   5.899   3.764   2.941 -0.5596 -0.6604  0.0322
 4917TIP3    H114757   5.949   3.784   3.020  0.0966 -1.7555 -0.0886
 4917TIP3    H214758   5.813   3.735   2.972 -0.3124 -1.0576  0.3394
 4918TIP3   OH214759   4.789   3.817   4.681  0.2895  0.3298  0.2579
 4918TIP3    H114760   4.747   3.737   4.712 -1.4967  0.7217 -1.0532
 4918TIP3    H214761   4.826   3.857   4.760 -0.1594 -0.9769  1.1542
 4919TIP3   OH214762   2.482   3.062   2.142  0.1040 -0.4670 -0.4059
 4919TIP3    H114763   2.483   2.986   2.084 -2.6700  0.1836 -1.4906
 4919TIP3    H214764   2.421   3.039   2.212  0.2264  0.2828 -0.0398
 4920TIP3   OH214765   0.864   2.968   2.618 -0.7360 -0.0712  0.3377
 4920TIP3    H114766   0.894   2.989   2.530  0.7910 -1.2784  0.5198
 4920TIP3    H214767   0.810   3.043   2.644 -2.3793 -0.3107 -2.1057
 4921TIP3   OH214768   2.828   0.538   2.175  0.4268  0.4620 -0.3098
 4921TIP3    H114769   2.818   0.551   2.269 -2.4163 -0.5874 -0.3873
 4921TIP3    H214770   2.812   0.444   2.162  0.9371  0.5604 -1.8502
 4922TIP3   OH214771   0.438   4.821   0.409  0.8737  0.3550  0.1704
 4922TIP3    H114772   0.365   4.824   0.470  0.4229 -0.5660 -0.3104
 4922TIP3    H214773   0.501   4.885   0.444  0.0553  0.8100  0.8450
 4923TIP3   OH214774   2.840   5.784   0.394  0.0599 -0.4963 -0.0947
 4923TIP3    H114775   2.754   5.807   0.359  0.0186  0.3935  0.5551
 4923TIP3    H214776   2.835   5.809   0.487  1.0261 -0.4242 -0.0553
 4924TIP3   OH214777   5.860   2.902   0.843  0.0837 -0.3449 -0.2915
 4924TIP3    H114778   5.864   2.996   0.860 -1.4048 -0.7097  2.7028
 4924TIP3    H214779   5.951   2.873   0.844  0.4899  0.8823 -0.2282
 4925TIP3   OH214780   0.217   4.393   4.218  0.1494  0.1780  0.3233
 4925TIP3    H114781   0.209   4.317   4.159 -0.1692  0.2918  0.2164
 4925TIP3    H214782   0.309   4.394   4.244  0.7819  1.2978 -1.7610
 4926TIP3   OH214783   6.094   2.440   0.152  0.2438 -0.8035  0.2567
 4926TIP3    H114784   6.152   2.456   0.227 -1.8742 -0.4131  1.9413
 4926TIP3    H214785   6.043   2.363   0.178 -0.3995 -0.7830 -0.8898
 4927TIP3   OH214786   5.242   0.641   1.326 -0.4450  0.4704  0.0564
 4927TIP3    H114787   5.282   0.672   1.408 -2.2766 -1.1458  1.6692
 4927TIP3    H214788   5.314   0.605   1.276  0.6709  1.0846  1.1636
 4928TIP3   OH214789   3.460   1.266   2.727  0.1633 -0.0707  0.4384
 4928TIP3    H114790   3.421   1.346   2.692 -0.6335  0.0655  1.5537
 4928TIP3    H214791   3.506   1.227   2.653  0.5665  1.4072 -0.1356
 4929TIP3   OH214792   0.510   2.814   2.569 -0.1388 -0.0848  0.3347
 4929TIP3    H114793   0.467   2.861   2.640 -1.7972  0.9564 -1.2624
 4929TIP3    H214794   0.496   2.868   2.491  0.7914 -1.6075 -0.9812
 4930TIP3   OH214795   0.746   5.900   4.991  0.2738 -0.3017 -0.1869
 4930TIP3    H114796   0.702   5.846   4.926  2.3158 -1.4142 -0.7268
 4930TIP3    H214797   0.825   5.931   4.948  0.5209  0.8695  1.0301
 4931TIP3   OH214798   4.742   0.754   4.477  0.7505 -0.0424  0.6287
 4931TIP3    H114799   4.716   0.838   4.439  0.4595 -0.2713  0.3136
 4931TIP3    H214800   4.837   0.759   4.485  1.0490 -0.6280 -1.7308
 4932TIP3   OH214801   3.832   1.059   2.718 -1.0980  0.7258  0.1770
 4932TIP3    H114802   3.743   1.066   2.684 -0.8357 -0.8606 -0.9960
 4932TIP3    H214803   3.881   1.017   2.647 -0.0543 -0.9367  1.7886
 4933TIP3   OH214804   4.895   4.229   4.746  0.0902  0.1880 -0.5180
 4933TIP3    H114805   4.880   4.183   4.829 -0.1111 -0.6997 -1.0316
 4933TIP3    H214806   4.859   4.317   4.760 -0.2484 -0.0595  0.2207
 4934TIP3   OH214807   1.596   1.314   4.069  0.1590 -0.1710 -0.2776
 4934TIP3    H114808   1.605   1.220   4.055 -1.1885 -0.7862  2.3324
 4934TIP3    H214809   1.681   1.341   4.106  0.3291 -0.4899 -0.4339
 4935TIP3   OH214810   3.894   3.155   0.680  0.4942 -0.0742  0.1709
 4935TIP3    H114811   3.920   3.069   0.647  0.3943 -0.5699  1.3447
 4935TIP3    H214812   3.887   3.210   0.601 -1.7442 -1.7124 -0.8976
 4936TIP3   OH214813   6.158   5.117   0.478 -0.5531  0.2911  0.9404
 4936TIP3    H114814   6.133   5.164   0.558 -1.0321 -0.0886  1.0245
 4936TIP3    H214815   6.179   5.028   0.508  2.6108  1.0037  1.1098
 4937TIP3   OH214816   4.411   3.574   3.245  0.1264  0.0490  0.0489
 4937TIP3    H114817   4.411   3.562   3.150 -1.6795  3.2128 -0.4993
 4937TIP3    H214818   4.337   3.522   3.276  0.6611 -0.9192 -0.2623
 4938TIP3   OH214819   1.372   4.719   3.798  0.7901 -0.1472  0.6500
 4938TIP3    H114820   1.323   4.660   3.855  2.1861  0.1047  2.2064
 4938TIP3    H214821   1.450   4.669   3.774  0.6251  0.0619 -0.3807
 4939TIP3   OH214822   0.916   2.968   2.927 -0.0704 -0.4762 -0.0036
 4939TIP3    H114823   1.002   2.933   2.902 -0.9925 -0.7213 -3.1669
 4939TIP3    H214824   0.853   2.910   2.884 -1.8522  0.1491  1.6264
 4940TIP3   OH214825   2.620   3.555   4.538 -0.4139  0.3753 -0.1056
 4940TIP3    H114826   2.560   3.573   4.466 -0.2738  0.4636 -0.1994
 4940TIP3    H214827   2.694   3.614   4.524  0.7884 -1.2876 -1.2957
 4941TIP3   OH214828   0.633   4.485   4.979 -0.2424  0.4777 -0.2877
 4941TIP3    H114829   0.695   4.430   4.930 -0.1515  0.4730 -0.1669
 4941TIP3    H214830   0.613   4.435   5.058  1.0697  1.2992  0.6049
 4942TIP3   OH214831   2.861   3.728   2.313 -0.0725  0.7528 -0.2217
 4942TIP3    H114832   2.808   3.757   2.239  0.3913 -0.4244 -1.0517
 4942TIP3    H214833   2.931   3.676   2.273 -1.0301 -1.7838  1.1398
 4943TIP3   OH214834   5.374   5.472   4.750  0.1650 -0.1977  0.4717
 4943TIP3    H114835   5.336   5.385   4.738  0.6928 -0.2843 -0.7498
 4943TIP3    H214836   5.439   5.479   4.680  0.0203  1.2392  0.4645
 4944TIP3   OH214837   2.549   5.870   1.780  0.2181 -0.3240 -0.4083
 4944TIP3    H114838   2.509   5.957   1.775  3.0300  1.0351 -0.7865
 4944TIP3    H214839   2.511   5.831   1.859 -0.3139  1.6734  0.3824
 4945TIP3   OH214840   2.573   3.917   1.122 -0.1775 -0.1027 -0.7216
 4945TIP3    H114841   2.613   3.996   1.084  1.5879 -0.6921 -0.1672
 4945TIP3    H214842   2.507   3.951   1.182  0.0641  0.9394 -1.0094
 4946TIP3   OH214843   4.850   4.465   1.813  0.3135 -0.2800  0.4901
 4946TIP3    H114844   4.825   4.557   1.823 -0.8597 -0.3122 -1.5294
 4946TIP3    H214845   4.810   4.438   1.730  1.8538 -2.2115  0.2967
 4947TIP3   OH214846   4.100   0.578   1.445 -0.2273 -0.2346  0.0157
 4947TIP3    H114847   4.014   0.613   1.468  0.0019  0.6600 -0.4361
 4947TIP3    H214848   4.105   0.494   1.491 -1.3569 -0.3195  0.0122
 4948TIP3   OH214849   5.161   2.200   4.104  0.0238  0.3897  0.2809
 4948TIP3    H114850   5.143   2.112   4.072  2.1209  0.4217 -1.2204
 4948TIP3    H214851   5.075   2.241   4.115 -0.9113 -1.0017 -1.4630
 4949TIP3   OH214852   4.793   1.902   0.512  0.0948  0.4724 -0.4239
 4949TIP3    H114853   4.829   1.875   0.427 -0.1829 -0.0134 -0.3932
 4949TIP3    H214854   4.826   1.991   0.525  0.4865  0.3939 -0.8443
 4950TIP3   OH214855   3.737   5.508   1.928 -0.2144  0.1943  1.0862
 4950TIP3    H114856   3.799   5.580   1.915 -0.7270  0.2380 -1.7303
 4950TIP3    H214857   3.651   5.550   1.933 -0.8954 -0.1498 -3.6004
 4951TIP3   OH214858   2.237   2.723   1.341  0.1866 -0.2750 -0.6081
 4951TIP3    H114859   2.190   2.667   1.402 -0.4235 -0.7765 -1.5210
 4951TIP3    H214860   2.271   2.795   1.395 -0.4456 -0.6413  0.2890
 4952TIP3   OH214861   3.606   3.262   2.272 -0.4044 -0.1936  0.4290
 4952TIP3    H114862   3.576   3.184   2.224  1.5885 -1.2276  0.7416
 4952TIP3    H214863   3.554   3.262   2.352 -2.2909  0.3469 -0.7550
 4953TIP3   OH214864   2.799   2.187   1.721  0.4538  0.0579  0.0345
 4953TIP3    H114865   2.827   2.277   1.736 -0.1036  0.2971 -0.3173
 4953TIP3    H214866   2.879   2.135   1.730  0.9530  0.6786 -0.6122
 4954TIP3   OH214867   3.864   4.039   4.225 -0.4005  0.0382  0.7761
 4954TIP3    H114868   3.919   3.961   4.237  1.3490  1.2581  1.1187
 4954TIP3    H214869   3.824   4.054   4.311 -1.0361 -0.6651  0.6139
 4955TIP3   OH214870   5.268   4.189   0.169 -0.5383 -0.1358  0.0381
 4955TIP3    H114871   5.296   4.139   0.092  0.3255  0.7185 -0.2273
 4955TIP3    H214872   5.246   4.123   0.234 -0.1266 -0.8621 -0.5388
 4956TIP3   OH214873   2.635   3.175   1.511 -0.0741  0.3398 -0.2160
 4956TIP3    H114874   2.620   3.233   1.585  1.2763 -0.5542  0.8071
 4956TIP3    H214875   2.547   3.152   1.480 -0.6609  0.5902  1.2082
 4957TIP3   OH214876   0.140   5.748   1.396  0.7236 -0.0712  0.0953
 4957TIP3    H114877   0.171   5.662   1.424  0.3933  0.1951  1.3375
 4957TIP3    H214878   0.206   5.779   1.334 -0.3972 -2.2706 -2.3689
 4958TIP3   OH214879   5.564   2.071   1.938  1.0342 -0.0203  0.0463
 4958TIP3    H114880   5.517   2.106   1.863 -1.2847 -1.7011  0.6336
 4958TIP3    H214881   5.497   2.054   2.003  2.9335  1.1464  2.4913
 4959TIP3   OH214882   5.096   1.070   4.449  0.5408  0.0662  0.2370
 4959TIP3    H114883   5.022   1.086   4.507 -0.3405 -0.6004 -0.6733
 4959TIP3    H214884   5.087   0.978   4.423  1.8987 -0.1306  0.3889
 4960TIP3   OH214885   0.853   4.137   0.666  0.2415  0.0297 -0.8292
 4960TIP3    H114886   0.852   4.063   0.605  0.2790  0.8398 -1.8502
 4960TIP3    H214887   0.805   4.206   0.619  0.1276  0.6189  0.1378
 4961TIP3   OH214888   0.562   5.354   3.874 -0.4300 -0.2153  0.6010
 4961TIP3    H114889   0.527   5.332   3.787  0.3040 -0.3274  0.3316
 4961TIP3    H214890   0.484   5.357   3.930 -0.7338 -2.1613  0.3752
 4962TIP3   OH214891   6.054   4.728   2.062 -0.8524  0.2106  0.2310
 4962TIP3    H114892   6.054   4.666   2.134  2.0431 -0.6483 -0.3938
 4962TIP3    H214893   6.116   4.796   2.088 -0.4756  0.3904 -1.0407
 4963TIP3   OH214894   2.170   4.963   2.519 -0.1331 -0.1462  0.0688
 4963TIP3    H114895   2.232   5.035   2.529  0.9041 -1.1482  1.2248
 4963TIP3    H214896   2.199   4.916   2.441 -0.1961  0.1177 -0.1117
 4964TIP3   OH214897   5.313   3.178   0.956 -0.4580  0.1560  0.0242
 4964TIP3    H114898   5.218   3.192   0.955 -1.0211 -2.7359  1.3007
 4964TIP3    H214899   5.340   3.211   1.042 -0.0352  1.9656 -0.7481
 4965TIP3   OH214900   2.606   4.218   0.025 -0.7230 -0.0924 -0.1865
 4965TIP3    H114901   2.583   4.229   0.117 -1.2544  0.6426 -0.3897
 4965TIP3    H214902   2.575   4.299  -0.016  0.3615  0.0082 -0.8475
 4966TIP3   OH214903   4.840   2.141   4.491  0.3215  0.8251 -0.2632
 4966TIP3    H114904   4.787   2.220   4.497  0.3980  0.8369  0.2612
 4966TIP3    H214905   4.785   2.078   4.443  0.1395  1.0861 -0.3969
 4967TIP3   OH214906   1.500   4.365   0.398 -0.4926 -0.1603  0.4879
 4967TIP3    H114907   1.494   4.370   0.493 -1.3266 -0.6779  0.4782
 4967TIP3    H214908   1.440   4.434   0.367  0.9284  1.0404  0.3201
 4968TIP3   OH214909   4.225   0.414   1.959 -0.0092  0.0168  0.2460
 4968TIP3    H114910   4.150   0.355   1.954 -0.3427  0.4247  0.3486
 4968TIP3    H214911   4.294   0.363   2.002 -0.9215  0.3312  2.1619
 4969TIP3   OH214912   5.591   3.213   1.489 -0.5581  0.4141  0.1263
 4969TIP3    H114913   5.552   3.127   1.505  0.3855 -0.1787 -0.6666
 4969TIP3    H214914   5.681   3.206   1.521 -0.8741  1.5962  1.4290
 4970TIP3   OH214915   4.050   1.486   0.307  0.1201 -0.5920 -0.0532
 4970TIP3    H114916   3.991   1.540   0.255 -0.2112  0.9991  1.8687
 4970TIP3    H214917   4.100   1.548   0.360 -0.3007 -2.1076  2.3023
 4971TIP3   OH214918   4.365   4.051   3.513  0.6282  0.0484  0.2949
 4971TIP3    H114919   4.407   4.124   3.469  0.8866 -0.0016  0.4576
 4971TIP3    H214920   4.373   3.978   3.451 -1.7805  0.7294 -0.9448
 4972TIP3   OH214921   4.436   5.704   1.573 -0.0040  0.2427  0.0468
 4972TIP3    H114922   4.455   5.767   1.643  1.8531 -1.4516  1.1682
 4972TIP3    H214923   4.517   5.699   1.523 -0.4812 -0.4430 -0.6771
 4973TIP3   OH214924   4.813   0.472   2.249  0.0638  0.1431 -0.4256
 4973TIP3    H114925   4.908   0.468   2.239 -0.0039  1.3624 -1.9374
 4973TIP3    H214926   4.787   0.550   2.200 -1.4756  1.2471  1.9095
 4974TIP3   OH214927   3.053   5.439   4.907 -0.0270  0.3535  0.0205
 4974TIP3    H114928   3.024   5.411   4.820 -0.3006  0.2809  0.1328
 4974TIP3    H214929   2.977   5.485   4.944 -0.2210 -0.3965  0.5681
 4975TIP3   OH214930   0.681   0.571   5.058 -0.4031  0.0570 -0.0984
 4975TIP3    H114931   0.641   0.515   4.992 -0.2487  0.2961 -0.3957
 4975TIP3    H214932   0.764   0.598   5.019 -0.4135  0.3785  0.1011
 4976TIP3   OH214933   4.547   1.387   4.250  0.3584 -0.6277 -0.0526
 4976TIP3    H114934   4.506   1.474   4.256  2.6732  0.4760  4.0557
 4976TIP3    H214935   4.586   1.385   4.163 -0.9762  1.8311 -0.8168
 4977TIP3   OH214936   0.862   3.385   2.273 -0.0759  0.0686  0.0686
 4977TIP3    H114937   0.808   3.452   2.232 -1.0880 -1.1657 -0.7058
 4977TIP3    H214938   0.947   3.427   2.287 -1.2052  2.1098  1.3959
 4978TIP3   OH214939   4.870   1.452   4.922  0.0738 -0.0465  0.1653
 4978TIP3    H114940   4.795   1.437   4.980  0.4020  3.6514  1.7747
 4978TIP3    H214941   4.847   1.529   4.871  2.1184  0.2157 -0.4749
 4979TIP3   OH214942   6.212   4.040   4.990  0.0725 -0.4029 -0.0670
 4979TIP3    H114943   6.175   3.985   4.920  0.8123 -0.2140 -0.6269
 4979TIP3    H214944   6.140   4.097   5.017 -0.6111 -1.4072  0.2785
 4980TIP3   OH214945   2.830   1.366   1.813  0.3689  0.2388  0.0963
 4980TIP3    H114946   2.897   1.419   1.770  1.6567 -0.1661  1.4775
 4980TIP3    H214947   2.749   1.416   1.804  1.2708  1.7450  0.1268
 4981TIP3   OH214948   5.479   0.451   4.767  0.0326  0.0060  0.0915
 4981TIP3    H114949   5.410   0.512   4.740 -0.8759 -0.8211  0.4981
 4981TIP3    H214950   5.481   0.457   4.863  0.5481  0.0392  0.0837
 4982TIP3   OH214951   3.174   5.922   2.260  0.0523  0.6137 -0.1749
 4982TIP3    H114952   3.171   5.859   2.332  0.3986 -1.1050 -1.5839
 4982TIP3    H214953   3.092   5.908   2.212  0.3271  0.9276 -0.7475
 4983TIP3   OH214954   4.589   5.792   1.976  0.0556 -0.0868  0.2426
 4983TIP3    H114955   4.501   5.764   1.951  0.1762  0.1111 -0.3956
 4983TIP3    H214956   4.613   5.732   2.048 -0.5646 -0.1846  0.3740
 4984TIP3   OH214957   3.653   5.200   3.218  0.3031 -0.3419 -0.3187
 4984TIP3    H114958   3.694   5.283   3.242  0.5282 -0.4844 -0.2004
 4984TIP3    H214959   3.723   5.152   3.174 -0.2812  0.1935 -1.9096
 4985TIP3   OH214960   2.829   4.565   0.599  0.0709 -0.2416 -0.2499
 4985TIP3    H114961   2.881   4.639   0.629 -0.2828  0.8736 -2.1751
 4985TIP3    H214962   2.890   4.491   0.595  1.2290  0.7348 -1.2694
 4986TIP3   OH214963   2.536   1.880   2.024 -0.0069  0.5965 -0.0290
 4986TIP3    H114964   2.445   1.857   2.002 -0.0584  1.0015 -0.2455
 4986TIP3    H214965   2.568   1.928   1.948  0.1684  1.0509  0.3268
 4987TIP3   OH214966   1.253   4.651   1.986 -0.5869  0.6181  0.2261
 4987TIP3    H114967   1.158   4.644   1.978 -0.6803  0.8163  1.0750
 4987TIP3    H214968   1.286   4.568   1.950 -1.1810 -0.1646  1.4035
 4988TIP3   OH214969   3.678   0.963   2.109 -0.3871  0.4676 -0.4179
 4988TIP3    H114970   3.697   0.957   2.015  1.1516  0.9285 -0.1553
 4988TIP3    H214971   3.763   0.955   2.151 -1.0134  0.7079  0.9313
 4989TIP3   OH214972   1.904   4.530   3.648 -0.1698 -0.1178  0.0452
 4989TIP3    H114973   1.845   4.605   3.652  0.1671  0.1523 -0.0452
 4989TIP3    H214974   1.991   4.567   3.663  0.4021 -0.0416 -2.9432
 4990TIP3   OH214975   3.471   1.856   4.841  0.2560 -0.4818  0.4597
 4990TIP3    H114976   3.391   1.805   4.832  0.0253 -0.1282  0.5014
 4990TIP3    H214977   3.530   1.799   4.891 -0.1395 -0.5487  0.8488
 4991TIP3   OH214978   4.740   1.763   1.703  0.4722  0.1963 -0.3480
 4991TIP3    H114979   4.801   1.837   1.703  0.7611 -0.0390  0.3091
 4991TIP3    H214980   4.657   1.800   1.674  0.3872  0.9723  0.8364
 4992TIP3   OH214981   2.810   1.808   3.270  0.1763 -0.5596  0.3398
 4992TIP3    H114982   2.775   1.734   3.319  1.1446 -0.1845  1.6466
 4992TIP3    H214983   2.768   1.802   3.184 -1.0695 -1.6105  0.9947
 4993TIP3   OH214984   0.081   0.152   4.661 -0.3013  0.2535 -0.8243
 4993TIP3    H114985  -0.005   0.192   4.646 -0.6164 -0.4976 -1.0728
 4993TIP3    H214986   0.066   0.058   4.651  0.2321 -0.0137  0.6643
 4994TIP3   OH214987   1.014   4.920   1.760 -0.2404 -0.3608 -0.0124
 4994TIP3    H114988   0.926   4.898   1.792 -0.6485 -1.1471 -1.6062
 4994TIP3    H214989   0.999   4.967   1.678  0.8358 -0.4350 -0.2618
 4995TIP3   OH214990   4.667   5.035   3.827  0.2706 -0.0108 -0.4703
 4995TIP3    H114991   4.744   5.010   3.775  0.1971  0.3562 -0.7629
 4995TIP3    H214992   4.702   5.058   3.913  0.2934 -1.5015 -0.0574
 4996TIP3   OH214993   3.473   5.852   1.951  0.0232  0.1017 -0.2156
 4996TIP3    H114994   3.472   5.823   2.042  1.7577 -0.3144 -0.2956
 4996TIP3    H214995   3.548   5.912   1.945 -0.3029  0.4377 -1.2826
 4997TIP3   OH214996   6.186   0.054   5.098 -0.3179  0.1753 -0.4062
 4997TIP3    H114997   6.279   0.032   5.105 -0.5762 -1.3826 -1.2771
 4997TIP3    H214998   6.185   0.145   5.067  0.9236 -0.0185 -1.0813
 4998TIP3   OH214999   4.970   3.471   3.696 -0.2229  0.6184  0.0153
 4998TIP3    H115000   5.027   3.511   3.761 -0.1647 -3.1558  2.5488
 4998TIP3    H215001   4.882   3.500   3.720  0.0085  1.1154  0.2775
 4999TIP3   OH215002   5.704   0.806   1.702  0.1422  0.5731 -0.2796
 4999TIP3    H115003   5.762   0.875   1.668 -0.0919  0.5585 -0.7271
 4999TIP3    H215004   5.697   0.744   1.630  1.0111 -0.3468  0.4115
 5000TIP3   OH215005   0.504   3.452   4.648  0.0738  0.5225  0.6877
 5000TIP3    H115006   0.545   3.492   4.571 -0.0802  1.6672  1.1675
 5000TIP3    H215007   0.436   3.395   4.612  1.2660 -0.4831 -0.0742
 5001TIP3   OH215008   1.164   1.158   3.792  0.0518  0.4639 -0.7580
 5001TIP3    H115009   1.103   1.101   3.744  0.4174 -1.2855  0.7471
 5001TIP3    H215010   1.251   1.133   3.761  0.1617  1.2586 -1.1351
 5002TIP3   OH215011   2.874   5.093   0.812 -0.0491  0.1707  0.1234
 5002TIP3    H115012   2.927   5.072   0.735 -1.3906 -0.9265 -0.5449
 5002TIP3    H215013   2.922   5.056   0.885  0.2481 -0.5816 -0.4413
 5003TIP3   OH215014   6.234   5.817   0.245 -0.1309 -0.5389 -0.4495
 5003TIP3    H115015   6.237   5.868   0.164 -0.1239 -0.4096 -0.3665
 5003TIP3    H215016   6.324   5.784   0.255  0.8779  2.4462  1.4493
 5004TIP3   OH215017   3.048   4.454   3.685  0.1644  0.5246 -0.8392
 5004TIP3    H115018   2.979   4.435   3.748  0.5471 -1.5525 -0.9874
 5004TIP3    H215019   3.015   4.530   3.636 -0.0871  2.2734  1.8497
 5005TIP3   OH215020   0.558   0.875   1.210 -0.1450  0.0607  0.4884
 5005TIP3    H115021   0.626   0.921   1.259 -0.0093 -0.2014  0.5425
 5005TIP3    H215022   0.476   0.915   1.240 -0.0075  0.4776  0.3144
 5006TIP3   OH215023   3.465   4.572   1.638  0.1669 -0.1967 -0.3965
 5006TIP3    H115024   3.541   4.630   1.634  1.5658 -1.8954  0.0427
 5006TIP3    H215025   3.476   4.524   1.720 -1.7459 -0.0435 -0.0213
 5007TIP3   OH215026   1.973   4.633   4.756 -0.4219 -0.0781  0.0833
 5007TIP3    H115027   1.929   4.552   4.784  3.0787 -2.1290  0.2774
 5007TIP3    H215028   1.989   4.681   4.837 -1.8894  0.5274  0.0431
 5008TIP3   OH215029   4.718   4.468   0.995 -0.5772  0.7974  0.3681
 5008TIP3    H115030   4.773   4.396   1.027 -0.4566  1.0943  0.8597
 5008TIP3    H215031   4.666   4.430   0.925  0.6428  0.6299 -0.4911
 5009TIP3   OH215032   0.589   3.308   3.256 -0.3087  0.1025  0.2050
 5009TIP3    H115033   0.641   3.271   3.184  1.7250  1.2882  0.9807
 5009TIP3    H215034   0.525   3.239   3.277  0.6397 -1.2518 -1.1142
 5010TIP3   OH215035   4.648   5.308   2.123 -0.1951 -0.2144  0.4694
 5010TIP3    H115036   4.715   5.245   2.097  0.7710  1.0155 -0.1560
 5010TIP3    H215037   4.565   5.266   2.101  0.4079 -1.3848  0.3697
 5011TIP3   OH215038   4.860   0.517   4.159  0.0603  0.5606 -0.1446
 5011TIP3    H115039   4.823   0.586   4.103 -2.2749  1.6504  2.4914
 5011TIP3    H215040   4.789   0.453   4.168  0.3603  0.4227  1.5208
 5012TIP3   OH215041   5.928   3.630   3.951 -0.1537 -0.1972  0.0412
 5012TIP3    H115042   5.933   3.659   4.042 -0.0440  0.0912 -0.0561
 5012TIP3    H215043   6.001   3.674   3.908 -0.6754  0.2857 -0.3613
 5013TIP3   OH215044   3.275   4.003   0.568 -0.8637  0.6512  0.0761
 5013TIP3    H115045   3.351   3.949   0.591 -1.4903 -0.2290  0.1041
 5013TIP3    H215046   3.313   4.085   0.538  0.1628 -0.2704 -1.2517
 5014TIP3   OH215047   0.357   0.716   4.161  0.0288  0.3736 -0.2047
 5014TIP3    H115048   0.334   0.720   4.254  0.5030  1.3733 -0.1141
 5014TIP3    H215049   0.274   0.702   4.116 -0.2384  0.1357  0.3519
 5015TIP3   OH215050   4.633   3.679   3.018 -0.3312 -0.3361  0.4118
 5015TIP3    H115051   4.601   3.767   3.039 -1.1065 -0.6995  0.7880
 5015TIP3    H215052   4.677   3.650   3.098  1.5881  0.4152 -0.3066
 5016TIP3   OH215053   5.053   2.493   1.073 -0.3511 -0.1377  0.0917
 5016TIP3    H115054   5.043   2.552   1.147 -1.7161  1.1012 -1.0209
 5016TIP3    H215055   4.973   2.503   1.022  0.4928 -1.0022 -1.5274
 5017TIP3   OH215056   1.784   3.578   2.160  0.1817 -0.7827 -0.0931
 5017TIP3    H115057   1.871   3.614   2.141  0.1715 -0.8957 -0.3696
 5017TIP3    H215058   1.725   3.653   2.153  0.5168 -0.2256  2.3508
 5018TIP3   OH215059   6.182   4.537   0.653 -0.7450 -0.2199  0.5077
 5018TIP3    H115060   6.180   4.449   0.616 -0.6593 -0.6560  1.5199
 5018TIP3    H215061   6.145   4.592   0.584  0.1787 -0.8771 -0.5589
 5019TIP3   OH215062   1.452   3.410   4.423 -0.2605 -0.1023 -0.6302
 5019TIP3    H115063   1.501   3.410   4.505  0.5240  0.1349 -1.0841
 5019TIP3    H215064   1.483   3.488   4.377 -0.4696 -0.4013 -1.2840
 5020TIP3   OH215065   1.459   1.287   3.035 -0.3590  0.1707  0.2907
 5020TIP3    H115066   1.366   1.297   3.011 -0.4726 -0.1391  0.5919
 5020TIP3    H215067   1.466   1.197   3.066  0.2197 -0.0690 -0.5029
 5021TIP3   OH215068   0.197   3.206   3.782  0.6835  0.5028  0.2292
 5021TIP3    H115069   0.102   3.199   3.793  0.8593 -1.0615  1.0281
 5021TIP3    H215070   0.210   3.292   3.742 -1.0672  0.7258  0.0513
 5022TIP3   OH215071   4.788   5.370   1.066  0.3093  0.7030 -0.3070
 5022TIP3    H115072   4.695   5.358   1.085  0.2386 -0.5757 -1.2779
 5022TIP3    H215073   4.792   5.380   0.971  1.2240 -0.1480 -0.3740
 5023TIP3   OH215074   6.265   1.022   4.913  0.2331  0.1703  0.1042
 5023TIP3    H115075   6.308   1.100   4.878 -2.0708  2.0737  1.2125
 5023TIP3    H215076   6.200   0.999   4.846  1.2322 -1.1318 -0.4395
 5024TIP3   OH215077   1.238   1.526   1.883  0.5227  0.0720  0.0573
 5024TIP3    H115078   1.169   1.584   1.916  1.5638  1.7422 -0.5709
 5024TIP3    H215079   1.259   1.470   1.958  0.7694  1.7746  1.3359
 5025TIP3   OH215080   6.313   2.600   1.432 -0.3135  0.0934 -0.1041
 5025TIP3    H115081   6.228   2.644   1.439 -0.2379  0.0297  1.5760
 5025TIP3    H215082   6.345   2.625   1.345 -0.9349  2.1570  0.1938
 5026TIP3   OH215083   2.705   5.209   2.362  0.3022  0.0400 -0.1732
 5026TIP3    H115084   2.713   5.284   2.304 -0.9263 -0.4471 -1.0178
 5026TIP3    H215085   2.680   5.248   2.447 -0.4591  0.5860 -0.6317
 5027TIP3   OH215086   1.268   3.812   3.040 -0.1648 -0.5663  0.0605
 5027TIP3    H115087   1.207   3.741   3.021 -1.1428 -0.2822  1.9190
 5027TIP3    H215088   1.254   3.832   3.132  1.6004  0.6256  0.1262
 5028TIP3   OH215089   4.094   1.205   2.270 -0.6999 -0.6784 -0.4695
 5028TIP3    H115090   4.121   1.115   2.253 -0.0853 -0.6715  0.4413
 5028TIP3    H215091   4.114   1.220   2.362  0.5625  0.8667 -0.9529
 5029TIP3   OH215092   0.281   0.705   0.065 -0.2447 -0.0296  0.4404
 5029TIP3    H115093   0.350   0.663   0.117 -1.6743 -1.0112  1.6332
 5029TIP3    H215094   0.202   0.695   0.118 -0.9233  3.2118  0.2803
 5030TIP3   OH215095   0.493   5.760   0.812 -0.2308  0.1861  0.8310
 5030TIP3    H115096   0.403   5.772   0.843 -0.3753 -1.6886  1.2824
 5030TIP3    H215097   0.490   5.678   0.762  0.7953  1.2466 -1.0751
 5031TIP3   OH215098   3.375   1.262   2.323  0.2586  0.2667 -0.1004
 5031TIP3    H115099   3.445   1.312   2.364 -0.3228  1.0173 -0.0059
 5031TIP3    H215100   3.319   1.234   2.396 -0.4510  1.1022 -0.3008
 5032TIP3   OH215101   5.109   1.345   1.716  0.0680  0.1195  0.5299
 5032TIP3    H115102   5.142   1.435   1.725  0.5151 -0.2083  2.7654
 5032TIP3    H215103   5.025   1.345   1.761  0.0095 -0.5588  0.4349
 5033TIP3   OH215104   3.890   1.335   2.551  0.0484 -0.6412  0.0941
 5033TIP3    H115105   3.900   1.419   2.595  0.6452 -0.7279  0.1254
 5033TIP3    H215106   3.976   1.295   2.555  0.0405 -0.7801 -0.9067
 5034TIP3   OH215107   2.713   2.003   5.105  0.0236  0.3180 -0.0326
 5034TIP3    H115108   2.699   1.986   5.198 -0.6449 -0.6414 -0.2950
 5034TIP3    H215109   2.680   2.092   5.091 -2.9136 -0.6609  0.0390
 5035TIP3   OH215110   0.969   4.325   3.060 -0.4720 -0.3299  0.1890
 5035TIP3    H115111   1.029   4.257   3.029 -0.1100  0.4021 -0.7617
 5035TIP3    H215112   1.022   4.405   3.063 -0.6990 -0.2134  2.0086
 5036TIP3   OH215113   4.465   0.266   0.404  1.0744 -0.1546 -0.4035
 5036TIP3    H115114   4.544   0.287   0.355  1.7539  0.1597  0.8103
 5036TIP3    H215115   4.396   0.261   0.337  2.1337 -0.6204 -1.4929
 5037TIP3   OH215116   5.200   0.782   3.358 -0.1664 -0.0073 -0.1820
 5037TIP3    H115117   5.105   0.775   3.354 -0.1140 -0.3215 -1.8449
 5037TIP3    H215118   5.222   0.846   3.290  0.8239 -0.3358 -0.1869
 5038TIP3   OH215119   0.845   4.043   1.406 -0.8292 -0.0148 -0.0433
 5038TIP3    H115120   0.821   4.135   1.413 -0.9566  0.0406 -0.9857
 5038TIP3    H215121   0.825   4.006   1.491 -1.4347  0.6781  0.1269
 5039TIP3   OH215122   1.371   0.199   4.865 -0.0119  0.4635  0.2079
 5039TIP3    H115123   1.378   0.288   4.829  1.1025  0.5704  0.6377
 5039TIP3    H215124   1.390   0.142   4.790  0.2072  0.6249  0.1366
 5040TIP3   OH215125   5.740   4.551   0.938 -0.3113  0.4023  0.5529
 5040TIP3    H115126   5.807   4.529   0.873 -1.6483 -1.4017 -0.3212
 5040TIP3    H215127   5.788   4.562   1.020  1.3205  1.8915 -0.5523
 5041TIP3   OH215128   0.151   1.187   2.183  0.0212  0.2603 -0.0730
 5041TIP3    H115129   0.113   1.101   2.166  1.0702  0.4321 -4.4894
 5041TIP3    H215130   0.239   1.169   2.214 -0.7212 -0.1338  1.9726
 5042TIP3   OH215131   0.281   1.974   1.139  0.8228  0.0916 -0.1939
 5042TIP3    H115132   0.354   2.003   1.194 -0.0633  1.9173  0.0687
 5042TIP3    H215133   0.296   2.017   1.055  0.2493  0.1932 -0.2466
 5043TIP3   OH215134   5.074   0.373   2.214  0.1545  0.3652  0.0657
 5043TIP3    H115135   5.137   0.394   2.283  1.4632 -0.3284 -0.8843
 5043TIP3    H215136   5.122   0.315   2.155 -1.2923  0.0691 -0.8493
 5044TIP3   OH215137   0.977   1.017   3.629 -0.2287  0.4966  0.3620
 5044TIP3    H115138   0.886   1.045   3.637 -1.0543 -0.4098 -3.6228
 5044TIP3    H215139   0.972   0.927   3.597  2.0393  0.4751 -0.1096
 5045TIP3   OH215140   1.743   2.275   1.305 -0.3852 -0.2692 -0.2182
 5045TIP3    H115141   1.650   2.252   1.306 -0.9699  1.8645  0.4824
 5045TIP3    H215142   1.744   2.370   1.295  1.6436  0.0963  2.3540
 5046TIP3   OH215143   5.461   5.935   4.205 -0.0870  0.4140 -0.0850
 5046TIP3    H115144   5.450   5.899   4.118  0.0373 -0.0626  0.0946
 5046TIP3    H215145   5.385   5.904   4.254  0.5302 -0.4686  0.3512
 5047TIP3   OH215146   5.776   2.647   0.788 -0.1840  0.4873  0.1004
 5047TIP3    H115147   5.778   2.594   0.867 -2.3228  1.3583  0.7926
 5047TIP3    H215148   5.838   2.718   0.805  1.4746 -0.8171 -0.1914
 5048TIP3   OH215149   5.314   0.101   0.803 -0.4738 -0.0605 -0.1140
 5048TIP3    H115150   5.396   0.058   0.827 -0.1552  0.5420 -0.1049
 5048TIP3    H215151   5.246   0.043   0.836 -0.0628  0.5983  2.0545
 5049TIP3   OH215152   5.344   3.507   3.100 -0.1384 -0.1186 -0.2004
 5049TIP3    H115153   5.374   3.588   3.059 -0.3382 -0.2652 -0.6406
 5049TIP3    H215154   5.335   3.529   3.193  0.3956  0.1893 -0.2213
 5050TIP3   OH215155   4.175   3.004   0.406  0.0961  0.3956  0.8337
 5050TIP3    H115156   4.246   3.049   0.360 -1.0420  0.4706 -0.9846
 5050TIP3    H215157   4.216   2.964   0.482  2.5183 -1.3106 -1.2233
 5051TIP3   OH215158   1.508   0.882   0.434 -0.2552 -0.1724  0.3919
 5051TIP3    H115159   1.444   0.848   0.371  0.6647 -0.7622 -0.2455
 5051TIP3    H215160   1.583   0.908   0.380  0.2652 -0.0183  1.1818
 5052TIP3   OH215161   4.272   2.220   2.142  0.1233 -0.4624  0.2825
 5052TIP3    H115162   4.283   2.159   2.216  1.7780  0.0464  0.5090
 5052TIP3    H215163   4.264   2.163   2.065 -1.2933 -0.9890  0.7887
 5053TIP3   OH215164   0.514   0.115   4.127  0.5085 -0.6964 -0.5997
 5053TIP3    H115165   0.555   0.166   4.057  2.2608  0.1389  0.9465
 5053TIP3    H215166   0.420   0.126   4.112  0.7503  3.2832 -0.2765
 5054TIP3   OH215167   4.576   1.331   3.109  0.0673 -0.3954  0.0412
 5054TIP3    H115168   4.656   1.293   3.144  0.4618 -0.8185 -1.2466
 5054TIP3    H215169   4.561   1.408   3.163 -0.2386 -1.8360  2.1088
 5055TIP3   OH215170   2.009   3.955   0.589 -0.4143 -0.3018 -0.1892
 5055TIP3    H115171   2.025   4.038   0.634  0.9442 -0.4216 -0.4074
 5055TIP3    H215172   1.936   3.974   0.530  0.5499  1.0556 -1.0138
 5056TIP3   OH215173   0.671   3.809   0.507  0.3716 -0.0099 -0.1324
 5056TIP3    H115174   0.664   3.764   0.422 -0.9387  0.6819 -0.4102
 5056TIP3    H215175   0.610   3.882   0.501 -0.0720 -0.1974  1.5678
 5057TIP3   OH215176   2.980   4.323   4.523 -0.2278 -0.2919  0.2466
 5057TIP3    H115177   2.958   4.416   4.525  0.0187 -0.2126 -0.5107
 5057TIP3    H215178   3.073   4.321   4.503 -0.4250 -0.7223 -0.6568
 5058TIP3   OH215179   0.079   3.472   1.898 -0.1807 -0.4534  0.2218
 5058TIP3    H115180   0.105   3.487   1.807 -2.0483  2.2645  0.0112
 5058TIP3    H215181   0.088   3.557   1.940 -0.3663 -1.4119  2.3353
 5059TIP3   OH215182   0.456   5.428   4.149 -0.5852 -0.1151 -0.5997
 5059TIP3    H115183   0.489   5.379   4.225  0.4742 -3.1053 -2.7827
 5059TIP3    H215184   0.488   5.517   4.161 -0.1808 -0.5541  2.2369
 5060TIP3   OH215185   6.316   5.322   1.773 -0.1796 -0.1162 -0.3328
 5060TIP3    H115186   6.344   5.236   1.743  0.6444  0.3578 -0.9630
 5060TIP3    H215187   6.373   5.384   1.727  0.4082  0.7006  1.4108
 5061TIP3   OH215188   4.574   2.967   4.845  0.6223  0.2976  0.8037
 5061TIP3    H115189   4.538   3.048   4.811 -0.7414 -0.1583  1.1176
 5061TIP3    H215190   4.602   2.918   4.767  2.9034  1.6674  0.6725
 5062TIP3   OH215191   0.233   5.852   3.052 -0.2076  0.2881 -0.2659
 5062TIP3    H115192   0.199   5.764   3.037  0.8872  0.2064 -2.8748
 5062TIP3    H215193   0.249   5.856   3.146  0.5390 -2.6321 -0.1759
 5063TIP3   OH215194   4.344   0.648   2.355  0.0976  0.1268 -0.1067
 5063TIP3    H115195   4.285   0.671   2.426 -0.1068 -2.3426  0.6429
 5063TIP3    H215196   4.354   0.728   2.304 -0.9038  1.5889  1.8696
 5064TIP3   OH215197   0.304  -0.025   3.741 -0.1793  0.2379 -0.0087
 5064TIP3    H115198   0.313   0.052   3.797 -1.4284  0.3935  0.0184
 5064TIP3    H215199   0.244   0.003   3.671  0.3338 -0.3439 -0.7019
 5065TIP3   OH215200   2.972   0.868   3.325 -0.0808  0.1102  0.2547
 5065TIP3    H115201   2.983   0.936   3.259 -0.1751  0.3684  0.5004
 5065TIP3    H215202   3.059   0.831   3.336  0.0250  0.3711  0.3081
 5066TIP3   OH215203   5.841   1.024   0.198  0.1291  0.0218  0.4533
 5066TIP3    H115204   5.891   1.078   0.259 -0.5385  0.0318  1.0107
 5066TIP3    H215205   5.849   0.935   0.233  1.4196 -0.2983 -0.5915
 5067TIP3   OH215206   4.609   5.363   0.124 -0.6532  0.6346 -0.1491
 5067TIP3    H115207   4.603   5.365   0.220  0.8432  0.5171 -0.0251
 5067TIP3    H215208   4.589   5.272   0.102 -1.5170  0.7849  0.0070
 5068TIP3   OH215209   5.836   2.859   1.638 -0.0825 -0.1847 -0.1503
 5068TIP3    H115210   5.782   2.926   1.680  1.6752  1.5003 -0.4437
 5068TIP3    H215211   5.904   2.839   1.702  0.5218 -0.2630 -0.8037
 5069TIP3   OH215212   1.448   0.407   0.584  0.3125  0.0721  0.0401
 5069TIP3    H115213   1.501   0.451   0.517 -0.5264  1.4214  0.2389
 5069TIP3    H215214   1.375   0.466   0.600 -0.5104 -1.1076  0.8004
 5070TIP3   OH215215   2.256   0.338   3.588  0.1262 -0.1576 -0.3782
 5070TIP3    H115216   2.204   0.315   3.665 -1.3852 -0.3766 -1.4178
 5070TIP3    H215217   2.347   0.327   3.617 -0.4201 -2.0920  0.8285
 5071TIP3   OH215218   5.524   1.790   4.565  0.1846 -0.6929  0.5062
 5071TIP3    H115219   5.607   1.814   4.604  0.3738  1.2328 -0.9570
 5071TIP3    H215220   5.459   1.808   4.633  0.6093  1.5032  0.3853
 5072TIP3   OH215221   2.385   1.795   3.198 -0.3167 -0.0743  0.0874
 5072TIP3    H115222   2.385   1.740   3.120 -0.6437 -0.1071  0.1105
 5072TIP3    H215223   2.380   1.733   3.271 -0.4140 -0.0252  0.1219
 5073TIP3   OH215224   5.025   4.484   4.417  0.6429 -0.3051 -0.1604
 5073TIP3    H115225   5.096   4.540   4.451 -0.9884  1.7176  0.1416
 5073TIP3    H215226   4.979   4.540   4.354 -1.1792 -1.2587  0.2592
 5074TIP3   OH215227   0.743   3.224   2.631  0.8977  0.8256  0.1064
 5074TIP3    H115228   0.719   3.290   2.696 -0.8305 -1.0124  1.5045
 5074TIP3    H215229   0.693   3.247   2.553 -0.4141  0.7244  0.8830
 5075TIP3   OH215230   6.000   0.237   4.767  0.4568 -0.5139 -0.5656
 5075TIP3    H115231   6.001   0.267   4.676  0.6351  1.0271 -0.0820
 5075TIP3    H215232   5.908   0.242   4.792  0.2701 -1.8538 -0.9322
 5076TIP3   OH215233   4.189   5.605   0.107 -0.1126  0.1114 -0.4272
 5076TIP3    H115234   4.101   5.624   0.074 -0.0658  1.1005 -0.0214
 5076TIP3    H215235   4.243   5.600   0.029 -0.8690 -2.6669 -0.8705
 5077TIP3   OH215236   4.461   0.256   0.896  0.2309  0.2610  0.1203
 5077TIP3    H115237   4.391   0.276   0.958  1.5261 -0.8184  2.0391
 5077TIP3    H215238   4.426   0.282   0.811 -2.2946  0.2395  1.0651
 5078TIP3   OH215239   3.995   4.997   2.055 -0.0069 -0.2568 -0.5360
 5078TIP3    H115240   4.069   5.058   2.056 -0.6606  0.5721 -0.8401
 5078TIP3    H215241   3.965   4.994   2.145  0.3520 -0.5324 -0.4267
 5079TIP3   OH215242   0.698   0.192   4.328  0.0877 -0.2449  0.0987
 5079TIP3    H115243   0.673   0.158   4.414 -0.8157  0.3817  0.1031
 5079TIP3    H215244   0.618   0.183   4.275  0.2848  0.4416 -0.3307
 5080TIP3   OH215245   1.137   2.900   2.567  0.2335 -0.5140  0.4490
 5080TIP3    H115246   1.056   2.915   2.615 -0.0762  0.6738 -0.3961
 5080TIP3    H215247   1.127   2.814   2.528 -0.7118 -0.2874  0.1828
 5081TIP3   OH215248   5.762   2.611   2.581  0.9152  0.0847 -0.8097
 5081TIP3    H115249   5.702   2.615   2.507 -0.3774  0.8239  0.2251
 5081TIP3    H215250   5.705   2.619   2.658  2.0305 -2.1586  0.3467
 5082TIP3   OH215251   1.127   2.461   3.576 -0.2543 -0.6643 -0.5650
 5082TIP3    H115252   1.173   2.530   3.529  0.5465  0.1278  1.2598
 5082TIP3    H215253   1.166   2.380   3.543  1.9232 -0.0464  0.2816
 5083TIP3   OH215254   5.379   4.870   2.109 -0.2535  0.5188 -0.2518
 5083TIP3    H115255   5.458   4.918   2.087 -0.7509  1.5183  0.0734
 5083TIP3    H215256   5.374   4.873   2.205 -0.2663 -0.2254 -0.2237
 5084TIP3   OH215257   3.241   3.318   4.850  0.2988  0.1267  0.2499
 5084TIP3    H115258   3.255   3.292   4.941 -0.8091 -0.7831  0.1890
 5084TIP3    H215259   3.198   3.404   4.855  0.6604  0.2875  0.5694
 5085TIP3   OH215260   1.734   4.999   3.196 -0.7356  0.2586 -0.8197
 5085TIP3    H115261   1.759   4.913   3.231 -0.6192  0.6167 -0.0234
 5085TIP3    H215262   1.739   4.987   3.101  1.4080 -0.0157 -0.7323
 5086TIP3   OH215263   4.539   2.646   0.123 -0.0199 -0.2735 -0.3216
 5086TIP3    H115264   4.511   2.730   0.086 -0.9415 -0.8724 -1.0256
 5086TIP3    H215265   4.457   2.597   0.136  0.1890 -0.0408  2.7187
 5087TIP3   OH215266   0.101   0.125  -0.028  0.1159 -0.4427  0.2371
 5087TIP3    H115267   0.076   0.164   0.055  2.2119  1.3368  0.1146
 5087TIP3    H215268   0.137   0.039  -0.005  0.4770 -0.0547  1.1424
 5088TIP3   OH215269   3.267   5.072   0.462  0.4495  0.0502  0.0484
 5088TIP3    H115270   3.271   5.042   0.371 -2.2486  0.8977 -0.4381
 5088TIP3    H215271   3.327   5.147   0.465  0.1535  0.3597 -1.2110
 5089TIP3   OH215272   3.877   4.603   2.472  0.2546 -0.5692  0.7488
 5089TIP3    H115273   3.787   4.580   2.496  0.5641 -0.5322  2.0348
 5089TIP3    H215274   3.918   4.519   2.453 -0.4431 -0.4742 -1.4232
 5090TIP3   OH215275   5.807   1.977   4.482  0.0624  0.2483 -0.2891
 5090TIP3    H115276   5.891   1.941   4.510  0.2640  0.7621 -0.2314
 5090TIP3    H215277   5.796   2.056   4.534  0.2235  0.9555 -1.3075
 5091TIP3   OH215278   2.317   0.270   3.134  0.5917 -0.0847  0.2997
 5091TIP3    H115279   2.364   0.291   3.215 -0.6171  1.7770  0.6049
 5091TIP3    H215280   2.227   0.255   3.162  0.2298  0.2065 -0.6577
 5092TIP3   OH215281   2.465   4.485   2.557  0.1965  0.2082  0.7841
 5092TIP3    H115282   2.517   4.408   2.534  0.6325  0.6301  0.3664
 5092TIP3    H215283   2.520   4.534   2.618  0.0944  0.4165  0.7079
 5093TIP3   OH215284   6.303   5.950   1.448  0.3277 -0.3016  0.4866
 5093TIP3    H115285   6.275   5.923   1.536 -0.3247 -1.4717 -0.0633
 5093TIP3    H215286   6.352   5.875   1.415  0.5965  0.1496 -0.1446
 5094TIP3   OH215287   1.618   2.411   3.497  0.0922 -0.8858 -0.4020
 5094TIP3    H115288   1.618   2.416   3.402  0.1285 -1.4945 -0.4385
 5094TIP3    H215289   1.592   2.498   3.526  0.5104 -0.5739 -0.9610
 5095TIP3   OH215290   2.971   5.611   3.688  0.1703 -0.4863  0.1387
 5095TIP3    H115291   3.049   5.559   3.667 -0.3596 -0.9805 -0.6430
 5095TIP3    H215292   2.898   5.560   3.654 -0.5556 -0.3014  1.3820
 5096TIP3   OH215293   0.410   1.738   2.604 -0.1552 -0.3964 -0.4650
 5096TIP3    H115294   0.486   1.679   2.601 -0.4329 -0.7773 -0.1353
 5096TIP3    H215295   0.438   1.810   2.661 -0.5618 -1.3069  0.9461
 5097TIP3   OH215296   3.374   0.206   3.744  0.1355  0.0923 -0.0502
 5097TIP3    H115297   3.420   0.124   3.726 -0.2968 -0.0325 -0.6248
 5097TIP3    H215298   3.442   0.265   3.777  0.4358 -0.5140  0.4406
 5098TIP3   OH215299   3.239   0.356   1.240 -0.2457  0.3932  0.0533
 5098TIP3    H115300   3.249   0.260   1.239  0.8894  0.4954 -0.1705
 5098TIP3    H215301   3.193   0.374   1.322  0.1970 -0.2950  0.4654
 5099TIP3   OH215302   0.688   0.860   2.012 -0.9592  0.6897 -0.1376
 5099TIP3    H115303   0.690   0.955   2.006 -1.6183  0.8408  1.5090
 5099TIP3    H215304   0.623   0.841   2.080  2.1245 -0.7115  2.7491
 5100TIP3   OH215305   4.562   2.632   3.510  0.1953 -0.3578 -0.1676
 5100TIP3    H115306   4.635   2.576   3.483  0.7844 -0.4793  1.5303
 5100TIP3    H215307   4.601   2.719   3.521 -0.3062 -0.0269 -0.9327
 5101TIP3   OH215308   4.905   0.737   0.164 -0.2220 -0.2172  0.0386
 5101TIP3    H115309   4.936   0.661   0.116  0.7479 -0.2773  0.7443
 5101TIP3    H215310   4.981   0.768   0.213 -0.9900  0.2991  0.9436
 5102TIP3   OH215311   2.306   1.254   1.441 -0.9028 -0.1172  0.4131
 5102TIP3    H115312   2.328   1.296   1.524  0.0901 -0.9208  0.5748
 5102TIP3    H215313   2.353   1.305   1.375  1.1577 -1.5092  0.7065
 5103TIP3   OH215314   1.396   3.726   3.316 -0.3139  0.0479 -0.0562
 5103TIP3    H115315   1.472   3.744   3.370  0.1342  2.0123 -1.2539
 5103TIP3    H215316   1.333   3.685   3.376  1.2888 -0.7377  1.1723
 5104TIP3   OH215317   1.766   1.103   0.938  0.1968 -0.7998 -0.1603
 5104TIP3    H115318   1.850   1.056   0.934  1.2950  0.9344  1.1640
 5104TIP3    H215319   1.703   1.042   0.901  1.9233 -2.4362 -0.5671
 5105TIP3   OH215320   0.906   2.081   5.042 -0.2149 -0.1320 -0.5401
 5105TIP3    H115321   0.925   2.172   5.068  1.0362 -0.0939 -1.5078
 5105TIP3    H215322   0.929   2.077   4.950 -0.6958 -1.3373 -0.6271
 5106TIP3   OH215323   1.601   4.701   4.614 -0.5124  0.0448 -0.7278
 5106TIP3    H115324   1.511   4.715   4.585 -0.6303 -0.6572 -0.7138
 5106TIP3    H215325   1.609   4.607   4.625  0.1891  0.1093 -0.5992
 5107TIP3   OH215326   3.903   1.720   1.551  0.8315  0.2769  0.0361
 5107TIP3    H115327   3.894   1.769   1.633  1.9684  0.3232  0.1468
 5107TIP3    H215328   3.814   1.716   1.516 -0.1003 -1.6530  2.3377
 5108TIP3   OH215329   0.765   0.773   0.562 -0.7224  0.4116 -0.3361
 5108TIP3    H115330   0.761   0.763   0.657 -0.4761 -2.2617 -0.5413
 5108TIP3    H215331   0.790   0.865   0.549  0.4351  0.5478  2.1923
 5109TIP3   OH215332   1.723   2.634   0.003  0.5040  0.1180  0.3173
 5109TIP3    H115333   1.760   2.583   0.076  0.4382 -0.3536  0.0231
 5109TIP3    H215334   1.633   2.653   0.030  0.1832 -0.8547 -0.0398
 5110TIP3   OH215335   0.142   1.394   1.971 -0.0949 -0.7769 -0.5001
 5110TIP3    H115336   0.132   1.314   2.023 -0.0505 -0.2252  0.3810
 5110TIP3    H215337   0.186   1.455   2.030  0.0225 -0.1510 -1.2211
 5111TIP3   OH215338   3.871   1.767   4.450  0.0801 -0.1221  0.0401
 5111TIP3    H115339   3.881   1.851   4.405 -0.5117 -0.4637 -0.7514
 5111TIP3    H215340   3.849   1.790   4.540  3.6807  0.6386  0.8932
 5112TIP3   OH215341   2.847   0.584   4.341 -0.8397 -0.1615 -0.1095
 5112TIP3    H115342   2.777   0.520   4.354 -0.2823 -0.4032  2.1857
 5112TIP3    H215343   2.807   0.668   4.364 -0.3447 -0.3416  1.5311
 5113TIP3   OH215344   2.423   5.300   4.239 -0.1869  0.5625  0.2047
 5113TIP3    H115345   2.496   5.250   4.203 -1.2908 -0.1890 -1.0807
 5113TIP3    H215346   2.358   5.302   4.168 -1.1771  1.7064  1.1040
 5114TIP3   OH215347   2.768   1.537   4.443 -0.2504  0.1732  0.0509
 5114TIP3    H115348   2.830   1.606   4.469 -1.1053  1.6445 -1.5854
 5114TIP3    H215349   2.683   1.581   4.439 -0.7265 -0.7829 -1.6573
 5115TIP3   OH215350   2.122   0.607   1.538 -0.1563  0.5985 -0.0597
 5115TIP3    H115351   2.102   0.623   1.630 -0.3336  1.4355 -0.2361
 5115TIP3    H215352   2.068   0.531   1.515  0.3719 -0.0093  0.6856
 5116TIP3   OH215353   5.086   5.678   1.714 -0.1554 -0.0970 -0.1763
 5116TIP3    H115354   5.075   5.590   1.750  1.8232 -0.2699  0.1256
 5116TIP3    H215355   4.997   5.711   1.704 -0.8894 -1.4068  1.5055
 5117TIP3   OH215356   2.157   2.937   4.923 -0.3786  0.1020  0.2930
 5117TIP3    H115357   2.071   2.978   4.933 -0.0701  1.1070 -0.9539
 5117TIP3    H215358   2.207   2.968   4.998 -0.5215  1.0762 -0.0029
 5118TIP3   OH215359   1.677   4.066   1.584  0.1932 -0.4564 -0.1058
 5118TIP3    H115360   1.665   4.068   1.489 -1.8178  2.3459  0.0783
 5118TIP3    H215361   1.756   4.015   1.597  0.6587 -0.7513 -3.2975
 5119TIP3   OH215362   0.999   3.331   4.229 -0.1255  0.1389 -0.1591
 5119TIP3    H115363   0.974   3.359   4.142  0.2827  2.1558  0.3230
 5119TIP3    H215364   1.089   3.361   4.239 -0.1479 -0.1136  0.9476
 5120TIP3   OH215365   2.989   1.777   2.935 -0.7282 -0.2319  0.0254
 5120TIP3    H115366   3.019   1.764   2.845  0.4942 -0.7968  0.4823
 5120TIP3    H215367   3.070   1.781   2.986 -1.3531  1.1923  0.9714
 5121TIP3   OH215368   1.873   0.163   1.799 -0.3511 -0.1959 -0.0256
 5121TIP3    H115369   1.838   0.208   1.876  0.5146 -0.3138  0.4503
 5121TIP3    H215370   1.951   0.118   1.831  0.0733 -0.1749 -0.9997
 5122TIP3   OH215371   4.048   3.282   4.993 -0.0368 -0.0687  0.1331
 5122TIP3    H115372   4.009   3.338   4.926 -1.7313  0.1841  1.2667
 5122TIP3    H215373   4.128   3.327   5.019 -0.1718  0.6120 -0.5977
 5123TIP3   OH215374   5.289   2.999   2.615  0.2258  0.4471  0.1800
 5123TIP3    H115375   5.371   3.004   2.565  1.2465  0.5570  1.7830
 5123TIP3    H215376   5.295   2.916   2.663 -2.5396 -1.6941 -2.7795
 5124TIP3   OH215377   2.859   3.459   2.940 -0.1917  0.1830 -0.0488
 5124TIP3    H115378   2.800   3.526   2.974  0.0711 -0.0952  1.0175
 5124TIP3    H215379   2.895   3.496   2.860  0.7516  1.7737  1.0540
 5125TIP3   OH215380   4.776   0.230   4.886 -0.3481  0.4471 -0.3061
 5125TIP3    H115381   4.827   0.215   4.807  0.5816  2.4182 -0.1335
 5125TIP3    H215382   4.726   0.309   4.867  0.2622  1.2372  1.2288
 5126TIP3   OH215383   0.441   2.167   2.706  0.2299 -0.3138 -0.6389
 5126TIP3    H115384   0.476   2.256   2.694  1.5890 -0.6670  0.5039
 5126TIP3    H215385   0.380   2.176   2.779  2.5560 -0.8052  1.4899
 5127TIP3   OH215386   2.060   0.299   2.324  0.7450  0.3617 -0.6838
 5127TIP3    H115387   2.075   0.274   2.233 -1.1028 -1.5973 -0.5166
 5127TIP3    H215388   1.965   0.307   2.332  0.8699  0.6119  1.0483
 5128TIP3   OH215389   5.961   3.942   1.861  0.4447 -0.3571 -0.3651
 5128TIP3    H115390   5.885   3.960   1.916 -0.0165  0.5637 -1.2681
 5128TIP3    H215391   5.948   3.852   1.831 -0.0149 -0.3791 -0.1082
 5129TIP3   OH215392   1.458   1.984   4.509 -0.2002  0.1656  0.1712
 5129TIP3    H115393   1.512   1.926   4.563 -0.5338  0.6198  1.0046
 5129TIP3    H215394   1.418   2.044   4.571  1.2940  2.2882 -0.8169
 5130TIP3   OH215395   2.813   4.718   1.459  0.9713  0.3155 -0.3190
 5130TIP3    H115396   2.736   4.701   1.514  2.3590 -1.2865  1.2933
 5130TIP3    H215397   2.779   4.723   1.370 -0.9800 -0.5903  0.3172
 5131TIP3   OH215398   1.366   0.573   0.913 -0.1136 -0.2430 -0.1463
 5131TIP3    H115399   1.280   0.605   0.885  0.2013  0.0277 -0.8344
 5131TIP3    H215400   1.410   0.651   0.945  0.8335  0.1799 -2.2704
 5132TIP3   OH215401   0.623   1.666   4.330  0.1872  0.3620  0.1694
 5132TIP3    H115402   0.567   1.706   4.396  2.1869  0.5355  1.8816
 5132TIP3    H215403   0.564   1.614   4.276 -1.6393  0.7746  1.6620
 5133TIP3   OH215404   6.192   0.538   3.354  0.4476 -0.6176 -0.6049
 5133TIP3    H115405   6.127   0.605   3.371 -0.1194 -1.5918  1.2902
 5133TIP3    H215406   6.227   0.560   3.268 -1.6455  0.5174 -1.2323
 5134TIP3   OH215407   3.742   4.006   0.040 -0.2334 -0.0808 -0.3039
 5134TIP3    H115408   3.793   4.041  -0.032 -0.2720 -0.1566 -0.3689
 5134TIP3    H215409   3.663   4.060   0.043  0.2496  0.6172  0.3695
 5135TIP3   OH215410   0.124   1.312   1.565  0.3915  0.0897 -0.1501
 5135TIP3    H115411   0.078   1.342   1.486  1.2122  0.9429 -0.3274
 5135TIP3    H215412   0.169   1.232   1.538  0.8776  0.5160 -0.6386
 5136TIP3   OH215413   1.994   0.774   2.653 -0.2444 -0.4684 -0.5842
 5136TIP3    H115414   1.979   0.869   2.656 -1.0119 -0.5981 -0.1947
 5136TIP3    H215415   2.089   0.765   2.656 -0.0050  0.3839 -2.9190
 5137TIP3   OH215416   1.915   4.637   2.439 -0.4168  0.5702 -0.1990
 5137TIP3    H115417   1.883   4.725   2.456  0.4237  0.8090  0.2398
 5137TIP3    H215418   1.993   4.651   2.384 -0.0370  0.1423  0.2179
 5138TIP3   OH215419   0.111   2.146   3.434 -0.5345  0.2424 -0.2838
 5138TIP3    H115420   0.077   2.232   3.410 -1.0735  0.2713  0.5433
 5138TIP3    H215421   0.043   2.084   3.406 -0.5760  0.1704 -0.0311
 5139TIP3   OH215422   5.299   1.022   3.145  0.1911  0.3434 -0.1019
 5139TIP3    H115423   5.294   0.967   3.067  0.1480  2.1202 -1.4089
 5139TIP3    H215424   5.377   0.990   3.191  0.8208 -0.1025 -1.4081
 5140TIP3   OH215425   5.144   5.885   4.546 -0.1065 -0.1748  0.1611
 5140TIP3    H115426   5.227   5.929   4.531  0.4864 -0.5978  1.9891
 5140TIP3    H215427   5.165   5.792   4.540 -0.4378 -0.2843  0.6940
 5141TIP3   OH215428   5.447   2.315   2.634 -0.1011  0.1561 -0.0111
 5141TIP3    H115429   5.445   2.399   2.589  1.0179  0.7245  0.9309
 5141TIP3    H215430   5.541   2.295   2.644 -0.3459 -1.1910 -0.1956
 5142TIP3   OH215431   4.274   5.066   1.505  0.4338  0.1854  0.2585
 5142TIP3    H115432   4.220   5.101   1.434 -0.4109 -0.5864  0.4964
 5142TIP3    H215433   4.221   5.078   1.583  0.7513 -0.2745  0.5509
 5143TIP3   OH215434   5.676   0.678   2.819 -0.1391  0.4505  0.4252
 5143TIP3    H115435   5.695   0.613   2.752 -3.2183 -0.1664 -0.0203
 5143TIP3    H215436   5.711   0.760   2.784  0.0667 -0.2281 -1.0266
 5144TIP3   OH215437   2.532   2.033   0.537 -0.0339 -0.2214  0.3724
 5144TIP3    H115438   2.493   1.951   0.505  0.8963 -0.4067 -0.3318
 5144TIP3    H215439   2.512   2.034   0.630  0.3210 -1.4920  0.4852
 5145TIP3   OH215440   2.392   2.464   1.340 -0.0181  0.1593 -0.4614
 5145TIP3    H115441   2.412   2.556   1.359 -0.2038  0.2121 -0.5183
 5145TIP3    H215442   2.347   2.466   1.256 -2.8207  0.3578  0.9330
 5146TIP3   OH215443   2.256   2.063   1.221  0.1733 -0.1365  0.1890
 5146TIP3    H115444   2.205   2.140   1.196  0.5484 -0.2922 -1.1404
 5146TIP3    H215445   2.207   1.990   1.184 -0.2798 -0.5848  1.5981
 5147TIP3   OH215446   1.718   0.418   3.804  0.3644 -0.6338 -0.0874
 5147TIP3    H115447   1.687   0.414   3.894  0.3382  2.1565  0.1149
 5147TIP3    H215448   1.647   0.460   3.756  2.6677  4.0958  0.0066
 5148TIP3   OH215449   0.522   0.091   2.575 -0.6273 -0.6191  0.1000
 5148TIP3    H115450   0.480   0.024   2.630  0.2730  0.0454  1.6527
 5148TIP3    H215451   0.487   0.174   2.607  0.8484 -0.1406  0.5374
 5149TIP3   OH215452   1.565   5.731   0.334  0.3660 -0.1639  0.0341
 5149TIP3    H115453   1.609   5.746   0.251  1.6041  2.6702  1.0910
 5149TIP3    H215454   1.497   5.799   0.338  1.7739  1.2475  2.1989
 5150TIP3   OH215455   4.283   5.009   2.815  0.1337  0.4186 -0.5296
 5150TIP3    H115456   4.209   5.010   2.876  0.2121 -2.1344 -0.2841
 5150TIP3    H215457   4.252   5.058   2.739 -1.7359 -0.3495 -0.3175
 5151TIP3   OH215458   2.182   3.825   0.424 -0.0551 -0.1369  0.0681
 5151TIP3    H115459   2.235   3.872   0.360  2.7254 -2.0117  0.7715
 5151TIP3    H215460   2.136   3.893   0.472 -0.3853  1.4516 -2.3076
 5152TIP3   OH215461   2.822   3.436   3.238 -0.0141  0.1194  0.1893
 5152TIP3    H115462   2.848   3.416   3.148  0.1347 -0.2329  0.3107
 5152TIP3    H215463   2.731   3.466   3.230  1.2695  4.4895 -0.6683
 5153TIP3   OH215464   2.339   4.952   2.299 -0.8491 -0.5410 -0.9356
 5153TIP3    H115465   2.435   4.953   2.308 -0.9029 -2.1989  0.1012
 5153TIP3    H215466   2.322   5.015   2.229  0.8004  1.5780  0.4360
 5154TIP3   OH215467   5.871   1.531   0.845  0.2029  0.1418 -0.0228
 5154TIP3    H115468   5.899   1.482   0.922  2.1839 -0.8638 -1.3179
 5154TIP3    H215469   5.795   1.483   0.813 -0.9857  0.8680  1.5183
 5155TIP3   OH215470   2.193   2.673   0.022 -0.5868  0.1313 -0.6512
 5155TIP3    H115471   2.288   2.661   0.011 -0.9646 -2.3209 -1.7952
 5155TIP3    H215472   2.156   2.586   0.010 -3.0317  1.0582 -0.3711
 5156TIP3   OH215473   1.856   1.311   4.185  0.1037  0.2814  0.3982
 5156TIP3    H115474   1.927   1.373   4.172 -0.8066  1.1338 -0.8009
 5156TIP3    H215475   1.898   1.231   4.217  1.1554  1.9702  3.6962
 5157TIP3   OH215476   5.948   3.664   1.880  0.0072 -0.7413 -1.0422
 5157TIP3    H115477   6.024   3.621   1.842  0.7511  0.3568 -0.8452
 5157TIP3    H215478   5.967   3.668   1.974 -0.8169 -1.4595 -0.8290
 5158TIP3   OH215479   4.450   0.022   0.504 -0.6829 -0.5109  0.3415
 5158TIP3    H115480   4.357   0.014   0.525 -0.7492 -1.9757 -0.3426
 5158TIP3    H215481   4.462   0.114   0.481 -2.1521 -0.4773 -0.4112
 5159TIP3   OH215482   1.289   4.530   2.492 -0.3237  0.1901 -0.3334
 5159TIP3    H115483   1.347   4.586   2.544  0.1791 -0.7587  0.1618
 5159TIP3    H215484   1.345   4.459   2.462 -0.4177  1.0859 -2.8686
 5160TIP3   OH215485   2.779   0.584   4.965  0.3237  0.3310 -0.3112
 5160TIP3    H115486   2.767   0.489   4.964 -1.6459  0.5388 -0.7430
 5160TIP3    H215487   2.805   0.604   5.055 -0.0027 -0.5594 -0.0043
 5161TIP3   OH215488   0.283   4.055   2.897 -0.3046  0.3629  0.0032
 5161TIP3    H115489   0.294   4.089   2.986  1.2108 -0.1051  0.0311
 5161TIP3    H215490   0.346   4.104   2.844  0.0411 -0.5323 -0.4564
 5162TIP3   OH215491   5.305   4.398   0.643  0.1108 -0.1377  0.3773
 5162TIP3    H115492   5.212   4.388   0.622 -0.1724  0.5960  1.2331
 5162TIP3    H215493   5.312   4.485   0.683  0.9506 -0.6683  1.4542
 5163TIP3   OH215494   1.716   0.405   4.081  0.6051 -0.8993  0.0632
 5163TIP3    H115495   1.736   0.432   4.171  0.2450  1.1050 -0.3902
 5163TIP3    H215496   1.636   0.354   4.089  0.4587 -0.5627  0.8805
 5164TIP3   OH215497   4.882   5.018   0.730  0.6161  0.7012  0.6138
 5164TIP3    H115498   4.841   4.979   0.808 -0.1848 -0.3939 -0.3288
 5164TIP3    H215499   4.885   4.946   0.666  1.5723  1.4900 -0.2638
 5165TIP3   OH215500   0.621   2.090   1.961  0.6645 -0.0189 -0.3376
 5165TIP3    H115501   0.531   2.090   1.928 -0.2420  0.5854  1.9995
 5165TIP3    H215502   0.661   2.012   1.920 -0.9006 -0.3117 -1.3944
 5166TIP3   OH215503   3.339   5.325   2.084  0.2622 -0.2275 -0.3664
 5166TIP3    H115504   3.409   5.288   2.030 -0.8396  0.0085 -2.0152
 5166TIP3    H215505   3.358   5.293   2.173  2.0147 -0.7803 -0.9007
 5167TIP3   OH215506   3.306   1.552   2.926 -0.6856 -0.3907 -0.1246
 5167TIP3    H115507   3.321   1.496   3.002  1.3416  0.9873  0.5645
 5167TIP3    H215508   3.273   1.492   2.859 -0.3822 -2.0553  1.1449
 5168TIP3   OH215509   2.897   5.388   4.441 -0.0052  0.2748 -0.0651
 5168TIP3    H115510   2.864   5.379   4.351  0.1010  0.8519 -0.1696
 5168TIP3    H215511   2.870   5.476   4.467 -1.2301 -0.3670  0.9711
 5169TIP3   OH215512   3.604   1.056   1.316  0.0684  0.0272 -0.2259
 5169TIP3    H115513   3.596   0.962   1.324  1.3484 -0.2307 -1.4452
 5169TIP3    H215514   3.521   1.085   1.278  0.5891 -1.0109 -2.3445
 5170TIP3   OH215515   6.140   1.752   4.474  0.9644 -0.6498  0.0304
 5170TIP3    H115516   6.142   1.660   4.499  2.1421 -0.2280  1.6435
 5170TIP3    H215517   6.105   1.797   4.551 -0.6728  0.1764 -1.1343
 5171TIP3   OH215518   3.979   0.738   0.239 -0.1161  0.3057 -0.0653
 5171TIP3    H115519   3.976   0.833   0.236 -2.3448  0.4110  2.0556
 5171TIP3    H215520   4.067   0.717   0.271 -0.0390  1.7507  0.7412
 5172TIP3   OH215521   6.021   4.984   1.705 -0.0263  0.0845 -0.8366
 5172TIP3    H115522   6.026   5.077   1.685  2.5268 -0.2104 -1.8674
 5172TIP3    H215523   6.094   4.968   1.764 -0.9246 -1.1533 -0.0029
 5173TIP3   OH215524   2.658   2.903   3.008 -0.4105  0.2951 -0.0023
 5173TIP3    H115525   2.676   2.986   3.054 -0.8600  0.7857 -0.6867
 5173TIP3    H215526   2.702   2.837   3.061 -0.2911  0.9341  0.7273
 5174TIP3   OH215527   3.211   1.913   4.337 -0.5294 -0.5778  0.2897
 5174TIP3    H115528   3.299   1.931   4.304 -0.8832  2.1469  0.6154
 5174TIP3    H215529   3.152   1.945   4.268 -1.2761 -1.3546  0.5436
 5175TIP3   OH215530   5.424   5.457   0.539  0.1468 -0.0183  0.2958
 5175TIP3    H115531   5.474   5.396   0.485  1.2855  0.9491  0.2162
 5175TIP3    H215532   5.336   5.421   0.541  0.8442 -1.8279  0.5027
 5176TIP3   OH215533   4.305   5.314   4.212 -0.4430  0.0715 -0.0392
 5176TIP3    H115534   4.351   5.253   4.154 -1.0307 -0.0892 -0.3354
 5176TIP3    H215535   4.216   5.279   4.219 -0.2016 -0.3085  1.5203
 5177TIP3   OH215536   1.924   2.773   4.726 -0.3656  0.6491  0.6440
 5177TIP3    H115537   1.975   2.852   4.744 -0.6258  0.9201  0.2186
 5177TIP3    H215538   1.952   2.710   4.792  0.0447  1.0098  0.8154
 5178TIP3   OH215539   2.568   1.467   1.761 -0.9193 -0.4871  1.0263
 5178TIP3    H115540   2.545   1.557   1.738 -0.9285 -0.4946  1.0057
 5178TIP3    H215541   2.524   1.452   1.844 -0.3245 -0.2382  1.3874
 5179TIP3   OH215542   2.701   1.129   4.504  0.1280 -0.3804  0.8464
 5179TIP3    H115543   2.718   1.068   4.433  0.9791 -0.0611  0.7695
 5179TIP3    H215544   2.610   1.111   4.530 -0.0423 -0.8071 -0.0137
 5180TIP3   OH215545   0.598   1.681   3.654 -0.0035 -0.3791 -0.1380
 5180TIP3    H115546   0.521   1.718   3.610 -0.0175 -1.1043 -0.7498
 5180TIP3    H215547   0.562   1.634   3.729 -0.0107  0.5846  0.4751
 5181TIP3   OH215548   0.235   2.518   0.889  0.2805  0.2451 -0.1963
 5181TIP3    H115549   0.228   2.438   0.839 -1.4541  0.3084 -0.0987
 5181TIP3    H215550   0.194   2.498   0.973 -1.0084  1.4590 -0.4896
 5182TIP3   OH215551   0.580   4.053   1.999 -0.1053  0.5693 -0.0613
 5182TIP3    H115552   0.593   3.981   2.062 -0.0923  0.1388 -0.5505
 5182TIP3    H215553   0.555   4.127   2.053  0.0666  0.2469  0.4755
 5183TIP3   OH215554   3.745   3.172   0.286  0.2150 -0.0142  0.2018
 5183TIP3    H115555   3.719   3.086   0.253  0.9555 -0.1227 -0.1403
 5183TIP3    H215556   3.697   3.183   0.368 -1.8459  0.3461 -0.9886
 5184TIP3   OH215557   5.263   1.099   2.214  0.1985 -0.6022 -0.4022
 5184TIP3    H115558   5.200   1.167   2.238  0.6118 -0.0526 -0.8567
 5184TIP3    H215559   5.216   1.047   2.148 -0.6528 -1.6543  0.9835
 5185TIP3   OH215560   2.321   3.956   2.188 -0.2938  0.5572  0.0226
 5185TIP3    H115561   2.336   3.882   2.128 -0.7674  0.5541 -0.0963
 5185TIP3    H215562   2.409   3.991   2.205 -0.1783  0.7489 -0.9123
 5186TIP3   OH215563   6.197   0.071   0.516 -0.3358  0.1501 -0.2985
 5186TIP3    H115564   6.285   0.071   0.479 -0.3799 -1.2242 -0.4425
 5186TIP3    H215565   6.147   0.013   0.459 -1.4518  1.2076 -0.4423
 5187TIP3   OH215566   1.312   3.221   2.088 -0.3050  0.1856  0.6731
 5187TIP3    H115567   1.329   3.205   1.996  0.9128  1.9864  0.5316
 5187TIP3    H215568   1.275   3.138   2.121 -1.1850 -0.3459 -1.4846
 5188TIP3   OH215569   3.257   0.372   3.560 -0.1074  0.1981 -0.0421
 5188TIP3    H115570   3.295   0.299   3.609 -2.2619 -1.1534 -0.2622
 5188TIP3    H215571   3.301   0.369   3.474  1.2645  0.4784  0.6251
 5189TIP3   OH215572   1.537   2.410   3.242  0.1930  0.0286  0.0426
 5189TIP3    H115573   1.539   2.323   3.202 -1.7076 -1.1424  2.2467
 5189TIP3    H215574   1.455   2.448   3.210  1.1228  1.1636 -1.0849
 5190TIP3   OH215575   4.786   2.456   0.677  0.0755  0.2292  0.4356
 5190TIP3    H115576   4.861   2.469   0.620 -0.5228 -0.3010 -0.5023
 5190TIP3    H215577   4.793   2.366   0.708 -1.1257 -0.4733 -1.1589
 5191TIP3   OH215578   1.915   0.827   4.794 -0.0004 -0.0156 -0.1662
 5191TIP3    H115579   1.917   0.803   4.887 -1.0691 -0.1310 -0.1574
 5191TIP3    H215580   2.005   0.853   4.774  0.5091 -1.1045  0.6025
 5192TIP3   OH215581   1.076   5.141   3.030  0.3763  0.5231 -0.9219
 5192TIP3    H115582   0.981   5.132   3.037  0.3327  0.0720 -1.9318
 5192TIP3    H215583   1.090   5.231   3.001  0.2580  0.6119 -0.7004
 5193TIP3   OH215584   1.954   2.436   0.067  0.0375  0.0145  0.4472
 5193TIP3    H115585   1.907   2.392  -0.005 -1.5341  0.6388  1.0534
 5193TIP3    H215586   2.046   2.418   0.049 -0.4185 -1.4810 -0.6586
 5194TIP3   OH215587   4.914   1.763   4.315 -0.3629  0.1976  0.3014
 5194TIP3    H115588   4.924   1.670   4.292 -2.9286 -0.3135  0.9207
 5194TIP3    H215589   4.845   1.764   4.381 -0.4774  2.5859  0.2356
 5195TIP3   OH215590   6.382   0.472   3.530 -0.1789 -0.1243  0.2792
 5195TIP3    H115591   6.303   0.494   3.481  0.0380  2.1153  0.8379
 5195TIP3    H215592   6.352   0.462   3.620 -0.4576 -3.5475 -0.0481
 5196TIP3   OH215593   4.648   2.349   1.311 -0.8648 -0.7287 -0.2240
 5196TIP3    H115594   4.602   2.265   1.308 -1.5289 -0.4204  0.7730
 5196TIP3    H215595   4.656   2.369   1.404 -1.7464  0.8528 -0.4401
 5197TIP3   OH215596   4.733   4.143   4.967 -0.0561  0.1411 -0.2463
 5197TIP3    H115597   4.722   4.055   4.930  2.3099  1.1451 -3.8335
 5197TIP3    H215598   4.652   4.189   4.947 -0.2805 -0.4588 -0.7176
 5198TIP3   OH215599   6.287   0.619   2.521  0.9484 -0.1103 -0.4537
 5198TIP3    H115600   6.303   0.690   2.458  2.1502  0.2898  0.2869
 5198TIP3    H215601   6.278   0.664   2.605  0.5505 -0.7548 -0.1456
 5199TIP3   OH215602   0.204   5.593   4.643  0.7877  0.0670 -0.4853
 5199TIP3    H115603   0.157   5.510   4.634 -0.7514  0.7730  0.6013
 5199TIP3    H215604   0.144   5.649   4.692  2.9723  0.8637  1.4767
 5200TIP3   OH215605   4.001   3.977   3.110  0.0524  0.4983  0.2681
 5200TIP3    H115606   3.981   3.993   3.202 -0.1691  0.6662  0.1944
 5200TIP3    H215607   3.926   4.015   3.063  0.1222  0.3352  0.0250
 5201TIP3   OH215608   0.652   5.468   4.489  0.2118  0.1749  0.3688
 5201TIP3    H115609   0.745   5.486   4.476 -0.0212  1.1750  0.0012
 5201TIP3    H215610   0.648   5.424   4.574  0.8373  1.8478  1.3175
 5202TIP3   OH215611   6.110   4.652   3.743 -0.2767  0.5766 -0.4242
 5202TIP3    H115612   6.026   4.678   3.707  0.2434 -0.2010 -2.3205
 5202TIP3    H215613   6.174   4.707   3.698  0.3557  0.0515 -0.1840
 5203TIP3   OH215614   4.813   2.498   4.762 -0.4245 -0.7087 -0.5290
 5203TIP3    H115615   4.743   2.454   4.713 -0.6646 -0.5062 -0.3688
 5203TIP3    H215616   4.833   2.576   4.710 -0.5444 -0.5973 -0.4115
 5204TIP3   OH215617   1.709   5.242   1.563 -0.9830 -0.4809  0.3420
 5204TIP3    H115618   1.663   5.277   1.639 -0.9590 -0.6990  0.4546
 5204TIP3    H215619   1.733   5.320   1.512  0.7698 -0.1667  1.5528
 5205TIP3   OH215620   1.838   3.658   1.830 -0.2524  0.4249  0.4030
 5205TIP3    H115621   1.894   3.585   1.855 -1.2634 -0.9748 -1.1947
 5205TIP3    H215622   1.832   3.712   1.909  1.7260 -0.3959  1.1811
 5206TIP3   OH215623   1.083   0.356   3.133  0.1578  0.2100  0.1002
 5206TIP3    H115624   1.064   0.418   3.063  1.1741  0.8555  0.3819
 5206TIP3    H215625   1.064   0.403   3.213  2.4618  0.7712  0.3883
 5207TIP3   OH215626   0.815   0.045   0.023 -0.4699 -0.3830 -0.3511
 5207TIP3    H115627   0.801  -0.047   0.043 -1.3559 -0.1321  0.2290
 5207TIP3    H215628   0.793   0.091   0.104  0.0899  0.3335 -0.5928
 5208TIP3   OH215629   0.668   5.059   1.769  0.7474 -0.5636 -0.0037
 5208TIP3    H115630   0.642   5.145   1.736  0.7794 -0.4683  0.2144
 5208TIP3    H215631   0.608   5.042   1.841 -0.8164 -1.7978 -1.5415
 5209TIP3   OH215632   1.170   2.630   1.795  0.0031  0.2553 -0.0530
 5209TIP3    H115633   1.240   2.650   1.857 -0.5831 -0.3585  0.8216
 5209TIP3    H215634   1.090   2.661   1.838 -0.3516  0.2816 -0.7232
 5210TIP3   OH215635   2.825   2.170   0.381  0.2313 -0.0372  0.5123
 5210TIP3    H115636   2.859   2.257   0.398  0.8691  0.3546 -2.2357
 5210TIP3    H215637   2.748   2.185   0.326 -0.2260 -1.1858  0.8108
 5211TIP3   OH215638   4.260   5.653   2.900 -0.4273  0.1014  0.0357
 5211TIP3    H115639   4.180   5.632   2.853 -1.6143 -0.4525  2.1999
 5211TIP3    H215640   4.271   5.582   2.963  0.4560  1.3701  1.3838
 5212TIP3   OH215641   3.116   2.679   0.929  0.3730  0.2280 -0.3715
 5212TIP3    H115642   3.099   2.765   0.891  2.2571  1.3393  1.1239
 5212TIP3    H215643   3.191   2.645   0.879 -0.9246 -1.0242 -1.5745
 5213TIP3   OH215644   4.489   5.623   1.262  0.2411  0.4972  0.2878
 5213TIP3    H115645   4.570   5.669   1.241  1.1009 -1.1789 -0.2102
 5213TIP3    H215646   4.456   5.593   1.178 -0.3003  0.1721  0.6088
 5214TIP3   OH215647   6.193   4.112   1.260 -0.8190  0.0067  0.5101
 5214TIP3    H115648   6.102   4.107   1.289 -0.9534 -1.2726 -0.1095
 5214TIP3    H215649   6.244   4.099   1.340 -1.1794 -0.1666  0.7125
 5215TIP3   OH215650   0.175   1.486   3.677  0.7231  0.1587  0.1848
 5215TIP3    H115651   0.160   1.578   3.698 -0.0120 -0.0385  0.5605
 5215TIP3    H215652   0.130   1.438   3.747  0.2465 -0.4896 -0.5476
 5216TIP3   OH215653   6.060   1.271   2.124 -0.3578 -0.1787 -0.2922
 5216TIP3    H115654   6.125   1.282   2.054 -1.1478  2.1961 -0.7590
 5216TIP3    H215655   6.052   1.177   2.136  2.3159 -0.5619 -1.0097
 5217TIP3   OH215656   5.943   5.062   3.659  0.6368  0.4571 -0.2449
 5217TIP3    H115657   6.009   5.091   3.595 -0.6524  0.2237 -1.7524
 5217TIP3    H215658   5.876   5.020   3.606 -0.1938 -0.3184  1.3688
 5218TIP3   OH215659   0.860   0.972   0.130 -0.3223 -0.2878  1.0745
 5218TIP3    H115660   0.956   0.965   0.134 -0.2076  0.8020  0.4220
 5218TIP3    H215661   0.843   1.055   0.087 -1.5833  0.0460  2.1367
 5219TIP3   OH215662   3.416   1.088   2.117 -0.2043 -0.1755  0.3417
 5219TIP3    H115663   3.392   1.148   2.187  0.6314  0.3755  0.1715
 5219TIP3    H215664   3.485   1.033   2.155 -0.3328 -0.4238  0.2152
 5220TIP3   OH215665   3.229   3.815   1.749 -0.1689  0.3164 -0.1508
 5220TIP3    H115666   3.163   3.750   1.726  0.6335 -0.6173  0.0966
 5220TIP3    H215667   3.312   3.768   1.743  0.4192  1.2656  0.2590
 5221TIP3   OH215668   1.264   1.957   5.188 -0.0901  0.5934 -0.4733
 5221TIP3    H115669   1.293   2.048   5.199 -1.0014  0.6341  2.4264
 5221TIP3    H215670   1.234   1.952   5.097  0.5565  3.0134 -0.8808
 5222TIP3   OH215671   0.849   3.794   5.038  0.2488 -0.0834  0.2345
 5222TIP3    H115672   0.760   3.771   5.066 -0.9624  1.3037 -2.1234
 5222TIP3    H215673   0.853   3.889   5.050  1.3262 -0.0968  0.0258
 5223TIP3   OH215674   4.864   3.159   2.185  0.5008  0.0371 -0.1623
 5223TIP3    H115675   4.935   3.218   2.159  0.5865  0.5038  1.0862
 5223TIP3    H215676   4.798   3.217   2.224  1.2445 -0.8002  2.5267
 5224TIP3   OH215677   0.051   0.593   0.751  0.5129 -0.1100  0.1278
 5224TIP3    H115678  -0.012   0.647   0.703  0.9568 -0.1327 -0.5036
 5224TIP3    H215679   0.135   0.637   0.738  0.3247  1.2497  2.9575
 5225TIP3   OH215680   4.943   2.018   1.430  0.3827  0.0917 -0.1429
 5225TIP3    H115681   4.942   2.084   1.361 -1.3972  0.1968 -0.0794
 5225TIP3    H215682   5.017   1.961   1.409 -0.4775 -0.2508 -2.5200
 5226TIP3   OH215683   5.308   3.697   4.071  0.2392  0.0360 -0.0655
 5226TIP3    H115684   5.269   3.645   4.141  1.0279  0.6910  0.8834
 5226TIP3    H215685   5.396   3.720   4.103  1.0326 -0.5247 -1.7015
 5227TIP3   OH215686   5.290   4.630   0.327  0.2145 -0.2772  0.4622
 5227TIP3    H115687   5.326   4.563   0.269 -0.6038 -0.2578 -0.0880
 5227TIP3    H215688   5.345   4.626   0.405  2.9819  1.3978 -1.2207
 5228TIP3   OH215689   5.755   2.910   2.918  0.3179  0.0846 -0.0873
 5228TIP3    H115690   5.688   2.970   2.884  0.2200 -0.3391 -0.6728
 5228TIP3    H215691   5.836   2.940   2.877  0.1783 -0.5077 -0.8248
 5229TIP3   OH215692   3.611   2.962   3.322  0.1947 -0.1600 -0.1627
 5229TIP3    H115693   3.519   2.935   3.321 -0.7082  2.5980 -1.1192
 5229TIP3    H215694   3.641   2.950   3.232 -0.2248  1.8189 -0.6042
 5230TIP3   OH215695   3.847   3.371   1.008  0.3234 -0.1240 -0.0845
 5230TIP3    H115696   3.910   3.300   1.010 -0.0907 -0.5182 -0.5926
 5230TIP3    H215697   3.815   3.377   1.098  0.9764 -0.0110  0.1452
 5231TIP3   OH215698   2.987   4.817   2.987  0.0721 -0.3075 -0.2106
 5231TIP3    H115699   2.968   4.724   2.996 -1.3388 -0.2518 -2.1135
 5231TIP3    H215700   2.912   4.861   3.026 -0.0433  0.0078 -0.7733
 5232TIP3   OH215701   4.982   5.977   3.227 -0.7010  0.2495  0.3322
 5232TIP3    H115702   4.931   5.978   3.145  0.8048 -0.0024 -0.6506
 5232TIP3    H215703   5.047   5.908   3.214  1.5107  2.1750  0.4806
 5233TIP3   OH215704   5.452   2.289   1.222  0.4693 -0.2099  0.0025
 5233TIP3    H115705   5.397   2.216   1.193  1.3014 -0.5370 -0.7781
 5233TIP3    H215706   5.541   2.260   1.204  0.8022  1.1078 -0.5503
 5234TIP3   OH215707   2.970   1.934   3.574 -0.4704  0.2851 -0.4516
 5234TIP3    H115708   3.060   1.966   3.564 -0.0490 -0.5754  0.3864
 5234TIP3    H215709   2.974   1.843   3.546 -1.0711  0.2251 -0.3498
 5235TIP3   OH215710   2.068   0.730   3.940 -0.2119  0.0878  0.1428
 5235TIP3    H115711   2.055   0.669   4.013 -0.3968 -0.1827 -0.1116
 5235TIP3    H215712   2.144   0.695   3.894 -0.4769 -0.1007 -0.1546
 5236TIP3   OH215713   5.237   4.786   1.567 -0.7067  0.4146 -0.3262
 5236TIP3    H115714   5.260   4.876   1.544 -1.5781  0.2085 -2.2254
 5236TIP3    H215715   5.180   4.795   1.643  1.2577  1.2438  1.1598
 5237TIP3   OH215716   5.911   1.261   3.276  0.2814 -0.2543 -0.3173
 5237TIP3    H115717   5.832   1.231   3.322  0.9855 -0.0817  1.0452
 5237TIP3    H215718   5.942   1.336   3.327 -0.0160  1.2514 -2.2196
 5238TIP3   OH215719   6.251   3.487   0.114 -0.0975 -0.0901  0.3878
 5238TIP3    H115720   6.173   3.517   0.067 -0.6794 -1.1179  0.6559
 5238TIP3    H215721   6.324   3.510   0.056 -0.7134 -0.3850 -0.5316
 5239TIP3   OH215722   3.580   1.652   0.541 -0.0627 -0.1953  0.5083
 5239TIP3    H115723   3.675   1.647   0.555 -0.1575 -0.6204  1.0090
 5239TIP3    H215724   3.552   1.726   0.593  0.0150  0.0253  0.2387
 5240TIP3   OH215725   3.123   4.625   3.319 -0.0170 -0.7869 -0.1215
 5240TIP3    H115726   3.184   4.685   3.362 -0.6139  1.5233 -2.2358
 5240TIP3    H215727   3.178   4.554   3.286  1.0852 -0.2564  0.5372
 5241TIP3   OH215728   0.126   0.755   1.865  0.1892  0.1383  0.9280
 5241TIP3    H115729   0.164   0.695   1.930  0.2666 -0.2461  0.5286
 5241TIP3    H215730   0.077   0.698   1.806  0.2373  0.4723  0.5674
 5242TIP3   OH215731   0.166   5.741   0.274  0.4149 -0.2056 -0.4109
 5242TIP3    H115732   0.143   5.648   0.276  2.1513 -0.7175 -1.7561
 5242TIP3    H215733   0.234   5.750   0.340  0.1548  0.1477 -0.1888
 5243TIP3   OH215734   0.723   5.188   2.085 -0.1549  0.0805 -0.4151
 5243TIP3    H115735   0.783   5.125   2.123 -0.1838  0.7318  0.7476
 5243TIP3    H215736   0.648   5.189   2.144  0.1349  1.6801 -0.0166
 5244TIP3   OH215737   3.083   0.285   2.051 -0.4141  0.3606 -0.5345
 5244TIP3    H115738   3.001   0.271   2.098  0.5942  0.4374  1.3365
 5244TIP3    H215739   3.139   0.213   2.079  0.1566  0.2625 -1.8576
 5245TIP3   OH215740   5.291   1.670   4.715 -0.4419  0.4435 -0.2350
 5245TIP3    H115741   5.246   1.590   4.742 -0.0546  0.5049  0.6361
 5245TIP3    H215742   5.235   1.707   4.647 -0.6244 -0.5604 -0.6508
 5246TIP3   OH215743   0.892   3.965   4.080  0.6896  0.2704 -0.5682
 5246TIP3    H115744   0.809   3.984   4.125 -0.5917  0.7147 -2.9364
 5246TIP3    H215745   0.907   4.042   4.025  0.6926 -1.3135 -2.9250
 5247TIP3   OH215746   3.614   2.859   3.042  0.1121 -0.1439 -0.3503
 5247TIP3    H115747   3.562   2.787   3.007 -0.9418 -0.4693  1.7418
 5247TIP3    H215748   3.568   2.938   3.013 -0.3576 -0.3759 -0.2408
 5248TIP3   OH215749   5.669   3.906   2.634  0.0471 -0.3007  0.0555
 5248TIP3    H115750   5.690   3.815   2.615  0.7832 -0.2886  0.7530
 5248TIP3    H215751   5.751   3.944   2.668 -0.3140  0.5466  0.0204
 5249TIP3   OH215752   2.713   0.104   1.947 -0.8423  0.0858  0.5686
 5249TIP3    H115753   2.626   0.119   1.984 -0.1660  0.3309  2.1171
 5249TIP3    H215754   2.751   0.034   2.000 -0.7653 -1.3468 -1.2783
 5250TIP3   OH215755   1.814   1.035   1.845  0.1962 -0.0108 -0.0768
 5250TIP3    H115756   1.831   0.990   1.928  0.5477  1.3026  0.5953
 5250TIP3    H215757   1.725   1.068   1.853  0.2023  0.0482 -0.2463
 5251TIP3   OH215758   0.899   4.268   2.490 -0.2193 -0.7309 -0.2990
 5251TIP3    H115759   0.966   4.301   2.550 -1.1427  1.0746 -0.1907
 5251TIP3    H215760   0.897   4.173   2.506  1.5449 -0.6813  0.4349
 5252TIP3   OH215761   5.041   1.815   1.134  0.6628  0.1638 -0.3731
 5252TIP3    H115762   5.035   1.721   1.120 -1.4680  0.3519 -1.0842
 5252TIP3    H215763   5.079   1.824   1.221  3.4572 -1.2558 -1.3235
 5253TIP3   OH215764   4.499   1.747   2.335 -0.3765  0.2442 -0.1417
 5253TIP3    H115765   4.578   1.720   2.288 -0.2933  0.3351 -0.0559
 5253TIP3    H215766   4.522   1.736   2.427 -0.9986 -1.2363 -0.1371
 5254TIP3   OH215767   0.782   5.573   2.513 -0.3049 -0.3086 -0.6317
 5254TIP3    H115768   0.754   5.481   2.517 -0.1063 -0.3807 -0.8956
 5254TIP3    H215769   0.878   5.569   2.521 -0.4533  0.0600  2.4566
 5255TIP3   OH215770   2.377   0.813   2.392 -0.1539  0.1261 -0.3794
 5255TIP3    H115771   2.339   0.739   2.440  0.5626  0.6445  1.0290
 5255TIP3    H215772   2.447   0.773   2.340 -0.1009 -0.2667 -0.0179
 5256TIP3   OH215773   3.591   1.643   3.821  0.0267 -0.2959  0.1026
 5256TIP3    H115774   3.582   1.559   3.865  0.8046 -0.1440  0.5836
 5256TIP3    H215775   3.614   1.704   3.891 -0.5258  0.3185 -0.2413
 5257TIP3   OH215776   5.039   3.246   1.008  0.2406  0.6374  0.3220
 5257TIP3    H115777   5.077   3.280   1.088 -1.1043  2.6539  0.1757
 5257TIP3    H215778   4.996   3.321   0.967 -0.2005 -0.5932 -1.6570
 5258TIP3   OH215779   3.180   0.358   3.874 -0.6057  0.0594 -0.5270
 5258TIP3    H115780   3.247   0.426   3.879 -0.8649  0.3050 -0.3750
 5258TIP3    H215781   3.229   0.276   3.865 -0.2464  0.1447  0.4698
 5259TIP3   OH215782   3.974   2.950   3.674 -0.4592 -0.0012 -0.1690
 5259TIP3    H115783   3.946   3.041   3.664 -1.3989 -0.3792 -1.0532
 5259TIP3    H215784   3.937   2.905   3.599 -0.2697 -1.1874  0.4355
 5260TIP3   OH215785   3.498   4.382   1.859 -0.5443  0.1954 -0.2048
 5260TIP3    H115786   3.464   4.299   1.825  2.2291  0.1211 -3.2474
 5260TIP3    H215787   3.571   4.358   1.916  0.2893  0.4901 -1.1190
 5261TIP3   OH215788   6.320   0.724   1.078 -0.5876  0.1488 -0.1250
 5261TIP3    H115789   6.254   0.663   1.043  0.2253 -0.9541  0.2314
 5261TIP3    H215790   6.354   0.768   1.000  1.0932 -2.1790 -0.8107
 5262TIP3   OH215791   4.243   5.207   0.976  0.1767 -0.1906  0.6740
 5262TIP3    H115792   4.301   5.133   0.958  0.6476  0.0785  1.0654
 5262TIP3    H215793   4.261   5.229   1.068 -1.4305 -0.8929  1.1874
 5263TIP3   OH215794   0.716   3.190   4.286 -0.2296  0.1357 -0.5531
 5263TIP3    H115795   0.765   3.261   4.245  2.2929 -0.8474  0.5407
 5263TIP3    H215796   0.710   3.122   4.219  0.9034 -0.1516 -0.3827
 5264TIP3   OH215797   3.919   2.543   3.575 -0.6694  0.5001  0.1137
 5264TIP3    H115798   3.840   2.494   3.555 -0.8819  0.8864 -0.0011
 5264TIP3    H215799   3.919   2.616   3.513  0.7570 -0.5506 -1.2040
 5265TIP3   OH215800   3.724   1.827   0.924  0.5940 -0.4942 -0.6572
 5265TIP3    H115801   3.779   1.852   0.849  0.3424  0.5954 -0.4898
 5265TIP3    H215802   3.638   1.812   0.885  0.5137 -0.1356 -0.6213
 5266TIP3   OH215803   3.303   5.631   0.703  0.1779 -0.0436 -0.2114
 5266TIP3    H115804   3.286   5.720   0.673  0.7864  1.0087  2.3144
 5266TIP3    H215805   3.296   5.636   0.798  0.9679 -2.5469  0.0474
 5267TIP3   OH215806   6.136   0.858   4.090 -0.2168  0.6644  0.3705
 5267TIP3    H115807   6.124   0.946   4.055  0.1484 -0.1745 -2.0417
 5267TIP3    H215808   6.048   0.829   4.115 -0.4616  1.3729  0.3410
 5268TIP3   OH215809   4.288   0.799   3.976 -0.1098  0.4152  0.0933
 5268TIP3    H115810   4.280   0.704   3.982  0.7158  0.2879 -0.5504
 5268TIP3    H215811   4.335   0.824   4.055 -0.6304  0.3306  0.4318
 5269TIP3   OH215812   4.974   4.529   3.195 -0.7531 -0.0283 -0.3673
 5269TIP3    H115813   5.064   4.496   3.195 -0.1493  1.4515  0.7304
 5269TIP3    H215814   4.962   4.563   3.284 -1.1639  2.8794 -1.4357
 5270TIP3   OH215815   3.275   3.287   3.155  0.1538 -0.2299  0.6412
 5270TIP3    H115816   3.356   3.244   3.126  0.2885  0.0965  0.5311
 5270TIP3    H215817   3.234   3.317   3.074  1.6156  2.6702  0.8493
 5271TIP3   OH215818   4.909   4.322   1.111 -0.2789  0.3696  0.7127
 5271TIP3    H115819   4.975   4.391   1.103 -1.4415  1.4381  0.1776
 5271TIP3    H215820   4.933   4.276   1.192  0.1436  1.7985  1.4315
 5272TIP3   OH215821   5.527   0.773   0.330 -0.4361  0.5438 -0.4464
 5272TIP3    H115822   5.506   0.836   0.399  0.7193 -0.4091  0.8222
 5272TIP3    H215823   5.443   0.734   0.306 -0.6743 -0.3363  1.6600
 5273TIP3   OH215824   4.811   0.654   3.062 -0.3860  0.0736  0.0487
 5273TIP3    H115825   4.764   0.583   3.017  0.8669  0.9363 -2.8542
 5273TIP3    H215826   4.903   0.631   3.054 -0.0078  1.5399 -0.1553
 5274TIP3   OH215827   5.511   4.678   4.691  0.2441  0.3738 -0.0752
 5274TIP3    H115828   5.480   4.588   4.701 -1.3478  1.0602  1.8396
 5274TIP3    H215829   5.488   4.702   4.601 -1.8051 -0.2863  0.2226
 5275TIP3   OH215830   5.046   2.516   0.577 -0.1740 -0.4731 -0.3763
 5275TIP3    H115831   5.137   2.488   0.581 -0.4801 -1.4622 -0.2937
 5275TIP3    H215832   5.040   2.566   0.495  0.1787 -1.3360 -0.9381
 5276TIP3   OH215833   0.721   3.076   0.405 -0.1578 -0.6800  0.0059
 5276TIP3    H115834   0.678   3.153   0.441  0.2076 -0.8080  0.7384
 5276TIP3    H215835   0.754   3.105   0.319  0.1505  0.0452  0.3571
 5277TIP3   OH215836   0.464   4.988   5.161  0.3312  0.2913  0.0052
 5277TIP3    H115837   0.545   4.940   5.146 -0.4686 -1.5271  1.1305
 5277TIP3    H215838   0.426   4.999   5.074  0.4918 -1.2636 -0.2817
 5278TIP3   OH215839   1.737   4.099   0.034  0.3839 -0.4364  0.1487
 5278TIP3    H115840   1.826   4.065   0.018  0.2889 -0.9042  0.5813
 5278TIP3    H215841   1.700   4.039   0.098 -0.7725 -1.1122 -1.0839
 5279TIP3   OH215842   1.327   3.487   0.147  0.1451  0.1012  0.1322
 5279TIP3    H115843   1.408   3.450   0.181  0.8506  0.8530 -0.6981
 5279TIP3    H215844   1.261   3.419   0.164  0.3346  0.5847  3.3565
 5280TIP3   OH215845   0.426   0.738   3.202 -0.3770  0.4016 -0.3260
 5280TIP3    H115846   0.399   0.828   3.184 -0.3390  0.7715  1.2888
 5280TIP3    H215847   0.352   0.700   3.250 -0.2386 -0.3081 -0.6633
 5281TIP3   OH215848   6.305   2.498   3.852 -0.0646  0.3017 -0.8067
 5281TIP3    H115849   6.328   2.587   3.828 -1.7162  1.2039  0.6405
 5281TIP3    H215850   6.258   2.464   3.776 -1.1700  1.4133 -0.6577
 5282TIP3   OH215851   0.310   4.707   2.692 -0.1110  0.0786 -0.2909
 5282TIP3    H115852   0.357   4.628   2.716 -0.0666 -0.1205 -1.0423
 5282TIP3    H215853   0.220   4.678   2.675 -0.5423  0.4612  1.1747
 5283TIP3   OH215854   2.542   1.979   1.140  0.1889  0.0781  0.1455
 5283TIP3    H115855   2.508   1.971   1.051  1.7312  1.4541 -0.6011
 5283TIP3    H215856   2.467   2.008   1.192 -0.4598  0.3573 -0.9210
 5284TIP3   OH215857   1.855   0.332   3.104 -0.4021 -0.2912  0.1227
 5284TIP3    H115858   1.780   0.335   3.162 -1.1929 -0.4207 -0.8638
 5284TIP3    H215859   1.840   0.255   3.049 -0.0061  0.1825 -0.6658
 5285TIP3   OH215860   5.337   0.568   3.705  0.6461  0.3220 -0.2258
 5285TIP3    H115861   5.293   0.541   3.786  0.6277  1.3752  0.1313
 5285TIP3    H215862   5.402   0.499   3.689  1.3492  0.6046  1.2429
 5286TIP3   OH215863   2.438   0.127   1.348  0.1975  0.6367  0.4840
 5286TIP3    H115864   2.402   0.086   1.270  1.7881 -1.4775  0.7582
 5286TIP3    H215865   2.367   0.123   1.412 -0.6457  1.0518 -0.4104
 5287TIP3   OH215866   3.345   5.279   2.365 -0.1591 -0.0643  0.2293
 5287TIP3    H115867   3.280   5.326   2.417 -1.1923 -2.1594  0.9333
 5287TIP3    H215868   3.342   5.189   2.398  1.8142 -0.6342 -0.9700
 5288TIP3   OH215869   2.867   4.552   2.380 -0.0244 -0.4340 -0.2111
 5288TIP3    H115870   2.939   4.604   2.344 -0.0178  1.0308  1.7398
 5288TIP3    H215871   2.829   4.608   2.448 -1.5234 -2.1033  0.3945
 5289TIP3   OH215872   6.165   5.805   3.832 -0.2760 -0.0889 -0.1306
 5289TIP3    H115873   6.195   5.895   3.830 -1.2918  0.4249  2.9165
 5289TIP3    H215874   6.242   5.754   3.860  0.7709 -0.5555 -3.3725
 5290TIP3   OH215875   5.298   2.216   0.880  0.0912  0.0225 -0.1319
 5290TIP3    H115876   5.287   2.309   0.861 -0.8046  0.0893  0.6310
 5290TIP3    H215877   5.352   2.182   0.809 -1.5201  0.6283 -1.6929
 5291TIP3   OH215878   0.200   3.325   4.943 -0.1482  0.1071 -0.6720
 5291TIP3    H115879   0.237   3.248   4.902 -0.3086 -0.2700 -0.1216
 5291TIP3    H215880   0.254   3.398   4.913  0.2098 -0.2649 -0.9249
 5292TIP3   OH215881   0.122   5.931   2.189  0.5549  0.4365  0.0530
 5292TIP3    H115882   0.067   5.922   2.267 -0.7625 -0.6001 -0.9513
 5292TIP3    H215883   0.191   5.865   2.200  0.6988  0.6649  0.5711
 5293TIP3   OH215884   5.460   3.714   0.431  0.0679 -0.1220  0.4994
 5293TIP3    H115885   5.485   3.660   0.506  0.2358 -1.1910 -0.2946
 5293TIP3    H215886   5.494   3.801   0.451 -2.3950  0.4116  2.9887
 5294TIP3   OH215887   3.342   3.946   4.244  0.4796  0.0302 -0.0716
 5294TIP3    H115888   3.277   3.905   4.301 -0.1034  1.5917  0.4480
 5294TIP3    H215889   3.299   3.952   4.159  0.1547  0.5174  0.1223
 5295TIP3   OH215890   4.802   4.356   2.447 -0.1991  0.5484  0.0519
 5295TIP3    H115891   4.794   4.282   2.387  1.0479  0.8097 -0.4784
 5295TIP3    H215892   4.722   4.354   2.499 -0.0964 -1.3119  0.2085
 5296TIP3   OH215893   1.197   2.770   0.215  0.1054 -0.4787  0.0140
 5296TIP3    H115894   1.181   2.694   0.270  2.7229  1.1476  3.3886
 5296TIP3    H215895   1.136   2.837   0.248  0.5139  0.0213 -0.2273
 5297TIP3   OH215896   3.013   3.057   2.095 -0.3846  0.0258 -0.1179
 5297TIP3    H115897   2.929   3.020   2.122 -0.3261  0.1671  0.2565
 5297TIP3    H215898   3.068   2.981   2.078 -0.1681 -0.0639  0.9487
 5298TIP3   OH215899   6.221   4.886   0.621 -0.0740 -1.0192  0.5653
 5298TIP3    H115900   6.280   4.905   0.694 -0.3482 -1.4323  0.8960
 5298TIP3    H215901   6.272   4.829   0.564 -0.4469 -2.0730  1.2739
 5299TIP3   OH215902   2.171   1.980   3.587  0.4661  0.3277  0.5971
 5299TIP3    H115903   2.215   1.895   3.578  0.2832 -0.3838  4.5109
 5299TIP3    H215904   2.215   2.036   3.524  1.3887 -2.3656 -1.3578
 5300TIP3   OH215905   1.099   0.527   2.898  0.1026 -0.0915 -0.1449
 5300TIP3    H115906   1.114   0.471   2.822  1.0256 -0.9644  0.6498
 5300TIP3    H215907   1.177   0.582   2.904  0.8180 -1.1675  1.0877
 5301TIP3   OH215908   4.164   1.995   3.746 -0.4579  0.7687  0.1115
 5301TIP3    H115909   4.146   2.071   3.802 -0.9947 -0.4230  1.6139
 5301TIP3    H215910   4.259   1.984   3.750 -0.5978 -0.1766  2.0538
 5302TIP3   OH215911   6.162   3.397   2.326 -0.1000  0.0694 -0.3588
 5302TIP3    H115912   6.116   3.465   2.277  0.1228 -0.0106 -0.6825
 5302TIP3    H215913   6.108   3.383   2.404  0.6446  1.7225  0.5074
 5303TIP3   OH215914   0.362   1.750   3.530 -0.3180 -0.4410  0.1424
 5303TIP3    H115915   0.322   1.694   3.597  0.8738 -0.7713  0.6053
 5303TIP3    H215916   0.353   1.839   3.566 -1.5271 -0.3917 -0.2395
 5304TIP3   OH215917   4.159   5.587   2.505 -0.2648 -0.3086  0.1812
 5304TIP3    H115918   4.170   5.527   2.580  0.0663 -0.0557  0.3373
 5304TIP3    H215919   4.248   5.611   2.480 -0.3620  2.6060  2.1328
 5305TIP3   OH215920   0.063   0.239   2.133 -0.8013 -0.1072 -0.2307
 5305TIP3    H115921   0.152   0.259   2.104 -1.1157  2.9025  0.4530
 5305TIP3    H215922   0.068   0.246   2.229 -2.0797  2.0211 -0.2640
 5306TIP3   OH215923   5.858   5.283   1.426 -0.0930 -0.1923 -0.0068
 5306TIP3    H115924   5.778   5.329   1.399  0.6344  1.0333 -0.1586
 5306TIP3    H215925   5.890   5.240   1.347 -0.8372 -1.0647  0.1584
 5307TIP3   OH215926   3.073   4.059   4.263  0.3890  0.4287  0.2456
 5307TIP3    H115927   3.091   3.999   4.191 -0.8823 -0.5514  0.7100
 5307TIP3    H215928   3.151   4.115   4.268  0.8637 -0.0472 -1.3096
 5308TIP3   OH215929   1.781   1.148   1.333  0.1281 -0.2580 -0.0073
 5308TIP3    H115930   1.769   1.206   1.258 -0.9366  0.3469  0.6007
 5308TIP3    H215931   1.876   1.138   1.341  0.2689 -1.6750 -2.4121
 5309TIP3   OH215932   4.209   4.691   0.809 -0.2115  0.4671 -0.2751
 5309TIP3    H115933   4.263   4.650   0.742  0.0907 -0.9674  0.7957
 5309TIP3    H215934   4.127   4.712   0.765 -0.3737 -1.3153 -0.8654
 5310TIP3   OH215935   2.151   3.544   3.555 -0.3114  0.0248 -0.6523
 5310TIP3    H115936   2.204   3.586   3.487 -0.8185  0.2160 -0.9346
 5310TIP3    H215937   2.063   3.579   3.542 -0.4796 -0.1794 -0.0955
 5311TIP3   OH215938   2.449   5.743   1.997  0.6009  0.6908  0.2929
 5311TIP3    H115939   2.472   5.659   2.036 -2.5393 -1.0957 -1.2832
 5311TIP3    H215940   2.408   5.792   2.068 -0.3444 -0.4123  0.5372
 5312TIP3   OH215941   0.336   5.182   4.658  0.3081 -0.1127 -0.1461
 5312TIP3    H115942   0.263   5.192   4.597 -0.3798 -0.2772  0.6294
 5312TIP3    H215943   0.343   5.267   4.702  2.0515  0.6511 -1.7659
 5313TIP3   OH215944   0.476   2.691   0.786  0.0180 -0.8087 -0.4709
 5313TIP3    H115945   0.441   2.756   0.847  1.3497  0.6940 -1.2488
 5313TIP3    H215946   0.476   2.609   0.836 -0.0496  0.1320  1.1419
 5314TIP3   OH215947   2.353   3.410   1.218  0.1097  0.2252 -0.0756
 5314TIP3    H115948   2.403   3.340   1.176  1.0545 -0.1655  1.5636
 5314TIP3    H215949   2.279   3.365   1.259  1.1034 -0.0100  1.5893
 5315TIP3   OH215950   4.214   4.488   4.469  0.2729 -0.0496 -0.6153
 5315TIP3    H115951   4.273   4.490   4.393  1.6871 -0.6172  0.4177
 5315TIP3    H215952   4.249   4.554   4.528  0.9167 -1.5319  0.7259
 5316TIP3   OH215953   1.568   1.755   2.746  0.3245  0.4206 -0.3499
 5316TIP3    H115954   1.546   1.787   2.833 -1.2352 -2.7949  0.5842
 5316TIP3    H215955   1.499   1.791   2.690 -0.0277  0.6182  0.2026
 5317TIP3   OH215956   3.953   3.636   2.381 -0.0789  0.9403  0.4850
 5317TIP3    H115957   4.001   3.661   2.302 -0.8203  4.4038  0.9608
 5317TIP3    H215958   4.021   3.617   2.446  0.5286 -1.4617 -0.7180
 5318TIP3   OH215959   3.700   1.134   4.180  0.4415 -0.1711  0.0064
 5318TIP3    H115960   3.757   1.064   4.147  0.4068 -0.5518  0.7410
 5318TIP3    H215961   3.760   1.205   4.204  0.5297 -0.2026 -0.1195
 5319TIP3   OH215962   5.784   3.125   1.225  0.0727 -0.4730  0.2185
 5319TIP3    H115963   5.845   3.070   1.177 -0.6114 -0.3692 -0.8012
 5319TIP3    H215964   5.831   3.207   1.241 -0.5571  0.6059 -2.7825
 5320TIP3   OH215965   5.126   0.116   1.687  0.6580 -0.1912 -0.7362
 5320TIP3    H115966   5.149   0.023   1.678  0.7501 -0.1499 -0.9338
 5320TIP3    H215967   5.043   0.124   1.639  1.5744  0.2047 -2.3257
 5321TIP3   OH215968   0.675   0.868   3.971 -0.2563  0.1272 -0.5837
 5321TIP3    H115969   0.608   0.800   3.958 -1.7396  1.3691  0.2363
 5321TIP3    H215970   0.641   0.921   4.043  1.9581  0.4263  0.3030
 5322TIP3   OH215971   0.489   5.965   3.975 -0.7154  0.2480  0.7852
 5322TIP3    H115972   0.405   5.937   3.938  0.2601  0.6498 -1.9661
 5322TIP3    H215973   0.531   5.884   4.004 -1.5035 -0.0836  1.0470
 5323TIP3   OH215974   1.440   2.722   0.080 -0.1893 -0.2903  0.5774
 5323TIP3    H115975   1.409   2.775   0.006 -0.5117 -1.2291  0.0201
 5323TIP3    H215976   1.383   2.748   0.153 -1.2565 -0.8151 -0.0316
 5324TIP3   OH215977   5.009   4.003   3.089 -0.6300  0.0356  0.0431
 5324TIP3    H115978   5.042   4.083   3.049 -0.2821 -0.2117 -0.1724
 5324TIP3    H215979   5.084   3.968   3.137 -0.9675  0.1845  0.6817
 5325TIP3   OH215980   1.937   1.885   3.674  0.0527 -0.0900 -0.4260
 5325TIP3    H115981   2.028   1.903   3.651  0.2844  0.2584  0.7068
 5325TIP3    H215982   1.924   1.792   3.653  0.1279  0.2772 -2.2513
 5326TIP3   OH215983   5.255   1.606   1.776 -0.0546 -0.3406  0.3809
 5326TIP3    H115984   5.248   1.631   1.684 -3.8869 -0.6152  0.3996
 5326TIP3    H215985   5.199   1.668   1.822 -1.2413 -2.3929  1.9100
 5327TIP3   OH215986   1.991   0.364   0.616 -0.9186 -0.0990  0.4332
 5327TIP3    H115987   1.905   0.325   0.630 -0.1409 -1.8243  0.5996
 5327TIP3    H215988   2.053   0.304   0.657  0.5336  0.1527 -1.2360
 5328TIP3   OH215989   3.847   1.447   1.990  0.0382 -0.5043  0.5899
 5328TIP3    H115990   3.781   1.411   2.049  1.8259 -2.2719  1.6035
 5328TIP3    H215991   3.914   1.483   2.048  0.6634 -0.0024 -0.4096
 5329TIP3   OH215992   1.549   2.600   2.044 -0.7798  0.2653 -0.3991
 5329TIP3    H115993   1.547   2.569   1.953 -1.3184 -2.0543  0.3246
 5329TIP3    H215994   1.457   2.604   2.070 -0.5915 -0.3601  0.4178
 5330TIP3   OH215995   3.410   3.733   3.847 -0.5397 -0.0282 -0.0651
 5330TIP3    H115996   3.463   3.813   3.853 -0.9760  0.4321 -1.7155
 5330TIP3    H215997   3.474   3.662   3.845 -0.0529  0.4125 -0.3713
 5331TIP3   OH215998   4.808   3.517   2.768  0.4375 -0.7266 -0.1401
 5331TIP3    H115999   4.857   3.434   2.772  0.7440 -0.5648 -0.4812
 5331TIP3    H216000   4.848   3.565   2.695 -1.4658 -1.3771 -1.6949
 5332TIP3   OH216001   6.302   4.420   2.401 -0.0647  0.4193  0.2976
 5332TIP3    H116002   6.313   4.437   2.308 -1.5077 -2.6150 -0.5395
 5332TIP3    H216003   6.362   4.347   2.420 -2.4308 -1.5208  0.7685
 5333TIP3   OH216004   5.786   0.809   0.408 -0.5514 -0.2037 -0.4452
 5333TIP3    H116005   5.814   0.747   0.474 -1.4252  0.2878  0.4153
 5333TIP3    H216006   5.719   0.762   0.357 -0.5531 -0.2739 -0.3779
 5334TIP3   OH216007   3.740   4.492   3.859 -0.0519  0.3449 -0.1842
 5334TIP3    H116008   3.744   4.588   3.864 -0.7983  0.5623 -2.5560
 5334TIP3    H216009   3.805   4.469   3.792 -1.0302 -0.6324 -0.8405
 5335TIP3   OH216010   4.987   1.886   0.885 -0.2730  0.3154  0.1473
 5335TIP3    H116011   5.066   1.849   0.846 -1.5597 -0.9605 -1.3813
 5335TIP3    H216012   5.001   1.881   0.979  0.5528 -1.9941 -0.0531
 5336TIP3   OH216013   1.862   3.606   3.522  0.0207 -0.5757 -0.7104
 5336TIP3    H116014   1.867   3.537   3.588 -0.0338 -1.0437 -1.1799
 5336TIP3    H216015   1.783   3.655   3.545 -1.0183 -1.8251 -1.4286
 5337TIP3   OH216016   4.032   5.253   2.390 -0.1137 -0.0703  0.0076
 5337TIP3    H116017   4.015   5.315   2.461 -2.3177 -1.7798  1.1217
 5337TIP3    H216018   4.102   5.197   2.424 -0.7529 -0.5145  0.6282
 5338TIP3   OH216019   3.110   3.786   0.048  0.4255 -0.2324 -1.1343
 5338TIP3    H116020   3.156   3.713   0.089  0.9539  0.4614 -0.4602
 5338TIP3    H216021   3.017   3.768   0.063  0.5292 -0.9893 -1.3766
 5339TIP3   OH216022   0.526   1.328   1.586 -0.3770 -0.3651  0.3110
 5339TIP3    H116023   0.449   1.342   1.642 -0.8834 -0.9950 -0.2149
 5339TIP3    H216024   0.593   1.294   1.646 -1.8374 -4.0775  0.1258
 5340TIP3   OH216025   4.835   1.122   4.581 -0.3254 -0.2387  0.3199
 5340TIP3    H116026   4.760   1.066   4.562  0.0055  0.0791 -2.2401
 5340TIP3    H216027   4.829   1.192   4.516  2.3157 -0.3365 -0.1171
 5341TIP3   OH216028   5.358   1.829   1.174  0.7665  1.1692 -0.1333
 5341TIP3    H116029   5.410   1.789   1.104  1.6586 -0.7751  1.5774
 5341TIP3    H216030   5.325   1.910   1.134  0.0339 -0.5092 -3.2803
 5342TIP3   OH216031   5.408   5.831   1.457  0.4409 -0.0011 -0.4634
 5342TIP3    H116032   5.334   5.825   1.396  0.8479  0.6623 -1.0409
 5342TIP3    H216033   5.384   5.772   1.529 -0.4985 -0.0491 -0.7914
 5343TIP3   OH216034   0.428   5.384   3.612  0.4640  0.3365 -0.8464
 5343TIP3    H116035   0.466   5.446   3.551  1.9882 -0.7005 -0.9901
 5343TIP3    H216036   0.339   5.417   3.627  0.2889  1.0092 -3.0332
 5344TIP3   OH216037   5.501   3.552   0.904  0.1536 -0.1597  0.2674
 5344TIP3    H116038   5.561   3.486   0.937  0.2107 -0.4404 -0.3890
 5344TIP3    H216039   5.500   3.619   0.973 -0.4221 -1.1361  1.2500
 5345TIP3   OH216040   3.681   4.260   0.328 -0.3306 -0.0493  0.2468
 5345TIP3    H116041   3.697   4.165   0.323 -0.6347 -0.1024  0.2611
 5345TIP3    H216042   3.598   4.273   0.283  0.4992  0.4320 -1.2073
 5346TIP3   OH216043   2.704   2.526   4.994  0.3757  0.5173  0.5005
 5346TIP3    H116044   2.623   2.523   4.942 -0.6010 -0.2780  2.0087
 5346TIP3    H216045   2.773   2.513   4.930 -0.7272  0.5679 -0.7516
 5347TIP3   OH216046   0.875   1.517   1.381 -0.3615 -0.3368  0.0843
 5347TIP3    H116047   0.882   1.429   1.418  3.8333  0.1922  1.0281
 5347TIP3    H216048   0.810   1.561   1.435  0.6111 -1.6502  2.4544
 5348TIP3   OH216049   2.321   2.457   4.565 -0.3280 -0.2780 -0.0595
 5348TIP3    H116050   2.271   2.473   4.485 -0.7950  0.4702  0.3709
 5348TIP3    H216051   2.412   2.451   4.535 -0.6473 -1.7516 -0.8649
 5349TIP3   OH216052   1.160   4.794   0.370 -0.1735  0.0810 -0.0206
 5349TIP3    H116053   1.090   4.748   0.324 -0.9984  1.7833 -0.5654
 5349TIP3    H216054   1.218   4.824   0.300 -0.8195  1.6979  0.0940
 5350TIP3   OH216055   5.940   4.436   2.479  0.1306  0.2112 -0.2643
 5350TIP3    H116056   5.948   4.528   2.454 -2.5037  0.5758 -0.0341
 5350TIP3    H216057   6.012   4.393   2.434 -0.0759  1.9968 -2.4839
 5351TIP3   OH216058   3.750   3.042   2.003  0.0954  0.0992 -0.0067
 5351TIP3    H116059   3.760   3.127   1.961  1.5501  0.7200  1.4699
 5351TIP3    H216060   3.658   3.020   1.991 -0.1895  1.6137 -0.8985
 5352TIP3   OH216061   5.105   5.973   1.287  0.1903  0.1087 -0.4040
 5352TIP3    H116062   5.088   5.959   1.380  1.1514 -0.9770 -0.3656
 5352TIP3    H216063   5.128   5.887   1.253  2.3101  0.8578 -1.0821
 5353TIP3   OH216064   5.859   3.703   0.455  0.6396 -0.2839  0.2709
 5353TIP3    H116065   5.861   3.659   0.371  0.4278  0.2823 -0.0339
 5353TIP3    H216066   5.772   3.743   0.460  1.5239  1.8346 -0.3770
 5354TIP3   OH216067   3.627   5.465   4.051  0.0322  0.1547  0.1428
 5354TIP3    H116068   3.673   5.549   4.054  0.8835 -0.3273  1.1523
 5354TIP3    H216069   3.596   5.458   3.961  3.1245 -0.0941 -1.0247
 5355TIP3   OH216070   2.472   5.017   3.935  0.5916 -0.2731  0.5738
 5355TIP3    H116071   2.420   4.943   3.903 -1.1699  0.6520  1.1390
 5355TIP3    H216072   2.513   5.053   3.856 -1.7026  0.4864 -0.3650
 5356TIP3   OH216073   4.371   4.204   0.064  0.1859 -0.1489 -0.2971
 5356TIP3    H116074   4.464   4.223   0.078  0.1458 -0.5861  0.6765
 5356TIP3    H216075   4.339   4.279   0.014  0.5313  1.2638  1.4533
 5357TIP3   OH216076   1.344   0.538   2.181 -0.2868 -0.5803 -0.0775
 5357TIP3    H116077   1.385   0.481   2.116  1.0303  0.3664 -0.1048
 5357TIP3    H216078   1.272   0.485   2.217 -0.8995 -1.2308 -2.0914
 5358TIP3   OH216079   3.959   3.246   3.571 -0.0890 -0.0029  0.5265
 5358TIP3    H116080   4.045   3.267   3.606  0.1444  0.2140 -0.1485
 5358TIP3    H216081   3.978   3.207   3.485 -0.7191  2.1048 -0.6427
 5359TIP3   OH216082   5.082   4.776   2.022 -0.3931 -0.5957 -0.1309
 5359TIP3    H116083   5.168   4.735   2.027 -0.0396  0.1480  0.0944
 5359TIP3    H216084   5.072   4.819   2.107 -0.4585  0.3379 -0.5997
 5360TIP3   OH216085   3.067   0.462   1.858  0.1475 -0.0429 -0.3604
 5360TIP3    H116086   3.019   0.393   1.812 -2.5706 -0.1226  2.3260
 5360TIP3    H216087   3.102   0.420   1.936  0.8397  1.0229 -0.0694
 5361TIP3   OH216088   3.758   0.242   0.929  0.1824  0.5863 -0.2361
 5361TIP3    H116089   3.663   0.232   0.923  0.5213 -3.4693 -1.7883
 5361TIP3    H216090   3.778   0.313   0.868 -1.7744  1.2542 -0.1723
 5362TIP3   OH216091   3.559   3.514   3.848  0.9283 -0.0925  0.0744
 5362TIP3    H116092   3.628   3.479   3.904 -0.3658 -1.3479  0.9477
 5362TIP3    H216093   3.478   3.474   3.881 -0.4316  2.3189 -0.0543
 5363TIP3   OH216094   2.892   4.333   2.606  0.4753 -0.0085  0.9445
 5363TIP3    H116095   2.846   4.333   2.522 -0.0610  1.0388  1.2266
 5363TIP3    H216096   2.823   4.337   2.672  0.9268  1.9321  1.3627
 5364TIP3   OH216097   3.929   4.741   0.968 -0.1397  0.1122  0.0988
 5364TIP3    H116098   3.901   4.812   1.026 -1.3635  0.7932 -1.2770
 5364TIP3    H216099   3.882   4.664   1.000  1.3317 -0.1706  1.7124
 5365TIP3   OH216100   1.378   4.123   0.707  0.0995  0.5115  0.3578
 5365TIP3    H116101   1.402   4.077   0.788  0.4449  1.3021  0.7062
 5365TIP3    H216102   1.410   4.212   0.719 -0.9095  0.9558 -0.1535
 5366TIP3   OH216103   3.876   5.713   4.707  0.2456 -0.5557 -0.0489
 5366TIP3    H116104   3.893   5.746   4.795  1.0682  2.9289 -1.3607
 5366TIP3    H216105   3.907   5.782   4.649 -0.9833 -2.3687 -3.0948
 5367TIP3   OH216106   6.041   1.932   1.124 -1.1116 -0.1906 -0.4099
 5367TIP3    H116107   6.045   1.875   1.047  0.6764  0.4299 -0.8112
 5367TIP3    H216108   6.023   1.873   1.197 -2.5294 -0.8254 -1.2255
 5368TIP3   OH216109   4.932   1.877   3.761 -0.3869 -0.1961  0.3147
 5368TIP3    H116110   4.917   1.881   3.856  1.9399 -0.5210  0.7570
 5368TIP3    H216111   4.847   1.851   3.725 -2.1265  2.7138  1.9779
 5369TIP3   OH216112   1.717   4.190   0.773  0.4981 -0.0749 -0.4394
 5369TIP3    H116113   1.717   4.267   0.717  0.2785  0.5199  0.3674
 5369TIP3    H216114   1.688   4.222   0.858  1.8786 -0.7591  0.3172
 5370TIP3   OH216115   5.714   1.813   2.564  0.2437 -0.4809  0.4668
 5370TIP3    H116116   5.699   1.808   2.470  0.4182 -1.9878  0.4943
 5370TIP3    H216117   5.627   1.801   2.603  0.4514 -2.1376  0.5046
 5371TIP3   OH216118   3.272   4.423   3.185 -0.1943 -0.1243 -0.0029
 5371TIP3    H116119   3.360   4.424   3.221 -0.0184 -0.6881 -0.3979
 5371TIP3    H216120   3.271   4.492   3.119 -0.3129  0.4546  0.5937
 5372TIP3   OH216121   4.260   3.502   1.822  0.0750  0.1830 -0.3296
 5372TIP3    H116122   4.176   3.505   1.778  0.1741 -2.0603 -0.7943
 5372TIP3    H216123   4.323   3.483   1.752  0.5398 -1.0841  0.3969
 5373TIP3   OH216124   4.202   0.490   0.087 -0.4180 -0.1570  0.3025
 5373TIP3    H116125   4.108   0.475   0.095 -0.1390 -2.4970 -0.2346
 5373TIP3    H216126   4.220   0.480  -0.007  0.9363 -4.2142  0.8048
 5374TIP3   OH216127   2.358   3.857   4.806 -0.4698 -0.0626 -0.0047
 5374TIP3    H116128   2.355   3.814   4.892 -0.5751  1.2250  0.6574
 5374TIP3    H216129   2.450   3.879   4.793 -0.5164  0.1118 -0.0359
 5375TIP3   OH216130   2.918   5.657   4.452  0.4535  0.0679 -0.0821
 5375TIP3    H116131   2.956   5.726   4.507  1.1169  1.2080 -1.8847
 5375TIP3    H216132   2.907   5.698   4.367 -1.8404 -1.2364 -0.4876
 5376TIP3   OH216133   3.580   3.748   2.061  0.2168 -0.7469 -0.4071
 5376TIP3    H116134   3.509   3.806   2.088  0.9219 -0.5347  1.0735
 5376TIP3    H216135   3.599   3.695   2.139  1.7533 -0.7200 -0.7369
 5377TIP3   OH216136   4.862   0.508   4.484 -0.0456  0.4616  0.7175
 5377TIP3    H116137   4.831   0.593   4.514  0.0624  1.2240 -1.1613
 5377TIP3    H216138   4.886   0.523   4.392 -0.4093 -1.6883  0.2225
 5378TIP3   OH216139   5.412   0.514   1.164  0.0973  0.0906  0.6149
 5378TIP3    H116140   5.443   0.533   1.076 -1.6043 -0.2913 -0.1082
 5378TIP3    H216141   5.407   0.418   1.167  2.3804 -0.0512  1.9714
 5379TIP3   OH216142   1.935   4.889   0.617  0.6684 -0.1554  0.1718
 5379TIP3    H116143   1.992   4.816   0.594 -0.0189 -0.4518 -0.6673
 5379TIP3    H216144   1.984   4.967   0.591  0.2867 -0.4510 -1.5625
 5380TIP3   OH216145   0.873   1.040   0.594 -0.0533 -0.0712 -0.6175
 5380TIP3    H116146   0.968   1.047   0.584  0.1643 -0.4699  0.9729
 5380TIP3    H216147   0.839   1.120   0.554  1.1370  1.2533  0.8812
 5381TIP3   OH216148   3.004   4.379   0.671  0.7200  0.1912 -0.6308
 5381TIP3    H116149   3.061   4.366   0.747  0.0656  0.5946 -0.0541
 5381TIP3    H216150   2.982   4.291   0.641 -1.2575 -0.0750  1.3768
 5382TIP3   OH216151   4.016   1.016   0.262  0.4431  0.3007  0.1599
 5382TIP3    H116152   3.997   1.030   0.355  2.5227  0.6851  0.5936
 5382TIP3    H216153   4.098   1.064   0.248 -0.7324  1.7642 -2.3345
 5383TIP3   OH216154   4.820   2.932   4.245 -1.0762  0.1162  0.0814
 5383TIP3    H116155   4.740   2.979   4.271 -1.1577  0.3877 -0.6469
 5383TIP3    H216156   4.801   2.898   4.158 -1.3526 -2.0966  0.9426
 5384TIP3   OH216157   2.561   5.021   3.298  0.1138  0.2150 -0.3531
 5384TIP3    H116158   2.525   5.083   3.235  2.1258  1.6908 -0.1208
 5384TIP3    H216159   2.485   4.993   3.350 -1.3133  0.1414 -2.3696
 5385TIP3   OH216160   4.581   3.887   2.371 -0.3123 -0.0325  0.2999
 5385TIP3    H116161   4.566   3.798   2.338  0.0022 -0.0721  0.2613
 5385TIP3    H216162   4.493   3.923   2.384 -0.4419 -0.1726 -0.1624
 5386TIP3   OH216163   2.170   2.431   0.326  0.6320  0.5302  0.4666
 5386TIP3    H116164   2.233   2.375   0.280  2.1108  1.1095  1.6835
 5386TIP3    H216165   2.086   2.388   0.313  1.3936 -0.7675 -0.4660
 5387TIP3   OH216166   1.824   0.433   4.323  0.1800 -0.8136  0.4119
 5387TIP3    H116167   1.753   0.429   4.387  0.1211 -1.9458  0.2895
 5387TIP3    H216168   1.863   0.520   4.336 -3.3733  1.3856 -1.9003
 5388TIP3   OH216169   0.265   1.997   3.597  0.1735 -0.6577 -0.1454
 5388TIP3    H116170   0.229   2.039   3.519  1.0930  1.2897  0.4278
 5388TIP3    H216171   0.217   2.035   3.670  1.4641 -0.0975  0.4368
 5389TIP3   OH216172   5.590   2.839   4.611 -0.0244  0.0671  0.4229
 5389TIP3    H116173   5.616   2.756   4.652 -1.9662 -0.7511  0.1040
 5389TIP3    H216174   5.502   2.855   4.645  0.4180  2.1722  0.6922
 5390TIP3   OH216175   5.866   5.356   3.865  0.4713  0.5338  0.5655
 5390TIP3    H116176   5.772   5.369   3.849  0.5457  0.0871 -0.3151
 5390TIP3    H216177   5.908   5.396   3.789  0.9167 -0.5220  0.2411
 5391TIP3   OH216178   2.213   1.704   0.158 -0.9592  0.1957 -0.3842
 5391TIP3    H116179   2.173   1.627   0.198 -3.3756  0.8459 -1.3646
 5391TIP3    H216180   2.253   1.671   0.077  1.9487 -0.7193  1.3099
 5392TIP3   OH216181   2.332   5.228   0.644  0.2408 -0.1969  0.2741
 5392TIP3    H116182   2.357   5.237   0.736 -0.1282 -0.2429  0.3825
 5392TIP3    H216183   2.315   5.134   0.633  0.9950 -0.3043 -0.0318
 5393TIP3   OH216184   3.861   1.538   5.180 -0.6699 -0.0838  0.4860
 5393TIP3    H116185   3.909   1.620   5.169  0.6880 -1.0053 -0.8478
 5393TIP3    H216186   3.772   1.565   5.203 -0.3291  1.7748 -0.2178
 5394TIP3   OH216187   0.181   6.014   1.807  0.1698  0.1143  0.2050
 5394TIP3    H116188   0.115   5.945   1.810 -0.1714  0.3581 -1.2577
 5394TIP3    H216189   0.264   5.968   1.820 -0.2105 -0.2913  1.2918
 5395TIP3   OH216190   0.931   4.656   1.576 -0.3582 -0.0970  0.3934
 5395TIP3    H116191   0.968   4.692   1.495 -0.5574 -0.8649 -0.0407
 5395TIP3    H216192   0.842   4.693   1.579 -0.2163  0.2437  0.4662
 5396TIP3   OH216193   0.371   2.720   0.530 -0.4891  0.0749  0.5888
 5396TIP3    H116194   0.379   2.813   0.509 -1.6287 -0.0132 -0.3066
 5396TIP3    H216195   0.399   2.714   0.621  0.7963  1.0897  0.2876
 5397TIP3   OH216196   1.800   3.166   4.341 -0.2220  0.2484  0.3203
 5397TIP3    H116197   1.863   3.217   4.291  0.9691 -1.1501  0.3370
 5397TIP3    H216198   1.743   3.127   4.274 -1.4446  1.8781  0.3243
 5398TIP3   OH216199   2.528   1.055   0.873 -0.2268  0.0938 -0.2375
 5398TIP3    H116200   2.458   1.120   0.873 -1.2306 -0.9302 -1.3704
 5398TIP3    H216201   2.605   1.103   0.844 -0.3078  1.3432  1.4362
 5399TIP3   OH216202   3.654   2.703   1.570  0.6134 -0.4686  0.4005
 5399TIP3    H116203   3.617   2.713   1.482  0.2468  1.4879  0.7314
 5399TIP3    H216204   3.610   2.770   1.622  2.0461 -0.4715  1.6784
 5400TIP3   OH216205   4.665   4.437   2.045  0.4370  0.5970 -0.0494
 5400TIP3    H116206   4.728   4.484   2.099  1.0841 -0.9970  0.6579
 5400TIP3    H216207   4.697   4.446   1.956  1.4891  0.1141  0.2673
 5401TIP3   OH216208   0.123   2.695   3.799  0.3787 -0.1262 -0.0815
 5401TIP3    H116209   0.213   2.663   3.788  0.1883 -0.6567 -0.1564
 5401TIP3    H216210   0.131   2.771   3.856  1.1919  1.4550 -2.1511
 5402TIP3   OH216211   5.666   1.682   0.938 -0.1620 -0.2674  0.4311
 5402TIP3    H116212   5.593   1.740   0.917 -0.3492 -1.1310 -1.5235
 5402TIP3    H216213   5.727   1.692   0.865 -0.4657 -2.8693 -0.3047
 5403TIP3   OH216214   0.127   5.518   5.057  0.3468  0.0415  0.1817
 5403TIP3    H116215   0.090   5.596   5.016  0.4027 -0.6617 -1.2414
 5403TIP3    H216216   0.210   5.548   5.094 -0.1266  0.8903  0.5895
 5404TIP3   OH216217   0.496   0.945   5.183 -0.3852  0.0497  0.1282
 5404TIP3    H116218   0.509   1.036   5.210 -1.3607  0.2607 -0.0867
 5404TIP3    H216219   0.509   0.945   5.088  0.2662 -0.1652  0.2125
 5405TIP3   OH216220   3.851   5.306   1.186  0.4877 -0.3305 -0.2163
 5405TIP3    H116221   3.937   5.288   1.224  0.5341  2.3154  1.1170
 5405TIP3    H216222   3.833   5.397   1.209 -1.7856 -0.1791 -2.2381
 5406TIP3   OH216223   2.731   4.942   0.469  0.1223  0.3300 -0.1884
 5406TIP3    H116224   2.785   4.887   0.525 -0.5571  0.8406  1.0205
 5406TIP3    H216225   2.734   5.028   0.510 -1.7055  0.3426  0.0211
 5407TIP3   OH216226   5.253   3.019   1.231 -0.0187 -0.3308 -0.0207
 5407TIP3    H116227   5.278   2.949   1.170 -1.3168  1.4296 -2.7759
 5407TIP3    H216228   5.331   3.073   1.238 -0.8481  1.6913 -3.6076
 5408TIP3   OH216229   5.677   5.760   2.306  0.0712  0.2079  0.7099
 5408TIP3    H116230   5.655   5.681   2.355  0.9920 -1.0782 -0.8391
 5408TIP3    H216231   5.736   5.809   2.364 -0.6090 -0.1736  1.7353
 5409TIP3   OH216232   0.289   3.703   4.287  0.2626 -0.2628  0.7487
 5409TIP3    H116233   0.380   3.691   4.312  0.2540 -0.3525  0.7363
 5409TIP3    H216234   0.249   3.748   4.362  0.0331 -1.2963  1.2724
 5410TIP3   OH216235   1.503   1.120   4.974 -0.1369 -0.6807  0.4897
 5410TIP3    H116236   1.531   1.068   4.898 -1.1106  0.6880 -0.8597
 5410TIP3    H216237   1.423   1.164   4.946  1.8766  3.5626  0.5421
 5411TIP3   OH216238   1.250   4.704   4.319 -0.8633 -0.5959  0.2845
 5411TIP3    H116239   1.308   4.777   4.299 -2.1809  0.3351 -0.2109
 5411TIP3    H216240   1.260   4.690   4.413  1.6833 -1.8035 -0.0849
 5412TIP3   OH216241   2.832   3.956   4.641  0.4766  0.2356 -0.2803
 5412TIP3    H116242   2.837   4.000   4.556 -2.1097  3.2055  0.9085
 5412TIP3    H216243   2.901   3.997   4.693 -0.1405  0.9441  0.0034
 5413TIP3   OH216244   5.495   4.664   2.558  0.0215 -0.3531 -0.0003
 5413TIP3    H116245   5.477   4.667   2.652  1.5335 -0.2234  0.3040
 5413TIP3    H216246   5.522   4.573   2.542  0.1853 -0.2625 -0.2361
 5414TIP3   OH216247   5.575   3.738   3.319  0.1551  0.0686  0.7331
 5414TIP3    H116248   5.647   3.675   3.329 -1.5076 -1.9476  0.7486
 5414TIP3    H216249   5.577   3.762   3.226  1.2376  0.5767  0.8704
 5415TIP3   OH216250   4.497   2.181   5.024  0.0351  0.2792  0.2817
 5415TIP3    H116251   4.501   2.246   4.953 -0.1482  0.1783  0.1786
 5415TIP3    H216252   4.431   2.118   4.995 -0.1925  0.3534  0.6398
 5416TIP3   OH216253   3.096   4.366   1.863 -0.1370  0.1295  0.1165
 5416TIP3    H116254   3.011   4.402   1.838 -0.4944 -1.1016 -0.5034
 5416TIP3    H216255   3.128   4.322   1.784  0.5813 -0.3418  0.6583
 5417TIP3   OH216256   3.630   5.003   1.544  0.1527 -0.6667  0.1407
 5417TIP3    H116257   3.579   4.973   1.469 -1.4782 -0.0847  0.9844
 5417TIP3    H216258   3.664   4.923   1.584 -1.3694 -1.1959  0.4288
 5418TIP3   OH216259   1.827   3.545   1.123  0.6401 -0.4087  0.2580
 5418TIP3    H116260   1.813   3.464   1.171  1.0044  0.2115  1.4563
 5418TIP3    H216261   1.904   3.527   1.068  0.3966 -1.0285  0.1099
 5419TIP3   OH216262   5.595   1.606   4.380 -0.4199  0.4123 -0.0771
 5419TIP3    H116263   5.549   1.663   4.442 -3.2155 -1.1627 -0.5449
 5419TIP3    H216264   5.617   1.664   4.307 -0.5290  1.5010  0.7239
 5420TIP3   OH216265   0.967   2.661   4.857  0.8071  0.2928  0.1682
 5420TIP3    H116266   0.954   2.566   4.850 -1.1568  0.2272  2.9864
 5420TIP3    H216267   0.918   2.697   4.783  1.0483 -0.8459 -0.5702
 5421TIP3   OH216268   6.068   5.907   0.984  0.3224 -0.3132 -0.5273
 5421TIP3    H116269   5.989   5.884   0.936 -0.1702 -0.2792  0.2499
 5421TIP3    H216270   6.046   5.891   1.075  1.0657  0.1245 -0.2613
 5422TIP3   OH216271   2.618   3.880   1.793  0.0586 -0.3766  0.4905
 5422TIP3    H116272   2.560   3.952   1.820  0.2004 -0.5859  1.3891
 5422TIP3    H216273   2.630   3.893   1.699  3.1617  3.0712  1.1250
 5423TIP3   OH216274   3.049   5.836   0.842 -0.7744 -0.1231 -0.1755
 5423TIP3    H116275   3.099   5.777   0.898 -1.3675  2.1486  3.0085
 5423TIP3    H216276   2.970   5.856   0.891 -0.4694  3.5150 -0.8529
 5424TIP3   OH216277   5.397   0.365   0.753  0.2932  0.3241 -0.1002
 5424TIP3    H116278   5.389   0.272   0.774 -0.3468 -0.4120 -3.1772
 5424TIP3    H216279   5.323   0.407   0.798 -0.3028 -0.8822  0.0746
 5425TIP3   OH216280   5.298   3.590   3.627 -0.3320 -0.1755 -0.0172
 5425TIP3    H116281   5.318   3.645   3.703  0.4436  0.5706 -0.7435
 5425TIP3    H216282   5.215   3.547   3.650  0.3694 -0.7212  1.6447
 5426TIP3   OH216283   2.961   5.553   3.183 -0.0737 -0.0500 -0.0457
 5426TIP3    H116284   3.042   5.555   3.235 -0.8547  0.7396  1.1770
 5426TIP3    H216285   2.974   5.480   3.123  1.4516 -0.0954  0.2919
 5427TIP3   OH216286   3.802   5.719   3.307 -0.3153  0.2703  0.9002
 5427TIP3    H116287   3.715   5.756   3.324  0.8761  2.4051  2.9136
 5427TIP3    H216288   3.851   5.790   3.265  0.3520 -1.1069 -0.8018
 5428TIP3   OH216289   3.158   4.355   2.541 -0.1094  0.0464  0.2331
 5428TIP3    H116290   3.071   4.378   2.574 -0.5220  0.4378 -1.0562
 5428TIP3    H216291   3.151   4.263   2.517  0.3652 -0.4043  1.7125
 5429TIP3   OH216292   1.477   0.337   1.201 -1.3226  0.1854  0.0183
 5429TIP3    H116293   1.507   0.428   1.206 -2.2812  0.4540  1.3927
 5429TIP3    H216294   1.523   0.292   1.272 -1.9685 -0.0499  0.3026
 5430TIP3   OH216295   1.858   1.038   4.246 -0.1185 -0.0412 -0.0241
 5430TIP3    H116296   1.844   1.003   4.159  0.6207 -1.9812  0.5748
 5430TIP3    H216297   1.771   1.047   4.284 -0.4163  0.4552 -0.8117
 5431TIP3   OH216298   1.048   5.667   2.562 -0.2506 -0.5232 -0.1135
 5431TIP3    H116299   1.088   5.583   2.538 -0.3380 -0.3966 -0.7225
 5431TIP3    H216300   1.121   5.729   2.561 -0.3859 -0.3639 -0.8597
 5432TIP3   OH216301   4.385   3.135   0.273  0.3818  0.8068 -0.7874
 5432TIP3    H116302   4.336   3.147   0.192 -1.5560 -0.5148  0.1010
 5432TIP3    H216303   4.465   3.090   0.247 -0.8466 -0.8789 -1.8600
 5433TIP3   OH216304   1.926   0.921   1.107  0.1793  0.1476 -0.0956
 5433TIP3    H116305   1.988   0.992   1.096  1.9228 -0.7936  2.5618
 5433TIP3    H216306   1.970   0.844   1.070 -0.6362 -0.0432 -0.7137
 5434TIP3   OH216307   4.705   3.446   1.786  0.3754  0.1758 -0.1828
 5434TIP3    H116308   4.656   3.522   1.755  0.2578  1.1916  2.2376
 5434TIP3    H216309   4.655   3.415   1.861  1.0340 -1.6206 -0.4532
 5435TIP3   OH216310   0.127   4.198   2.352  0.1667  0.2813 -0.5247
 5435TIP3    H116311   0.189   4.255   2.307 -1.0866  1.5866 -0.6712
 5435TIP3    H216312   0.166   4.183   2.438  0.9394  0.6199 -0.8068
 5436TIP3   OH216313   1.653   1.766   4.356 -0.3077  0.2323 -0.2534
 5436TIP3    H116314   1.582   1.820   4.321 -0.9178  2.7544  4.0897
 5436TIP3    H216315   1.733   1.808   4.326 -0.7825  2.1515  1.0199
 5437TIP3   OH216316   4.771   4.310   4.376 -0.2372 -0.0899 -0.1209
 5437TIP3    H116317   4.840   4.343   4.435 -1.4954  0.4586  1.0922
 5437TIP3    H216318   4.781   4.215   4.377  1.9353  0.0330 -1.7894
 5438TIP3   OH216319   4.463   0.513   1.633  0.3014  0.0253 -0.0368
 5438TIP3    H116320   4.457   0.531   1.727  2.0944  0.7601 -0.0415
 5438TIP3    H216321   4.412   0.432   1.621  0.1316 -0.1310  1.5644
 5439TIP3   OH216322   2.251   4.546   3.394 -0.0691  0.1178 -0.5886
 5439TIP3    H116323   2.222   4.533   3.484 -1.4290 -2.4807 -1.2908
 5439TIP3    H216324   2.281   4.460   3.366  0.4440  0.8914 -2.6032
 5440TIP3   OH216325   5.245   4.939   0.763 -0.1968  0.8502 -0.5189
 5440TIP3    H116326   5.190   5.010   0.795 -1.8056  0.0216 -1.3508
 5440TIP3    H216327   5.285   4.902   0.842 -0.6911  1.5727  0.0793
 5441TIP3   OH216328   0.063   0.769   1.329  0.0067 -0.4066  0.0550
 5441TIP3    H116329   0.035   0.746   1.240 -1.1889 -1.7430  0.7303
 5441TIP3    H216330   0.014   0.849   1.349 -1.1730 -1.1327  0.1659
 5442TIP3   OH216331   2.944   4.664   2.057  0.3163 -0.4702  0.5298
 5442TIP3    H116332   3.027   4.637   2.095 -0.0442 -2.8904 -0.2883
 5442TIP3    H216333   2.882   4.596   2.082 -0.2938 -1.4249 -2.9871
 5443TIP3   OH216334   4.642   4.075   1.769  0.0139  0.3663 -0.1501
 5443TIP3    H116335   4.650   4.107   1.859 -1.1113  1.8223 -0.5366
 5443TIP3    H216336   4.694   3.995   1.768  0.0218  0.2905  1.8070
 5444TIP3   OH216337   3.620   2.597   2.143  0.2669  0.3513  0.2040
 5444TIP3    H116338   3.645   2.504   2.138 -0.6705  0.1398 -1.1017
 5444TIP3    H216339   3.647   2.633   2.058  0.4337  1.2321  0.6240
 5445TIP3   OH216340   4.630   0.318   2.523  0.0006  0.5342 -0.1462
 5445TIP3    H116341   4.603   0.243   2.470 -1.6240  2.5182 -2.3207
 5445TIP3    H216342   4.549   0.345   2.568  0.2921  1.5978 -0.2356
 5446TIP3   OH216343   3.183   1.145   1.950  0.5694 -0.0198 -0.0302
 5446TIP3    H116344   3.109   1.093   1.981  0.2834  0.3759 -0.0347
 5446TIP3    H216345   3.257   1.116   2.004  0.4567 -0.5652 -0.1712
 5447TIP3   OH216346   2.495   5.467   3.308  0.0272 -0.1296  0.0269
 5447TIP3    H116347   2.497   5.506   3.221 -1.5739  3.0709  1.2177
 5447TIP3    H216348   2.561   5.516   3.357  1.0445 -2.0169  0.6108
 5448TIP3   OH216349   3.522   0.937   4.778  0.0367  0.1461 -0.3437
 5448TIP3    H116350   3.556   1.016   4.737  2.3991 -0.1148  0.9372
 5448TIP3    H216351   3.571   0.928   4.859 -1.5703 -1.5769  0.5423
 5449TIP3   OH216352   5.019   2.732   1.544  0.0119 -0.3519 -0.1677
 5449TIP3    H116353   5.065   2.806   1.584  1.0337 -0.6311 -0.7868
 5449TIP3    H216354   5.028   2.746   1.449 -0.2919 -0.9432 -0.2908
 5450TIP3   OH216355   5.116   2.842   2.389 -0.5885  0.2219 -0.1816
 5450TIP3    H116356   5.164   2.915   2.429  0.0382 -1.2343  1.9020
 5450TIP3    H216357   5.091   2.874   2.303  0.4341  2.5704  0.3207
 5451TIP3   OH216358   6.287   4.687   2.250  0.4049 -0.0257  0.2207
 5451TIP3    H116359   6.356   4.626   2.226 -0.1784 -0.1575 -1.2469
 5451TIP3    H216360   6.299   4.761   2.190  0.9206  1.1975  1.7683
 5452TIP3   OH216361   5.666   4.271   1.023 -0.0039 -0.4852  0.2611
 5452TIP3    H116362   5.632   4.219   0.950 -2.4904 -1.6019  2.0992
 5452TIP3    H216363   5.658   4.362   0.994  0.6072 -0.9329 -1.4459
 5453TIP3   OH216364   3.636   2.346   4.996  0.7012 -0.0877  0.1745
 5453TIP3    H116365   3.710   2.352   4.936  2.0594 -0.7221  1.7058
 5453TIP3    H216366   3.596   2.261   4.977  3.0899 -1.8430  2.1792
 5454TIP3   OH216367   4.241   1.304   0.665  0.0656 -0.8685 -0.3625
 5454TIP3    H116368   4.245   1.262   0.751 -2.2398  0.0954  0.2971
 5454TIP3    H216369   4.244   1.398   0.684 -1.0079 -0.6293 -1.2685
 5455TIP3   OH216370   5.342   4.317   1.463 -0.3305 -0.2149 -0.5601
 5455TIP3    H116371   5.348   4.381   1.392 -1.7623 -0.3391 -0.8183
 5455TIP3    H216372   5.255   4.280   1.454  0.4277 -2.1626 -0.3633
 5456TIP3   OH216373   4.131   5.393   3.333 -0.0367  1.3590  0.1149
 5456TIP3    H116374   4.161   5.464   3.390  1.2319 -0.0466  1.2714
 5456TIP3    H216375   4.198   5.326   3.341 -1.1762  0.0272 -0.9886
 5457TIP3   OH216376   5.616   0.233   0.611 -0.6145 -0.3394  0.1054
 5457TIP3    H116377   5.687   0.298   0.604  0.2002 -1.1748  0.3512
 5457TIP3    H216378   5.538   0.285   0.631 -0.6517  0.9072 -2.7663
 5458TIP3   OH216379   0.461   1.744   1.700 -0.0431  0.2368  0.2392
 5458TIP3    H116380   0.446   1.723   1.792  0.8880  1.3384  0.6578
 5458TIP3    H216381   0.388   1.702   1.654 -0.1711 -0.8628  1.4004
 5459TIP3   OH216382   3.410   1.770   1.971 -0.3747 -0.6070  0.2833
 5459TIP3    H116383   3.491   1.724   1.948  0.1155  0.5265 -0.3741
 5459TIP3    H216384   3.382   1.731   2.054  0.6676 -1.2344  0.3521
 5460TIP3   OH216385   3.721   3.470   3.638 -0.7006 -0.1003 -0.4657
 5460TIP3    H116386   3.806   3.468   3.682 -0.2909  1.6106 -1.1335
 5460TIP3    H216387   3.658   3.492   3.707 -0.3249  0.5913 -0.3384
 5461TIP3   OH216388   3.312   1.307   3.107  0.1088 -0.3318 -0.1848
 5461TIP3    H116389   3.240   1.284   3.048  0.3911  1.7027 -1.4173
 5461TIP3    H216390   3.390   1.271   3.065  0.1434 -0.0937 -0.3252
 5462TIP3   OH216391   2.196   4.527   3.675  0.4399  0.2627 -0.1603
 5462TIP3    H116392   2.193   4.432   3.666  1.5984  0.2078 -0.1513
 5462TIP3    H216393   2.178   4.543   3.767 -1.3853  0.1735 -0.4744
 5463TIP3   OH216394   2.476   0.209   4.552 -0.1687  0.1036  0.3233
 5463TIP3    H116395   2.383   0.193   4.539 -0.7146  2.2641  1.2215
 5463TIP3    H216396   2.501   0.148   4.622 -1.0753  0.0071  0.5743
 5464TIP3   OH216397   6.288   0.282   0.157  0.1450 -0.0990 -0.0287
 5464TIP3    H116398   6.275   0.228   0.234 -0.4584  0.9759  0.6495
 5464TIP3    H216399   6.199   0.296   0.122  0.2257  0.8357  0.0964
 5465TIP3   OH216400   6.322   1.715   3.285  0.4333  0.0397 -0.0508
 5465TIP3    H116401   6.406   1.688   3.248  0.4059 -0.5113  0.2705
 5465TIP3    H216402   6.299   1.645   3.346  1.1002  1.5163  2.0176
 5466TIP3   OH216403   3.717   5.314   2.105  0.0774  0.7037  0.2645
 5466TIP3    H116404   3.654   5.249   2.075  1.0182 -0.0197 -0.1791
 5466TIP3    H216405   3.712   5.384   2.040 -0.1367  0.5821  0.1485
 5467TIP3   OH216406   4.479   2.054   4.614  0.5722 -0.2690 -0.4718
 5467TIP3    H116407   4.526   1.980   4.576 -0.9144 -0.7636 -1.4460
 5467TIP3    H216408   4.395   2.055   4.569 -0.5565  0.2946  1.5054
 5468TIP3   OH216409   2.194   5.061   1.833  0.9053  0.3489  0.1772
 5468TIP3    H116410   2.198   4.965   1.832 -1.7041  0.1724  0.8713
 5468TIP3    H216411   2.194   5.086   1.741 -1.3018 -0.5642 -0.1372
 5469TIP3   OH216412   0.411   3.085   2.747 -0.8157  0.5857 -0.2024
 5469TIP3    H116413   0.408   3.180   2.742  0.7352  0.6653 -0.0326
 5469TIP3    H216414   0.495   3.066   2.788 -0.3685 -0.9070 -1.6981
 5470TIP3   OH216415   1.499   5.894   3.345  1.2492 -0.5088 -0.0816
 5470TIP3    H116416   1.454   5.847   3.415  0.3582 -0.9852 -0.9510
 5470TIP3    H216417   1.557   5.956   3.391  0.1979 -0.3379  1.0727
 5471TIP3   OH216418   2.126   1.128   0.392 -0.1512 -0.0135 -0.0689
 5471TIP3    H116419   2.146   1.035   0.403 -0.3418 -0.1410 -0.7619
 5471TIP3    H216420   2.050   1.143   0.448  0.0975 -0.1920  0.3205
 5472TIP3   OH216421   3.601   5.459   1.412 -0.0380 -0.0329 -0.5634
 5472TIP3    H116422   3.659   5.386   1.431 -0.4669  0.0874  1.4633
 5472TIP3    H216423   3.632   5.530   1.469 -0.6369  0.8480 -1.2850
 5473TIP3   OH216424   1.778   3.099   1.021 -0.5327  0.6106  0.0985
 5473TIP3    H116425   1.874   3.097   1.023 -0.5201  1.3940  0.7342
 5473TIP3    H216426   1.753   3.014   0.983  0.4401  1.0613 -1.6830
 5474TIP3   OH216427   5.338   2.202   1.509 -0.0530  0.4341  0.0727
 5474TIP3    H116428   5.385   2.155   1.440  1.1835  0.7659  0.6646
 5474TIP3    H216429   5.261   2.148   1.525  0.8219 -0.8929  0.0353
 5475TIP3   OH216430   1.320   1.072   0.256  0.6656 -0.1139  0.1669
 5475TIP3    H116431   1.377   1.148   0.265 -1.1089  1.6905 -2.3306
 5475TIP3    H216432   1.261   1.076   0.332 -1.3292  2.9280 -1.3284
 5476TIP3   OH216433   1.084   5.409   2.941  0.1406  0.6173  0.1104
 5476TIP3    H116434   1.140   5.426   3.016  0.3688  1.0909 -0.1620
 5476TIP3    H216435   1.022   5.482   2.939 -0.4476  0.1346  0.3665
 5477TIP3   OH216436   5.284   5.601   5.122 -0.1567 -0.1231 -0.4091
 5477TIP3    H116437   5.332   5.679   5.149 -1.6301  0.3734  0.9317
 5477TIP3    H216438   5.252   5.622   5.034 -1.3055  1.2120  0.2838
 5478TIP3   OH216439   5.305   2.982   2.930  0.0984 -0.3163  0.5482
 5478TIP3    H116440   5.287   3.009   3.020 -0.4042 -1.9635  0.9856
 5478TIP3    H216441   5.219   2.969   2.890  0.3110 -0.5233  0.1432
 5479TIP3   OH216442   3.341   5.925   1.695  0.1805 -0.3302 -0.3412
 5479TIP3    H116443   3.246   5.925   1.705  0.0094 -3.2424 -1.1360
 5479TIP3    H216444   3.374   5.905   1.783  0.3844  3.9572  0.7784
 5480TIP3   OH216445   5.412   3.595   0.162 -0.1187 -0.5989  0.5845
 5480TIP3    H116446   5.380   3.559   0.080  0.9762 -0.5765  0.1387
 5480TIP3    H216447   5.337   3.589   0.222 -1.9456  2.0801 -1.1850
 5481TIP3   OH216448   0.005   1.486   3.442  0.3998  0.1396  0.4983
 5481TIP3    H116449   0.036   1.453   3.357 -1.7174 -0.4168 -0.1164
 5481TIP3    H216450   0.083   1.485   3.497  1.4536 -1.2907 -0.8965
 5482TIP3   OH216451   1.252   5.065   3.356  0.4618  0.5843  0.3206
 5482TIP3    H116452   1.198   4.988   3.371  0.3071  0.3264 -1.3267
 5482TIP3    H216453   1.226   5.128   3.424 -1.2560  0.1373  0.1149
 5483TIP3   OH216454   5.331   4.793   0.983 -0.2713 -0.5792  0.6154
 5483TIP3    H116455   5.253   4.742   1.002 -1.2130  0.3744 -0.4885
 5483TIP3    H216456   5.402   4.730   0.984 -1.2198 -1.6854  0.4767
 5484TIP3   OH216457   0.168   3.063   2.372 -0.1359  0.2727 -0.4548
 5484TIP3    H116458   0.074   3.043   2.369 -0.3965  1.5362 -2.2419
 5484TIP3    H216459   0.211   2.978   2.366 -1.1818 -0.2215 -1.4013
 5485TIP3   OH216460   0.775   5.228   3.345 -0.2932 -0.4325  0.2640
 5485TIP3    H116461   0.756   5.141   3.380  0.3921 -1.3269 -1.4692
 5485TIP3    H216462   0.865   5.223   3.313  0.0990  1.2247  0.9630
 5486TIP3   OH216463   3.880   4.063   4.970  0.2891 -0.7267  0.6470
 5486TIP3    H116464   3.820   4.052   5.044 -0.2379  1.3744  0.6058
 5486TIP3    H216465   3.941   4.130   4.999  0.0883  0.1214 -0.7925
 5487TIP3   OH216466   2.219   1.363   5.027 -0.1054  0.0646  0.1441
 5487TIP3    H116467   2.250   1.295   4.966  3.5410  1.6179 -0.0113
 5487TIP3    H216468   2.158   1.415   4.975  0.3607 -0.5843 -1.1132
 5488TIP3   OH216469   1.284   3.399   4.177 -0.3894 -0.0571 -0.0536
 5488TIP3    H116470   1.356   3.413   4.237 -0.2553  1.4152 -0.5223
 5488TIP3    H216471   1.285   3.305   4.160 -1.1157 -0.7317  3.0310
 5489TIP3   OH216472   1.986   2.598   3.619 -0.1653 -0.5377 -0.1923
 5489TIP3    H116473   1.954   2.512   3.592 -0.5215 -0.4228 -0.1440
 5489TIP3    H216474   2.073   2.605   3.580 -0.5772 -0.4661 -1.1336
 5490TIP3   OH216475   5.037   4.645   4.957 -0.0886 -0.4684  0.2097
 5490TIP3    H116476   5.112   4.702   4.941  0.3088 -1.3955 -1.3574
 5490TIP3    H216477   4.968   4.679   4.899 -0.8327  0.2031  1.4285
 5491TIP3   OH216478   2.690   0.242   1.303  0.5711  0.1577  0.5373
 5491TIP3    H116479   2.763   0.180   1.298  0.8822  0.6509 -1.6881
 5491TIP3    H216480   2.616   0.188   1.333  1.5692 -0.5660  1.8124
 5492TIP3   OH216481   0.359   5.768   2.171  0.3114 -0.8375  0.0363
 5492TIP3    H116482   0.421   5.828   2.213  0.3988 -1.3263  0.6134
 5492TIP3    H216483   0.401   5.744   2.089 -0.1042  0.5565 -0.6084
 5493TIP3   OH216484   2.640   4.664   4.633 -0.9126  0.0495 -0.0912
 5493TIP3    H116485   2.715   4.635   4.686  0.2650  0.1872 -1.6131
 5493TIP3    H216486   2.564   4.648   4.689  0.1192 -1.3693  0.9901
 5494TIP3   OH216487   2.949   1.118   4.681 -0.0870  0.6194  0.2909
 5494TIP3    H116488   2.909   1.040   4.644  0.2895 -0.0616  1.2786
 5494TIP3    H216489   2.890   1.190   4.657 -1.2304 -0.1813  0.6418
 5495TIP3   OH216490   2.552   5.796   1.503 -0.0444  0.2892 -0.3267
 5495TIP3    H116491   2.583   5.886   1.486 -0.3298  0.7100  1.2314
 5495TIP3    H216492   2.536   5.794   1.597  1.0079 -1.7487 -0.1394
 5496TIP3   OH216493   0.528   0.673   3.766 -0.5422 -0.3310 -0.0543
 5496TIP3    H116494   0.433   0.669   3.782 -0.7235  0.4921 -0.8270
 5496TIP3    H216495   0.562   0.593   3.806 -1.3106  0.2341  1.8613
 5497TIP3   OH216496   1.853   3.897   4.112  0.1459 -0.1911  0.3614
 5497TIP3    H116497   1.829   3.811   4.077  1.6037 -0.7397  0.6533
 5497TIP3    H216498   1.868   3.951   4.034 -0.5816 -0.2538  0.1751
 5498TIP3   OH216499   6.001   5.784   4.094  0.2940 -0.4981 -0.0444
 5498TIP3    H116500   6.006   5.688   4.093 -1.2951 -0.6260  0.6925
 5498TIP3    H216501   5.998   5.809   4.002  1.5333 -1.0681 -0.2747
 5499TIP3   OH216502   2.773   1.233   1.504 -0.0699 -0.5365  0.2457
 5499TIP3    H116503   2.775   1.328   1.514  2.7717 -0.6325  1.4248
 5499TIP3    H216504   2.745   1.200   1.589 -1.4935 -0.8025 -0.2926
 5500TIP3   OH216505   0.206   5.322   4.361  0.5166  0.0856  0.6079
 5500TIP3    H116506   0.175   5.231   4.363 -0.3980  0.3852  0.6087
 5500TIP3    H216507   0.301   5.315   4.360  0.5034 -0.8452  2.3519
 5501TIP3   OH216508   0.953   4.162   0.320 -0.0274  0.0550 -0.0428
 5501TIP3    H116509   1.034   4.141   0.274 -0.2718 -1.2543  0.0755
 5501TIP3    H216510   0.927   4.080   0.362 -1.3510  0.4715  0.0181
 5502TIP3   OH216511   6.035   5.643   0.821  0.0451  0.0171 -0.6149
 5502TIP3    H116512   5.951   5.680   0.851  1.3154  2.0672  0.6927
 5502TIP3    H216513   6.061   5.699   0.749  2.0353  1.9384  1.4313
 5503TIP3   OH216514   3.646   5.702   4.558  0.5563 -0.0148 -0.5895
 5503TIP3    H116515   3.701   5.706   4.636 -1.9405  1.7647  1.2629
 5503TIP3    H216516   3.564   5.663   4.589  0.1011 -1.0207 -2.8271
 5504TIP3   OH216517   5.821   2.707   1.411 -0.0694  0.5573  0.3705
 5504TIP3    H116518   5.828   2.758   1.492 -0.8260 -0.4292  1.0776
 5504TIP3    H216519   5.730   2.680   1.406  0.1350 -0.0531 -0.4038
 5505TIP3   OH216520   5.460   2.146   3.583  0.0475 -0.1404 -0.5739
 5505TIP3    H116521   5.481   2.150   3.677  3.6872 -1.2554 -1.1559
 5505TIP3    H216522   5.469   2.054   3.560  0.3108  0.2467 -2.1795
 5506TIP3   OH216523   3.455   1.738   0.207 -0.3624  0.3651 -0.3018
 5506TIP3    H116524   3.458   1.669   0.141 -0.4453 -0.3534  0.4303
 5506TIP3    H216525   3.373   1.784   0.189  1.1993  2.4495 -2.8940
 5507TIP3   OH216526   1.471   0.670   1.813  0.1901  0.1544 -0.0541
 5507TIP3    H116527   1.556   0.633   1.836  0.3170 -1.2504 -2.4679
 5507TIP3    H216528   1.408   0.599   1.828 -0.4072  0.7810  0.5105
 5508TIP3   OH216529   2.449   1.251   3.033  0.3363  0.2740  0.3331
 5508TIP3    H116530   2.529   1.207   3.063  1.7703  2.8173  0.5293
 5508TIP3    H216531   2.421   1.302   3.109 -2.0647 -1.2234  0.5590
 5509TIP3   OH216532   6.059   1.535   1.284  0.5582 -0.2056  0.1635
 5509TIP3    H116533   6.034   1.608   1.341 -0.1668  0.2745 -0.7521
 5509TIP3    H216534   6.093   1.469   1.344  1.3756  0.9377  0.9991
 5510TIP3   OH216535   0.807   4.055   4.973 -0.2151  0.2174  0.3081
 5510TIP3    H116536   0.727   4.021   5.014  1.0335 -2.0103  1.0546
 5510TIP3    H216537   0.814   4.145   5.006 -1.9689  0.2099  0.8412
 5511TIP3   OH216538   2.706   3.087   0.224  0.1198  0.8220  0.1532
 5511TIP3    H116539   2.799   3.099   0.202 -0.1108  0.8696 -0.8484
 5511TIP3    H216540   2.707   3.053   0.313  1.3246 -2.8620 -1.0759
 5512TIP3   OH216541   5.899   2.826   0.216  0.1883 -0.7063 -0.8374
 5512TIP3    H116542   5.930   2.790   0.132  0.3553 -2.4542 -0.0838
 5512TIP3    H216543   5.805   2.811   0.215  0.2741 -1.3110 -0.4714
 5513TIP3   OH216544   1.133   5.203   2.494  0.1081  0.0394  0.4661
 5513TIP3    H116545   1.153   5.181   2.404 -0.4262 -2.0199  0.8009
 5513TIP3    H216546   1.148   5.122   2.543 -1.7159  0.4609  1.8716
 5514TIP3   OH216547   2.158   0.927   1.760 -0.2303 -0.2783 -0.6823
 5514TIP3    H116548   2.086   0.864   1.769 -0.2678 -0.1413  0.0381
 5514TIP3    H216549   2.116   1.013   1.762  0.0333 -0.1465  1.0379
 5515TIP3   OH216550   5.557   1.890   0.258  0.1221  0.4057 -0.2707
 5515TIP3    H116551   5.511   1.967   0.292  0.3741  0.4908 -0.1159
 5515TIP3    H216552   5.488   1.826   0.243  0.0364  0.2297  0.7731
 5516TIP3   OH216553   2.272   1.893   1.427  0.3073  0.3989  0.0612
 5516TIP3    H116554   2.287   1.823   1.363  1.0543  0.9333 -0.3566
 5516TIP3    H216555   2.254   1.970   1.374 -1.6869  0.2960  0.5249
 5517TIP3   OH216556   1.620   5.269   5.080  0.4555  0.5866  0.3317
 5517TIP3    H116557   1.564   5.199   5.113  0.5650  1.1300  1.7444
 5517TIP3    H216558   1.638   5.245   4.989 -3.1072  1.0222 -0.6573
 5518TIP3   OH216559   0.937   3.953   2.980  0.4277 -1.0034  0.0190
 5518TIP3    H116560   0.957   3.898   2.904  1.5480  0.3107 -0.6678
 5518TIP3    H216561   1.013   4.010   2.990 -1.1800  1.2678 -0.0224
 5519TIP3   OH216562   0.750   4.728   3.203  0.0987 -0.7068 -0.0363
 5519TIP3    H116563   0.718   4.813   3.231 -1.7089 -1.0151 -1.0456
 5519TIP3    H216564   0.674   4.670   3.209  1.1071 -2.1034 -0.0569
 5520TIP3   OH216565   1.165   1.697   4.987  0.3594 -0.0538 -0.0387
 5520TIP3    H116566   1.256   1.703   5.017 -0.2530  2.5205  1.5625
 5520TIP3    H216567   1.113   1.706   5.066 -1.3161  0.8278 -1.1888
 5521TIP3   OH216568   6.090   2.732   0.026  0.2799 -0.0611  0.2232
 5521TIP3    H116569   6.078   2.637   0.035  2.2272 -0.2058  2.2443
 5521TIP3    H216570   6.111   2.762   0.114 -0.8215  2.3831 -0.2577
 5522TIP3   OH216571   1.245   2.688   3.927  0.2866  0.3658  0.1211
 5522TIP3    H116572   1.240   2.606   3.878  0.7608  0.1904  0.3566
 5522TIP3    H216573   1.160   2.695   3.971  0.0418  0.2780 -0.3345
 5523TIP3   OH216574   3.033   2.883   3.002 -0.7053  0.6905  0.0397
 5523TIP3    H116575   3.069   2.893   3.090 -2.0296  0.3597  0.6496
 5523TIP3    H216576   3.020   2.788   2.993 -2.3181  0.8526  0.2619
 5524TIP3   OH216577   1.896   2.202   3.830 -0.1491  0.2372  0.3389
 5524TIP3    H116578   1.886   2.256   3.751 -0.2607  0.0263  0.2059
 5524TIP3    H216579   1.932   2.119   3.797 -0.3224  0.1006  0.4896
 5525TIP3   OH216580   6.268   3.772   2.982  0.4381 -0.9098 -0.5694
 5525TIP3    H116581   6.298   3.783   2.892 -1.0296  2.8129 -0.7668
 5525TIP3    H216582   6.348   3.774   3.035  1.1442 -0.2888 -1.6269
 5526TIP3   OH216583   2.738   3.483   3.842  0.2180 -0.4359 -0.0220
 5526TIP3    H116584   2.817   3.433   3.822  0.0670 -0.4751 -0.5437
 5526TIP3    H216585   2.681   3.421   3.887 -0.4738 -1.1282 -1.7757
 5527TIP3   OH216586   1.726   5.471   4.155 -0.0640 -0.3736 -0.4425
 5527TIP3    H116587   1.763   5.390   4.120  0.0353 -0.4570 -0.1439
 5527TIP3    H216588   1.799   5.534   4.152 -0.7465  0.4302 -2.9725
 5528TIP3   OH216589   0.545   5.308   2.666 -0.0561  0.1898  0.1699
 5528TIP3    H116590   0.618   5.281   2.611 -0.0118  1.2657 -0.3174
 5528TIP3    H216591   0.469   5.306   2.608 -0.3467 -0.4973  0.5623
 5529TIP3   OH216592   5.848   4.864   2.288  0.1143 -0.0172 -0.0680
 5529TIP3    H116593   5.801   4.870   2.371 -0.8772 -1.1930 -0.5120
 5529TIP3    H216594   5.864   4.955   2.262  1.1353  0.3730  1.7651
 5530TIP3   OH216595   0.210   1.930   4.628  0.2863 -0.6156 -0.0409
 5530TIP3    H116596   0.257   1.987   4.689 -0.3044 -0.3333  0.1595
 5530TIP3    H216597   0.211   1.844   4.668  0.5403 -0.5852  0.0142
 5531TIP3   OH216598   5.242   2.489   0.860 -0.1335  0.1975  0.3138
 5531TIP3    H116599   5.248   2.584   0.853  0.9973  0.3868  2.8930
 5531TIP3    H216600   5.177   2.473   0.928  0.0493 -0.8508  0.2685
 5532TIP3   OH216601   2.066   5.581   2.798  0.3349 -0.7960 -0.2829
 5532TIP3    H116602   2.097   5.641   2.730 -0.7919  1.0669  0.7792
 5532TIP3    H216603   2.016   5.515   2.751 -0.6711  0.6169 -1.2655
 5533TIP3   OH216604   5.183   4.615   2.939  0.3509 -0.0940 -0.0517
 5533TIP3    H116605   5.118   4.545   2.937 -0.1271  0.3140  0.7639
 5533TIP3    H216606   5.156   4.676   2.871  0.5377 -0.4841 -0.4859
 5534TIP3   OH216607   0.576   3.722   2.385 -0.4118  0.6265 -0.3750
 5534TIP3    H116608   0.661   3.681   2.366 -1.0560 -0.3770 -1.2195
 5534TIP3    H216609   0.594   3.783   2.456  1.2351  1.2106 -1.2391
 5535TIP3   OH216610   2.710   1.661   3.459 -0.1550 -0.1163 -0.2876
 5535TIP3    H116611   2.768   1.609   3.515  0.5018  0.2542 -0.6103
 5535TIP3    H216612   2.635   1.604   3.442  1.2151 -1.5435 -1.8340
 5536TIP3   OH216613   5.800   3.095   3.657 -0.0708  0.0815 -0.0560
 5536TIP3    H116614   5.771   3.087   3.747  0.6016 -0.9766  0.0977
 5536TIP3    H216615   5.798   3.005   3.624  0.8443  0.2883 -0.7109
 5537TIP3   OH216616   2.214   3.045   0.448  0.4560  0.2151 -0.1879
 5537TIP3    H116617   2.151   3.073   0.381  0.1514  1.5684  0.6084
 5537TIP3    H216618   2.213   2.949   0.444 -0.9649  0.2297 -0.8399
 5538TIP3   OH216619   0.969   4.176   3.651 -0.2774  0.0202  0.3026
 5538TIP3    H116620   1.008   4.238   3.712 -0.4753  0.6175 -0.1645
 5538TIP3    H216621   1.043   4.138   3.604 -0.1941  0.4661  0.0660
 5539TIP3   OH216622   4.873   2.136   2.947 -0.0803 -1.0772 -0.1078
 5539TIP3    H116623   4.860   2.180   2.863  0.6646  0.0553  0.3451
 5539TIP3    H216624   4.928   2.196   2.997 -0.2998 -1.8506  1.0998
 5540TIP3   OH216625   6.186   3.834   4.405 -0.2344  0.0683  0.1969
 5540TIP3    H116626   6.277   3.865   4.406  0.2885 -1.3462 -0.0207
 5540TIP3    H216627   6.185   3.762   4.468 -1.4514  0.6575  0.8766
 5541TIP3   OH216628   3.033   4.216   0.950 -0.2264  0.0634  0.0846
 5541TIP3    H116629   3.035   4.153   0.878  1.3013  1.2641 -0.9611
 5541TIP3    H216630   3.123   4.217   0.983 -0.1835  1.7968 -0.0228
 5542TIP3   OH216631   3.050   2.462   2.144  0.2909 -0.5162  0.1069
 5542TIP3    H116632   2.981   2.522   2.171  0.2097  0.2490 -1.6557
 5542TIP3    H216633   3.007   2.401   2.084  1.1394  0.1101 -1.1890
 5543TIP3   OH216634   3.559   0.260   4.056  0.3348  0.4414  0.6193
 5543TIP3    H116635   3.554   0.315   3.978  1.1016 -0.8109 -0.3558
 5543TIP3    H216636   3.470   0.227   4.068  0.1352  0.9286  0.5043
 5544TIP3   OH216637   4.673   0.327   1.587 -0.0698 -0.5322 -0.7625
 5544TIP3    H116638   4.627   0.303   1.507 -0.3790 -0.5100 -0.5920
 5544TIP3    H216639   4.604   0.354   1.648  0.1113 -1.1581 -0.2756
 5545TIP3   OH216640   2.305   4.503   2.310  0.1104  0.4869 -0.2721
 5545TIP3    H116641   2.295   4.413   2.280 -0.1800  0.3555  0.1955
 5545TIP3    H216642   2.349   4.495   2.395  0.4287  0.8114 -0.4035
 5546TIP3   OH216643   3.444   5.209   1.070 -0.1750  0.1788 -0.0698
 5546TIP3    H116644   3.387   5.150   1.118  0.5471  0.3246  0.9846
 5546TIP3    H216645   3.476   5.157   0.996 -0.6537 -0.2875  0.0466
 5547TIP3   OH216646   3.703   4.332   1.609  0.1284  1.1467 -0.4819
 5547TIP3    H116647   3.651   4.290   1.540 -0.3777  2.8657 -1.1985
 5547TIP3    H216648   3.658   4.414   1.627  2.7388  2.9130 -1.3773
 5548TIP3   OH216649   0.431   0.577   0.273  0.4796  0.1213 -0.2240
 5548TIP3    H116650   0.382   0.572   0.356  0.3403 -1.9288 -0.3622
 5548TIP3    H216651   0.509   0.628   0.293  0.7295 -0.8226  1.3558
 5549TIP3   OH216652   3.975   4.809   0.712 -0.7085  0.0462  0.4264
 5549TIP3    H116653   3.895   4.860   0.696  0.5628  2.1164  0.3067
 5549TIP3    H216654   3.969   4.785   0.804 -0.5419  2.0311  1.0162
 5550TIP3   OH216655   4.100   0.349   2.821 -0.4236 -0.1200 -1.3504
 5550TIP3    H116656   4.020   0.327   2.773 -0.6196  0.2624 -1.2040
 5550TIP3    H216657   4.071   0.410   2.889 -0.4390 -1.8203  0.2605
 5551TIP3   OH216658   4.526   2.794   1.829  0.0659 -0.0824 -0.2919
 5551TIP3    H116659   4.459   2.771   1.893 -0.1242 -1.9284 -1.0893
 5551TIP3    H216660   4.583   2.856   1.875 -1.5868  0.7407  0.7336
 5552TIP3   OH216661   5.292   3.701   5.086  0.2443  0.3552  0.2375
 5552TIP3    H116662   5.360   3.634   5.085  1.0267  1.1316  0.0438
 5552TIP3    H216663   5.336   3.781   5.058 -0.4539  1.1591  1.3177
 5553TIP3   OH216664   3.445   5.808   2.225  0.4547 -0.5850  0.1654
 5553TIP3    H116665   3.475   5.722   2.255 -0.1630 -1.0567 -0.5230
 5553TIP3    H216666   3.478   5.869   2.290  1.2270 -1.3001  0.4697
 5554TIP3   OH216667   6.202   1.090   1.667 -0.5902  0.3162 -0.3485
 5554TIP3    H116668   6.288   1.092   1.709 -0.5283  0.8382 -0.4889
 5554TIP3    H216669   6.174   1.182   1.665  0.0249  0.5258 -2.6850
 5555TIP3   OH216670   6.096   3.098   2.207  0.3668 -0.1764 -0.0110
 5555TIP3    H116671   6.163   3.082   2.273  0.8187  0.3801 -0.3269
 5555TIP3    H216672   6.074   3.011   2.173  1.0880 -0.3425 -0.0569
 5556TIP3   OH216673   2.100   1.360   3.340 -0.5323 -0.2474  0.0545
 5556TIP3    H116674   2.124   1.432   3.282  0.1259 -1.0831 -0.7381
 5556TIP3    H216675   2.171   1.355   3.404 -1.2264  0.6323  0.9174
 5557TIP3   OH216676   4.368   3.383   3.892 -0.1087 -0.0987  0.6324
 5557TIP3    H116677   4.450   3.336   3.879  0.5648  0.9517  0.9211
 5557TIP3    H216678   4.393   3.475   3.892 -1.3727  0.2712  0.1380
 5558TIP3   OH216679   5.615   0.179   5.095  0.4622 -0.1131  0.6634
 5558TIP3    H116680   5.676   0.132   5.151 -0.1150 -1.2029  0.4002
 5558TIP3    H216681   5.528   0.154   5.127  0.1343  0.5618  0.3376
 5559TIP3   OH216682   2.417   2.915   3.220  0.4905 -0.0448  0.3142
 5559TIP3    H116683   2.498   2.960   3.243 -0.6015  1.4280  1.4503
 5559TIP3    H216684   2.438   2.822   3.229  1.4816  0.3377  2.7362
 5560TIP3   OH216685   5.903   4.462   1.531  0.3460  0.4103  0.0138
 5560TIP3    H116686   5.979   4.430   1.580  0.4296  0.4557 -0.0840
 5560TIP3    H216687   5.905   4.414   1.449  0.2940  0.4432 -0.0068
 5561TIP3   OH216688   0.774   3.508   4.850  0.5015 -0.0739  0.0334
 5561TIP3    H116689   0.734   3.595   4.846  1.1905  0.1820 -2.8591
 5561TIP3    H216690   0.861   3.519   4.812  0.8112 -1.9282  0.1150
 5562TIP3   OH216691   3.666   1.287   4.906  0.1032 -0.1661  0.4171
 5562TIP3    H116692   3.587   1.262   4.954  0.1710 -2.4293 -0.5226
 5562TIP3    H216693   3.656   1.247   4.820  2.5157 -1.0113  0.4451
 5563TIP3   OH216694   2.491   3.930   0.589 -0.3123  0.1464  0.2557
 5563TIP3    H116695   2.534   3.871   0.651  0.5159  0.8120  0.3331
 5563TIP3    H216696   2.447   3.995   0.643 -0.5154  0.0887  0.1614
 5564TIP3   OH216697   1.524   3.776   2.943  0.5716  0.1866 -0.2297
 5564TIP3    H116698   1.454   3.829   2.981  0.9950  1.2112 -0.8232
 5564TIP3    H216699   1.510   3.688   2.978 -0.2125  0.6662  0.7085
 5565TIP3   OH216700   0.088   4.405   2.985 -0.3056  0.4988  0.3368
 5565TIP3    H116701   0.003   4.361   2.987 -0.6102  1.0753  0.4517
 5565TIP3    H216702   0.070   4.488   2.941 -0.0585  1.1400  1.4025
 5566TIP3   OH216703   6.280   2.304   0.739  0.3227 -0.4139 -0.6820
 5566TIP3    H116704   6.234   2.291   0.822  1.5092 -0.6632 -0.0451
 5566TIP3    H216705   6.248   2.234   0.683 -1.5455  0.5744 -0.9444
 5567TIP3   OH216706   3.935   5.578   1.495  0.1307  0.1215 -0.5719
 5567TIP3    H116707   4.029   5.571   1.483  0.7074  1.0524  2.4774
 5567TIP3    H216708   3.920   5.670   1.515 -1.1677 -0.2935  0.5381
 5568TIP3   OH216709   6.189   0.312   5.023 -0.3491  0.6884 -0.1135
 5568TIP3    H116710   6.201   0.370   4.947  2.2277 -2.8294 -2.7514
 5568TIP3    H216711   6.272   0.319   5.071  0.5391 -1.5405 -1.1930
 5569TIP3   OH216712   6.139   0.501   4.765 -0.7862  0.5300 -0.2954
 5569TIP3    H116713   6.075   0.558   4.810 -0.4924 -0.5792  1.6565
 5569TIP3    H216714   6.099   0.414   4.768 -0.0044  0.1533 -0.7195
 5570TIP3   OH216715   0.839   1.888   4.336 -0.0398 -0.5355  0.0769
 5570TIP3    H116716   0.895   1.819   4.300 -0.9122 -0.5467 -1.3545
 5570TIP3    H216717   0.761   1.842   4.367 -0.2449 -0.2927 -0.0705
 5571TIP3   OH216718   3.116   1.334   2.904  0.0113 -0.1346  0.6217
 5571TIP3    H116719   3.080   1.411   2.860  0.0923  0.1565  1.0614
 5571TIP3    H216720   3.042   1.296   2.951 -0.8603 -2.2164 -2.1512
 5572TIP3   OH216721   4.851   2.732   4.647  0.4711  0.0126  0.2357
 5572TIP3    H116722   4.933   2.771   4.618  0.9612  0.2985  1.8764
 5572TIP3    H216723   4.783   2.795   4.622  0.1852 -1.6843 -4.1929
 5573TIP3   OH216724   2.961   0.852   4.545 -0.0487 -0.0156  0.0237
 5573TIP3    H116725   3.047   0.866   4.506 -0.0263  1.8951  0.6268
 5573TIP3    H216726   2.902   0.841   4.471  0.6163 -0.8252 -0.4064
 5574TIP3   OH216727   2.854   4.161   2.146 -0.2062  0.7337  0.2015
 5574TIP3    H116728   2.820   4.144   2.057 -0.6525  1.2857  0.2608
 5574TIP3    H216729   2.945   4.185   2.133  0.5359 -1.7987  0.1168
 5575TIP3   OH216730   1.790   0.946   0.604  0.3169 -0.4433 -0.8361
 5575TIP3    H116731   1.866   0.888   0.613 -0.1682 -0.7929  1.5419
 5575TIP3    H216732   1.716   0.887   0.594 -0.0072 -0.2289  0.1629
 5576TIP3   OH216733   2.100   0.520   0.806  0.3562  0.1296 -0.2506
 5576TIP3    H116734   2.191   0.500   0.784  0.9083  1.1888  0.9369
 5576TIP3    H216735   2.048   0.475   0.739  1.7600 -0.2011 -1.1460
 5577TIP3   OH216736   6.043   0.274   4.312  0.3942 -0.3657  0.3366
 5577TIP3    H116737   6.102   0.278   4.387  0.1963 -0.7668  0.5218
 5577TIP3    H216738   5.963   0.234   4.348 -0.3567  1.0738  0.3245
 5578TIP3   OH216739   2.833   2.896   3.415  0.5051  0.4762  0.2290
 5578TIP3    H116740   2.799   2.937   3.495  0.4233 -0.5766  0.7433
 5578TIP3    H216741   2.799   2.951   3.344  0.3112  1.2320  0.8961
 5579TIP3   OH216742   3.738   4.227   2.584 -0.0739 -0.5360  0.1694
 5579TIP3    H116743   3.675   4.181   2.640  1.0674 -1.3220  0.8491
 5579TIP3    H216744   3.819   4.228   2.635  0.3002  1.0703 -0.3931
 5580TIP3   OH216745   3.858   3.639   0.943 -0.5942  0.4940 -0.0887
 5580TIP3    H116746   3.874   3.691   1.021 -1.0634 -0.8281  0.9081
 5580TIP3    H216747   3.864   3.548   0.972 -0.0076 -0.0359 -1.7417
 5581TIP3   OH216748   3.785   3.976   3.959  0.1688 -0.7640  0.3555
 5581TIP3    H116749   3.870   3.981   3.915 -0.3689  1.1935 -0.5672
 5581TIP3    H216750   3.799   4.020   4.043 -0.3271  1.3240 -0.5831
 5582TIP3   OH216751   1.686   3.683   4.514  0.3200  0.8543 -0.3649
 5582TIP3    H116752   1.773   3.719   4.500  1.0134  0.1342  1.7237
 5582TIP3    H216753   1.701   3.596   4.553 -1.3226 -0.2233 -1.9399
 5583TIP3   OH216754   6.032   2.819   1.817 -0.0783  0.0777  0.9283
 5583TIP3    H116755   6.111   2.776   1.851  1.0707  0.5878 -0.9596
 5583TIP3    H216756   6.038   2.909   1.848  0.2016  0.1651  0.6287
 5584TIP3   OH216757   2.976   1.554   3.911  0.3287  0.3135  0.2010
 5584TIP3    H116758   2.967   1.650   3.908  0.8370  0.5119  2.5519
 5584TIP3    H216759   3.070   1.539   3.921  0.3078 -0.4763 -0.6908
 5585TIP3   OH216760   3.070   1.725   2.396 -0.6923 -0.2378 -0.3299
 5585TIP3    H116761   2.987   1.769   2.414 -0.0026  0.0048  2.9873
 5585TIP3    H216762   3.052   1.632   2.412 -0.2552 -0.1247  0.9145
 5586TIP3   OH216763   0.149   3.199   4.125 -0.4391 -0.1585 -0.2475
 5586TIP3    H116764   0.065   3.238   4.099 -0.8820 -1.1048 -0.2861
 5586TIP3    H216765   0.205   3.274   4.144 -1.5786  0.4948  0.6818
 5587TIP3   OH216766   1.525   0.694   0.658 -0.7380  0.1044  0.4630
 5587TIP3    H116767   1.455   0.632   0.677 -0.1645 -0.6259  0.2514
 5587TIP3    H216768   1.486   0.757   0.597 -1.1265 -0.4652  0.1189
 5588TIP3   OH216769   3.501   3.097   2.485 -0.7085 -0.4258 -0.2416
 5588TIP3    H116770   3.595   3.096   2.466 -0.5466  1.9933  0.0415
 5588TIP3    H216771   3.491   3.042   2.563  0.9974  1.5398  1.4854
 5589TIP3   OH216772   5.279   2.212   2.283  0.1097 -0.2755  0.0519
 5589TIP3    H116773   5.265   2.150   2.354 -0.7179 -0.0739  0.0822
 5589TIP3    H216774   5.214   2.281   2.299 -2.8958 -2.1336 -3.0613
 5590TIP3   OH216775   1.059   0.932   0.898  0.3121  0.1857  0.3447
 5590TIP3    H116776   0.967   0.937   0.921 -0.1563 -0.1189 -1.3233
 5590TIP3    H216777   1.095   1.016   0.925 -1.7397  2.8193 -3.9473
 5591TIP3   OH216778   4.641   2.371   1.595  0.5150  0.1348  0.6068
 5591TIP3    H116779   4.559   2.323   1.583  1.6875 -1.9683  0.5130
 5591TIP3    H216780   4.620   2.440   1.658 -1.5919  0.4192 -0.3421
 5592TIP3   OH216781   0.039   5.477   2.062 -0.0274 -0.2491  0.2868
 5592TIP3    H116782   0.043   5.511   2.151 -0.1517 -0.1796  0.2659
 5592TIP3    H216783  -0.044   5.508   2.028  0.2521  0.1630 -0.0284
 5593TIP3   OH216784   1.640   2.616   3.080  0.1511  0.1118 -0.2849
 5593TIP3    H116785   1.725   2.603   3.037 -0.6343  0.8674 -2.1944
 5593TIP3    H216786   1.600   2.529   3.079  0.8327 -0.2207  0.5016
 5594TIP3   OH216787   1.615   4.979   1.561  0.0137  0.9922  0.2657
 5594TIP3    H116788   1.562   4.983   1.641 -0.1010 -1.4040  0.3682
 5594TIP3    H216789   1.638   5.070   1.544 -2.4128  1.9073  1.3574
 5595TIP3   OH216790   6.024   1.429   2.475 -0.5965 -0.4269 -0.3999
 5595TIP3    H116791   6.070   1.347   2.459  1.2775  0.2967  0.8708
 5595TIP3    H216792   5.986   1.419   2.563  0.6027  0.4309  0.2447
 5596TIP3   OH216793   3.337   3.500   0.754 -0.3627  0.5100 -0.6548
 5596TIP3    H116794   3.391   3.519   0.678  1.6271  1.5349  0.9332
 5596TIP3    H216795   3.395   3.453   0.814 -1.8572 -0.2361  0.2713
 5597TIP3   OH216796   3.182   5.248   5.097  0.2744 -0.0479 -0.5320
 5597TIP3    H116797   3.130   5.288   5.027  0.3351 -1.1879 -1.2634
 5597TIP3    H216798   3.129   5.173   5.126  1.0177 -0.6016 -0.5661
 5598TIP3   OH216799   2.862   0.177   4.532 -0.1051 -0.6035 -0.2049
 5598TIP3    H116800   2.766   0.180   4.532 -0.1872 -1.9488  0.8579
 5598TIP3    H216801   2.883   0.083   4.536  1.2717 -0.3616 -1.1080
 5599TIP3   OH216802   5.576   4.779   4.975  0.3730  0.3137 -0.3375
 5599TIP3    H116803   5.533   4.856   5.011 -1.3853 -0.3713 -0.8886
 5599TIP3    H216804   5.569   4.788   4.880  2.0091  0.4606 -0.4817
 5600TIP3   OH216805   4.641   4.345   0.328 -0.5157 -0.0456 -0.2630
 5600TIP3    H116806   4.725   4.344   0.375 -1.0448  0.3952  0.7167
 5600TIP3    H216807   4.643   4.265   0.274  0.3146 -0.3062  0.1392
 5601TIP3   OH216808   2.460   4.502   4.934  0.0345 -0.1649 -0.2315
 5601TIP3    H116809   2.376   4.461   4.914 -0.4538  1.1248 -0.9048
 5601TIP3    H216810   2.450   4.593   4.908  1.9169 -0.1493 -1.1259
 5602TIP3   OH216811   5.972   5.172   1.212 -0.3552 -0.0030 -0.2364
 5602TIP3    H116812   6.001   5.234   1.145  1.0429 -0.7575 -0.3633
 5602TIP3    H216813   5.935   5.099   1.164  1.4000 -0.9183 -0.2621
 5603TIP3   OH216814   0.123   3.514   3.801 -0.1772  0.5472  0.3892
 5603TIP3    H116815   0.136   3.487   3.710  0.2138  0.4522  0.4735
 5603TIP3    H216816   0.190   3.581   3.817  0.0812  0.2049  0.7578
 5604TIP3   OH216817   5.236   3.371   1.723 -0.1941  0.2407  0.2383
 5604TIP3    H116818   5.316   3.332   1.758 -0.1062 -0.3528 -0.5802
 5604TIP3    H216819   5.170   3.356   1.790 -0.1492 -1.2968 -0.0339
 5605TIP3   OH216820   0.359   4.888   3.431 -0.4613  0.0764 -0.1088
 5605TIP3    H116821   0.313   4.865   3.351  0.8699 -0.4853 -0.7368
 5605TIP3    H216822   0.386   4.979   3.417 -0.5583  0.1023 -0.1307
 5606TIP3   OH216823   3.667   5.896   2.957 -0.2031  0.5259  0.4215
 5606TIP3    H116824   3.603   5.857   2.897 -0.2608  1.3212 -0.0440
 5606TIP3    H216825   3.698   5.975   2.912 -0.7771  1.5418  1.7498
 5607TIP3   OH216826   1.565   4.959   0.171 -0.2540  0.5215  0.2255
 5607TIP3    H116827   1.576   4.889   0.235 -0.9103  0.9202  0.7904
 5607TIP3    H216828   1.470   4.967   0.160 -0.2150  1.7653  0.6682
 5608TIP3   OH216829   2.770   2.877   1.008 -0.6287  0.8054  0.1145
 5608TIP3    H116830   2.779   2.898   0.915 -0.8281 -0.2620 -0.1656
 5608TIP3    H216831   2.723   2.793   1.009  1.9561 -0.7380  1.0389
 5609TIP3   OH216832   4.424   4.409   1.725 -0.4446 -0.1866 -0.1737
 5609TIP3    H116833   4.514   4.406   1.692 -0.3483  0.7980 -0.0399
 5609TIP3    H216834   4.392   4.496   1.698 -0.5183  0.4685  1.8849
 5610TIP3   OH216835   2.641   5.039   2.003 -0.5028 -0.2843  0.2029
 5610TIP3    H116836   2.711   5.002   2.056 -0.7330 -1.2469 -0.1489
 5610TIP3    H216837   2.569   4.976   2.010 -1.5740  0.9799  1.0549
 5611TIP3   OH216838   5.336   4.003   0.748 -0.0996 -0.6548 -0.6403
 5611TIP3    H116839   5.254   4.031   0.707 -0.0995 -0.7428 -0.7008
 5611TIP3    H216840   5.313   3.925   0.798  0.2138 -1.4732 -1.7406
 5612TIP3   OH216841   1.660   5.505   4.839 -0.0817 -0.3701 -0.6948
 5612TIP3    H116842   1.717   5.497   4.915  0.8737  0.6132 -1.2800
 5612TIP3    H216843   1.715   5.545   4.771 -1.6513  1.3803 -1.0477
 5613TIP3   OH216844   1.404   3.493   0.689 -0.1488  0.0084 -0.1352
 5613TIP3    H116845   1.488   3.538   0.682  0.8337 -1.3564  1.7594
 5613TIP3    H216846   1.415   3.412   0.640  0.4182 -1.0960  1.6931
 5614TIP3   OH216847   1.405   0.689   4.914 -0.2173  0.2560 -0.1143
 5614TIP3    H116848   1.403   0.685   5.009 -0.0287 -1.5038 -0.1360
 5614TIP3    H216849   1.478   0.747   4.893  1.5595 -1.4709  0.8725
 5615TIP3   OH216850   5.374   2.874   1.738 -0.2973 -0.2720 -0.1988
 5615TIP3    H116851   5.419   2.795   1.711 -0.3604  0.5733 -3.0879
 5615TIP3    H216852   5.438   2.944   1.726 -0.7425  0.3376  0.7752
 5616TIP3   OH216853   3.023   2.315   5.120 -0.0239 -0.1692  0.2843
 5616TIP3    H116854   2.978   2.279   5.197 -0.2605 -0.2643  0.1035
 5616TIP3    H216855   3.114   2.284   5.128 -0.0511 -0.1834  0.5213
 5617TIP3   OH216856   5.848   3.306   1.623 -0.2342  0.0716  0.2425
 5617TIP3    H116857   5.902   3.276   1.550 -0.1024  1.0201 -0.0723
 5617TIP3    H216858   5.899   3.286   1.701  0.5379  0.8346 -0.0457
 5618TIP3   OH216859   0.927   2.620   3.713  0.4515 -0.6851 -0.0952
 5618TIP3    H116860   0.907   2.673   3.635 -1.9603 -1.0217  0.2050
 5618TIP3    H216861   0.997   2.561   3.684  0.5538  0.0998 -1.5924
 5619TIP3   OH216862   6.012   2.650   3.009  0.1348 -0.4199  0.0262
 5619TIP3    H116863   6.105   2.660   2.987 -0.0855  0.3298 -0.5952
 5619TIP3    H216864   6.009   2.661   3.104  0.5521  0.5989 -0.0663
 5620TIP3   OH216865   4.855   0.789   1.587 -0.3140  0.4586  0.1395
 5620TIP3    H116866   4.852   0.694   1.577 -1.8911  0.5987 -1.2003
 5620TIP3    H216867   4.807   0.806   1.669 -0.7989  0.1327 -0.0695
 5621TIP3   OH216868   1.506   1.570   3.297 -0.8483  0.3517 -0.4477
 5621TIP3    H116869   1.584   1.621   3.318 -1.3515  0.6416  0.8183
 5621TIP3    H216870   1.457   1.625   3.237 -0.8061  0.8338 -0.0427
 5622TIP3   OH216871   0.748   3.535   3.319  0.3040  1.1504 -0.6054
 5622TIP3    H116872   0.661   3.504   3.293  0.3870  2.1014 -2.1405
 5622TIP3    H216873   0.754   3.623   3.283  1.6486  1.3727  0.0979
 5623TIP3   OH216874   0.984   3.269   1.051  0.1130  0.3524 -0.0147
 5623TIP3    H116875   1.065   3.234   1.012  0.7306  1.5888  0.1118
 5623TIP3    H216876   0.958   3.202   1.114  0.0014 -0.9188 -1.3591
 5624TIP3   OH216877   1.594   3.282   4.652  0.0606  0.0583  0.4679
 5624TIP3    H116878   1.669   3.330   4.618 -0.7162  1.4093  0.6120
 5624TIP3    H216879   1.624   3.191   4.655  0.6591  0.0530 -2.4467
 5625TIP3   OH216880   4.955   0.342   2.533 -0.5069  0.1039  0.3717
 5625TIP3    H116881   4.931   0.250   2.538 -2.0603  0.2506 -2.3068
 5625TIP3    H216882   5.047   0.342   2.508 -0.6804 -0.7601 -0.3172
 5626TIP3   OH216883   6.342   3.412   3.504  0.2049  0.2887  0.5973
 5626TIP3    H116884   6.396   3.377   3.433 -1.0501 -1.0601  0.2506
 5626TIP3    H216885   6.265   3.448   3.460 -0.2426  0.1113  1.2119
 5627TIP3   OH216886   2.541   4.601   2.138 -0.3742  0.2361  0.3865
 5627TIP3    H116887   2.632   4.573   2.155 -0.1671 -1.2964 -2.4670
 5627TIP3    H216888   2.489   4.551   2.201  0.5226 -2.2512 -0.6754
 5628TIP3   OH216889   0.175   0.368   2.867  0.0501 -0.6133  0.0883
 5628TIP3    H116890   0.115   0.309   2.913 -1.0587 -0.7500 -1.4717
 5628TIP3    H216891   0.161   0.453   2.907 -0.5725 -0.8076  0.2924
 5629TIP3   OH216892   2.366   0.296   4.850 -0.0841 -0.1358 -0.0134
 5629TIP3    H116893   2.436   0.233   4.831 -0.9191 -0.6292 -1.6854
 5629TIP3    H216894   2.404   0.381   4.828  0.3427 -0.2912  0.1189
 5630TIP3   OH216895   1.666   1.540   1.731 -0.5007 -1.1183  0.0232
 5630TIP3    H116896   1.668   1.588   1.648 -0.7215 -0.0414  0.6146
 5630TIP3    H216897   1.673   1.448   1.706 -1.6237 -0.8969 -1.2597
 5631TIP3   OH216898   3.397   3.572   4.304 -0.1314 -0.2513  0.2781
 5631TIP3    H116899   3.333   3.620   4.356  0.8372  0.9433  0.4071
 5631TIP3    H216900   3.405   3.622   4.223  0.2203 -0.7021  0.0270
 5632TIP3   OH216901   2.590   5.513   2.788  0.1267  0.0709  0.2206
 5632TIP3    H116902   2.639   5.496   2.869 -2.0292  0.3993  1.6894
 5632TIP3    H216903   2.595   5.608   2.776  0.9535 -0.0400 -0.4118
 5633TIP3   OH216904   5.817   3.022   4.201 -0.2886  0.3856 -0.3006
 5633TIP3    H116905   5.884   2.982   4.146  1.8151  1.2540  1.4793
 5633TIP3    H216906   5.738   3.020   4.147  0.5428 -2.8160 -1.6163
 5634TIP3   OH216907   1.362   3.543   4.973 -0.3054 -0.3604  0.1387
 5634TIP3    H116908   1.309   3.600   4.918 -0.1715  0.8055  1.1547
 5634TIP3    H216909   1.382   3.597   5.050  3.1447 -0.3775 -0.5914
 5635TIP3   OH216910   3.290   3.881   2.979 -0.3853  0.3994 -0.1570
 5635TIP3    H116911   3.244   3.803   2.951  1.3572 -0.5647 -0.4988
 5635TIP3    H216912   3.304   3.869   3.073 -1.6107  1.1458  0.1467
 5636TIP3   OH216913   2.333   2.633   3.580 -0.2108  0.1706  0.3654
 5636TIP3    H116914   2.335   2.623   3.675 -1.0227 -0.6911  0.3096
 5636TIP3    H216915   2.274   2.564   3.550  0.3336  0.1855 -0.7992
 5637TIP3   OH216916   0.597   3.916   1.137  0.0663 -0.4706  0.0662
 5637TIP3    H116917   0.530   3.969   1.180 -0.4881 -1.5509  0.5412
 5637TIP3    H216918   0.564   3.903   1.048  0.2228 -0.0056 -0.0651
 5638TIP3   OH216919   2.674   3.348   5.055  0.0474 -0.6764  0.3957
 5638TIP3    H116920   2.605   3.301   5.102 -0.9347 -1.0197 -1.2960
 5638TIP3    H216921   2.680   3.303   4.971  1.3451  0.2636 -0.0484
 5639TIP3   OH216922   0.277   4.836   0.617  0.3304 -0.3100  0.5920
 5639TIP3    H116923   0.272   4.767   0.685  1.7334 -0.7297  0.2967
 5639TIP3    H216924   0.211   4.900   0.644 -0.3674 -1.3199  1.3906
 5640TIP3   OH216925   3.089   3.158   2.663  0.1842  0.0355  0.1538
 5640TIP3    H116926   3.181   3.178   2.684 -0.2674  0.3133  1.9931
 5640TIP3    H216927   3.058   3.235   2.616  0.5824  0.4287  0.5197
 5641TIP3   OH216928   1.944   1.782   2.580 -0.2282 -0.1244 -0.0844
 5641TIP3    H116929   1.874   1.717   2.569 -0.2653  0.0994 -1.2839
 5641TIP3    H216930   1.950   1.826   2.495  1.7364 -0.4898 -0.1735
 5642TIP3   OH216931   1.017   1.811   0.275  0.4322 -0.2646 -0.4232
 5642TIP3    H116932   0.958   1.736   0.286 -0.6447  0.4240 -1.3351
 5642TIP3    H216933   1.099   1.772   0.246  0.1235 -1.1607 -0.1224
 5643TIP3   OH216934   1.931   4.052   1.672 -0.0422  0.1149  0.1208
 5643TIP3    H116935   1.952   4.112   1.601 -0.2188 -0.4771 -0.4435
 5643TIP3    H216936   2.006   4.057   1.732  0.7942 -0.4701 -0.8518
 5644TIP3   OH216937   1.490   5.161   4.377  0.7155 -0.6192 -0.5657
 5644TIP3    H116938   1.469   5.242   4.330 -2.0054 -0.4260  0.7735
 5644TIP3    H216939   1.586   5.157   4.377  0.8929  1.7364 -2.0592
 5645TIP3   OH216940   0.677   2.866   3.189  0.3007  0.0783  0.3332
 5645TIP3    H116941   0.768   2.838   3.197 -0.1117 -1.5230 -0.2091
 5645TIP3    H216942   0.626   2.786   3.200 -0.9095  0.3332 -2.4486
 5646TIP3   OH216943   6.332   5.337   3.853 -0.1516  0.1412 -0.1976
 5646TIP3    H116944   6.274   5.382   3.792 -2.4028  1.3766  2.5778
 5646TIP3    H216945   6.274   5.279   3.902  1.5899 -1.0334  0.5701
 5647TIP3   OH216946   0.171   5.558   1.147  0.4587 -0.1412  0.0624
 5647TIP3    H116947   0.226   5.636   1.150 -0.1814  0.3076  0.4903
 5647TIP3    H216948   0.161   5.532   1.239 -1.5554  0.9001  0.2017
 5648TIP3   OH216949   2.691   4.256   2.810 -0.0425 -0.4885  0.1397
 5648TIP3    H116950   2.671   4.242   2.903  1.3657  1.7086  0.8536
 5648TIP3    H216951   2.762   4.195   2.791  3.8353  2.8268  2.2982
 5649TIP3   OH216952   2.036   3.191   1.043  0.0072  0.2479  0.2527
 5649TIP3    H116953   2.055   3.256   1.110  0.9905 -0.5490  0.7805
 5649TIP3    H216954   2.095   3.212   0.970 -1.1205  1.1651 -0.4270
 5650TIP3   OH216955   1.907   0.079   4.894 -0.1498 -0.2634  0.5517
 5650TIP3    H116956   1.994   0.049   4.920  0.5040  0.5692 -0.5392
 5650TIP3    H216957   1.860   0.090   4.976 -0.2542 -3.5443  1.0709
 5651TIP3   OH216958   6.088   0.218   1.800  0.0269  0.0002 -0.2801
 5651TIP3    H116959   6.167   0.177   1.765 -0.4571 -2.0311  0.8438
 5651TIP3    H216960   6.119   0.285   1.860  1.0099 -2.2565  1.8728
 5652TIP3   OH216961   3.970   5.741   4.981  0.1529 -0.0710  0.1433
 5652TIP3    H116962   3.925   5.680   5.040  0.6053  1.1483  1.8244
 5652TIP3    H216963   3.954   5.827   5.018  2.3633  0.5597 -0.1897
 5653TIP3   OH216964   5.171   2.365   3.871  0.6788  0.3119 -0.0510
 5653TIP3    H116965   5.106   2.300   3.843  1.2628  0.0684 -0.8742
 5653TIP3    H216966   5.165   2.365   3.967  2.3295 -2.7377  0.1546
 5654TIP3   OH216967   4.455   2.026   0.624 -0.0823  0.8179 -0.0724
 5654TIP3    H116968   4.482   2.051   0.536  1.1251  0.4074  0.1546
 5654TIP3    H216969   4.360   2.020   0.620 -0.0511  0.9688 -1.2971
 5655TIP3   OH216970   3.247   4.577   1.153 -0.0932  0.4876 -0.6661
 5655TIP3    H116971   3.273   4.499   1.202  1.3671  0.1055 -1.9692
 5655TIP3    H216972   3.211   4.636   1.219  1.4034 -0.1791  0.8047
 5656TIP3   OH216973   0.852   0.141   2.932 -0.4280 -0.4913 -0.0792
 5656TIP3    H116974   0.762   0.170   2.948 -0.5996 -0.8035 -0.4520
 5656TIP3    H216975   0.907   0.209   2.969 -0.8201 -0.6688  0.8499
 5657TIP3   OH216976   4.688   5.630   2.943 -0.3827 -0.2600 -0.2624
 5657TIP3    H116977   4.661   5.541   2.920 -0.9999  0.0602 -0.8120
 5657TIP3    H216978   4.625   5.686   2.898  0.1996  0.4667 -0.1786
 5658TIP3   OH216979   4.641   4.974   4.361 -0.2593 -0.0582 -0.5835
 5658TIP3    H116980   4.697   4.927   4.299  0.7697  0.3323  0.0180
 5658TIP3    H216981   4.570   5.008   4.308  0.3252 -0.1738 -1.4678
 5659TIP3   OH216982   4.197   2.891   4.679  0.0735 -0.1455  0.0050
 5659TIP3    H116983   4.204   2.973   4.729 -1.1637 -0.1304  0.1837
 5659TIP3    H216984   4.132   2.909   4.612  1.7660 -0.1480 -1.7114
 5660TIP3   OH216985   6.319   1.999   1.081  0.0876 -0.0719  0.8545
 5660TIP3    H116986   6.226   1.981   1.098  0.2838 -0.0498  2.0844
 5660TIP3    H216987   6.319   2.081   1.031 -0.5420  0.5800  1.8606
 5661TIP3   OH216988   0.058   3.752   2.749  0.4303  1.0380 -0.1401
 5661TIP3    H116989   0.113   3.807   2.695 -0.9286  2.4069 -0.1836
 5661TIP3    H216990   0.035   3.678   2.693  0.5601  1.4922 -0.7953
 5662TIP3   OH216991   3.742   2.411   1.785 -0.0812  1.1532  0.2014
 5662TIP3    H116992   3.737   2.387   1.693 -0.5510  1.0194  0.2636
 5662TIP3    H216993   3.664   2.373   1.825  0.4840  0.5935  0.7984
 5663TIP3   OH216994   5.574   2.088   1.071  0.5531  0.4279 -0.5086
 5663TIP3    H116995   5.515   2.014   1.061  1.0496  0.0189 -0.4609
 5663TIP3    H216996   5.619   2.072   1.154  0.0739  1.2099 -0.0893
 5664TIP3   OH216997   1.759   4.466   3.984  0.2707  0.0034 -0.4641
 5664TIP3    H116998   1.742   4.487   4.076  0.0512 -1.5050 -0.1467
 5664TIP3    H216999   1.834   4.406   3.986 -0.6845 -1.2580 -1.1314
 5665TIP3   OH217000   2.696   4.038   4.133  0.0414 -0.1879 -0.4278
 5665TIP3    H117001   2.719   4.101   4.201  0.3723 -0.1540 -0.5734
 5665TIP3    H217002   2.717   3.953   4.170  0.4268 -0.1556 -0.5691
 5666TIP3   OH217003   3.819   2.151   1.955 -0.0860 -0.4308 -0.0777
 5666TIP3    H117004   3.743   2.127   1.902 -0.1170  0.7516 -0.5885
 5666TIP3    H217005   3.833   2.075   2.012 -2.6951 -0.0131  1.2414
 5667TIP3   OH217006   0.839   4.855   0.459  0.1518 -0.0868  0.1040
 5667TIP3    H117007   0.891   4.911   0.517  1.5694 -0.9205 -0.2910
 5667TIP3    H217008   0.904   4.800   0.415 -1.1207 -1.4960 -0.0937
 5668TIP3   OH217009   1.180   2.879   2.870 -0.3157  0.7512  0.0028
 5668TIP3    H117010   1.251   2.932   2.834  0.7260 -0.1478  0.6917
 5668TIP3    H217011   1.222   2.822   2.934 -1.4405 -0.6901 -0.4790
 5669TIP3   OH217012   4.374   4.086   1.406  0.4219 -0.1307 -1.0906
 5669TIP3    H117013   4.350   3.998   1.378 -1.0021  0.2589 -1.1671
 5669TIP3    H217014   4.379   4.081   1.501 -1.8384  0.1678 -0.9007
 5670TIP3   OH217015   6.274   5.813   1.704  0.0858  0.0821 -0.0687
 5670TIP3    H117016   6.324   5.809   1.785 -0.4559  2.9779  0.5081
 5670TIP3    H217017   6.184   5.834   1.731  0.6064  5.2466 -1.3530
 5671TIP3   OH217018   6.048   2.366   4.490  0.6585  0.3250 -0.0847
 5671TIP3    H117019   6.063   2.275   4.467 -0.5869  0.0788 -0.0022
 5671TIP3    H217020   6.011   2.364   4.578 -1.9618  0.6495 -1.0850
 5672TIP3   OH217021   4.052   0.822   2.883 -0.0238 -0.0580  0.4948
 5672TIP3    H117022   3.995   0.893   2.913  0.6533 -0.0502  1.8697
 5672TIP3    H217023   4.088   0.853   2.800 -0.1230  0.9853  0.8315
 5673TIP3   OH217024   3.930   1.674   2.933  0.2351 -0.2159  0.0774
 5673TIP3    H117025   3.845   1.692   2.893  0.1195 -1.0000 -0.0385
 5673TIP3    H217026   3.993   1.683   2.862  0.2892  0.6219  0.2177
 5674TIP3   OH217027   1.892   3.896   3.158  0.4104  0.2092  0.0323
 5674TIP3    H117028   1.952   3.952   3.109  0.3505  1.4544  1.3385
 5674TIP3    H217029   1.806   3.914   3.120  0.4373  0.7567  0.2284
 5675TIP3   OH217030   4.053   5.209   3.794  0.0413  0.3116 -0.2713
 5675TIP3    H117031   4.030   5.241   3.707 -2.7142 -0.1176  0.2039
 5675TIP3    H217032   4.017   5.275   3.854  0.8245  0.0036  0.5644
 5676TIP3   OH217033   2.106   3.017   1.240  0.1487  0.0107 -0.5475
 5676TIP3    H117034   2.049   3.043   1.168 -0.1140 -1.6988 -1.0002
 5676TIP3    H217035   2.183   2.979   1.197 -0.2397 -1.5070  0.0525
 5677TIP3   OH217036   5.829   0.861   1.967 -0.0008  0.1430 -0.2526
 5677TIP3    H117037   5.818   0.766   1.976  0.0505 -0.0702 -2.0565
 5677TIP3    H217038   5.759   0.888   1.908 -0.5066  1.3844  0.8673
 5678TIP3   OH217039   0.280   2.365   1.368  0.1865 -0.1369 -0.6434
 5678TIP3    H117040   0.271   2.429   1.439 -0.6716  0.1633 -1.0157
 5678TIP3    H217041   0.335   2.409   1.303  1.2651 -0.5395 -0.0370
 5679TIP3   OH217042   2.704   2.521   2.810 -0.4211  0.3431 -0.1885
 5679TIP3    H117043   2.790   2.530   2.769 -0.4003  1.6906  0.0769
 5679TIP3    H217044   2.723   2.518   2.904 -0.5909 -0.7561 -0.1778
 5680TIP3   OH217045   1.401   3.026   4.789  0.2221  0.4163  0.1168
 5680TIP3    H117046   1.487   3.062   4.809  0.3056  0.9236 -1.1150
 5680TIP3    H217047   1.378   2.976   4.868  1.9408 -0.3256  0.1945
 5681TIP3   OH217048   2.512   5.706   5.165 -0.1123  0.2212 -0.5753
 5681TIP3    H117049   2.446   5.717   5.096 -0.3137  0.3583 -0.3629
 5681TIP3    H217050   2.586   5.759   5.135 -1.5574  3.4916  1.0781
 5682TIP3   OH217051   1.828   5.512   1.979  0.8320  0.5467  0.0491
 5682TIP3    H117052   1.885   5.478   1.911  3.8133 -0.4831  2.8284
 5682TIP3    H217053   1.867   5.595   2.004 -0.0649  0.7879  0.6893
 5683TIP3   OH217054   0.881   5.460   2.050 -0.1826  0.3386  0.0739
 5683TIP3    H117055   0.859   5.519   2.123 -1.8218 -0.1893  0.0535
 5683TIP3    H217056   0.891   5.374   2.091  2.3111  0.5658  0.1168
 5684TIP3   OH217057   0.895   4.387   3.468  0.8540 -0.5756 -0.1292
 5684TIP3    H117058   0.875   4.455   3.532 -2.7990 -0.7767 -0.8832
 5684TIP3    H217059   0.903   4.307   3.521  0.7140 -0.2976  0.3189
 5685TIP3   OH217060   1.006   0.966   1.434  0.1573  0.2070  0.5506
 5685TIP3    H117061   0.978   1.058   1.441 -1.1706  0.1692 -2.6460
 5685TIP3    H217062   0.975   0.926   1.515 -1.0292  2.1609  1.1476
 5686TIP3   OH217063   0.483   0.930   3.579  0.0615  0.0352  0.0393
 5686TIP3    H117064   0.435   0.850   3.560  0.7886 -0.8771  1.8054
 5686TIP3    H217065   0.426   1.000   3.549 -1.6742 -1.0638  0.6263
 5687TIP3   OH217066   0.258   4.205   3.561  0.0483 -0.6884 -0.2460
 5687TIP3    H117067   0.340   4.165   3.532 -0.2773 -0.5443 -1.4033
 5687TIP3    H217068   0.265   4.207   3.657  1.9201  0.4747 -0.3719
 5688TIP3   OH217069   0.552   4.757   1.045 -0.1718 -0.0054 -0.3841
 5688TIP3    H117070   0.564   4.821   1.116  0.8240  1.2019 -1.6086
 5688TIP3    H217071   0.519   4.808   0.972 -0.8894 -1.1959 -0.9281
 5689TIP3   OH217072   3.719   2.441   0.218 -0.1548 -0.0240  0.1669
 5689TIP3    H117073   3.704   2.356   0.260  0.6855 -0.1259  0.2821
 5689TIP3    H217074   3.637   2.462   0.175  0.0488 -1.5480 -1.0378
 5690TIP3   OH217075   2.397   1.138   1.204  0.2300  0.4649 -0.0290
 5690TIP3    H117076   2.347   1.152   1.284 -0.2710  1.2754 -0.4788
 5690TIP3    H217077   2.483   1.108   1.235  0.3258  1.5864  0.8525
 5691TIP3   OH217078   4.134   4.199   0.552  0.6802 -0.3106  0.0567
 5691TIP3    H117079   4.040   4.221   0.553  1.0209  1.4014 -0.9042
 5691TIP3    H217080   4.143   4.136   0.481  0.0911 -1.5335  1.0190
 5692TIP3   OH217081   4.230   0.468   5.034 -0.2402  0.1507 -0.0924
 5692TIP3    H117082   4.152   0.415   5.017 -0.3937  0.3910 -0.1408
 5692TIP3    H217083   4.238   0.524   4.957  1.3517 -1.5124 -1.2110
 5693TIP3   OH217084   3.116   3.191   3.377 -0.1321  0.2528 -0.0605
 5693TIP3    H117085   3.189   3.166   3.433  0.1128  0.0957 -0.4488
 5693TIP3    H217086   3.155   3.245   3.309 -0.7285  2.1419  1.0398
 5694TIP3   OH217087   1.342   5.460   3.939 -0.1441 -0.1726 -0.0933
 5694TIP3    H117088   1.382   5.525   3.996 -1.5851  0.9473 -0.2906
 5694TIP3    H217089   1.415   5.407   3.907  0.9224  0.5557  1.0516
 5695TIP3   OH217090   1.673   1.293   1.125 -0.1173 -0.2780  0.0919
 5695TIP3    H117091   1.634   1.378   1.105  0.7642  0.0728 -0.1710
 5695TIP3    H217092   1.679   1.250   1.040 -2.9039 -1.6721  0.4805
 5696TIP3   OH217093   2.267   4.092   0.059 -0.0880 -0.7625 -0.4856
 5696TIP3    H117094   2.338   4.112   0.120 -0.5743  0.1641 -0.1951
 5696TIP3    H217095   2.277   4.156  -0.012 -1.5091  0.4399  0.3185
 5697TIP3   OH217096   1.530   5.863   4.476  0.5113  0.8180 -0.1056
 5697TIP3    H117097   1.440   5.835   4.493  0.3125  1.6006  0.1578
 5697TIP3    H217098   1.556   5.812   4.399 -0.4441  1.1774 -0.6802
 5698TIP3   OH217099   2.638   5.786   3.047  0.5018  0.6070  0.3741
 5698TIP3    H117100   2.561   5.841   3.035  0.4835  0.7846  1.2330
 5698TIP3    H217101   2.659   5.754   2.959 -0.1950  1.0286  0.0473
 5699TIP3   OH217102   0.361   1.110   1.823  0.0015 -0.3534 -0.7337
 5699TIP3    H117103   0.272   1.075   1.816 -0.2058 -0.3740  1.2183
 5699TIP3    H217104   0.352   1.204   1.806 -1.0081  0.2163  2.2445
 5700TIP3   OH217105   0.672   1.507   4.755 -0.4738  0.4987  0.4481
 5700TIP3    H117106   0.692   1.464   4.672 -0.9657  1.2730 -0.0898
 5700TIP3    H217107   0.757   1.539   4.786 -0.2536  0.0020  0.3640
 5701TIP3   OH217108   2.292   3.931   3.433 -0.4424  0.1785 -0.0261
 5701TIP3    H117109   2.211   3.885   3.414 -1.1441  1.5016 -0.3209
 5701TIP3    H217110   2.281   3.964   3.522 -1.1298  2.1053 -0.7616
 5702TIP3   OH217111   5.282   2.962   3.958 -0.5865 -0.1025  0.0504
 5702TIP3    H117112   5.371   2.959   3.995 -0.2923 -0.2915 -0.6628
 5702TIP3    H217113   5.226   2.933   4.030 -0.0521 -0.1768  0.4493
 5703TIP3   OH217114   2.948   4.587   4.957  0.3068 -0.0708  0.2602
 5703TIP3    H117115   2.993   4.671   4.958 -0.0996  0.1531  1.0319
 5703TIP3    H217116   2.914   4.578   5.046  2.4124 -2.1541  0.9745
 5704TIP3   OH217117   4.317   0.274   3.751  0.4142  0.5014 -0.3963
 5704TIP3    H117118   4.281   0.202   3.699 -0.0857  1.4406 -1.4018
 5704TIP3    H217119   4.404   0.289   3.713  0.0664  1.1599 -0.9573
 5705TIP3   OH217120   4.099   4.037   3.547 -0.1458  0.0213  0.6677
 5705TIP3    H117121   4.193   4.053   3.557 -0.4543  1.4512  1.5684
 5705TIP3    H217122   4.094   3.951   3.504  1.6208  1.1252 -2.0420
 5706TIP3   OH217123   0.943   0.819   2.389  0.5076 -0.4542  0.0351
 5706TIP3    H117124   0.936   0.728   2.418  0.1042 -0.1317  1.0009
 5706TIP3    H217125   0.893   0.868   2.454  1.7093  0.5885  0.1958
 5707TIP3   OH217126   2.970   1.086   0.928 -0.6579 -0.2104 -0.4852
 5707TIP3    H117127   2.891   1.059   0.975 -0.7372 -1.6056 -1.3623
 5707TIP3    H217128   3.041   1.071   0.991 -0.5989 -3.3599 -1.1214
 5708TIP3   OH217129   0.553   0.017   0.203 -0.0070 -0.4277  0.3805
 5708TIP3    H117130   0.627   0.070   0.231  0.1572 -0.1528 -0.5325
 5708TIP3    H217131   0.569  -0.070   0.240  2.0717 -1.0810 -1.7782
 5709TIP3   OH217132   2.559   3.935   2.817 -0.0258  0.0023 -0.0343
 5709TIP3    H117133   2.561   3.899   2.905 -1.4963  5.1378  2.4376
 5709TIP3    H217134   2.643   3.980   2.807  0.8135 -1.8058 -2.0818
 5710TIP3   OH217135   4.088   1.481   4.151  0.1773  1.0127 -0.2377
 5710TIP3    H117136   4.097   1.554   4.089 -3.2293 -0.2332 -2.4695
 5710TIP3    H217137   4.158   1.421   4.127  1.3879  2.3324 -0.1284
 5711TIP3   OH217138   3.875   3.240   2.213 -0.6882 -0.3649 -0.2649
 5711TIP3    H117139   3.792   3.222   2.257 -0.5322 -1.2501 -0.3107
 5711TIP3    H217140   3.853   3.244   2.120 -0.7484 -0.1562 -0.2422
 5712TIP3   OH217141   2.039   2.028   3.121  0.3156  0.1514 -0.1256
 5712TIP3    H117142   2.004   2.043   3.033  3.2227 -2.5656 -1.9534
 5712TIP3    H217143   2.115   2.086   3.127  0.5802 -0.2260  0.2571
 5713TIP3   OH217144   0.847   1.560   4.217  0.1629  0.1099  0.3957
 5713TIP3    H117145   0.766   1.579   4.265  1.2578 -0.6355  2.6459
 5713TIP3    H217146   0.818   1.507   4.142 -1.6104  1.3889  0.1175
 5714TIP3   OH217147   1.645   1.804   0.667  0.4970  0.3130 -0.1012
 5714TIP3    H117148   1.712   1.806   0.599  1.6542 -0.1242  1.0008
 5714TIP3    H217149   1.657   1.886   0.715 -1.9065  1.8404 -1.8227
 5715TIP3   OH217150   5.390   5.184   0.048  0.1995 -0.0978 -0.1047
 5715TIP3    H117151   5.435   5.227  -0.025 -0.3930  1.5405  0.4576
 5715TIP3    H217152   5.391   5.091   0.025 -0.6240  0.4283 -2.5892
 5716TIP3   OH217153   5.026   4.148   4.162 -0.1590  0.5331  0.6898
 5716TIP3    H117154   5.032   4.212   4.091  0.5039  0.9393  1.1090
 5716TIP3    H217155   4.966   4.081   4.128  0.1742  0.7039 -0.2633
 5717TIP3   OH217156   0.195   2.894   4.257 -0.0338 -0.4991 -0.3185
 5717TIP3    H117157   0.244   2.855   4.184  0.0607 -0.9162 -0.0324
 5717TIP3    H217158   0.103   2.875   4.236 -0.0049 -0.6423 -0.3165
 5718TIP3   OH217159   1.413   3.809   4.850  0.0559 -0.7002 -0.2621
 5718TIP3    H117160   1.509   3.812   4.848  0.1306  0.0616  2.0146
 5718TIP3    H217161   1.388   3.799   4.758  2.2735  0.1047 -1.0276
 5719TIP3   OH217162   4.072   2.728   1.350  0.1936 -0.0578  0.3268
 5719TIP3    H117163   4.075   2.814   1.308  3.3324  0.8967  2.1252
 5719TIP3    H217164   4.008   2.737   1.420 -1.5451 -0.1458 -1.1976
 5720TIP3   OH217165   0.810   3.233   1.800  0.4539  0.3238 -0.3879
 5720TIP3    H117166   0.766   3.266   1.721  0.9338  1.4958 -0.1781
 5720TIP3    H217167   0.743   3.236   1.868  0.9692  2.8420  0.1227
 5721TIP3   OH217168   4.057   1.700   1.191 -0.0609 -0.4922  0.3345
 5721TIP3    H117169   3.974   1.735   1.224  0.5129  0.0916  1.1963
 5721TIP3    H217170   4.113   1.777   1.182  0.5061 -0.9279  0.1004
 5722TIP3   OH217171   3.288   5.593   4.000 -0.3571  0.0802 -0.4047
 5722TIP3    H117172   3.359   5.571   3.938  0.4128 -0.5605  0.6737
 5722TIP3    H217173   3.208   5.575   3.951  0.1454  2.0265 -2.1086
 5723TIP3   OH217174   0.580   5.171   0.064 -0.2122  0.0971 -0.1186
 5723TIP3    H117175   0.665   5.156   0.105  0.6244  1.3964 -1.2605
 5723TIP3    H217176   0.516   5.151   0.132  0.9514 -1.9175  0.4504
 5724TIP3   OH217177   5.801   3.576   0.217 -0.8219 -0.0697  0.1484
 5724TIP3    H117178   5.776   3.488   0.187  1.5239  0.0185 -2.3688
 5724TIP3    H217179   5.732   3.633   0.184 -1.3148 -0.7010  0.0683
 5725TIP3   OH217180   0.304   4.282   1.414 -0.3389 -0.4345  0.0238
 5725TIP3    H117181   0.370   4.224   1.376 -0.9073 -0.7896 -0.4339
 5725TIP3    H217182   0.353   4.358   1.444  0.3088 -0.7963 -0.1043
 5726TIP3   OH217183   1.694   2.547   1.256 -0.3139  0.1561 -0.0248
 5726TIP3    H117184   1.602   2.560   1.233  0.1605  1.0832 -1.5661
 5726TIP3    H217185   1.726   2.633   1.280  0.1173 -0.1914  0.6698
 5727TIP3   OH217186   5.851   3.940   2.370 -0.2900  0.7595  0.2276
 5727TIP3    H117187   5.774   3.893   2.403  0.0220 -0.3462 -0.6023
 5727TIP3    H217188   5.821   4.031   2.363 -1.9628  0.1537 -1.3386
 5728TIP3   OH217189   3.890   2.304   0.931 -0.1328 -0.0322 -1.0159
 5728TIP3    H117190   3.913   2.281   1.021  0.0730 -0.2426 -1.1202
 5728TIP3    H217191   3.940   2.384   0.913 -0.5191  0.2583 -0.7942
 5729TIP3   OH217192   6.069   1.338   1.743 -0.3845 -0.0186 -0.1831
 5729TIP3    H117193   5.991   1.328   1.797 -0.7235 -0.9995 -0.8373
 5729TIP3    H217194   6.047   1.410   1.683 -1.2969 -1.1028 -1.2006
 5730TIP3   OH217195   5.050   3.023   2.900 -0.1591  0.0692  0.2836
 5730TIP3    H117196   5.027   3.004   2.809 -0.7774 -1.2789  0.6860
 5730TIP3    H217197   5.041   3.118   2.908  1.7847  0.4841 -1.5349
 5731TIP3   OH217198   1.937   0.583   3.077  0.3323 -0.2203  0.0667
 5731TIP3    H117199   1.923   0.489   3.086  0.0975 -0.1033  0.9829
 5731TIP3    H217200   1.921   0.619   3.164 -1.2866  0.8861 -0.6261
 5732TIP3   OH217201   3.256   1.730   0.437 -0.2651  0.1118 -0.3045
 5732TIP3    H117202   3.274   1.824   0.444 -2.4892  0.9204 -3.4485
 5732TIP3    H217203   3.166   1.720   0.466 -0.4186 -0.8652 -1.0509
 5733TIP3   OH217204   5.096   2.555   3.660 -0.0042 -0.2989 -0.0615
 5733TIP3    H117205   5.141   2.497   3.721  1.7141  0.9510 -0.0674
 5733TIP3    H217206   5.127   2.527   3.573  0.4565  0.2986 -0.0944
 5734TIP3   OH217207   0.509   5.939   1.031 -0.2993  0.0328 -0.3343
 5734TIP3    H117208   0.498   5.891   0.950  0.3917 -0.6830 -0.0156
 5734TIP3    H217209   0.603   5.954   1.038 -0.2892 -0.3489  0.5706
 5735TIP3   OH217210   1.974   4.747   2.093 -0.0559  0.3994  0.1628
 5735TIP3    H117211   1.906   4.810   2.120  0.7116  0.8289  1.1842
 5735TIP3    H217212   2.030   4.739   2.170  1.3991  0.5104 -0.8596
 5736TIP3   OH217213   4.895   0.021   0.940  0.8324 -0.4739  0.3065
 5736TIP3    H117214   4.952   0.084   0.984 -0.8106 -0.0943  2.0533
 5736TIP3    H217215   4.807   0.048   0.964 -0.1025 -1.2742 -1.9774
 5737TIP3   OH217216   4.112   2.935   2.302 -0.0842  0.1452 -0.5070
 5737TIP3    H117217   4.132   3.028   2.294  0.0089  0.0554 -1.5665
 5737TIP3    H217218   4.037   2.922   2.244 -1.2109 -0.1333  0.9567
 5738TIP3   OH217219   3.276   1.295   1.735  0.1283  0.3438 -0.2149
 5738TIP3    H117220   3.217   1.370   1.748  0.2706  0.3265  0.6150
 5738TIP3    H217221   3.265   1.242   1.814  1.7260  0.6797  0.2890
 5739TIP3   OH217222   3.421   0.399   0.316  0.0021  0.1388  0.2968
 5739TIP3    H117223   3.422   0.308   0.285  0.0811  0.3969 -0.4635
 5739TIP3    H217224   3.346   0.402   0.376  0.0696 -0.4544  0.4230
 5740TIP3   OH217225   4.016   0.298   4.968 -0.0506  0.1218  0.1457
 5740TIP3    H117226   3.921   0.308   4.973 -0.5023 -2.8857 -0.1773
 5740TIP3    H217227   4.038   0.246   5.046  1.0848 -0.4280 -0.5139
 5741TIP3   OH217228   6.260   1.801   3.756  0.5279  0.3255  0.4820
 5741TIP3    H117229   6.275   1.790   3.850  1.9452  2.1450  0.5234
 5741TIP3    H217230   6.344   1.778   3.715  0.3382  0.8129 -0.2106
 5742TIP3   OH217231   4.263   3.308   2.016 -0.1394  0.5265  0.2958
 5742TIP3    H117232   4.282   3.377   1.952 -0.5751  0.2872 -0.0934
 5742TIP3    H217233   4.346   3.261   2.026  0.2282  1.2294  0.7306
 5743TIP3   OH217234   3.287   4.918   0.239  0.1586  0.5679  0.3772
 5743TIP3    H117235   3.328   4.896   0.155 -0.3690  0.8607  0.0343
 5743TIP3    H217236   3.344   4.879   0.305  0.5817  0.3366 -0.1198
 5744TIP3   OH217237   4.445   1.328   2.729 -0.1331  0.0770  0.6793
 5744TIP3    H117238   4.497   1.405   2.756  0.0026  0.5104 -0.7540
 5744TIP3    H217239   4.494   1.253   2.762  0.3100  0.5670  1.1484
 5745TIP3   OH217240   2.416   4.607   1.014 -0.1060  0.5529  0.5791
 5745TIP3    H117241   2.372   4.691   1.006 -0.7129  0.2436  0.6456
 5745TIP3    H217242   2.509   4.627   0.997 -0.0629  1.4227  1.7445
 5746TIP3   OH217243   5.838   2.037   2.251 -0.0124  0.0979  0.1155
 5746TIP3    H117244   5.760   2.091   2.260 -0.4177 -0.4911  0.1394
 5746TIP3    H217245   5.812   1.951   2.283  0.6711 -0.0813  0.2031
 5747TIP3   OH217246   2.191   1.421   1.782  0.3155  0.4165  0.1171
 5747TIP3    H117247   2.097   1.405   1.780  0.2545  0.7056 -2.4344
 5747TIP3    H217248   2.229   1.339   1.813 -0.7075 -0.1328 -0.0442
 5748TIP3   OH217249   1.410   5.184   1.364  0.2254 -0.0005  0.0537
 5748TIP3    H117250   1.368   5.099   1.375 -0.9549  0.5854  0.2422
 5748TIP3    H217251   1.409   5.224   1.451 -2.8262  1.7856 -0.6753
 5749TIP3   OH217252   3.650   5.178   5.007 -0.2268  0.2661 -0.0113
 5749TIP3    H117253   3.585   5.237   5.045 -0.6335  1.5615 -2.5581
 5749TIP3    H217254   3.726   5.186   5.066 -1.1893  1.2793  1.1558
 5750TIP3   OH217255   5.051   5.097   3.747 -0.4121 -0.2368  0.0982
 5750TIP3    H117256   5.025   5.077   3.658  2.3981 -0.9033 -0.6655
 5750TIP3    H217257   5.070   5.012   3.787  1.8413  0.2256  0.1150
 5751TIP3   OH217258   2.944   5.470   1.124 -0.3071 -0.4104  0.5122
 5751TIP3    H117259   2.952   5.559   1.160 -0.2658 -0.0909 -0.2666
 5751TIP3    H217260   3.034   5.442   1.110 -0.3364 -0.0164 -0.5600
 5752TIP3   OH217261   6.251   3.749   1.054 -0.1527  0.2907  0.5909
 5752TIP3    H117262   6.281   3.772   1.143 -0.5940 -0.7318  1.0162
 5752TIP3    H217263   6.230   3.656   1.059  2.1997 -0.4306 -1.2493
 5753TIP3   OH217264   1.400   3.534   2.554 -0.6046 -0.8794  0.2076
 5753TIP3    H117265   1.458   3.527   2.478  0.7771 -2.4928  1.3356
 5753TIP3    H217266   1.410   3.625   2.583  0.9339 -0.9458 -0.0018
 5754TIP3   OH217267   4.128   4.172   4.139 -0.2850 -0.3113 -0.4459
 5754TIP3    H117268   4.079   4.248   4.109 -0.7884 -0.1136  0.8391
 5754TIP3    H217269   4.063   4.102   4.147 -0.5367  0.1150  1.8550
 5755TIP3   OH217270   0.557   3.628   1.451  0.1204 -0.1513  0.1295
 5755TIP3    H117271   0.613   3.673   1.387 -0.3046  1.0605  0.5720
 5755TIP3    H217272   0.599   3.647   1.535  0.0397 -0.7656  0.3091
 5756TIP3   OH217273   3.443   2.869   1.489 -0.0417 -0.7354  0.5238
 5756TIP3    H117274   3.453   2.932   1.559  0.9108 -1.6410  1.2313
 5756TIP3    H217275   3.509   2.894   1.424 -0.3163 -0.4360  0.3575
 5757TIP3   OH217276   3.672   2.967   1.381 -0.0253 -0.1317 -0.4834
 5757TIP3    H117277   3.717   2.904   1.325  0.2685  0.8966 -1.4389
 5757TIP3    H217278   3.665   3.046   1.327 -0.6372  0.5620  0.5839
 5758TIP3   OH217279   1.012   0.808   4.403  0.1471 -0.1677 -0.4321
 5758TIP3    H117280   0.920   0.812   4.380  0.2826 -1.6837 -1.3145
 5758TIP3    H217281   1.024   0.723   4.445  0.4604  1.4079  3.0539
 5759TIP3   OH217282   5.411   3.615   2.668  0.1418 -0.3899  0.4373
 5759TIP3    H117283   5.405   3.641   2.576 -0.8549 -1.1690  0.2707
 5759TIP3    H217284   5.409   3.519   2.666 -1.7045 -0.4011  1.3648
 5760TIP3   OH217285   1.349   5.260   4.838 -0.0522  0.0267 -0.4922
 5760TIP3    H117286   1.278   5.235   4.897 -1.7512  0.7801 -2.1053
 5760TIP3    H217287   1.368   5.351   4.860 -0.7738  0.3476 -1.1487
 5761TIP3   OH217288   2.693   4.523   4.392 -0.3665 -0.2602 -0.3682
 5761TIP3    H117289   2.653   4.581   4.327 -1.1394 -0.2252  0.1226
 5761TIP3    H217290   2.658   4.553   4.476  0.2026 -0.6451  0.0139
 5762TIP3   OH217291   2.669   5.632   4.199  0.8348 -0.6663 -0.5252
 5762TIP3    H117292   2.659   5.662   4.108 -0.0006 -0.5780 -0.4092
 5762TIP3    H217293   2.683   5.538   4.191 -0.4139 -0.8522 -0.6962
 5763TIP3   OH217294   4.455   2.871  -0.005  0.2975  0.0375  0.2010
 5763TIP3    H117295   4.367   2.881   0.033 -0.4363  1.4827 -1.7100
 5763TIP3    H217296   4.489   2.960  -0.011  1.4265 -0.4071 -0.1934
 5764TIP3   OH217297   1.094   4.506   0.686  0.7314 -0.2074  0.2218
 5764TIP3    H117298   1.090   4.495   0.591 -0.7178  0.3958  0.1883
 5764TIP3    H217299   1.111   4.599   0.699 -0.9064  0.0856  0.5256
 5765TIP3   OH217300   5.048   1.204   3.421 -0.6392  0.1119  0.3667
 5765TIP3    H117301   5.125   1.164   3.461  1.4445  3.3323 -0.0321
 5765TIP3    H217302   5.046   1.169   3.332  0.5643  0.1527  0.3043
 5766TIP3   OH217303   5.779   0.727   1.422  0.5622  0.1906  0.1613
 5766TIP3    H117304   5.721   0.665   1.378  1.6468 -1.8844  1.4749
 5766TIP3    H217305   5.859   0.677   1.439  2.0773  2.4223 -0.0100
 5767TIP3   OH217306   0.528   5.666   3.830  0.4719 -0.5728 -0.5253
 5767TIP3    H117307   0.577   5.689   3.751  0.2424 -0.8853 -0.7611
 5767TIP3    H217308   0.560   5.579   3.853 -0.2557 -0.9483 -0.9130
 5768TIP3   OH217309   2.909   2.323   1.957 -0.1097 -0.5742  0.4583
 5768TIP3    H117310   2.923   2.233   1.985  0.0554 -0.4090  0.9175
 5768TIP3    H217311   2.827   2.349   1.999  0.5199 -0.0802  1.4137
 5769TIP3   OH217312   5.599   4.196   3.424 -1.1499  0.3140 -0.1542
 5769TIP3    H117313   5.568   4.172   3.511 -2.3644  0.3122 -0.5612
 5769TIP3    H217314   5.694   4.184   3.427 -1.2408 -0.1752  1.0074
 5770TIP3   OH217315   1.195   3.551   1.798 -0.7247  0.0845 -0.3986
 5770TIP3    H117316   1.154   3.511   1.875  1.1592 -1.5523 -0.1733
 5770TIP3    H217317   1.275   3.592   1.832 -0.7630  0.8607 -1.2200
 5771TIP3   OH217318   3.888   3.631   2.800 -0.0506  0.1055 -0.1263
 5771TIP3    H117319   3.830   3.618   2.725  2.2703  1.5961 -2.3286
 5771TIP3    H217320   3.940   3.550   2.804 -0.2985 -0.0496  0.0353
 5772TIP3   OH217321   0.449   3.377   3.895  0.1442  0.4496  0.2659
 5772TIP3    H117322   0.510   3.304   3.895 -0.3936 -0.0035  0.5776
 5772TIP3    H217323   0.363   3.337   3.901 -0.1745  1.0957  0.1326
 5773TIP3   OH217324   3.445   2.621   5.050  0.1163  0.2984 -0.0937
 5773TIP3    H117325   3.415   2.603   5.139  0.4621  0.9300  0.1670
 5773TIP3    H217326   3.534   2.656   5.062 -1.0128  3.6367 -0.3637
 5774TIP3   OH217327   0.322   0.111   0.328 -0.0161 -0.0211 -0.0016
 5774TIP3    H117328   0.294   0.196   0.295 -1.1696 -0.5211 -0.3921
 5774TIP3    H217329   0.391   0.083   0.268  0.8801  0.9454  0.5643
 5775TIP3   OH217330   1.122   2.161   1.990  0.4957  0.4724  0.2853
 5775TIP3    H117331   1.093   2.243   1.950 -1.0250 -0.5950 -0.9074
 5775TIP3    H217332   1.164   2.188   2.072  0.4127  2.4520 -0.2779
 5776TIP3   OH217333   5.439   2.542   1.099  0.1218  0.1763  0.7050
 5776TIP3    H117334   5.414   2.483   1.170  0.1074 -1.3536 -0.5147
 5776TIP3    H217335   5.362   2.597   1.085 -0.1417 -0.0192  1.3738
 5777TIP3   OH217336   2.433   0.125   2.051  0.5814 -0.7527  0.4754
 5777TIP3    H117337   2.355   0.178   2.032  1.2821  0.5712  1.1955
 5777TIP3    H217338   2.399   0.049   2.097 -0.2958 -0.1719  0.8207
 5778TIP3   OH217339   5.149   2.450   0.072 -0.0401 -0.1882  0.2098
 5778TIP3    H117340   5.175   2.398  -0.004 -0.5829 -1.7001  1.0035
 5778TIP3    H217341   5.128   2.536   0.037 -2.5583 -1.4803 -1.7871
 5779TIP3   OH217342   5.014   3.608   2.232 -0.5797 -0.3608  0.5432
 5779TIP3    H117343   4.930   3.652   2.216 -1.4246 -1.8748  0.5654
 5779TIP3    H217344   5.022   3.606   2.328 -0.3690  0.0227  0.5370
 5780TIP3   OH217345   2.146   2.577   4.750 -0.1786  0.1446  1.1329
 5780TIP3    H117346   2.188   2.586   4.665 -1.5146  1.6322  0.5737
 5780TIP3    H217347   2.110   2.489   4.751  1.7866 -0.7062  1.1165
 5781TIP3   OH217348   3.102   0.473   5.183  0.1552  0.3597 -0.5440
 5781TIP3    H117349   3.045   0.402   5.213  1.2043 -0.0407  0.6104
 5781TIP3    H217350   3.098   0.469   5.088 -0.8015 -0.4188 -0.4859
 5782TIP3   OH217351   3.229   3.092   1.295  0.0055 -1.0222 -0.0260
 5782TIP3    H117352   3.151   3.036   1.300  0.3109 -1.4161  0.4624
 5782TIP3    H217353   3.195   3.181   1.299 -0.4022 -1.1934  0.4013
 5783TIP3   OH217354   2.361   3.587   0.977  0.5143  0.0136  0.3573
 5783TIP3    H117355   2.379   3.557   1.066 -0.2518  0.5026  0.6839
 5783TIP3    H217356   2.424   3.658   0.963  1.4857 -0.8861  0.0371
 5784TIP3   OH217357   0.412   3.147   1.909 -0.7135 -0.0597  0.1255
 5784TIP3    H117358   0.342   3.110   1.963 -0.9334 -1.2974 -0.9551
 5784TIP3    H217359   0.389   3.239   1.898 -2.1243 -0.4326 -0.1486
 5785TIP3   OH217360   0.952   2.046   0.415 -0.1779 -0.4328 -0.5469
 5785TIP3    H117361   0.895   1.983   0.371 -0.1530  0.9565 -2.6620
 5785TIP3    H217362   1.038   2.006   0.414 -0.5145 -1.1885 -0.1195
 5786TIP3   OH217363   4.358   0.046   3.207  0.2732 -0.5005 -0.1932
 5786TIP3    H117364   4.372   0.023   3.299 -0.8034 -0.3997  0.0127
 5786TIP3    H217365   4.311  -0.030   3.170 -0.2447 -0.1008 -0.3756
 5787TIP3   OH217366  -0.025   4.239   4.311 -0.4931  0.1441  0.3188
 5787TIP3    H117367   0.028   4.255   4.389 -0.0957  0.6201 -0.0480
 5787TIP3    H217368  -0.000   4.307   4.249 -0.3932 -0.5580 -0.4393
 5788TIP3   OH217369   1.999   0.926   1.460  0.3178 -0.5917  0.9868
 5788TIP3    H117370   1.970   0.893   1.545  0.5987 -2.6096  0.3504
 5788TIP3    H217371   2.031   1.014   1.478 -0.5231 -0.6090  2.7811
 5789TIP3   OH217372   5.709   5.858   0.558 -0.2030  0.5017  0.6233
 5789TIP3    H117373   5.750   5.884   0.475 -1.2007 -0.6577 -0.2675
 5789TIP3    H217374   5.633   5.807   0.532  0.5597 -1.6201  2.2560
 5790TIP3   OH217375   4.792   3.397   4.161 -0.0480  0.8671  0.4422
 5790TIP3    H117376   4.861   3.336   4.186 -0.1352  0.7753  0.4537
 5790TIP3    H217377   4.736   3.404   4.238 -0.5608  0.2542  0.1326
 5791TIP3   OH217378   1.048   1.064   2.295 -0.1068 -0.1220 -0.2053
 5791TIP3    H117379   1.017   0.978   2.324  0.6198  0.3731  2.2072
 5791TIP3    H217380   1.091   1.047   2.211 -0.8527 -1.9285 -0.2575
 5792TIP3   OH217381   5.885   0.149   2.811 -0.1671  1.1999 -0.2442
 5792TIP3    H117382   5.891   0.089   2.737  0.5329  2.0734 -0.9189
 5792TIP3    H217383   5.855   0.231   2.773 -1.9689  1.0730  0.8021
 5793TIP3   OH217384   4.405   1.800   1.934  0.2212  0.4315  0.2049
 5793TIP3    H117385   4.431   1.726   1.990  3.2083  1.1715 -0.0641
 5793TIP3    H217386   4.382   1.759   1.851 -1.2062 -0.4057  0.9596
 5794TIP3   OH217387   1.993   1.144   1.664  0.1879 -0.1347 -0.1143
 5794TIP3    H117388   2.009   1.238   1.676  1.8641 -0.4461  0.3548
 5794TIP3    H217389   1.918   1.125   1.720 -0.8091  1.0867 -0.9616
 5795TIP3   OH217390   5.014   2.590   2.446  0.3680 -0.3540 -0.0477
 5795TIP3    H117391   5.040   2.682   2.444 -1.1561  0.1193 -2.8130
 5795TIP3    H217392   5.083   2.544   2.399 -0.2227 -0.1415 -1.1713
 5796TIP3   OH217393   0.940   0.783   2.118 -0.7274 -0.0968  0.2606
 5796TIP3    H117394   0.944   0.794   2.213 -0.2360 -0.1950  0.2526
 5796TIP3    H217395   0.848   0.766   2.100 -1.1818  1.8446  0.5180
 5797TIP3   OH217396   5.699   3.076   3.897 -0.5050 -0.4030  0.7848
 5797TIP3    H117397   5.674   3.154   3.948  0.0964 -0.7322  1.5987
 5797TIP3    H217398   5.636   3.009   3.924 -0.4727 -0.4515  0.7402
 5798TIP3   OH217399   2.674   2.979   5.060  0.5552 -0.0265  0.0037
 5798TIP3    H117400   2.691   3.006   5.150  2.4571 -0.7265 -0.1158
 5798TIP3    H217401   2.745   2.919   5.038 -0.9366 -1.4432 -1.3145
 5799TIP3   OH217402   4.954   5.258   0.672  0.0869 -0.7701  0.2143
 5799TIP3    H117403   4.926   5.172   0.704 -2.6422  0.6466  2.0736
 5799TIP3    H217404   4.899   5.274   0.596  0.6213 -0.6611 -0.1545
 5800TIP3   OH217405   0.771   1.300   2.994  0.3090  0.3698  0.2968
 5800TIP3    H117406   0.756   1.280   2.901  1.1939 -0.6861  0.3616
 5800TIP3    H217407   0.822   1.226   3.026  0.5966  1.0562  1.4687
 5801TIP3   OH217408   0.815   0.240   1.965  0.2861  0.0667  1.1032
 5801TIP3    H117409   0.829   0.173   1.898 -0.8515  0.5877  0.2976
 5801TIP3    H217410   0.727   0.273   1.947  0.7139  1.5850  1.6572
 5802TIP3   OH217411   5.478   4.448   3.338  0.3906  0.5028 -0.1389
 5802TIP3    H117412   5.521   4.366   3.364 -1.8908 -1.1858 -1.3445
 5802TIP3    H217413   5.550   4.511   3.329  2.1194 -1.0091  1.9604
 5803TIP3   OH217414   3.276   4.656   3.053 -0.7355 -0.4580 -0.1966
 5803TIP3    H117415   3.220   4.714   3.104  1.7734  1.2292  0.8667
 5803TIP3    H217416   3.310   4.711   2.982 -0.8454 -1.5888 -1.1656
 5804TIP3   OH217417   5.431   3.911   1.689  0.5066 -0.8581 -0.2036
 5804TIP3    H117418   5.428   3.822   1.726 -1.4847 -0.7818 -0.1046
 5804TIP3    H217419   5.406   3.900   1.597  0.0595 -0.3698 -0.1419
 5805TIP3   OH217420   5.467   4.226   2.296  0.3427 -0.2716 -0.0466
 5805TIP3    H117421   5.395   4.268   2.342  0.2925  0.0939 -0.4522
 5805TIP3    H217422   5.450   4.132   2.305 -2.0895 -0.2516 -3.0417
 5806TIP3   OH217423   0.670   4.549   2.941 -0.5107 -0.1696 -0.3091
 5806TIP3    H117424   0.691   4.613   3.009  0.5516 -1.3029  0.4918
 5806TIP3    H217425   0.741   4.558   2.878 -0.3727 -0.5110 -0.2077
 5807TIP3   OH217426   2.220   1.835   3.852 -0.0219  0.3336  0.7800
 5807TIP3    H117427   2.208   1.923   3.816 -0.4048 -0.1445 -0.2962
 5807TIP3    H217428   2.312   1.815   3.837 -0.8319 -1.1936 -3.1811
 5808TIP3   OH217429   4.072   4.475   0.359  0.5938  0.8158  0.7324
 5808TIP3    H117430   4.126   4.464   0.280  1.9293 -0.1458  1.7141
 5808TIP3    H217431   4.114   4.547   0.407  0.9215  0.1930  1.4103
 5809TIP3   OH217432   6.069   5.301   5.076  0.0343 -0.5995 -0.0536
 5809TIP3    H117433   6.038   5.227   5.129 -0.4042 -0.6016 -0.3106
 5809TIP3    H217434   6.162   5.307   5.096 -0.5109  0.7388  2.3321
 5810TIP3   OH217435   4.065   2.205   4.201  0.4407 -0.2604 -0.3495
 5810TIP3    H117436   4.086   2.182   4.111  1.1808  0.0960 -0.2726
 5810TIP3    H217437   4.058   2.300   4.201 -0.3394 -0.3073 -0.1865
 5811TIP3   OH217438   6.090   5.714   3.522 -0.0606 -0.8053  0.4208
 5811TIP3    H117439   6.022   5.646   3.523 -1.1156  0.1377 -1.7187
 5811TIP3    H217440   6.056   5.783   3.578 -0.0006 -1.1024  0.8285
 5812TIP3   OH217441   2.305   1.495   0.453  0.0393 -0.0372  0.1635
 5812TIP3    H117442   2.340   1.422   0.403 -0.7223  0.0915 -0.5627
 5812TIP3    H217443   2.220   1.464   0.486  0.0756  0.2388  0.5321
 5813TIP3   OH217444   0.479   2.875   1.903 -0.3938 -0.0637 -0.1861
 5813TIP3    H117445   0.502   2.853   1.993  1.8568  1.8644 -0.1746
 5813TIP3    H217446   0.497   2.969   1.896 -1.5027  0.0554 -2.3830
 5814TIP3   OH217447   6.231   5.124   1.503 -0.5551 -0.2179 -0.2565
 5814TIP3    H117448   6.312   5.145   1.549  0.0811 -0.2010 -1.3484
 5814TIP3    H217449   6.256   5.056   1.440 -1.3978 -0.2582 -0.5594
 5815TIP3   OH217450   2.517   4.502   0.044  0.0058 -0.1763 -0.0592
 5815TIP3    H117451   2.484   4.498   0.133  0.2293  1.1110  0.1110
 5815TIP3    H217452   2.538   4.595   0.031  1.0109 -0.5276 -1.0699
 5816TIP3   OH217453   5.724   3.255   2.673 -0.5440 -0.1326 -0.4741
 5816TIP3    H117454   5.640   3.282   2.709 -0.1047 -1.2125  1.4807
 5816TIP3    H217455   5.721   3.160   2.674  0.1042 -0.1901 -1.9023
 5817TIP3   OH217456   0.550   4.585   0.401 -0.0663  0.1255 -0.3278
 5817TIP3    H117457   0.509   4.671   0.394 -1.8054 -0.3508  2.3083
 5817TIP3    H217458   0.568   4.575   0.495 -1.9609 -3.1646 -0.1356
 5818TIP3   OH217459   1.233   0.651   3.477  0.4251  0.3192 -0.0670
 5818TIP3    H117460   1.258   0.625   3.388  0.8714 -1.6947  0.6031
 5818TIP3    H217461   1.190   0.574   3.513 -1.3238  1.6889  0.9106
 5819TIP3   OH217462   2.104   1.503   4.639 -0.2185  0.0691 -0.3558
 5819TIP3    H117463   2.184   1.452   4.629 -0.8170 -0.7767 -0.9298
 5819TIP3    H217464   2.036   1.451   4.596 -0.9923  0.9927 -0.2939
 5820TIP3   OH217465   4.768   0.575   2.701 -0.0371 -0.2177 -0.4536
 5820TIP3    H117466   4.852   0.604   2.738 -0.7399  0.0277  0.9751
 5820TIP3    H217467   4.719   0.541   2.775 -1.5271  0.3799 -1.1232
 5821TIP3   OH217468   3.533   2.344   3.114 -0.2721 -0.9243  0.6674
 5821TIP3    H117469   3.541   2.287   3.191 -3.2811 -0.3152  1.5870
 5821TIP3    H217470   3.482   2.419   3.146 -1.6803 -0.6720 -1.9271
 5822TIP3   OH217471   3.590   0.506   0.646 -0.0002 -0.2394  0.0614
 5822TIP3    H117472   3.508   0.552   0.627 -0.8461 -1.7523 -0.0765
 5822TIP3    H217473   3.601   0.514   0.741 -0.7626 -0.7633  0.1986
 5823TIP3   OH217474   5.476   1.035   4.895  0.1888 -0.0032 -0.1513
 5823TIP3    H117475   5.467   1.130   4.898 -0.3963 -0.0635  1.6606
 5823TIP3    H217476   5.410   1.003   4.957  1.1497 -1.5176  0.1517
 5824TIP3   OH217477   2.716   4.782   3.501  0.4751  0.2882  0.3134
 5824TIP3    H117478   2.645   4.771   3.438 -0.5151  1.5745  1.1563
 5824TIP3    H217479   2.694   4.720   3.571  1.0083 -0.3805 -0.0953
 5825TIP3   OH217480   0.277   1.478   4.060  0.2544 -0.3879  0.0366
 5825TIP3    H117481   0.266   1.573   4.071  1.2904 -0.1824 -0.5186
 5825TIP3    H217482   0.359   1.458   4.105 -0.5743 -1.2571  1.2230
 5826TIP3   OH217483   0.825   1.635   3.155 -0.5482  0.1060 -0.3922
 5826TIP3    H117484   0.836   1.636   3.250  3.4164 -2.2495 -0.5582
 5826TIP3    H217485   0.842   1.725   3.128 -1.9324  0.8554  1.1019
 5827TIP3   OH217486   3.187   2.239   3.115  0.2825 -0.1059 -0.2601
 5827TIP3    H117487   3.134   2.290   3.054 -0.2640  0.4815  0.6923
 5827TIP3    H217488   3.143   2.154   3.120 -1.4943  0.8356  1.6409
 5828TIP3   OH217489   2.851   1.473   4.840  0.6472  0.7925  0.1712
 5828TIP3    H117490   2.819   1.417   4.769 -0.6492 -0.4252  1.6475
 5828TIP3    H217491   2.784   1.540   4.849  1.1307  1.3308 -0.1482
 5829TIP3   OH217492   4.373   0.523   1.348  0.2502  0.2481  0.5805
 5829TIP3    H117493   4.280   0.528   1.322  0.5147 -1.2808 -0.8621
 5829TIP3    H217494   4.373   0.535   1.442 -1.5871 -1.0643  0.7963
 5830TIP3   OH217495   0.364   0.908   3.850  0.0997  0.1533  0.0677
 5830TIP3    H117496   0.426   0.879   3.784  0.3624  0.7208  0.0581
 5830TIP3    H217497   0.304   0.834   3.862 -0.3646  0.2798 -1.3034
 5831TIP3   OH217498   5.626   5.451   3.452  0.2454  0.4410  0.1585
 5831TIP3    H117499   5.659   5.454   3.362  0.6616 -1.2020  0.2328
 5831TIP3    H217500   5.590   5.539   3.467 -2.1987  0.0379 -2.4782
 5832TIP3   OH217501   4.825   1.685   5.112  0.1759 -0.4965 -0.2431
 5832TIP3    H117502   4.800   1.594   5.128 -0.9239  0.0403  1.4339
 5832TIP3    H217503   4.753   1.722   5.060 -0.6250  0.0118  1.1688
 5833TIP3   OH217504   0.529   5.071   0.515  0.0699  0.3328 -0.2557
 5833TIP3    H117505   0.579   5.147   0.545 -0.0150  0.3836 -0.2402
 5833TIP3    H217506   0.447   5.076   0.565  0.1455  0.1199 -0.1097
 5834TIP3   OH217507   0.227   3.110   3.283  0.7061 -0.0941 -0.0561
 5834TIP3    H117508   0.242   3.046   3.213 -1.1335 -0.8711  0.2319
 5834TIP3    H217509   0.297   3.093   3.346  0.9610 -0.9895 -0.5604
 5835TIP3   OH217510   2.018   3.407   1.666  0.5075 -0.1711 -0.0289
 5835TIP3    H117511   2.064   3.459   1.600 -0.5738  0.5597 -0.2487
 5835TIP3    H217512   1.993   3.326   1.621  0.3192  0.0583 -0.3383
 5836TIP3   OH217513   1.096   5.398   1.851  0.1203  0.5361 -0.3496
 5836TIP3    H117514   1.046   5.425   1.928  0.0059 -0.2283 -0.1468
 5836TIP3    H217515   1.048   5.323   1.816  0.9362 -0.0185 -0.3243
 5837TIP3   OH217516   3.944   4.913   1.603 -0.0191  0.9022  0.5348
 5837TIP3    H117517   3.902   4.982   1.654 -1.9508 -0.4247  0.8188
 5837TIP3    H217518   4.038   4.929   1.615 -0.4080  2.3377  2.1199
 5838TIP3   OH217519   4.782   2.500   2.834 -0.1294 -0.4623 -0.0168
 5838TIP3    H117520   4.789   2.579   2.888 -0.5131 -0.2690 -0.2490
 5838TIP3    H217521   4.688   2.480   2.831 -0.0318 -0.9571  0.0831
 5839TIP3   OH217522   4.378   4.203   0.638  0.7033  0.2572  0.3493
 5839TIP3    H117523   4.287   4.211   0.613  0.9765  0.2747 -0.6882
 5839TIP3    H217524   4.402   4.113   0.614  1.4747  0.8405 -1.2520
 5840TIP3   OH217525   2.561   0.090   4.796  0.5225 -0.3831  0.3745
 5840TIP3    H117526   2.656   0.088   4.812  0.4684 -2.0620  0.6952
 5840TIP3    H217527   2.528   0.013   4.843 -0.4490 -2.2074 -3.0043
 5841TIP3   OH217528   5.724   1.574   2.111  0.0412 -0.0338 -0.7724
 5841TIP3    H117529   5.723   1.555   2.017 -1.2384  0.1356 -0.8138
 5841TIP3    H217530   5.808   1.540   2.141 -0.3604 -1.9110 -1.6150
 5842TIP3   OH217531   2.707   3.378   0.453  0.1401 -0.3546 -0.1443
 5842TIP3    H117532   2.618   3.408   0.440 -0.2593 -0.3394  2.2059
 5842TIP3    H217533   2.735   3.348   0.367 -1.4561  1.3386 -1.3332
 5843TIP3   OH217534   3.052   2.208   0.690 -0.0292  0.1826 -0.4164
 5843TIP3    H117535   3.090   2.197   0.602  3.2599 -1.7406  1.0488
 5843TIP3    H217536   3.066   2.300   0.710 -1.4224  0.8125 -2.0768
 5844TIP3   OH217537   6.291   0.190   2.641  0.4094  0.3893 -0.2811
 5844TIP3    H117538   6.217   0.247   2.658  0.9121  1.0218 -0.1520
 5844TIP3    H217539   6.253   0.105   2.623 -0.2645  0.3600  1.2145
 5845TIP3   OH217540   0.024   1.834   1.720  0.0694  0.0196 -0.4179
 5845TIP3    H117541   0.028   1.926   1.696  0.3807 -0.3002 -1.6526
 5845TIP3    H217542  -0.001   1.834   1.812 -0.7678  1.3131 -0.6248
 5846TIP3   OH217543   3.461   2.372   0.100  0.3623 -0.8337  0.2203
 5846TIP3    H117544   3.444   2.391   0.008  3.5861 -0.3361 -0.4150
 5846TIP3    H217545   3.376   2.350   0.137 -1.6499  2.2973 -2.0519
 5847TIP3   OH217546   2.001   5.197   5.151  0.2811 -0.1475  0.0033
 5847TIP3    H117547   2.079   5.219   5.203  0.5913 -0.2804 -0.3985
 5847TIP3    H217548   1.936   5.262   5.178  1.1779  1.3010 -1.1487
 5848TIP3   OH217549   2.038   3.054   4.056 -0.1926 -0.1879  0.0278
 5848TIP3    H117550   2.104   2.996   4.017  0.3663 -0.8167  1.8282
 5848TIP3    H217551   1.990   2.999   4.117  0.4826  1.2282  1.9434
 5849TIP3   OH217552   1.143   0.388   0.918 -0.1569 -0.2965  0.2620
 5849TIP3    H117553   1.114   0.447   0.988 -1.0851  1.6987 -1.6556
 5849TIP3    H217554   1.221   0.431   0.882  0.4570 -1.4239  0.1947
 5850TIP3   OH217555   2.153   4.858   4.760  0.3558  0.7125  0.1610
 5850TIP3    H117556   2.064   4.894   4.756  0.2305  0.5390  1.1419
 5850TIP3    H217557   2.184   4.880   4.848  0.7465 -0.4654  0.3389
 5851TIP3   OH217558   4.843   3.085   4.598  0.2471  0.0949  0.2590
 5851TIP3    H117559   4.777   3.016   4.595 -0.1873  0.5279 -0.3897
 5851TIP3    H217560   4.927   3.039   4.595 -0.0343 -0.3746 -1.2788
 5852TIP3   OH217561   2.211   2.840   4.035  0.4191  0.2450  0.0668
 5852TIP3    H117562   2.159   2.771   3.993 -1.7158  0.9689  1.3937
 5852TIP3    H217563   2.227   2.808   4.123  2.9004 -0.2548 -0.5047
 5853TIP3   OH217564   5.059   2.388   4.409  0.4568 -0.8722  0.3991
 5853TIP3    H117565   5.088   2.402   4.499  1.9464 -0.0872 -0.1564
 5853TIP3    H217566   4.964   2.396   4.413  0.5653  0.1349  1.7479
 5854TIP3   OH217567   3.796   3.938   1.925 -0.4186 -0.4073  0.1419
 5854TIP3    H117568   3.719   3.886   1.902 -0.9155  0.6895 -0.7761
 5854TIP3    H217569   3.844   3.884   1.988 -1.4051 -1.5457 -0.0547
 5855TIP3   OH217570   3.914   0.905   1.425 -0.3150 -0.3724 -0.2633
 5855TIP3    H117571   3.851   0.969   1.457 -1.8941 -0.2311 -3.3367
 5855TIP3    H217572   3.894   0.825   1.475  0.9224  1.0598  2.7851
 5856TIP3   OH217573   1.965   2.428   4.930  0.2525  0.1885  0.4558
 5856TIP3    H117574   1.872   2.408   4.936  0.5093 -0.6117  4.3276
 5856TIP3    H217575   1.988   2.408   4.839 -3.0808 -0.5983 -0.3562
 5857TIP3   OH217576   1.999   1.668   1.827  0.4184  0.2342  0.1176
 5857TIP3    H117577   1.976   1.576   1.821 -0.3681  0.5370 -2.4746
 5857TIP3    H217578   2.037   1.690   1.742  1.6843  2.0364  1.0732
 5858TIP3   OH217579   2.082   1.103   2.076  0.0798  0.0921  0.3533
 5858TIP3    H117580   2.166   1.057   2.076  0.2648  0.3006  2.5711
 5858TIP3    H217581   2.017   1.035   2.096 -0.1884  0.0824 -0.5139
 5859TIP3   OH217582   0.685   2.886   0.693  0.4943  0.2914  0.0877
 5859TIP3    H117583   0.614   2.825   0.671 -0.1344  0.6087  1.1569
 5859TIP3    H217584   0.687   2.948   0.620  0.1379 -0.1372 -0.2909
 5860TIP3   OH217585   6.271   3.639   0.644 -0.6932  0.3035  0.4941
 5860TIP3    H117586   6.306   3.550   0.651  0.0383  0.5400  0.0190
 5860TIP3    H217587   6.301   3.682   0.724 -0.6891  0.2358  0.5291
 5861TIP3   OH217588   5.005   0.183  -0.003 -0.0597  0.6811 -0.2488
 5861TIP3    H117589   4.948   0.124  -0.053 -0.7683  2.4752 -1.6468
 5861TIP3    H217590   4.966   0.186   0.084 -0.8199  0.1929 -0.5617
 5862TIP3   OH217591   3.959   2.419   1.186 -0.5618  0.3740 -0.6841
 5862TIP3    H117592   4.013   2.396   1.262  0.6074  1.0066 -1.2972
 5862TIP3    H217593   3.869   2.398   1.213 -0.2448  1.1779  1.0966
 5863TIP3   OH217594   1.680   2.283   0.253 -0.0638  0.3991 -0.1101
 5863TIP3    H117595   1.674   2.216   0.184 -0.8725 -0.2974  0.6124
 5863TIP3    H217596   1.601   2.336   0.242 -0.0476  0.4651  0.0892
 5864TIP3   OH217597   3.321   3.429   3.383  0.8733  0.2275  0.2475
 5864TIP3    H117598   3.415   3.419   3.400  0.9163 -0.7683 -0.5608
 5864TIP3    H217599   3.305   3.379   3.303 -0.6695 -1.1083  1.3328
 5865TIP3   OH217600   4.941   4.253   3.626  1.2426  0.6437 -0.0094
 5865TIP3    H117601   4.911   4.329   3.675  1.2914 -0.0508  1.1228
 5865TIP3    H217602   4.865   4.195   3.622  1.0585  0.9381 -1.2983
 5866TIP3   OH217603   4.358   0.153   1.233 -0.3290  0.0236  0.2020
 5866TIP3    H117604   4.322   0.211   1.166 -0.4577  1.3530  1.3747
 5866TIP3    H217605   4.297   0.079   1.236 -2.4184  1.6713  1.3213
 5867TIP3   OH217606   6.201   2.929   0.620  0.0944 -0.0624 -0.1550
 5867TIP3    H117607   6.144   2.932   0.544 -0.3965 -1.6717  0.1025
 5867TIP3    H217608   6.282   2.889   0.588  1.1511  2.2163 -0.5226
 5868TIP3   OH217609   0.408   0.012   1.643 -0.3096 -0.5651 -0.3356
 5868TIP3    H117610   0.379   0.046   1.728  0.1518 -1.7939  0.3322
 5868TIP3    H217611   0.397   0.086   1.583  1.2201  0.9857  1.1756
 5869TIP3   OH217612   1.803   4.138   2.648 -0.2892 -0.2653  0.0139
 5869TIP3    H117613   1.869   4.180   2.593  0.1798 -0.7964  0.1526
 5869TIP3    H217614   1.758   4.077   2.589 -1.2122  0.6780 -0.2733
 5870TIP3   OH217615   5.809   0.054   3.587 -0.3273  0.5241 -0.0375
 5870TIP3    H117616   5.857   0.052   3.504 -0.8623  1.6884 -0.3945
 5870TIP3    H217617   5.852   0.123   3.637  1.4715 -1.6522  1.6188
 5871TIP3   OH217618   1.077   3.647   4.954  0.0764 -0.2883  0.2764
 5871TIP3    H117619   1.047   3.633   4.864 -3.0120 -1.5244  1.3417
 5871TIP3    H217620   1.015   3.710   4.990  1.2509  0.1800  1.5705
 5872TIP3   OH217621   1.555   3.538   0.342  0.1348 -0.3880  0.0817
 5872TIP3    H117622   1.616   3.464   0.342  1.0260  0.2918  2.3136
 5872TIP3    H217623   1.509   3.531   0.426  0.9595  2.1552  0.8133
 5873TIP3   OH217624   2.405   4.846   4.379 -0.6296  0.3437  0.2891
 5873TIP3    H117625   2.358   4.925   4.353  0.7898  1.2854  0.5073
 5873TIP3    H217626   2.433   4.863   4.469  0.1765 -0.1869  0.1434
 5874TIP3   OH217627   5.032   4.238   1.642  0.5284 -0.3346 -0.0742
 5874TIP3    H117628   5.084   4.273   1.714 -1.5015  0.0104  1.2895
 5874TIP3    H217629   4.964   4.303   1.627  0.7519 -0.5139 -2.1990
 5875TIP3   OH217630   3.317   5.074   3.378 -0.4799  0.5000  0.3053
 5875TIP3    H117631   3.279   5.100   3.294 -0.4011 -0.3921 -0.0168
 5875TIP3    H217632   3.306   5.150   3.434  0.6662  1.5962 -0.9057
 5876TIP3   OH217633   1.362   3.118   5.144 -0.3390 -1.4832  0.0805
 5876TIP3    H117634   1.318   3.037   5.170  0.7285 -2.1455 -0.0841
 5876TIP3    H217635   1.301   3.162   5.085 -1.1190 -1.9432  0.5399
 5877TIP3   OH217636   4.621   1.840   4.957 -0.2835  0.6534 -0.1138
 5877TIP3    H117637   4.663   1.924   4.976 -0.8074  1.0685 -0.7512
 5877TIP3    H217638   4.528   1.861   4.949 -0.4825 -0.0731  0.2049
 5878TIP3   OH217639   5.446   5.312   0.838 -0.3720  0.1582 -0.3902
 5878TIP3    H117640   5.354   5.291   0.849  0.0349 -1.8087 -0.4138
 5878TIP3    H217641   5.452   5.355   0.753 -1.2505  0.2101 -0.4284
 5879TIP3   OH217642   1.322   2.146   3.832  0.4074  0.6957  0.1258
 5879TIP3    H117643   1.255   2.146   3.763 -0.0036  0.1321  0.5208
 5879TIP3    H217644   1.395   2.194   3.793 -0.6779  2.4212  0.1505
 5880TIP3   OH217645   2.316   1.531   1.531 -0.4344  0.0669 -0.3774
 5880TIP3    H117646   2.294   1.511   1.622 -0.8051  0.8858 -0.2751
 5880TIP3    H217647   2.232   1.534   1.486 -0.2224 -0.7718 -0.8538
 5881TIP3   OH217648   6.220   1.002   5.187  0.6455  0.3096  0.0505
 5881TIP3    H117649   6.307   1.032   5.210  1.8529 -2.0950 -1.0059
 5881TIP3    H217650   6.222   0.991   5.092  0.6735 -3.5550  0.3116
 5882TIP3   OH217651   1.640   5.915   0.108  0.0102  0.0615 -0.5151
 5882TIP3    H117652   1.660   6.008   0.105 -0.5666  0.3138  1.7584
 5882TIP3    H217653   1.726   5.872   0.117  0.2617  0.3530 -1.4114
 5883TIP3   OH217654   3.486   0.729   0.090  0.3069  0.3544  0.3556
 5883TIP3    H117655   3.495   0.816   0.050 -0.2182 -0.1568 -0.9297
 5883TIP3    H217656   3.402   0.731   0.134 -1.0042 -0.3133 -1.9365
 5884TIP3   OH217657   1.394   4.582   0.998 -0.2871 -0.1630  0.0945
 5884TIP3    H117658   1.446   4.523   1.054  0.9701  0.8368  0.0252
 5884TIP3    H217659   1.325   4.526   0.962 -0.6898 -1.0109  2.0541
 5885TIP3   OH217660   6.221   4.495   2.809  0.6937  0.1846 -0.4416
 5885TIP3    H117661   6.197   4.409   2.774  1.7270 -0.5346  0.5628
 5885TIP3    H217662   6.146   4.521   2.862  0.2120  0.1023 -1.0578
 5886TIP3   OH217663   5.712   4.907   2.534 -0.1731  0.0810 -0.3693
 5886TIP3    H117664   5.742   4.990   2.572  0.4424 -0.5370  0.5621
 5886TIP3    H217665   5.699   4.850   2.610  1.4554 -1.3205 -1.0645
 5887TIP3   OH217666   4.014   1.322   0.526  0.2841  0.4905  0.4689
 5887TIP3    H117667   4.037   1.369   0.446  1.1325 -2.9462 -1.5289
 5887TIP3    H217668   4.097   1.290   0.561 -0.1850  0.9587  2.1014
 5888TIP3   OH217669   5.443   2.516   3.309 -0.0189  0.2202  0.6577
 5888TIP3    H117670   5.426   2.610   3.313  0.1814  0.3067 -0.3076
 5888TIP3    H217671   5.526   2.508   3.261  0.8940 -0.3654  2.2613
 5889TIP3   OH217672   0.172   2.159   2.827 -0.0027 -0.6377  0.2309
 5889TIP3    H117673   0.110   2.127   2.761  0.7435 -0.0235 -0.7893
 5889TIP3    H217674   0.128   2.141   2.911 -1.4387 -0.4651 -0.4458
 5890TIP3   OH217675   2.892   2.570   3.795 -0.8535 -0.3256  0.3152
 5890TIP3    H117676   2.984   2.558   3.818 -0.9882  0.0429  1.0772
 5890TIP3    H217677   2.856   2.623   3.866 -1.2866  0.8867 -0.7561
 5891TIP3   OH217678   1.409   3.070   2.888  0.1143  0.5673  0.1938
 5891TIP3    H117679   1.439   3.152   2.926 -0.9212  0.5664  1.0558
 5891TIP3    H217680   1.487   3.014   2.887  0.5923  1.2225  0.5414
 5892TIP3   OH217681   3.747   0.757   4.383 -0.5066 -0.3004  0.2112
 5892TIP3    H117682   3.744   0.678   4.330  0.9343 -0.9011  0.9713
 5892TIP3    H217683   3.771   0.827   4.322 -0.6605 -0.6432 -0.2452
 5893TIP3   OH217684   1.050   4.944   2.795 -0.0432  0.1988 -0.0248
 5893TIP3    H117685   1.084   4.917   2.880 -0.2797 -2.1778 -0.6206
 5893TIP3    H217686   0.961   4.976   2.813  0.4427  1.1088  0.7942
 5894TIP3   OH217687   3.134   5.067   4.464  0.3580 -0.4272  0.4735
 5894TIP3    H117688   3.226   5.052   4.482  0.6454  1.3126  0.6401
 5894TIP3    H217689   3.116   5.152   4.503 -1.5060 -1.0434  1.0722
 5895TIP3   OH217690   1.162   4.195   0.538  0.0275 -0.4491 -0.4694
 5895TIP3    H117691   1.221   4.153   0.599 -1.7469 -3.0398 -0.3816
 5895TIP3    H217692   1.075   4.161   0.560 -0.8701 -0.5592 -3.5954
 5896TIP3   OH217693   5.844   5.280   2.317 -0.0538 -0.4274  0.0459
 5896TIP3    H117694   5.774   5.232   2.361 -1.2087  0.0287 -1.2226
 5896TIP3    H217695   5.881   5.216   2.256  0.8457 -0.7502  0.9098
 5897TIP3   OH217696   3.748   4.726   2.193  0.6067 -0.2237  0.1967
 5897TIP3    H117697   3.778   4.635   2.188 -0.0852 -0.5127  1.0491
 5897TIP3    H217698   3.653   4.720   2.195  0.5609  0.5005  0.6390
 5898TIP3   OH217699   1.313   0.627   0.194 -0.4196 -0.1390  0.1725
 5898TIP3    H117700   1.408   0.642   0.202 -0.3641 -0.9487  1.3919
 5898TIP3    H217701   1.278   0.711   0.166  0.6962  0.0880 -0.6279
 5899TIP3   OH217702   0.918   2.371   1.016  0.7089 -0.2226  0.0872
 5899TIP3    H117703   0.895   2.367   1.108  0.5193  0.5422  0.0850
 5899TIP3    H217704   0.872   2.448   0.983  1.4058 -0.0249 -0.4615
 5900TIP3   OH217705   1.099   2.305   1.371  0.1158  0.2488  0.1648
 5900TIP3    H117706   1.075   2.381   1.316 -0.5196 -0.9947 -1.3573
 5900TIP3    H217707   1.194   2.302   1.366  0.2545  1.6278  1.2416
 5901TIP3   OH217708   4.412   3.392   0.130  0.6633 -0.5436  0.2818
 5901TIP3    H117709   4.376   3.321   0.077  1.7059 -0.4797 -0.5220
 5901TIP3    H217710   4.506   3.378   0.130  0.7839  0.1161  1.1828
 5902TIP3   OH217711   4.947   1.433   3.559  0.2295 -0.0568  0.4473
 5902TIP3    H117712   5.030   1.418   3.604  0.5867 -1.4623 -0.6274
 5902TIP3    H217713   4.945   1.369   3.488 -0.4577  1.8830 -1.4044
 5903TIP3   OH217714   0.875   1.840   3.652 -0.0004 -0.5115  0.0188
 5903TIP3    H117715   0.895   1.757   3.696  0.7297 -0.5990 -0.4707
 5903TIP3    H217716   0.960   1.874   3.624 -0.2845  0.4391  0.2620
 5904TIP3   OH217717   4.184   2.267   4.739 -0.1749  0.0077 -0.5947
 5904TIP3    H117718   4.226   2.274   4.653  2.1484 -0.5141  0.3986
 5904TIP3    H217719   4.139   2.350   4.751  0.2246  0.4508 -1.9544
 5905TIP3   OH217720   4.876   5.446   3.104  0.1362 -0.3201 -0.0113
 5905TIP3    H117721   4.858   5.355   3.128 -1.5822 -0.7077 -2.3122
 5905TIP3    H217722   4.811   5.496   3.152 -0.5222 -0.6214 -0.5559
 5906TIP3   OH217723   6.061   0.190   3.938  0.6221 -0.2569  0.1096
 5906TIP3    H117724   6.052   0.276   3.978  0.9231 -1.0889  2.0428
 5906TIP3    H217725   6.079   0.130   4.010 -1.0518 -2.2282 -0.9686
 5907TIP3   OH217726   5.179   2.523   1.643  0.0385  0.3863  0.0073
 5907TIP3    H117727   5.114   2.581   1.604  0.1872  0.8794  0.4773
 5907TIP3    H217728   5.169   2.535   1.737  0.4158  0.0270  0.1006
 5908TIP3   OH217729   2.950   5.772   2.126 -0.0670  0.4070  0.6252
 5908TIP3    H117730   3.035   5.771   2.081 -0.1714  1.6520  0.3653
 5908TIP3    H217731   2.929   5.680   2.139  1.2495  0.0756  0.5407
 5909TIP3   OH217732   4.245   3.006   3.703 -0.2570 -0.0504 -0.4350
 5909TIP3    H117733   4.155   3.034   3.689 -0.6187 -0.4891  0.9111
 5909TIP3    H217734   4.245   2.912   3.685  0.0205  0.0061 -0.7586
 5910TIP3   OH217735   5.920   1.042   3.031  0.2388 -0.0323  0.5192
 5910TIP3    H117736   5.945   1.050   3.123 -0.0939 -0.7599  0.6836
 5910TIP3    H217737   5.840   1.095   3.023 -0.3837 -0.8882  0.9309
 5911TIP3   OH217738   2.617   1.427   3.771 -0.3044  0.3590 -0.1627
 5911TIP3    H117739   2.708   1.404   3.755 -1.0509 -1.7514 -1.7944
 5911TIP3    H217740   2.572   1.406   3.689 -1.9685  3.2415 -0.1289
 5912TIP3   OH217741   0.428   5.730   0.343  0.6205  0.1352  0.1335
 5912TIP3    H117742   0.402   5.697   0.257 -0.5756 -0.4073  0.6807
 5912TIP3    H217743   0.453   5.821   0.328 -0.2726  0.2586 -0.6687
 5913TIP3   OH217744   0.998   4.584   1.847  0.1843  0.0120  0.7579
 5913TIP3    H117745   0.982   4.630   1.765 -0.0953 -0.2212  0.6835
 5913TIP3    H217746   1.058   4.513   1.824  0.9858  0.6082  0.9546
 5914TIP3   OH217747   3.954   1.660   0.807  0.3873 -0.2559  0.4771
 5914TIP3    H117748   3.896   1.677   0.733  0.1361 -2.4328  0.0844
 5914TIP3    H217749   3.944   1.736   0.865  0.8297  1.6531 -1.8183
 5915TIP3   OH217750   4.141   3.451   4.238 -0.1347  0.5302 -0.0012
 5915TIP3    H117751   4.122   3.479   4.328 -2.2796 -1.3699  0.2170
 5915TIP3    H217752   4.217   3.393   4.247  0.5312  1.4240  0.3528
 5916TIP3   OH217753   5.184   4.882   3.078  0.0738 -0.0909 -0.1826
 5916TIP3    H117754   5.187   4.787   3.068  0.1573 -0.1759  0.6569
 5916TIP3    H217755   5.133   4.912   3.002  2.8407 -0.4822 -2.3450
 5917TIP3   OH217756   3.520   5.332   2.765  0.1916  0.1994  0.0356
 5917TIP3    H117757   3.581   5.367   2.829 -1.1683 -0.3266  1.6765
 5917TIP3    H217758   3.572   5.271   2.713  0.9078 -0.8245  1.8876
 5918TIP3   OH217759   4.110   5.460   0.945 -0.1254 -0.5786 -0.0831
 5918TIP3    H117760   4.141   5.369   0.950  1.1470 -0.1964 -0.5230
 5918TIP3    H217761   4.096   5.486   1.036  1.9205 -0.4575  0.2534
 5919TIP3   OH217762   4.922   4.774   0.581  0.5830 -0.5168 -0.5794
 5919TIP3    H117763   4.947   4.816   0.499  0.2685  1.5293  0.3272
 5919TIP3    H217764   4.889   4.688   0.554  0.4958  0.0906 -2.5785
 5920TIP3   OH217765   3.651   0.306   2.288  0.0925 -0.4789 -0.2201
 5920TIP3    H117766   3.705   0.226   2.283  0.4181 -0.3008  0.2902
 5920TIP3    H217767   3.584   0.294   2.222 -1.0020 -2.0396  1.0942
 5921TIP3   OH217768   0.477   4.414  -0.010  0.9265 -0.0805 -0.3240
 5921TIP3    H117769   0.447   4.402   0.080 -1.8335  0.0338 -1.1420
 5921TIP3    H217770   0.500   4.326  -0.040  1.5242 -0.1677  0.3723
 5922TIP3   OH217771   4.538   5.038   1.588 -0.4462 -0.0120 -0.1778
 5922TIP3    H117772   4.580   5.123   1.601  1.1056 -0.8157  0.3474
 5922TIP3    H217773   4.453   5.058   1.551  0.3442  1.7152 -1.1532
 5923TIP3   OH217774   0.325   4.637   3.048  0.2200  0.3503  0.1804
 5923TIP3    H117775   0.377   4.578   3.103 -0.3228 -0.0182  0.2995
 5923TIP3    H217776   0.324   4.595   2.962 -0.5751 -0.0746  0.3855
 5924TIP3   OH217777   5.560   5.477   2.669 -0.3221 -0.0945 -0.3725
 5924TIP3    H117778   5.495   5.527   2.719  0.5259  0.3977  0.2513
 5924TIP3    H217779   5.584   5.404   2.727 -0.6007 -0.5033 -0.7626
 5925TIP3   OH217780   3.312   1.584   0.761  0.5679 -0.3448  0.2236
 5925TIP3    H117781   3.354   1.515   0.709  0.8821  0.6952 -0.9551
 5925TIP3    H217782   3.235   1.542   0.799  0.0501 -1.0254 -1.4930
 5926TIP3   OH217783   1.850   4.107   3.926  0.0168  0.0659 -0.3038
 5926TIP3    H117784   1.923   4.167   3.911  1.2810 -0.7652  2.0682
 5926TIP3    H217785   1.772   4.160   3.910  1.0762  2.3582  1.5591
 5927TIP3   OH217786   4.459   2.579   2.421 -0.1182  0.5295 -0.4671
 5927TIP3    H117787   4.461   2.533   2.337 -0.7304  0.8396 -0.6607
 5927TIP3    H217788   4.551   2.596   2.441  0.0836 -0.1985 -0.7071
 5928TIP3   OH217789   2.963   4.971   2.737 -0.2610  0.1496 -0.0063
 5928TIP3    H117790   2.987   4.933   2.821 -1.2135  0.9382  0.6391
 5928TIP3    H217791   2.873   4.941   2.722 -0.0974  0.0082 -0.7599
 5929TIP3   OH217792   4.181   5.952   4.315 -0.0423 -0.3462 -0.1885
 5929TIP3    H117793   4.148   5.901   4.389  2.5353 -2.1635 -0.1340
 5929TIP3    H217794   4.153   5.903   4.238 -0.3918  0.0197 -0.2958
 5930TIP3   OH217795   2.595   2.389   2.590 -0.1069  0.2288 -0.4742
 5930TIP3    H117796   2.620   2.458   2.652  2.4402 -0.6666 -0.3888
 5930TIP3    H217797   2.654   2.317   2.610 -1.2884 -1.2148 -1.9673
 5931TIP3   OH217798   6.331   0.208   3.002 -0.3439 -0.6938  0.2862
 5931TIP3    H117799   6.243   0.237   2.979 -0.0547 -0.5396 -0.6560
 5931TIP3    H217800   6.343   0.125   2.955  0.8171  0.3876 -1.4505
 5932TIP3   OH217801   2.451   3.817   0.883 -0.2624  0.0996  0.1861
 5932TIP3    H117802   2.508   3.848   0.953 -0.1474 -0.1178  0.1898
 5932TIP3    H217803   2.363   3.833   0.915 -0.2241 -0.6475  0.6809
 5933TIP3   OH217804   0.787   5.080   3.061 -0.4057 -0.3974 -0.0241
 5933TIP3    H117805   0.756   5.023   3.131  2.3637 -1.5998  0.3579
 5933TIP3    H217806   0.741   5.163   3.075 -3.1561 -1.9098  0.5244
 5934TIP3   OH217807   1.630   1.126   4.334 -0.4385  0.6344 -0.0985
 5934TIP3    H117808   1.656   1.218   4.332  3.1314 -0.2525 -0.2270
 5934TIP3    H217809   1.543   1.127   4.375 -0.1037  3.9535  0.8287
 5935TIP3   OH217810   4.983   5.535   0.035  0.2781 -0.0985 -0.2216
 5935TIP3    H117811   5.030   5.457   0.007 -0.7637 -1.1987  0.9405
 5935TIP3    H217812   4.906   5.539  -0.023 -0.6349 -1.0259  0.8760
 5936TIP3   OH217813   6.207   1.303   0.830  0.0196 -0.4136  0.5079
 5936TIP3    H117814   6.159   1.239   0.883 -0.5247 -0.4835 -0.0513
 5936TIP3    H217815   6.143   1.371   0.811  0.1907 -0.4133 -0.0940
 5937TIP3   OH217816   1.003   3.900   0.870 -0.0971 -0.1209  0.1418
 5937TIP3    H117817   1.020   3.994   0.862 -0.4651 -0.0788 -0.1917
 5937TIP3    H217818   1.049   3.873   0.949  0.2451  0.2857  0.0824
 5938TIP3   OH217819   2.859   2.802   4.892 -0.7063  0.4233 -0.2100
 5938TIP3    H117820   2.876   2.725   4.839  1.3194  1.9811 -2.0103
 5938TIP3    H217821   2.933   2.807   4.952 -0.7375  1.0446 -0.2151
 5939TIP3   OH217822   0.376   4.589   3.923  0.1600 -0.2769 -0.2553
 5939TIP3    H117823   0.283   4.601   3.906  0.2778 -0.0786 -0.7594
 5939TIP3    H217824   0.381   4.507   3.973 -0.2219 -0.6270 -0.7826
 5940TIP3   OH217825   2.944   4.211   3.474  0.1123 -0.9823 -0.3808
 5940TIP3    H117826   2.950   4.297   3.515 -2.3122 -1.3568  0.9406
 5940TIP3    H217827   2.890   4.226   3.396  1.1227 -1.0272 -1.0995
 5941TIP3   OH217828   4.788   2.675   3.065  0.7692  0.2627  0.0068
 5941TIP3    H117829   4.751   2.754   3.104  0.4018 -0.7277  1.7593
 5941TIP3    H217830   4.880   2.696   3.052  0.2627  1.7442 -1.7026
 5942TIP3   OH217831   4.703   2.868   1.245 -0.7542 -0.2116  0.5881
 5942TIP3    H117832   4.709   2.953   1.202  0.0580 -0.2649  0.5699
 5942TIP3    H217833   4.743   2.882   1.331  0.8221 -0.9192  0.0189
 5943TIP3   OH217834   2.639   3.601   4.144  0.3068 -0.3803 -0.3479
 5943TIP3    H117835   2.683   3.537   4.088  1.0318  0.0368 -0.2662
 5943TIP3    H217836   2.594   3.549   4.210 -0.5162 -0.8757 -1.2824
 5944TIP3   OH217837   2.600   4.191   0.697  0.0111  0.3988 -0.4382
 5944TIP3    H117838   2.662   4.142   0.751  1.3207  0.8183 -1.5212
 5944TIP3    H217839   2.516   4.179   0.741  0.6539 -1.1071  0.4586
 5945TIP3   OH217840   4.197   1.096   0.877 -0.1023 -0.4846 -0.1911
 5945TIP3    H117841   4.114   1.066   0.840 -0.4231 -1.2398  1.0601
 5945TIP3    H217842   4.205   1.048   0.960  1.4509 -0.2199 -0.1538
 5946TIP3   OH217843   2.863   5.318   3.405 -0.6298  0.0384  0.0814
 5946TIP3    H117844   2.937   5.331   3.464 -0.8983 -1.1351  0.6892
 5946TIP3    H217845   2.828   5.232   3.428 -1.3332 -0.0219 -1.1362
 5947TIP3   OH217846   6.283   0.711   3.894 -0.0064  0.4232  0.0685
 5947TIP3    H117847   6.216   0.754   3.947  0.3537 -1.0109  1.8056
 5947TIP3    H217848   6.233   0.651   3.838 -0.2518 -1.5815  2.2444
 5948TIP3   OH217849   5.573   4.125   3.701  0.2735  0.1207  0.8661
 5948TIP3    H117850   5.543   4.124   3.792  0.6204  1.2132  1.0094
 5948TIP3    H217851   5.626   4.046   3.693  0.8620  0.3831  1.8445
 5949TIP3   OH217852   3.531   0.646   5.044  0.5514 -0.0753  0.3603
 5949TIP3    H117853   3.606   0.685   4.999  1.3294 -2.0773 -0.1785
 5949TIP3    H217854   3.539   0.676   5.135  1.3996  0.5551  0.0888
 5950TIP3   OH217855   0.716   3.594   0.667  0.5070  0.6786  0.4977
 5950TIP3    H117856   0.753   3.621   0.752  0.5544  0.6269  0.4940
 5950TIP3    H217857   0.709   3.675   0.617  1.5756  0.5633  0.1298
 5951TIP3   OH217858   3.090   0.320   1.540  0.3026  0.4083  0.3254
 5951TIP3    H117859   3.175   0.325   1.585  0.2594 -0.4846  0.5266
 5951TIP3    H217860   3.059   0.231   1.559 -0.0196  0.2379 -0.9351
 5952TIP3   OH217861   0.541   0.262   1.880 -0.0688 -0.0980  0.1404
 5952TIP3    H117862   0.468   0.318   1.906  0.5800  0.0634  1.8085
 5952TIP3    H217863   0.516   0.174   1.909  0.2728 -0.0854  0.4866
 5953TIP3   OH217864   5.440   4.086   3.921 -0.0024 -0.2189  0.5007
 5953TIP3    H117865   5.397   4.171   3.918 -0.8759 -0.6478  0.6355
 5953TIP3    H217866   5.426   4.055   4.010  0.5518 -0.3878  0.5342
 5954TIP3   OH217867   2.783   1.862   0.426 -0.3459 -0.4554 -0.3527
 5954TIP3    H117868   2.741   1.779   0.449 -0.9256  0.1905  0.9987
 5954TIP3    H217869   2.718   1.908   0.373 -0.5669 -0.2984  0.0506
 5955TIP3   OH217870   2.754   4.268   3.288  0.3733 -0.0643 -0.1827
 5955TIP3    H117871   2.680   4.266   3.347  1.3633  0.1424  1.1182
 5955TIP3    H217872   2.720   4.237   3.204 -0.4910 -2.9094  1.1303
 5956TIP3   OH217873   0.419   5.218   3.243  0.5023 -0.3501  0.2419
 5956TIP3    H117874   0.510   5.194   3.260  1.2511  0.1347 -2.5652
 5956TIP3    H217875   0.401   5.184   3.156 -1.5712  0.7318  0.1856
 5957TIP3   OH217876   6.322   4.936   1.795 -0.8406  0.0383 -0.1029
 5957TIP3    H117877   6.294   4.877   1.724  1.5282  0.5760 -1.6012
 5957TIP3    H217878   6.374   5.003   1.751 -0.0704  0.9492  2.0720
 5958TIP3   OH217879   4.174   0.617   4.812 -0.2609  0.2890 -0.4038
 5958TIP3    H117880   4.176   0.694   4.869  1.7387 -0.8513  1.2125
 5958TIP3    H217881   4.245   0.631   4.750 -0.4844  0.1588 -0.6927
 5959TIP3   OH217882   0.055   3.612   0.324 -0.1080 -0.0749  0.5043
 5959TIP3    H117883   0.004   3.567   0.257  0.4753 -1.7526  1.1309
 5959TIP3    H217884   0.037   3.563   0.404 -0.6348  1.7674  1.5705
 5960TIP3   OH217885   1.722   0.083   4.692  0.0504  0.5820  0.7041
 5960TIP3    H117886   1.759   0.066   4.606 -0.8355 -0.7111  0.5543
 5960TIP3    H217887   1.798   0.080   4.751  0.3306 -1.4930  0.3309
 5961TIP3   OH217888   0.153   1.035   0.338  0.3471 -0.4433 -0.3058
 5961TIP3    H117889   0.156   1.026   0.243  1.0293  1.3005 -0.4903
 5961TIP3    H217890   0.156   1.129   0.353 -2.6429 -0.5009  1.3909
 5962TIP3   OH217891   4.454   2.972   3.333 -0.7004  0.7665  0.5187
 5962TIP3    H117892   4.546   2.988   3.315 -0.5072  0.4973  1.2501
 5962TIP3    H217893   4.435   3.026   3.410 -0.2814 -1.7175  2.4581
 5963TIP3   OH217894   2.007   2.619   2.107  0.4006  0.4603 -0.3864
 5963TIP3    H117895   1.926   2.567   2.102 -0.2430  1.4077 -0.0698
 5963TIP3    H217896   2.072   2.558   2.141 -0.2460 -0.2535 -0.3931
 5964TIP3   OH217897   5.330   0.167   4.189 -0.2595 -0.3399  0.1867
 5964TIP3    H117898   5.323   0.110   4.113 -0.2911 -2.2115  1.5249
 5964TIP3    H217899   5.242   0.204   4.199 -0.0407  0.6238 -1.1528
 5965TIP3   OH217900   4.787   0.775   5.081 -0.8934  0.4633 -0.6422
 5965TIP3    H117901   4.694   0.798   5.074 -0.6649  1.0582 -1.9883
 5965TIP3    H217902   4.830   0.857   5.105 -0.3798  0.9518 -3.0049
 5966TIP3   OH217903   3.372   4.331   2.291  0.3086  0.0284  0.7071
 5966TIP3    H117904   3.302   4.272   2.264  1.0013 -1.0972  1.2624
 5966TIP3    H217905   3.451   4.277   2.285  0.9600  0.9003  1.2488
 5967TIP3   OH217906   1.922   5.731   0.196  0.0615  0.0692 -0.1664
 5967TIP3    H117907   2.016   5.744   0.205  0.0436  0.6308 -0.7676
 5967TIP3    H217908   1.904   5.653   0.249  1.2433 -1.4185 -1.8254
 5968TIP3   OH217909   0.821   2.516   4.540 -0.3976 -0.4988  0.1287
 5968TIP3    H117910   0.820   2.539   4.447 -1.3023 -2.6017 -0.4362
 5968TIP3    H217911   0.838   2.599   4.585 -1.8342  0.9347 -1.7981
 5969TIP3   OH217912   3.843   5.589   1.171  0.3576 -0.1297  0.0741
 5969TIP3    H117913   3.900   5.666   1.173  0.0614  0.1408  3.4309
 5969TIP3    H217914   3.754   5.624   1.171  0.1340 -0.5529 -2.2719
 5970TIP3   OH217915   5.356   5.446   4.218 -0.4593 -0.6824  0.2120
 5970TIP3    H117916   5.328   5.529   4.257 -0.8541 -0.6215 -0.1855
 5970TIP3    H217917   5.421   5.472   4.152 -0.6484 -0.6759  0.0255
 5971TIP3   OH217918   3.802   3.658   3.244 -0.3918 -0.0916  0.3520
 5971TIP3    H117919   3.744   3.665   3.168 -0.4004  0.2748  0.3884
 5971TIP3    H217920   3.745   3.629   3.315 -0.7716  1.2816  0.6441
 5972TIP3   OH217921   4.759   1.568   1.956 -0.0427 -0.1237  0.5473
 5972TIP3    H117922   4.755   1.609   1.870 -0.3219 -0.5565  0.3514
 5972TIP3    H217923   4.767   1.475   1.938  0.8585 -0.1473  0.9870
 5973TIP3   OH217924   4.626   0.022   2.404  0.1630  0.0979  0.1460
 5973TIP3    H117925   4.691   0.050   2.340  0.4432 -0.3302  0.2371
 5973TIP3    H217926   4.677  -0.014   2.476 -0.1548  0.4970  0.5722
 5974TIP3   OH217927   3.974   4.254   2.115 -0.3942  0.2030 -0.6224
 5974TIP3    H117928   4.016   4.339   2.126 -0.3117  0.0892 -0.0214
 5974TIP3    H217929   3.888   4.264   2.154  1.0229 -1.1291  3.4617
 5975TIP3   OH217930   4.587   1.787   1.439  0.2841  0.0070 -0.2986
 5975TIP3    H117931   4.644   1.818   1.369 -1.4826 -0.5528 -2.0888
 5975TIP3    H217932   4.539   1.714   1.400 -0.3681 -0.7063  1.7048
 5976TIP3   OH217933   5.702   4.867   0.144 -0.3460  0.3622 -0.5407
 5976TIP3    H117934   5.721   4.851   0.052  0.2009 -0.4182 -0.3077
 5976TIP3    H217935   5.733   4.956   0.160 -2.6017  1.4185 -1.6577
 5977TIP3   OH217936   6.214   0.886   4.556 -0.5204  0.1204 -0.2105
 5977TIP3    H117937   6.122   0.862   4.558 -0.4553 -0.2013 -0.8076
 5977TIP3    H217938   6.246   0.853   4.472  0.2538 -0.2052  0.1963
 5978TIP3   OH217939   4.582   3.429   2.072  0.3195  0.5465  0.1337
 5978TIP3    H117940   4.537   3.354   2.110  0.2799  0.0329 -0.8940
 5978TIP3    H217941   4.655   3.446   2.132 -1.0886  1.2869  1.7268
 5979TIP3   OH217942   5.957   5.033   0.887  0.6590 -0.5070  0.5179
 5979TIP3    H117943   5.999   4.967   0.943  1.3991  0.0139  0.5926
 5979TIP3    H217944   5.943   4.988   0.804  1.3030 -0.7169  0.5190
 5980TIP3   OH217945   0.136   3.821   4.880 -0.4899 -0.2315  0.4429
 5980TIP3    H117946   0.179   3.794   4.961  0.5246  0.1547  0.0534
 5980TIP3    H217947   0.148   3.916   4.876 -0.4306 -0.2582 -0.2088
 5981TIP3   OH217948   5.464   0.322   3.926 -0.0120 -0.0133 -0.0382
 5981TIP3    H117949   5.535   0.374   3.889  0.9166 -1.7372 -0.8107
 5981TIP3    H217950   5.390   0.382   3.929  1.3843  1.7925  0.5849
 5982TIP3   OH217951   5.654   2.737   3.429  0.2948  0.1597  0.0866
 5982TIP3    H117952   5.563   2.763   3.414 -0.1502 -1.6838 -0.7036
 5982TIP3    H217953   5.692   2.732   3.342  0.2057 -2.1876  0.1335
 5983TIP3   OH217954   5.938   4.031   0.503  0.0006 -0.0527  0.0358
 5983TIP3    H117955   6.001   3.962   0.482 -0.4123 -0.4836  0.1862
 5983TIP3    H217956   5.861   3.984   0.534 -0.2254  0.4895  0.3044
 5984TIP3   OH217957   0.099   2.789   3.346  0.1609  0.0664 -0.3011
 5984TIP3    H117958   0.131   2.731   3.415 -1.1149 -0.6373 -0.2604
 5984TIP3    H217959   0.107   2.877   3.383  0.7039 -0.2009  0.2344
 5985TIP3   OH217960   5.096   1.290   2.570  0.1664  0.4498 -0.1713
 5985TIP3    H117961   5.059   1.362   2.622  2.0951  0.5636  1.1466
 5985TIP3    H217962   5.078   1.212   2.622  0.1538  0.2843 -0.4266
 5986TIP3   OH217963   1.754   0.990   2.128 -0.1476  0.5263 -0.1480
 5986TIP3    H117964   1.755   1.073   2.176 -0.2072  0.4638 -0.0401
 5986TIP3    H217965   1.760   0.922   2.196  1.0427  0.4654 -0.2878
 5987TIP3   OH217966   4.436   4.235   2.501  0.1810  0.0908 -0.2146
 5987TIP3    H117967   4.447   4.170   2.430  1.1656  0.4519 -0.4112
 5987TIP3    H217968   4.449   4.185   2.581  0.1169 -0.1174 -0.3329
 5988TIP3   OH217969   0.785   3.655   3.582  0.6436  0.0657  0.1381
 5988TIP3    H117970   0.740   3.623   3.504  0.4149  0.0404  0.2834
 5988TIP3    H217971   0.874   3.675   3.551 -0.3284  3.3747 -1.0150
 5989TIP3   OH217972   1.838   3.459   3.766 -0.0360  0.1868 -0.4456
 5989TIP3    H117973   1.896   3.384   3.776 -0.7822 -0.6271 -1.8469
 5989TIP3    H217974   1.750   3.423   3.774 -0.3978  0.9899 -0.6473
 5990TIP3   OH217975   0.415   2.513   4.462  0.0820  0.1399  0.3521
 5990TIP3    H117976   0.411   2.596   4.414 -1.3387 -0.4615 -0.6335
 5990TIP3    H217977   0.373   2.533   4.546  1.0728  0.7692  0.7191
 5991TIP3   OH217978   4.182   3.471   2.945  0.2580  0.4220  0.4309
 5991TIP3    H117979   4.134   3.525   3.008 -0.4851  0.9202 -0.5509
 5991TIP3    H217980   4.263   3.520   2.929  0.5300  0.2138  1.1028
 5992TIP3   OH217981   3.184   0.637   4.574 -0.1467 -0.7616  0.0386
 5992TIP3    H117982   3.202   0.729   4.593  0.0377 -0.7214 -0.3266
 5992TIP3    H217983   3.098   0.621   4.614  0.0092 -0.5472  0.4677
 5993TIP3   OH217984   4.496   1.561   2.029 -0.1198  0.0210  0.0961
 5993TIP3    H117985   4.478   1.485   2.083  0.7511  0.4015  0.9684
 5993TIP3    H217986   4.592   1.567   2.028  0.0001 -0.7909 -2.6738
 5994TIP3   OH217987   3.271   1.454   2.630 -0.6190 -0.4693 -0.6333
 5994TIP3    H117988   3.196   1.512   2.642 -0.7562 -0.8213  0.2954
 5994TIP3    H217989   3.241   1.389   2.567 -0.7899 -0.0991 -0.9390
 5995TIP3   OH217990   4.494   5.192   2.441  0.3598  0.3550  0.3082
 5995TIP3    H117991   4.569   5.244   2.413  0.1536  0.3093 -0.3348
 5995TIP3    H217992   4.450   5.167   2.360 -0.5978  0.7455  0.6968
 5996TIP3   OH217993   5.072   3.868   5.141  0.3235 -0.0833 -0.0806
 5996TIP3    H117994   5.146   3.809   5.127  0.2978  0.0452 -0.7417
 5996TIP3    H217995   5.027   3.831   5.218 -0.5047 -1.7735 -1.3173
 5997TIP3   OH217996   4.445   0.196   3.996  0.8567 -0.0849  0.1047
 5997TIP3    H117997   4.492   0.129   3.946 -0.7729 -1.2564  0.0704
 5997TIP3    H217998   4.384   0.235   3.934  1.5979  1.3024  0.1962
 5998TIP3   OH217999   4.697   1.313   0.829  0.0005  0.6576  0.3749
 5998TIP3    H118000   4.790   1.336   0.831 -0.0152  0.8781 -0.7586
 5998TIP3    H218001   4.664   1.352   0.748 -0.3206 -2.2219 -1.0137
 5999TIP3   OH218002   3.251   1.978   3.294  0.5841 -0.4687  0.0458
 5999TIP3    H118003   3.257   1.884   3.311  0.4029 -0.3356  0.9179
 5999TIP3    H218004   3.167   1.989   3.249  1.6186 -0.9798 -2.1495
 6000TIP3   OH218005   3.172   1.627   4.323 -1.0018 -0.1104  0.3790
 6000TIP3    H118006   3.262   1.599   4.337 -1.5990 -2.5759 -0.2323
 6000TIP3    H218007   3.177   1.723   4.321  1.5522 -0.1636  0.5248
 6001TIP3   OH218008   4.801   5.802   3.829 -0.3535  0.5046 -0.8268
 6001TIP3    H118009   4.805   5.798   3.734  1.2168 -1.1504 -0.7507
 6001TIP3    H218010   4.871   5.863   3.854 -1.2094  1.4688 -0.7358
 6002TIP3   OH218011   5.341   3.801   4.627  0.1014 -0.2191 -0.7715
 6002TIP3    H118012   5.301   3.714   4.616 -0.7135 -0.3382  2.1438
 6002TIP3    H218013   5.272   3.853   4.670  1.2731  1.2309 -0.5803
 6003TIP3   OH218014   2.327   0.593   3.391 -0.1473 -0.7524  0.5231
 6003TIP3    H118015   2.318   0.599   3.296 -0.4481  0.5358  0.6157
 6003TIP3    H218016   2.242   0.561   3.421 -0.0986 -1.0265  0.3748
 6004TIP3   OH218017   4.934   0.083   2.520 -0.5813 -1.0759  0.2784
 6004TIP3    H118018   5.021   0.051   2.546  0.6125  0.9990 -0.8777
 6004TIP3    H218019   4.913   0.033   2.440 -0.6743 -1.8762  0.7894
 6005TIP3   OH218020   0.370   0.744   4.453  0.6990  0.0344 -0.1904
 6005TIP3    H118021   0.453   0.697   4.465  0.7801  0.6569  2.0811
 6005TIP3    H218022   0.316   0.718   4.527 -0.5367  0.9058 -0.7435
 6006TIP3   OH218023   0.320   1.534   2.140 -0.6248  0.2831 -0.5714
 6006TIP3    H118024   0.384   1.481   2.187 -0.5594  0.6315 -0.2622
 6006TIP3    H218025   0.278   1.588   2.208 -1.3860 -0.0807 -0.7423
 6007TIP3   OH218026   2.663   5.846   4.452 -0.4733 -0.3113  0.2891
 6007TIP3    H118027   2.743   5.896   4.467 -0.6664  0.7086 -1.7879
 6007TIP3    H218028   2.692   5.769   4.402 -0.6470 -0.4778  0.4434
 6008TIP3   OH218029   1.901   5.458   4.975 -0.0383  0.0913  0.0954
 6008TIP3    H118030   1.963   5.512   4.926  0.6001  1.1109  1.8898
 6008TIP3    H218031   1.914   5.369   4.941  0.2637  0.7528 -1.6130
 6009TIP3   OH218032   0.603   0.612   1.229  0.2439 -0.1024 -0.1490
 6009TIP3    H118033   0.572   0.702   1.228  1.8482  0.5594  2.0254
 6009TIP3    H218034   0.659   0.605   1.151 -1.1182  0.2400 -1.2047
 6010TIP3   OH218035   3.296   4.164   1.032 -0.0342  0.1606  0.6407
 6010TIP3    H118036   3.325   4.218   1.106 -0.6017 -0.1374  1.0884
 6010TIP3    H218037   3.356   4.089   1.032 -0.2482 -0.0159  1.0230
 6011TIP3   OH218038   2.940   3.982   1.730  0.0424  0.0617  0.1983
 6011TIP3    H118039   2.908   3.895   1.755  0.2720  0.6008  2.6207
 6011TIP3    H218040   3.021   3.964   1.682 -0.0337 -1.0812  0.4580
 6012TIP3   OH218041   0.094   4.878   2.427 -0.2874 -0.6386 -0.0963
 6012TIP3    H118042   0.161   4.859   2.361 -0.1845  0.3182 -0.2925
 6012TIP3    H218043   0.037   4.801   2.427  1.0604 -1.6797  0.4059
 6013TIP3   OH218044   5.642   2.775   0.221  0.6386  0.0356 -0.7457
 6013TIP3    H118045   5.558   2.748   0.257  1.0561 -0.5710 -0.1833
 6013TIP3    H218046   5.633   2.869   0.205 -0.0735  0.0126 -0.5162
 6014TIP3   OH218047   6.346   4.011   4.560 -0.4645 -0.2247  0.3748
 6014TIP3    H118048   6.380   4.043   4.477  0.1539 -0.9906  0.3231
 6014TIP3    H218049   6.283   4.078   4.588  0.6880  0.9528  0.2191
 6015TIP3   OH218050   1.567   0.622   3.579  0.0167 -0.1191 -0.0710
 6015TIP3    H118051   1.641   0.565   3.560  0.1184 -0.0938  0.2397
 6015TIP3    H218052   1.545   0.663   3.495  0.9815  0.6247  0.0293
 6016TIP3   OH218053   3.720   1.763   3.316 -0.1137 -0.2349  0.0950
 6016TIP3    H118054   3.716   1.727   3.405 -0.3474  1.0775  0.6307
 6016TIP3    H218055   3.720   1.858   3.328 -1.3822 -0.0156 -1.3526
 6017TIP3   OH218056   4.018   0.263   3.846 -0.1143 -0.1725 -0.8431
 6017TIP3    H118057   4.095   0.288   3.795  0.0285 -1.5954 -1.3562
 6017TIP3    H218058   3.969   0.345   3.856  1.5220  0.8019 -0.3666
 6018TIP3   OH218059   2.355   0.331   1.883 -0.6111  0.4309 -0.1363
 6018TIP3    H118060   2.450   0.345   1.878 -0.7979  1.5425 -0.8882
 6018TIP3    H218061   2.342   0.243   1.847  0.0517  0.6491 -0.9365
 6019TIP3   OH218062   0.736  -0.021   0.657  0.6278  0.0363  0.5830
 6019TIP3    H118063   0.725   0.071   0.633 -3.1482  0.5857  3.4841
 6019TIP3    H218064   0.795  -0.019   0.733  0.9853 -0.0197  0.3089
 6020TIP3   OH218065   2.126   1.490   1.339 -0.6890  0.0817  0.1751
 6020TIP3    H118066   2.140   1.475   1.246 -0.7274  0.1722  0.1547
 6020TIP3    H218067   2.033   1.472   1.353 -0.5607 -0.4938  0.3062
 6021TIP3   OH218068   2.636   3.904   4.812  0.1823 -0.5567 -0.3700
 6021TIP3    H118069   2.713   3.921   4.756  1.5194  0.2700  1.6151
 6021TIP3    H218070   2.645   3.813   4.837 -0.4942 -0.9701 -1.5503
 6022TIP3   OH218071   5.948   4.577   3.957  0.1642 -0.5289 -0.2088
 6022TIP3    H118072   5.992   4.530   4.027 -0.6835 -1.0365 -0.0029
 6022TIP3    H218073   6.015   4.588   3.889  0.2721 -2.4651 -0.4772
 6023TIP3   OH218074   0.570   5.652   1.986 -0.1488  0.3135  0.3331
 6023TIP3    H118075   0.562   5.721   1.921 -2.8107 -0.0913  0.1141
 6023TIP3    H218076   0.607   5.578   1.938  0.5933  0.8727  0.0230
 6024TIP3   OH218077   4.980   4.234   1.377 -0.3195 -0.1664  0.1002
 6024TIP3    H118078   4.957   4.327   1.381 -1.4638 -0.4626  1.0829
 6024TIP3    H218079   4.996   4.210   1.469  2.0059 -0.4777 -0.3363
 6025TIP3   OH218080   4.638   1.159   0.132  0.4113  0.2622  0.3114
 6025TIP3    H118081   4.650   1.065   0.147 -1.0691  0.1700  1.1244
 6025TIP3    H218082   4.581   1.188   0.203 -2.4445  0.9469 -2.0446
 6026TIP3   OH218083   5.884   1.371   2.704 -0.0549  0.5124 -0.0362
 6026TIP3    H118084   5.963   1.395   2.752 -0.1819  1.6899 -0.3679
 6026TIP3    H218085   5.813   1.415   2.751 -0.7128 -1.5571  1.0079
 6027TIP3   OH218086   5.195   5.714   2.434 -0.9662 -0.3925  0.0922
 6027TIP3    H118087   5.228   5.797   2.469  0.4557 -0.6487 -0.5547
 6027TIP3    H218088   5.218   5.649   2.500  0.5693 -0.6817 -0.6742
 6028TIP3   OH218089   1.145   5.648   2.140 -0.0538  0.4154  0.4443
 6028TIP3    H118090   1.091   5.710   2.091  1.6628  1.4809 -0.2101
 6028TIP3    H218091   1.104   5.642   2.226 -1.4969  0.7405 -0.1903
 6029TIP3   OH218092   3.849   4.999   1.100  0.1313  0.4858 -0.0684
 6029TIP3    H118093   3.874   5.042   1.182 -3.2082  0.0957  1.3197
 6029TIP3    H218094   3.832   5.072   1.039  0.7944  0.8322  0.1403
 6030TIP3   OH218095   5.677   1.794   2.279  0.1996  0.2015 -0.6520
 6030TIP3    H118096   5.593   1.831   2.249  0.9366  1.9612 -0.6533
 6030TIP3    H218097   5.696   1.725   2.216 -0.5102  0.8066 -1.5628
 6031TIP3   OH218098   2.796   0.809   0.745 -0.1502  0.1151 -0.1776
 6031TIP3    H118099   2.706   0.777   0.742 -0.2467  0.3053  0.5591
 6031TIP3    H218100   2.813   0.825   0.838  0.5408  0.3717 -0.3415
 6032TIP3   OH218101   0.631   2.336   4.053  0.5052 -0.0185 -0.3967
 6032TIP3    H118102   0.663   2.371   3.970  2.5544 -0.8008 -0.0015
 6032TIP3    H218103   0.540   2.312   4.036 -0.4837  3.7512 -1.1716
 6033TIP3   OH218104   4.269   5.309   1.232 -0.3729  0.0532  0.2631
 6033TIP3    H118105   4.209   5.286   1.303  0.0008 -0.7183  0.3344
 6033TIP3    H218106   4.239   5.395   1.203 -1.7935 -0.5018 -0.0047
 6034TIP3   OH218107   6.075   0.296   2.951  0.4924  0.5133  0.1918
 6034TIP3    H118108   6.010   0.247   2.901  1.8308  0.4761 -1.5984
 6034TIP3    H218109   6.058   0.388   2.930  0.8547  0.5175 -0.0991
 6035TIP3   OH218110   2.928   3.907   3.585 -0.5834  0.1258 -0.3224
 6035TIP3    H118111   2.929   3.861   3.669 -0.2044  2.2565  0.9275
 6035TIP3    H218112   2.836   3.912   3.561 -0.5704 -2.1649 -1.0735
 6036TIP3   OH218113   3.682   3.935   3.570 -0.2825  0.4247 -0.0394
 6036TIP3    H118114   3.614   3.915   3.506 -0.8740  0.3083  0.6183
 6036TIP3    H218115   3.764   3.923   3.522 -0.7230  2.3104 -1.3576
 6037TIP3   OH218116   3.791   4.849   5.138  0.1627 -0.3396 -0.0012
 6037TIP3    H118117   3.855   4.828   5.206 -0.2637  1.1520  0.9187
 6037TIP3    H218118   3.839   4.839   5.056  2.0804  2.0878  0.6953
 6038TIP3   OH218119   3.272   4.282   4.149  0.0032  0.1402  0.4411
 6038TIP3    H118120   3.355   4.234   4.140  0.2406  0.8002 -1.2303
 6038TIP3    H218121   3.286   4.363   4.100 -1.3519  0.6514  0.8662
 6039TIP3   OH218122   2.372   3.664   0.525 -0.9566  0.1503  0.3856
 6039TIP3    H118123   2.446   3.712   0.562  0.0535 -1.3431  0.4178
 6039TIP3    H218124   2.327   3.728   0.470  1.5670  0.6242 -1.3120
 6040TIP3   OH218125   0.968   2.706   1.985 -0.1426 -0.3857  0.1361
 6040TIP3    H118126   1.021   2.730   2.061  0.2442  0.6797 -0.4540
 6040TIP3    H218127   0.883   2.746   2.002 -0.1615 -0.4432  0.1755
 6041TIP3   OH218128   5.921   1.146   2.542  0.3359  0.1431  0.2858
 6041TIP3    H118129   5.845   1.128   2.487 -0.5034 -1.9312  1.9787
 6041TIP3    H218130   5.896   1.222   2.594  0.0945  0.4876 -0.3223
 6042TIP3   OH218131   0.727   1.996   4.107  0.6758 -1.0220  0.2778
 6042TIP3    H118132   0.776   1.971   4.185 -0.3479 -2.2337  0.5654
 6042TIP3    H218133   0.635   1.995   4.134  0.3847 -0.0512 -0.5767
 6043TIP3   OH218134   1.650   4.777   4.255 -0.6891  0.5759  0.5440
 6043TIP3    H118135   1.698   4.694   4.257  0.6588  1.3344  0.8153
 6043TIP3    H218136   1.581   4.767   4.320 -0.2224 -0.1509  0.9334
 6044TIP3   OH218137   5.267   5.302   3.426  0.0547  0.0426 -0.1559
 6044TIP3    H118138   5.228   5.368   3.369 -0.3746 -0.7500 -0.7934
 6044TIP3    H218139   5.195   5.244   3.450 -0.1506  1.2829  2.5990
 6045TIP3   OH218140   1.663   4.745   0.319  0.0830  0.0366  0.1255
 6045TIP3    H118141   1.631   4.701   0.240  0.7657  1.2618 -0.8705
 6045TIP3    H218142   1.625   4.695   0.391 -0.7191 -1.0002 -0.9710
 6046TIP3   OH218143   2.611   5.097   3.705 -0.6913  0.0352  0.1680
 6046TIP3    H118144   2.638   5.061   3.621  2.5014 -1.0103  1.4940
 6046TIP3    H218145   2.613   5.192   3.692 -3.8003 -0.0392 -1.8244
 6047TIP3   OH218146   3.217   0.609   3.710  0.4637  0.4446  0.2544
 6047TIP3    H118147   3.270   0.678   3.670  1.0009 -0.0762  0.0575
 6047TIP3    H218148   3.252   0.527   3.674 -0.5822  0.0993 -0.0085
 6048TIP3   OH218149   3.883   3.074   0.957  0.0159  0.0324 -0.9453
 6048TIP3    H118150   3.929   2.995   0.930 -0.6315 -0.0186 -1.9381
 6048TIP3    H218151   3.858   3.117   0.875  0.7160  1.4908 -0.4340
 6049TIP3   OH218152   6.253   5.306   4.166 -0.2503 -0.0069 -0.0595
 6049TIP3    H118153   6.178   5.300   4.107 -1.0773 -0.0366  0.9811
 6049TIP3    H218154   6.316   5.360   4.118 -0.8897 -0.0580 -0.9858
 6050TIP3   OH218155   4.737   3.870   1.452  0.4890 -0.2311 -0.0245
 6050TIP3    H118156   4.675   3.904   1.387 -1.2797  0.5053  1.9218
 6050TIP3    H218157   4.734   3.775   1.441  0.3016 -0.1125 -1.0898
 6051TIP3   OH218158   0.789   2.207   0.123 -0.2416 -0.3349 -0.6356
 6051TIP3    H118159   0.729   2.280   0.139 -0.6121 -0.4971 -1.2350
 6051TIP3    H218160   0.737   2.129   0.142  0.2437 -0.4433  0.2956
 6052TIP3   OH218161   3.992   0.802   3.975  0.0597 -0.1737 -0.0429
 6052TIP3    H118162   4.082   0.776   3.991 -0.5132 -1.3701  1.4743
 6052TIP3    H218163   3.981   0.794   3.880  1.1658 -1.3133 -0.0933
 6053TIP3   OH218164   3.033   1.027   2.737  0.4236 -0.1644  0.2095
 6053TIP3    H118165   2.985   0.944   2.741 -0.6289  0.4046 -0.0432
 6053TIP3    H218166   2.969   1.093   2.764  1.7678  0.3923  2.2450
 6054TIP3   OH218167   1.836   1.466   1.279  0.1594  0.4655 -0.1288
 6054TIP3    H118168   1.796   1.405   1.217 -0.0956  1.5609 -1.0764
 6054TIP3    H218169   1.816   1.553   1.244  1.6598  1.0854  0.4685
 6055TIP3   OH218170   1.026   3.709   0.657 -0.7043  0.1261 -0.2387
 6055TIP3    H118171   0.989   3.753   0.733 -0.2051 -0.4611  0.3590
 6055TIP3    H218172   1.080   3.639   0.694 -0.5768 -0.2645 -1.1358
 6056TIP3   OH218173   5.002   1.598   0.540  0.4862  0.0299 -0.2074
 6056TIP3    H118174   4.912   1.580   0.514  0.3998 -0.9123  0.6683
 6056TIP3    H218175   4.995   1.635   0.628  0.9464  0.1165 -0.2017
 6057TIP3   OH218176   1.116   0.671   0.833  0.3209 -0.1100 -0.1206
 6057TIP3    H118177   1.035   0.637   0.795 -0.0968 -1.9449  2.2251
 6057TIP3    H218178   1.092   0.757   0.868 -0.8442 -0.8890  1.1114
 6058TIP3   OH218179   5.118   3.039   4.872  0.0269  0.6307 -0.0456
 6058TIP3    H118180   5.207   3.026   4.905  0.8270  1.9094 -1.5520
 6058TIP3    H218181   5.130   3.065   4.780 -1.9761 -0.4564 -0.6744
 6059TIP3   OH218182   6.197   0.559   0.032 -0.5019 -0.2453  0.7701
 6059TIP3    H118183   6.195   0.653   0.049  1.0995 -0.0199 -0.0920
 6059TIP3    H218184   6.283   0.531   0.063 -0.4017 -1.1515 -0.2786
 6060TIP3   OH218185   4.728   4.163   3.352 -0.1072 -0.2389  0.3672
 6060TIP3    H118186   4.730   4.223   3.278  1.5105 -0.9595 -0.2118
 6060TIP3    H218187   4.808   4.112   3.344 -0.8939 -1.7271  1.4724
 6061TIP3   OH218188   0.197   1.952   2.000 -0.1422 -0.3270  0.4326
 6061TIP3    H118189   0.279   1.933   1.954  0.1796  2.5013 -0.2975
 6061TIP3    H218190   0.209   2.039   2.037 -2.5619 -0.1252  0.9224
 6062TIP3   OH218191   2.335   5.433   0.194 -0.4034  0.0683  0.5244
 6062TIP3    H118192   2.330   5.360   0.132 -0.1676  0.1017  0.4642
 6062TIP3    H218193   2.406   5.409   0.254  1.8187  1.6100 -1.3167
 6063TIP3   OH218194   4.723   4.234   3.994 -0.4369 -0.2956 -0.5570
 6063TIP3    H118195   4.691   4.166   4.053 -1.9132 -0.5917 -1.6286
 6063TIP3    H218196   4.653   4.244   3.929 -1.3971  3.9419  0.8656
 6064TIP3   OH218197   2.007   3.637   3.133  0.4005 -0.2283  0.0712
 6064TIP3    H118198   2.100   3.650   3.152  0.9257  0.8651 -2.8041
 6064TIP3    H218199   1.971   3.725   3.126  0.4343 -0.3777 -4.1054
 6065TIP3   OH218200   0.793   2.522   4.258 -0.3297  0.3784 -0.3615
 6065TIP3    H118201   0.725   2.573   4.214  1.1277  0.5927 -2.4765
 6065TIP3    H218202   0.783   2.433   4.224 -1.5129 -0.3883  1.7454
 6066TIP3   OH218203   3.387   1.030   0.260 -0.0851  0.0357 -0.1001
 6066TIP3    H118204   3.458   1.089   0.238 -0.4505  0.2588 -0.7247
 6066TIP3    H218205   3.388   1.025   0.356  1.1080 -0.3986 -0.1179
 6067TIP3   OH218206   2.985   0.371   3.498  0.2270  0.2202  0.3328
 6067TIP3    H118207   2.994   0.282   3.463 -0.4101  0.5619 -0.7442
 6067TIP3    H218208   3.068   0.387   3.543  0.0611 -1.1958  1.2279
 6068TIP3   OH218209   1.612   1.254   2.770 -0.3557  0.1528 -0.0796
 6068TIP3    H118210   1.560   1.262   2.851  2.0783  0.4678  1.5597
 6068TIP3    H218211   1.678   1.187   2.791  1.4160  1.4847 -1.1522
 6069TIP3   OH218212   0.388   5.118   0.272  0.0590  0.0263 -0.0403
 6069TIP3    H118213   0.305   5.155   0.302  0.9807  1.8583  0.3437
 6069TIP3    H218214   0.429   5.084   0.351  0.5880  1.0111  0.1208
 6070TIP3   OH218215   2.025   3.254   5.020  0.1929 -0.2459  0.3065
 6070TIP3    H118216   2.055   3.334   5.062  1.6119 -0.5065 -0.1497
 6070TIP3    H218217   2.086   3.187   5.050 -0.9196 -1.1571  0.6109
 6071TIP3   OH218218   5.085   0.794   3.844  1.0151 -0.0066  0.5553
 6071TIP3    H118219   5.067   0.857   3.775  0.8534 -0.2744  0.3514
 6071TIP3    H218220   5.082   0.709   3.801  0.8999 -0.1778  0.8918
 6072TIP3   OH218221   3.398   0.912   2.406 -0.4766 -0.7539  0.4468
 6072TIP3    H118222   3.440   0.835   2.367  0.7432  0.4049 -0.6435
 6072TIP3    H218223   3.321   0.927   2.352  0.2989 -0.1494 -0.5369
 6073TIP3   OH218224   3.160   3.336   1.188 -0.1804  0.2385 -0.3581
 6073TIP3    H118225   3.180   3.371   1.101 -2.6198 -1.4211 -1.6899
 6073TIP3    H218226   3.066   3.322   1.188 -0.0828 -1.0299  2.1127
 6074TIP3   OH218227   0.749   0.925   0.849  0.2050 -0.5587  0.4920
 6074TIP3    H118228   0.770   0.998   0.791  0.9017 -0.3791  0.9548
 6074TIP3    H218229   0.653   0.919   0.847  0.0806  0.8916  1.0705
 6075TIP3   OH218230   4.747   2.403   2.101  0.0484 -0.2840 -0.3863
 6075TIP3    H118231   4.780   2.395   2.190  1.4612  0.1496 -0.8578
 6075TIP3    H218232   4.663   2.449   2.111  0.9040  1.1171  0.5932
 6076TIP3   OH218233   5.145   2.948   0.127 -0.3203  0.1614 -0.2400
 6076TIP3    H118234   5.101   3.010   0.070 -0.6494 -0.2584 -0.4508
 6076TIP3    H218235   5.119   2.973   0.216 -0.9821 -0.0737 -0.3627
 6077TIP3   OH218236   1.407   2.015   2.220 -0.0594 -0.5357 -0.2040
 6077TIP3    H118237   1.463   2.003   2.143  1.2654  1.5587  0.3356
 6077TIP3    H218238   1.465   2.057   2.284 -1.1093 -2.2576  1.9797
 6078TIP3   OH218239   1.129   2.372   3.961 -0.0140  0.6100 -0.2829
 6078TIP3    H118240   1.067   2.301   3.943  0.1999 -0.0883  1.4822
 6078TIP3    H218241   1.135   2.374   4.056  1.9270  1.3168 -0.3806
 6079TIP3   OH218242   2.553   4.038   2.498  0.3000  0.4499  0.2812
 6079TIP3    H118243   2.639   4.005   2.524 -0.4758 -0.5938  1.6688
 6079TIP3    H218244   2.491   3.992   2.555 -1.1883  1.1864 -0.6645
 6080TIP3   OH218245   0.097   0.916   2.263  0.0517  0.8533 -0.5666
 6080TIP3    H118246   0.187   0.888   2.280 -0.1420 -1.3057 -2.5181
 6080TIP3    H218247   0.066   0.949   2.347  2.3595  0.8034  0.3837
 6081TIP3   OH218248   2.558   2.264   0.401 -0.2280 -0.3538 -0.2431
 6081TIP3    H118249   2.549   2.181   0.449 -0.3825  0.1756  0.6604
 6081TIP3    H218250   2.507   2.251   0.321  0.2877 -1.3673 -0.4287
 6082TIP3   OH218251   4.267   3.606   0.237  0.3503 -0.0164  0.2539
 6082TIP3    H118252   4.301   3.527   0.195  0.5462 -0.5446  1.3782
 6082TIP3    H218253   4.198   3.574   0.296 -1.2064  0.8975 -0.9921
 6083TIP3   OH218254   5.755   3.328   0.060  0.2595  0.2317 -0.1658
 6083TIP3    H118255   5.660   3.324   0.051  0.2950  0.3187 -0.5736
 6083TIP3    H218256   5.778   3.248   0.108 -0.2739  1.3983  2.2116
 6084TIP3   OH218257   1.482   3.114   3.374  0.0416 -0.5348  0.1195
 6084TIP3    H118258   1.412   3.134   3.436  0.0269  0.3079 -0.1456
 6084TIP3    H218259   1.491   3.019   3.377 -0.0982 -0.5268  1.2486
 6085TIP3   OH218260   3.239   3.967   1.993  0.5203 -0.0042 -0.3370
 6085TIP3    H118261   3.335   3.967   1.998  0.5255 -1.4064 -0.1368
 6085TIP3    H218262   3.220   3.918   1.913 -0.0248  2.0364 -1.5393
 6086TIP3   OH218263   2.545   1.990   0.823 -0.2049 -0.0475  0.8409
 6086TIP3    H118264   2.592   2.057   0.872  0.0509  1.4602 -1.3227
 6086TIP3    H218265   2.609   1.921   0.808  0.1061  0.1154  1.4305
 6087TIP3   OH218266   0.861   4.588   4.678  0.3929  0.6654 -0.0481
 6087TIP3    H118267   0.922   4.659   4.699 -0.2131  0.9111  0.9821
 6087TIP3    H218268   0.785   4.632   4.642  0.6510  0.3903 -0.9565
 6088TIP3   OH218269   6.028   4.693   2.401  0.2202 -0.3009 -0.6449
 6088TIP3    H118270   5.981   4.749   2.339  3.0837  0.2250 -2.5694
 6088TIP3    H218271   6.106   4.665   2.353  2.5979  0.0159  2.6696
 6089TIP3   OH218272   3.043   2.972   3.675  0.6016  0.8783 -1.0032
 6089TIP3    H118273   3.007   2.914   3.608  0.9341 -1.0100  0.3924
 6089TIP3    H218274   2.971   2.984   3.737  0.2967  2.6206 -1.6143
 6090TIP3   OH218275   0.275   3.045   0.908  0.0194 -0.0323 -0.6102
 6090TIP3    H118276   0.354   3.041   0.854  0.6169  1.0725  0.1387
 6090TIP3    H218277   0.232   2.960   0.894  0.4331  0.0087 -2.3608
 6091TIP3   OH218278   4.408   3.136   3.538 -0.1769  0.0653 -0.0690
 6091TIP3    H118279   4.386   3.070   3.605 -0.6378  1.3140  1.0631
 6091TIP3    H218280   4.464   3.199   3.584  1.4149 -0.2297 -1.5012
 6092TIP3   OH218281   0.059   5.220   3.609  0.5823  0.3257 -0.0846
 6092TIP3    H118282   0.128   5.158   3.634 -0.0282 -0.6209 -0.6935
 6092TIP3    H218283   0.050   5.278   3.684  0.3543 -1.0433  0.9668
 6093TIP3   OH218284   0.070   0.614   1.612  0.5847  0.4763 -0.2436
 6093TIP3    H118285   0.151   0.574   1.579  0.3046 -0.5812  0.3147
 6093TIP3    H218286   0.078   0.706   1.589  3.3205  1.0502  2.3795
 6094TIP3   OH218287   0.308   2.108   2.227  0.1302  0.2860  0.3497
 6094TIP3    H118288   0.324   2.080   2.317 -0.6147  0.8739  0.6703
 6094TIP3    H218289   0.360   2.188   2.216 -0.0082  0.3744  0.3427
 6095TIP3   OH218290   0.688   4.776   4.062 -0.5190 -0.2315  0.3231
 6095TIP3    H118291   0.660   4.830   4.136 -3.9739 -1.1289 -0.1447
 6095TIP3    H218292   0.711   4.839   3.993 -1.0062  0.6362  0.9382
 6096TIP3   OH218293   3.838   4.205   1.262 -0.2399  0.3719  0.1320
 6096TIP3    H118294   3.889   4.133   1.299 -1.5619  0.2824  1.9293
 6096TIP3    H218295   3.900   4.278   1.260 -0.2966  0.7490  3.8687
 6097TIP3   OH218296   0.642   2.264   2.377 -0.2122  0.4091 -0.6181
 6097TIP3    H118297   0.709   2.251   2.309  1.2420 -0.0132  0.8157
 6097TIP3    H218298   0.605   2.350   2.357  1.0631  0.8568 -1.2317
 6098TIP3   OH218299   3.708   2.366   3.974  0.0763  0.0126 -0.1381
 6098TIP3    H118300   3.723   2.348   4.067 -0.0899  2.4164  0.4184
 6098TIP3    H218301   3.655   2.292   3.943  1.9039 -1.9132  1.1098
 6099TIP3   OH218302   2.025   1.716   0.716 -0.2371  0.3500 -0.3557
 6099TIP3    H118303   2.114   1.745   0.696 -0.4915 -0.1818 -2.4698
 6099TIP3    H218304   1.969   1.770   0.660 -1.2659  0.5590  0.8263
 6100TIP3   OH218305   5.327   1.148   1.728  0.1903  0.0074 -0.0960
 6100TIP3    H118306   5.382   1.149   1.807  0.1405 -1.6101 -0.0210
 6100TIP3    H218307   5.267   1.221   1.740  1.5433  1.0901  0.3686
 6101TIP3   OH218308   1.135   2.725   4.339 -0.1788 -0.2790 -0.1724
 6101TIP3    H118309   1.171   2.765   4.418 -0.2482  0.0728 -0.3161
 6101TIP3    H218310   1.058   2.779   4.319  0.0297 -0.1606 -0.6695
 6102TIP3   OH218311   4.111   2.947   4.115  0.1757 -0.4946  0.1187
 6102TIP3    H118312   4.066   2.863   4.105  0.0249 -0.5402  1.0715
 6102TIP3    H218313   4.191   2.938   4.063  0.3975 -1.4080  0.6004
 6103TIP3   OH218314   2.193   3.398   4.481 -0.1580 -0.1496 -0.3086
 6103TIP3    H118315   2.149   3.372   4.401  1.1928  1.0618 -1.4934
 6103TIP3    H218316   2.144   3.354   4.551 -1.3001 -1.3011 -1.7802
 6104TIP3   OH218317   0.385   0.077   1.114  0.0780 -0.0753 -0.1768
 6104TIP3    H118318   0.338   0.007   1.069  1.6809 -0.6425 -1.0730
 6104TIP3    H218319   0.477   0.059   1.096  0.5592  2.0945 -0.1684
 6105TIP3   OH218320   2.482   5.192   5.188 -0.3676 -0.0198 -0.0993
 6105TIP3    H118321   2.541   5.260   5.219 -0.9300 -0.2595  1.5444
 6105TIP3    H218322   2.462   5.217   5.098 -0.6581  2.0355  0.5087
 6106TIP3   OH218323   2.857   0.155   2.520  0.2822  1.0530  0.7186
 6106TIP3    H118324   2.811   0.109   2.590  1.5573  2.1050  2.2881
 6106TIP3    H218325   2.871   0.243   2.553  0.6241  1.6914 -1.0095
 6107TIP3   OH218326   0.016   4.098   1.452  0.2835 -0.0926  0.0475
 6107TIP3    H118327   0.016   4.079   1.546 -0.8179 -0.4747 -0.0205
 6107TIP3    H218328   0.109   4.092   1.427  0.3238 -2.8641  0.5510
 6108TIP3   OH218329   5.462   3.499   5.125  0.1206 -0.2976  0.2104
 6108TIP3    H118330   5.539   3.496   5.182  0.2121 -1.2885  0.0503
 6108TIP3    H218331   5.492   3.460   5.042 -0.2061  0.4724 -0.2874
 6109TIP3   OH218332   3.403   3.391   1.370 -0.0200 -0.1529  0.1185
 6109TIP3    H118333   3.363   3.473   1.399  0.3255 -0.0125  0.2097
 6109TIP3    H218334   3.373   3.325   1.432  0.2327  0.0327  0.4429
 6110TIP3   OH218335   0.522   3.220   1.423  0.0644 -0.4236  0.2654
 6110TIP3    H118336   0.463   3.294   1.410 -0.1395 -0.5872  0.2393
 6110TIP3    H218337   0.487   3.176   1.501  0.0716 -0.5952  0.1737
 6111TIP3   OH218338   0.796   4.979   3.555 -0.0280 -0.2247  0.6893
 6111TIP3    H118339   0.834   5.032   3.625  0.6405 -1.0565  0.9794
 6111TIP3    H218340   0.866   4.919   3.530 -0.4004 -0.2174 -0.4075
 6112TIP3   OH218341   2.100   0.333   4.382  0.2571  0.0773  0.1721
 6112TIP3    H118342   2.058   0.383   4.452  0.7594  1.7677 -0.6750
 6112TIP3    H218343   2.033   0.326   4.314  0.3597  0.0762  0.0718
 6113TIP3   OH218344   3.443   0.128   0.250  0.5259  0.0643 -0.0879
 6113TIP3    H118345   3.427   0.037   0.274  1.6415  0.3245  1.8164
 6113TIP3    H218346   3.417   0.134   0.158  2.0094 -2.6126 -0.7749
 6114TIP3   OH218347   0.278   1.924   5.104 -0.4741 -0.1256  0.7063
 6114TIP3    H118348   0.321   1.866   5.167  0.6839 -2.0527 -1.6894
 6114TIP3    H218349   0.345   1.944   5.039 -2.0327  0.4257 -0.8055
 6115TIP3   OH218350   1.153   4.770   0.669  0.2314  0.0742  0.4777
 6115TIP3    H118351   1.186   4.856   0.696 -2.0556  1.7059 -1.4758
 6115TIP3    H218352   1.174   4.765   0.576  0.7934 -1.7620  0.6761
 6116TIP3   OH218353   5.859   2.672   2.045  0.5227  0.5312  0.3859
 6116TIP3    H118354   5.781   2.660   2.098 -0.7784  1.6811 -1.1799
 6116TIP3    H218355   5.826   2.689   1.956  2.5672  0.2039 -0.4924
 6117TIP3   OH218356   5.682   5.308   4.867  0.4311  0.4542  0.3497
 6117TIP3    H118357   5.733   5.246   4.920  1.9307  2.7524  1.7880
 6117TIP3    H218358   5.621   5.348   4.930  1.1614  2.1134  0.0667
 6118TIP3   OH218359   1.752   5.091   4.360  0.2154  0.1243  0.3085
 6118TIP3    H118360   1.835   5.063   4.323 -0.1698  0.0519 -0.5166
 6118TIP3    H218361   1.742   5.038   4.440  1.5936  1.1038  1.1637
 6119TIP3   OH218362   1.748   5.395   2.652 -0.0190  0.1143  0.2862
 6119TIP3    H118363   1.735   5.301   2.640 -0.7105 -0.1303  2.5116
 6119TIP3    H218364   1.792   5.423   2.572 -0.9644 -1.8388 -1.0113
 6120TIP3   OH218365   3.251   2.333   1.743 -0.4115 -0.0776 -0.2242
 6120TIP3    H118366   3.241   2.252   1.793 -0.5617 -0.3378 -0.6674
 6120TIP3    H218367   3.200   2.318   1.663  1.5333 -0.5004 -1.4466
 6121TIP3   OH218368   3.606   3.522   3.401 -0.3077  0.3230  0.2011
 6121TIP3    H118369   3.598   3.436   3.360 -1.7904 -0.1285  1.3119
 6121TIP3    H218370   3.663   3.508   3.476 -2.2960 -0.2680  1.6793
 6122TIP3   OH218371   6.117   5.783   2.820 -0.2290  0.0073 -0.2877
 6122TIP3    H118372   6.038   5.818   2.862 -0.2990  0.2236 -0.6031
 6122TIP3    H218373   6.085   5.718   2.758 -0.1794  0.3608 -0.6812
 6123TIP3   OH218374   2.622   2.564   3.726  0.6861  0.2597  0.4458
 6123TIP3    H118375   2.713   2.545   3.747  0.5989 -0.1840  0.4419
 6123TIP3    H218376   2.602   2.508   3.651  0.5326  0.6657  0.1791
 6124TIP3   OH218377   5.761   3.516   3.303  0.1649 -0.1737 -0.6406
 6124TIP3    H118378   5.757   3.436   3.354  0.0199 -1.1240 -2.0822
 6124TIP3    H218379   5.793   3.488   3.217  1.3615  1.5022 -0.7948
 6125TIP3   OH218380   4.174   4.903   1.814 -0.9675  0.4130 -0.4375
 6125TIP3    H118381   4.104   4.837   1.814 -0.7966  0.0782 -3.7681
 6125TIP3    H218382   4.129   4.986   1.831 -1.5731 -0.2008  1.1563
 6126TIP3   OH218383   6.150   3.523   2.048  0.3962  0.4167 -0.1893
 6126TIP3    H118384   6.234   3.558   2.075  1.0769 -0.0684 -1.6136
 6126TIP3    H218385   6.142   3.546   1.956 -1.3302  1.0019  0.0758
 6127TIP3   OH218386   4.330   1.206   3.756  0.1532 -0.4013  0.5020
 6127TIP3    H118387   4.381   1.126   3.774  0.6397  0.3015  2.5770
 6127TIP3    H218388   4.243   1.174   3.733  0.2835 -1.5633  1.4769
 6128TIP3   OH218389   2.306   0.534   4.362  0.1140 -0.0524  0.2821
 6128TIP3    H118390   2.399   0.509   4.372 -0.2140 -1.7117 -0.3821
 6128TIP3    H218391   2.259   0.452   4.375 -1.1041  0.2244 -1.9468
 6129TIP3   OH218392   1.634   2.732   2.697 -0.1757 -0.6396 -0.0186
 6129TIP3    H118393   1.718   2.754   2.658 -0.9837 -0.8004 -1.9210
 6129TIP3    H218394   1.578   2.808   2.681 -1.0907 -1.4768 -0.9508
 6130TIP3   OH218395   0.092   4.437   1.859  0.1254 -0.0708 -0.0995
 6130TIP3    H118396   0.106   4.516   1.911  1.0235 -0.4376  0.2459
 6130TIP3    H218397  -0.002   4.422   1.861  0.0035  0.7201  0.2255
 6131TIP3   OH218398   4.302   1.981   2.331  0.4136 -0.1519 -0.3476
 6131TIP3    H118399   4.306   2.015   2.421 -0.2056 -0.5001 -0.1889
 6131TIP3    H218400   4.369   1.912   2.329 -0.3615 -0.9307  0.1830
 6132TIP3   OH218401   0.817   2.544   2.685  0.4550 -0.2139  0.0135
 6132TIP3    H118402   0.912   2.533   2.688  0.5071  0.3571  1.7949
 6132TIP3    H218403   0.802   2.634   2.715 -0.5489  0.5442 -2.5164
 6133TIP3   OH218404   3.350   2.587   4.048 -0.2857  0.0272  0.4044
 6133TIP3    H118405   3.408   2.567   3.975 -1.6788  0.2073 -0.8012
 6133TIP3    H218406   3.373   2.676   4.073  0.8304 -0.3614  0.8235
 6134TIP3   OH218407   2.109   0.058   4.258 -0.7136  0.2220 -0.0215
 6134TIP3    H118408   2.032   0.075   4.202 -0.0111 -1.0076 -1.4115
 6134TIP3    H218409   2.091  -0.027   4.297  0.3303 -0.4948 -1.0666
 6135TIP3   OH218410   5.248   0.944   2.444 -0.4989  0.0211 -0.4711
 6135TIP3    H118411   5.261   0.964   2.351 -3.5733  2.1638 -0.6147
 6135TIP3    H218412   5.307   1.003   2.490  1.1359 -1.1378 -0.9951
 6136TIP3   OH218413   1.629   0.243   2.007  0.1947  0.4118 -0.2600
 6136TIP3    H118414   1.537   0.269   2.006 -0.3488 -1.0756  2.1545
 6136TIP3    H218415   1.628   0.153   1.973  0.6917  0.2458  0.1589
 6137TIP3   OH218416   4.434   1.528   1.025  0.8020 -0.0852 -0.1635
 6137TIP3    H118417   4.339   1.528   1.013  0.5256 -1.1796  1.6310
 6137TIP3    H218418   4.470   1.532   0.936 -0.9318 -0.4791 -0.9112
 6138TIP3   OH218419   0.842   1.277   0.389  0.2242 -0.3057 -0.0965
 6138TIP3    H118420   0.807   1.244   0.306 -0.5306 -1.0117  0.4830
 6138TIP3    H218421   0.767   1.317   0.433  0.6878  0.3384  0.1200
 6139TIP3   OH218422   4.214   3.897   1.680 -0.2872 -0.3126  0.3552
 6139TIP3    H118423   4.279   3.962   1.707 -1.9458  0.3455  3.0794
 6139TIP3    H218424   4.266   3.823   1.649  1.6712  1.5869 -1.2709
 6140TIP3   OH218425   2.181   0.184   0.058  0.4193  0.0516  0.1877
 6140TIP3    H118426   2.151   0.094   0.072  0.1788  0.1302  0.1633
 6140TIP3    H218427   2.208   0.186  -0.034 -1.5187  0.5692 -0.4172
 6141TIP3   OH218428   4.502   1.155   1.613  0.0569  0.1712  0.3064
 6141TIP3    H118429   4.470   1.242   1.589 -1.3682 -0.1679  0.8739
 6141TIP3    H218430   4.500   1.155   1.709 -1.1265 -0.8755  0.3044
 6142TIP3   OH218431   2.203   4.125   2.584  0.4253  0.9135 -0.3996
 6142TIP3    H118432   2.142   4.183   2.538 -0.7393 -0.0463 -0.1020
 6142TIP3    H218433   2.207   4.046   2.529  0.1484  0.3402  0.3824
 6143TIP3   OH218434   4.415   0.409   0.668  0.1851  0.1250 -0.4125
 6143TIP3    H118435   4.445   0.496   0.644 -1.4874  0.4856 -1.3036
 6143TIP3    H218436   4.411   0.360   0.586 -0.2760 -0.3354 -0.1293
 6144TIP3   OH218437   5.247   0.755   4.269  0.0927 -0.7094 -0.1034
 6144TIP3    H118438   5.326   0.786   4.313  0.5977 -0.2027 -1.3217
 6144TIP3    H218439   5.260   0.660   4.261 -0.0052 -0.8069  0.8025
 6145TIP3   OH218440   0.516   0.875   0.082 -0.1998  0.2640 -0.1212
 6145TIP3    H118441   0.510   0.959   0.038 -1.9523 -0.2672 -0.9759
 6145TIP3    H218442   0.428   0.838   0.077  0.4892 -1.5815  0.2921
 6146TIP3   OH218443   0.328   5.530   2.285 -0.0474  0.4474  0.6199
 6146TIP3    H118444   0.416   5.496   2.268  0.2340  0.3839  2.0871
 6146TIP3    H218445   0.331   5.621   2.257 -0.1232 -0.0809 -1.1979
 6147TIP3   OH218446   2.353   1.372   3.852 -0.9276  0.1221 -0.2970
 6147TIP3    H118447   2.443   1.393   3.873 -0.6043 -1.0435 -0.4386
 6147TIP3    H218448   2.314   1.455   3.824  0.7419  0.2387 -2.5159
 6148TIP3   OH218449   0.475   2.770   2.161 -0.1622 -0.1613  0.3468
 6148TIP3    H118450   0.398   2.718   2.185 -0.0938  0.1825  1.3591
 6148TIP3    H218451   0.490   2.827   2.236  0.9787 -0.0876  0.0812
 6149TIP3   OH218452   2.487   5.311   0.428  0.6671  0.3391  0.0964
 6149TIP3    H118453   2.572   5.296   0.468  0.7562  0.8887  0.1208
 6149TIP3    H218454   2.425   5.308   0.501  0.7438  0.6167  0.1728
 6150TIP3   OH218455   0.730   1.802   0.386 -0.3149  0.2352  0.0291
 6150TIP3    H118456   0.816   1.771   0.415 -0.2752 -0.2934 -0.6397
 6150TIP3    H218457   0.668   1.752   0.438 -0.2275  1.4939  1.4091
 6151TIP3   OH218458   4.721   0.983   0.998  0.9954 -0.2432  0.2905
 6151TIP3    H118459   4.682   1.019   1.078 -0.1096 -1.0960  0.1638
 6151TIP3    H218460   4.811   0.963   1.023  0.9056  0.2799  1.0844
 6152TIP3   OH218461   4.322   4.475   3.700 -0.1668 -0.2941  0.8308
 6152TIP3    H118462   4.367   4.392   3.716 -0.9231 -0.8668  0.1236
 6152TIP3    H218463   4.321   4.484   3.605  1.0759  1.2112  0.9325
 6153TIP3   OH218464   0.364   2.233   3.118 -0.1364 -0.0446 -0.1352
 6153TIP3    H118465   0.317   2.150   3.114  0.6901 -0.6403  1.4565
 6153TIP3    H218466   0.368   2.254   3.212  0.7746  1.1345 -0.4081
 6154TIP3   OH218467   2.313   0.387   0.711 -0.2501 -0.1458 -0.3596
 6154TIP3    H118468   2.372   0.369   0.638 -0.4305 -0.1334 -0.5062
 6154TIP3    H218469   2.351   0.339   0.785  0.9114  1.2197 -0.0201
 6155TIP3   OH218470   2.256   3.069   2.538  0.1110 -0.2831  0.7161
 6155TIP3    H118471   2.301   2.996   2.580  0.7657 -0.2004  0.1735
 6155TIP3    H218472   2.176   3.030   2.502 -0.4668 -0.3449  2.0410
 6156TIP3   OH218473   0.728   1.356   5.071 -0.1562 -0.0917 -0.0371
 6156TIP3    H118474   0.716   1.284   5.010 -0.2493  1.1528 -1.5274
 6156TIP3    H218475   0.678   1.329   5.149 -0.6479 -1.3706 -0.7598
 6157TIP3   OH218476   1.126   1.637   1.593  0.1705  0.0785 -0.6165
 6157TIP3    H118477   1.219   1.621   1.608 -0.3182 -1.0621  1.7652
 6157TIP3    H218478   1.084   1.554   1.615 -1.5100  0.9435 -0.3851
 6158TIP3   OH218479   2.114   1.116   0.763  0.4201 -0.1782 -0.4768
 6158TIP3    H118480   2.084   1.160   0.683  0.4996 -0.8788 -0.9020
 6158TIP3    H218481   2.130   1.026   0.736  1.8385 -0.0973 -0.0013
 6159TIP3   OH218482   2.084   4.137   1.188  0.3903 -0.5291 -0.5001
 6159TIP3    H118483   2.176   4.138   1.214  0.3492 -1.0684 -0.3252
 6159TIP3    H218484   2.072   4.219   1.140  1.3405 -1.1326 -1.8276
 6160TIP3   OH218485   4.813   5.142   0.239 -0.1930 -0.0052  0.2738
 6160TIP3    H118486   4.721   5.122   0.220  0.2507 -0.7860 -1.2223
 6160TIP3    H218487   4.842   5.069   0.294 -1.2442  1.8138  3.4835
 6161TIP3   OH218488   5.368   1.510   2.039  0.4547 -0.6467 -0.3337
 6161TIP3    H118489   5.390   1.430   2.086 -1.8977 -2.1616 -1.6580
 6161TIP3    H218490   5.365   1.485   1.947  0.6335  1.2291 -0.8975
 6162TIP3   OH218491   0.858   1.246   2.285  0.3950 -0.2296 -0.3151
 6162TIP3    H118492   0.781   1.193   2.265  0.9759 -1.5091  0.6877
 6162TIP3    H218493   0.931   1.185   2.282  1.4347  1.0025 -1.4880
 6163TIP3   OH218494   1.241   0.579   4.633 -0.1520 -0.0479  0.1786
 6163TIP3    H118495   1.275   0.612   4.550 -0.5721  1.7944  0.7037
 6163TIP3    H218496   1.288   0.628   4.700 -0.7073 -0.6143  1.0086
 6164TIP3   OH218497   0.387   1.925   0.038  0.0281  0.3056 -0.3771
 6164TIP3    H118498   0.296   1.895   0.040  0.4289 -0.9578  0.1114
 6164TIP3    H218499   0.381   2.020   0.029 -1.3592  0.4047  1.1288
 6165TIP3   OH218500   2.567   1.303   2.093  0.2376 -0.0930  0.5452
 6165TIP3    H118501   2.623   1.236   2.054  1.7622  0.1190  2.2494
 6165TIP3    H218502   2.513   1.255   2.156 -0.1840 -0.0058  0.2587
 6166TIP3   OH218503   2.889   1.496   3.613  0.2639 -0.4126 -0.4232
 6166TIP3    H118504   2.915   1.419   3.562  0.1993 -0.2397 -0.7199
 6166TIP3    H218505   2.970   1.524   3.656  0.7645  0.5590 -1.9230
 6167TIP3   OH218506   0.165   1.737   3.807  0.0170 -0.3765  0.5166
 6167TIP3    H118507   0.091   1.758   3.864  1.2133 -0.8297  2.3436
 6167TIP3    H218508   0.240   1.779   3.849  0.5320  2.1685 -2.5772
 6168TIP3   OH218509   4.037   5.807   4.498 -0.4470 -0.2065  0.1013
 6168TIP3    H118510   4.058   5.718   4.469  1.1914  0.4634 -0.8724
 6168TIP3    H218511   3.944   5.817   4.479 -0.6292 -1.6670  0.1142
 6169TIP3   OH218512   4.002   5.855   3.171  0.3397 -0.0141  0.2252
 6169TIP3    H118513   3.984   5.947   3.154  1.4314 -0.2278 -2.7454
 6169TIP3    H218514   4.085   5.856   3.219 -0.4141  0.5363  1.5801
 6170TIP3   OH218515   3.006   1.832   5.128 -0.0644  0.0236  0.0462
 6170TIP3    H118516   2.961   1.916   5.130  2.1537  1.3193 -1.2572
 6170TIP3    H218517   3.034   1.821   5.038 -0.2038 -2.0967  0.2036
 6171TIP3   OH218518   4.343   6.008   5.045  0.0697 -0.6697 -0.7036
 6171TIP3    H118519   4.394   5.970   5.116  2.1022  0.5930 -1.3961
 6171TIP3    H218520   4.349   5.945   4.974 -0.2458 -1.0101 -0.4294
 6172TIP3   OH218521   3.407   1.276   1.128  0.4803 -0.3688  0.3623
 6172TIP3    H118522   3.499   1.257   1.112  0.2983  0.5654 -2.1833
 6172TIP3    H218523   3.404   1.370   1.143 -0.2458 -0.0151 -1.7014
 6173TIP3   OH218524   5.912   0.939   4.961 -0.0727  0.7784 -0.1061
 6173TIP3    H118525   5.963   1.006   4.916 -0.0841  0.0917 -1.1769
 6173TIP3    H218526   5.888   0.979   5.044 -0.7244  2.3845 -1.0212
 6174TIP3   OH218527   5.189   5.265   4.285  0.5843  0.7993 -0.0107
 6174TIP3    H118528   5.138   5.296   4.210  1.1449  0.6771 -0.4455
 6174TIP3    H218529   5.271   5.314   4.281  1.0423  0.0400 -0.0900
 6175TIP3   OH218530   2.800   5.741   0.985  0.7853  0.1559  0.1631
 6175TIP3    H118531   2.758   5.826   1.004 -1.4233 -0.7929 -0.1239
 6175TIP3    H218532   2.839   5.715   1.068  0.5918  0.9865  0.5281
 6176TIP3   OH218533   1.542   1.966   3.895 -0.2031 -0.4060  0.0296
 6176TIP3    H118534   1.575   1.993   3.810  1.7684 -0.9225  0.5911
 6176TIP3    H218535   1.457   2.010   3.903 -0.3981 -0.3031 -2.1500
 6177TIP3   OH218536   1.597   0.914   3.600 -0.0395 -0.3997  0.0774
 6177TIP3    H118537   1.547   0.917   3.519 -1.7551 -0.1278  1.0926
 6177TIP3    H218538   1.558   0.842   3.650 -0.7920  1.1035  1.7371
 6178TIP3   OH218539   1.000   2.596   0.538  0.2599  0.6951  0.2201
 6178TIP3    H118540   1.065   2.565   0.475  0.9535  2.3733  0.0550
 6178TIP3    H218541   1.004   2.533   0.610  0.2147 -0.6580 -0.9256
 6179TIP3   OH218542   5.566   1.428   0.810  0.0199 -0.0101  0.0750
 6179TIP3    H118543   5.566   1.503   0.869  0.7338 -1.0037  1.4000
 6179TIP3    H218544   5.523   1.359   0.861  0.0974 -0.7168 -0.8123
 6180TIP3   OH218545   1.561   3.639   4.021  0.2049 -0.2266  0.7169
 6180TIP3    H118546   1.563   3.547   4.048 -1.3974 -0.4272  0.2702
 6180TIP3    H218547   1.650   3.657   3.991  0.7475 -1.3990  1.5468
 6181TIP3   OH218548   2.743   5.248   0.517 -0.2378  0.3867  0.2808
 6181TIP3    H118549   2.764   5.244   0.424 -0.9977  0.0206  0.1163
 6181TIP3    H218550   2.828   5.251   0.561  0.4250 -4.0069 -0.1993
 6182TIP3   OH218551   4.151   4.306   1.704  0.1499 -0.5013 -0.1058
 6182TIP3    H118552   4.205   4.374   1.745  0.3864 -1.1175  0.6324
 6182TIP3    H218553   4.167   4.315   1.610  0.3422  0.3190  0.0018
 6183TIP3   OH218554   3.767   2.659   4.658  0.3630 -0.3020  0.5649
 6183TIP3    H118555   3.810   2.729   4.609  0.2512 -0.0539  0.8177
 6183TIP3    H218556   3.684   2.698   4.685 -0.1129 -0.8403 -0.0940
 6184TIP3   OH218557   3.970   5.822   2.646  0.3009  0.3795  0.1425
 6184TIP3    H118558   4.030   5.818   2.571 -1.5610  0.4891 -1.4324
 6184TIP3    H218559   3.987   5.742   2.695  0.8654 -0.2094 -0.9726
 6185TIP3   OH218560   0.708   5.643   3.600  0.6109 -0.0589  0.3070
 6185TIP3    H118561   0.704   5.736   3.577 -2.3032  0.7604  3.3351
 6185TIP3    H218562   0.681   5.598   3.520  0.2488  1.8255 -0.7079
 6186TIP3   OH218563   3.635   5.033   4.780 -0.4701 -0.0579  0.8910
 6186TIP3    H118564   3.636   5.075   4.866 -0.7288  1.2301  0.2912
 6186TIP3    H218565   3.673   5.098   4.721 -0.5986 -0.7915 -0.0391
 6187TIP3   OH218566   4.728   2.380   4.457  0.0722  0.4931 -0.2670
 6187TIP3    H118567   4.656   2.410   4.513 -0.1943 -0.5658 -0.0206
 6187TIP3    H218568   4.687   2.366   4.371  0.1290  0.5533 -0.3036
 6188TIP3   OH218569   1.620   3.769   1.396 -0.3423  0.1588  0.3719
 6188TIP3    H118570   1.713   3.751   1.407 -0.1179  0.4495 -0.8608
 6188TIP3    H218571   1.576   3.713   1.460  0.5312 -1.9423 -0.7681
 6189TIP3   OH218572   4.775   0.136   2.735 -0.4398 -0.5641  0.4788
 6189TIP3    H118573   4.829   0.120   2.658 -3.1646 -0.7343 -1.5495
 6189TIP3    H218574   4.724   0.214   2.713 -0.3078  0.2513  2.7442
 6190TIP3   OH218575   1.466   5.967   5.046 -0.0619 -0.5905  0.1695
 6190TIP3    H118576   1.558   5.981   5.023 -0.0191 -2.1028 -0.7761
 6190TIP3    H218577   1.469   5.914   5.125 -0.1119 -0.7969  0.0336
 6191TIP3   OH218578   2.214   5.874   3.888  0.0546  0.4405  0.0545
 6191TIP3    H118579   2.245   5.858   3.977  0.8856  2.6914  0.2299
 6191TIP3    H218580   2.292   5.902   3.840 -0.5355  0.0196 -1.1997
 6192TIP3   OH218581   4.880   2.263   1.701 -0.0682 -0.0026 -0.1002
 6192TIP3    H118582   4.798   2.305   1.675  0.1096  0.7999  0.5951
 6192TIP3    H218583   4.948   2.315   1.657  0.1011 -0.2445 -0.1259
 6193TIP3   OH218584   4.580   3.914   2.003  0.4721  0.4500  0.5394
 6193TIP3    H118585   4.509   3.914   2.068  1.2771  1.1405  1.4571
 6193TIP3    H218586   4.614   4.004   2.006  0.9268  0.3147 -0.3948
 6194TIP3   OH218587   2.955   1.618   0.701  0.3351  0.3528  0.1079
 6194TIP3    H118588   2.946   1.546   0.764 -0.8070  0.2171 -0.1742
 6194TIP3    H218589   3.005   1.685   0.747  0.8899 -0.3859  0.5889
 6195TIP3   OH218590   2.224   3.586   3.814  0.8312 -0.0510  0.6682
 6195TIP3    H118591   2.230   3.496   3.845  1.6811 -0.4479 -0.5695
 6195TIP3    H218592   2.196   3.578   3.723  0.0248  0.9907  0.8100
 6196TIP3   OH218593   0.047   2.980   3.042 -0.6597  0.0652  0.1188
 6196TIP3    H118594  -0.010   3.035   3.096 -1.4987 -0.6550  0.0009
 6196TIP3    H218595   0.008   2.983   2.955 -0.0039  0.2550 -0.1762
 6197TIP3   OH218596   4.496   2.460   0.784 -0.3782 -0.1104  0.2561
 6197TIP3    H118597   4.447   2.533   0.823 -0.7393  0.4516 -1.1707
 6197TIP3    H218598   4.584   2.496   0.769  0.4425 -1.0053  2.4786
 6198TIP3   OH218599   2.971   0.712   0.308  0.4410 -0.5087 -0.1102
 6198TIP3    H118600   2.950   0.619   0.301 -0.7977 -0.3242  0.7917
 6198TIP3    H218601   2.992   0.725   0.401 -0.5825  0.3312  0.0234
 6199TIP3   OH218602   1.303   3.849   5.090  0.3072 -0.2935  0.1678
 6199TIP3    H118603   1.333   3.775   5.143  0.6744 -0.2844 -0.0252
 6199TIP3    H218604   1.361   3.849   5.014  1.6869  1.4513  1.1406
 6200TIP3   OH218605   5.912   5.117   4.530 -0.6265  0.1845  0.2992
 6200TIP3    H118606   5.921   5.072   4.446 -2.9663  1.7142 -0.8775
 6200TIP3    H218607   5.976   5.188   4.526  0.7755 -0.9868  0.7919
 6201TIP3   OH218608   1.572   4.448   4.722  0.0141 -0.1787  0.5144
 6201TIP3    H118609   1.622   4.399   4.657 -2.3015 -0.6341 -1.0572
 6201TIP3    H218610   1.526   4.380   4.772 -2.9186  0.1690 -1.4230
 6202TIP3   OH218611   0.277   2.540   4.971 -0.2188 -0.3502 -0.2688
 6202TIP3    H118612   0.215   2.468   4.963  0.2154 -0.5710 -2.1658
 6202TIP3    H218613   0.230   2.608   5.018 -2.3939 -0.0293 -2.6867
 6203TIP3   OH218614   2.721   2.376   2.163  0.1609 -0.4549  0.0485
 6203TIP3    H118615   2.675   2.434   2.103  1.5881 -0.9998 -1.6635
 6203TIP3    H218616   2.677   2.292   2.155  1.0466 -0.8335 -1.1795
 6204TIP3   OH218617   2.427   0.365   1.035  0.3052  0.2442  0.2712
 6204TIP3    H118618   2.516   0.331   1.040 -0.4309 -1.9706 -0.3598
 6204TIP3    H218619   2.410   0.402   1.121  1.0980 -1.3263  1.1407
 6205TIP3   OH218620   3.719   5.126   0.223 -0.4730  0.3068  0.3003
 6205TIP3    H118621   3.670   5.173   0.156 -0.7779  0.3524  0.5505
 6205TIP3    H218622   3.671   5.143   0.304  0.3682  0.9642  0.6758
 6206TIP3   OH218623   3.411   2.363   3.823  0.5576  0.2794 -0.3310
 6206TIP3    H118624   3.420   2.334   3.732 -0.5625 -0.1317 -0.3213
 6206TIP3    H218625   3.342   2.308   3.859  0.5763  0.8487  0.6013
 6207TIP3   OH218626   0.432   4.258   4.035  0.0433 -0.4491 -0.0706
 6207TIP3    H118627   0.489   4.334   4.044 -1.6766  0.7561  1.1389
 6207TIP3    H218628   0.465   4.213   3.957  1.7728  0.9187 -0.1911
 6208TIP3   OH218629   5.029   5.453   4.774  0.2820 -0.3077  0.0204
 6208TIP3    H118630   5.088   5.390   4.816 -0.1727 -0.8295 -0.1253
 6208TIP3    H218631   4.959   5.400   4.737  0.0863  0.2521 -0.4235
 6209TIP3   OH218632   4.070   4.078   1.385  0.4090  0.6940  0.3569
 6209TIP3    H118633   4.138   4.145   1.391 -1.0168  2.1354  1.1163
 6209TIP3    H218634   4.048   4.057   1.476 -1.1197  1.2884  0.1523
 6210TIP3   OH218635   4.689   2.261   2.462  0.2982  0.1341  1.0699
 6210TIP3    H118636   4.693   2.185   2.405 -1.2556  1.5822 -1.1785
 6210TIP3    H218637   4.612   2.245   2.517 -0.0556  0.0544  0.5690
 6211TIP3   OH218638   5.881   5.788   5.124  0.0648 -0.0103  0.3839
 6211TIP3    H118639   5.849   5.763   5.037 -1.7266 -0.3231  1.0985
 6211TIP3    H218640   5.941   5.718   5.149  0.1111 -0.2396 -0.3491
 6212TIP3   OH218641   0.766   2.184   1.492  0.2493  0.2393  0.0894
 6212TIP3    H118642   0.854   2.187   1.454 -0.0507 -2.3555 -0.9971
 6212TIP3    H218643   0.708   2.200   1.418 -0.2855 -3.3123 -0.4110
 6213TIP3   OH218644   0.704   4.510   4.328  0.3621 -0.0847  0.2057
 6213TIP3    H118645   0.694   4.565   4.406 -0.1765  0.5201 -0.2771
 6213TIP3    H218646   0.671   4.424   4.355 -3.4385  1.0143 -0.3701
 6214TIP3   OH218647   3.297   1.068   3.661  0.4429 -0.2340 -0.6021
 6214TIP3    H118648   3.352   1.112   3.726 -0.3081 -0.2401  0.0578
 6214TIP3    H218649   3.217   1.121   3.657 -0.8978 -2.0050  0.9270
 6215TIP3   OH218650   3.489   1.524   1.793 -0.2597 -0.2164 -0.6359
 6215TIP3    H118651   3.523   1.603   1.752  0.5500  0.6640  1.5802
 6215TIP3    H218652   3.558   1.460   1.783  0.3067  0.2656  0.0879
 6216TIP3   OH218653   6.228   2.625   3.465  0.0993 -0.6378  0.2297
 6216TIP3    H118654   6.301   2.592   3.411  0.7404  1.0347  0.0166
 6216TIP3    H218655   6.171   2.669   3.402 -0.2003 -0.4300  0.6494
 6217TIP3   OH218656   1.108   0.972   2.016 -0.1073 -0.2571  0.2093
 6217TIP3    H118657   1.190   0.925   1.999  0.9883  1.7982 -0.5140
 6217TIP3    H218658   1.046   0.904   2.041  1.0126 -2.2807 -2.0944
 6218TIP3   OH218659   0.771   1.570   3.426  0.5558 -0.4527 -0.2200
 6218TIP3    H118660   0.727   1.593   3.509  1.5130 -0.6683  0.3623
 6218TIP3    H218661   0.736   1.484   3.404 -1.2785  0.4655 -1.1726
 6219TIP3   OH218662   5.092   4.522   1.085 -0.3235  0.2549  0.2200
 6219TIP3    H118663   5.117   4.582   1.155  1.9298  0.6092 -0.8242
 6219TIP3    H218664   5.171   4.471   1.067 -1.3389 -1.0008 -0.9238
 6220TIP3   OH218665   3.378   2.580   0.857 -0.4907  0.0005 -0.0494
 6220TIP3    H118666   3.441   2.639   0.815 -0.9121 -0.1700 -0.9469
 6220TIP3    H218667   3.431   2.509   0.892 -0.0425  0.5788  0.4674
 6221TIP3   OH218668   0.586   0.123   4.907  0.5510 -0.2208 -0.4860
 6221TIP3    H118669   0.676   0.150   4.889 -0.1433  2.4052 -0.5054
 6221TIP3    H218670   0.594   0.055   4.973  2.5539 -0.1816 -0.6281
 6222TIP3   OH218671   5.290   1.459   2.482 -0.5753  0.2343  0.1990
 6222TIP3    H118672   5.354   1.429   2.546  0.2826 -0.7943 -1.0742
 6222TIP3    H218673   5.223   1.391   2.481  0.1064 -0.4609 -0.9165
 6223TIP3   OH218674   3.789   3.727   0.062 -0.2594 -0.0323  0.0717
 6223TIP3    H118675   3.814   3.818   0.047  0.6988 -0.1325  0.9162
 6223TIP3    H218676   3.814   3.710   0.153 -0.2948 -1.1761 -0.1141
 6224TIP3   OH218677   0.260   5.593   4.318  0.8182 -0.1572 -0.2829
 6224TIP3    H118678   0.250   5.499   4.326  0.6280 -0.1614 -0.5792
 6224TIP3    H218679   0.223   5.629   4.398  1.4196 -0.3681  0.0963
 6225TIP3   OH218680   1.681   2.064   2.643  0.4331 -0.1958  0.0320
 6225TIP3    H118681   1.589   2.093   2.642  0.5487  0.1786 -0.5713
 6225TIP3    H218682   1.677   1.973   2.671  0.0484  0.3554  1.9785
 6226TIP3   OH218683   1.989   3.134   1.532  0.0102  0.0914  0.2633
 6226TIP3    H118684   2.082   3.132   1.552 -0.1506  0.7934  1.1253
 6226TIP3    H218685   1.953   3.056   1.574  0.0945  0.1802  0.4962
 6227TIP3   OH218686   4.426   4.430   2.802  0.3021 -0.0392  0.0991
 6227TIP3    H118687   4.404   4.507   2.855 -0.6882 -0.9499  1.0555
 6227TIP3    H218688   4.350   4.417   2.746  0.9547  0.3500 -0.9145
 6228TIP3   OH218689   5.436   1.640   3.306  0.1133 -0.0140 -0.0108
 6228TIP3    H118690   5.369   1.580   3.273  0.3401  0.2563 -0.9991
 6228TIP3    H218691   5.498   1.583   3.352 -1.2954 -0.1484  1.8132
 6229TIP3   OH218692   4.467   3.179   4.705  0.4411  0.1397  0.0269
 6229TIP3    H118693   4.507   3.257   4.667  0.0412 -0.0164 -0.7262
 6229TIP3    H218694   4.389   3.164   4.652 -1.7191  1.5143  2.5793
 6230TIP3   OH218695   5.526   5.406   4.491 -0.0628 -0.0781  0.6420
 6230TIP3    H118696   5.501   5.318   4.518  0.4099 -0.6674 -0.7450
 6230TIP3    H218697   5.544   5.398   4.397  0.5128  1.3826  0.6026
 6231TIP3   OH218698   2.944   0.438   3.046  0.2811 -0.4579 -0.1333
 6231TIP3    H118699   3.034   0.461   3.022  1.2532 -2.8314  0.9090
 6231TIP3    H218700   2.954   0.382   3.123 -2.2361  0.7688  1.1961
 6232TIP3   OH218701   0.449   0.439   3.109 -0.2923  0.0609 -0.0929
 6232TIP3    H118702   0.514   0.454   3.178 -0.3490 -0.1117 -0.0030
 6232TIP3    H218703   0.379   0.391   3.151 -0.0057 -0.6770 -0.4299
 6233TIP3   OH218704   4.741   2.678   4.976  0.2577 -0.0081 -0.2021
 6233TIP3    H118705   4.816   2.737   4.964  0.7299 -0.6937 -0.6985
 6233TIP3    H218706   4.764   2.600   4.926 -0.2826 -0.6936  0.5953
 6234TIP3   OH218707   5.677   3.235   4.308  0.1947 -0.2300 -0.3150
 6234TIP3    H118708   5.655   3.244   4.215 -1.7165 -2.3987 -0.1451
 6234TIP3    H218709   5.705   3.144   4.317 -1.0197 -0.4583  1.4812
 6235TIP3   OH218710   1.914   4.219   4.425  0.2957 -0.4740  0.1001
 6235TIP3    H118711   1.860   4.144   4.450 -0.2214 -0.2442 -0.3102
 6235TIP3    H218712   2.004   4.188   4.435  0.0934 -0.8066  0.9539
 6236TIP3   OH218713   5.660   0.111   2.350 -0.2118  0.4241  0.5907
 6236TIP3    H118714   5.715   0.160   2.289 -1.3689 -0.9372 -1.7174
 6236TIP3    H218715   5.718   0.089   2.423  1.8628  0.3714 -0.9764
 6237TIP3   OH218716   2.223   0.148   1.583  0.3105 -0.2228 -0.4213
 6237TIP3    H118717   2.182   0.082   1.528  0.5631  0.5519 -1.5893
 6237TIP3    H218718   2.256   0.100   1.659 -2.5106 -0.9122  0.4974
 6238TIP3   OH218719   3.297   2.077   2.736 -0.5759  0.5718  0.0756
 6238TIP3    H118720   3.294   1.984   2.761 -1.0905  0.4505 -0.4016
 6238TIP3    H218721   3.383   2.107   2.765 -0.7145  0.1523  0.9489
 6239TIP3   OH218722   5.056   1.866  -0.014 -0.0870  0.2268  0.0873
 6239TIP3    H118723   5.144   1.900   0.000 -0.5179  1.1895  0.5099
 6239TIP3    H218724   5.043   1.802   0.056  0.7987 -1.0004 -0.8237
 6240TIP3   OH218725   0.727   4.356   0.567  0.4443 -0.4936  0.3272
 6240TIP3    H118726   0.739   4.393   0.480  0.7838 -2.1884 -0.3809
 6240TIP3    H218727   0.685   4.426   0.617 -2.9458 -0.5374 -2.0898
 6241TIP3   OH218728   4.684   1.889   3.612 -0.3778 -0.5416  0.8198
 6241TIP3    H118729   4.676   1.973   3.566  0.9895 -1.3138 -0.9583
 6241TIP3    H218730   4.619   1.833   3.572  1.6788 -1.6106 -1.2517
 6242TIP3   OH218731   5.324   2.103   4.733  1.0929 -0.1660  0.0374
 6242TIP3    H118732   5.270   2.154   4.794  1.1391 -1.3281  1.0871
 6242TIP3    H218733   5.282   2.115   4.648  0.5199  0.7938  0.4367
 6243TIP3   OH218734   4.800   3.886   3.670 -0.2161 -0.7707  0.2788
 6243TIP3    H118735   4.767   3.835   3.596  0.2136  0.1242 -0.5540
 6243TIP3    H218736   4.896   3.882   3.660 -0.1842  0.5885 -0.0846
 6244TIP3   OH218737   4.043   4.635   1.772 -0.4574  0.8248 -0.1701
 6244TIP3    H118738   3.997   4.554   1.792  1.3842 -0.4749 -0.9345
 6244TIP3    H218739   4.024   4.652   1.680  0.0357  0.6418 -0.3103
 6245TIP3   OH218740   4.533   2.089   1.400  0.3559  0.4420  0.2970
 6245TIP3    H118741   4.600   2.029   1.435 -0.0532 -1.0398 -1.3377
 6245TIP3    H218742   4.450   2.055   1.435  0.3090  1.5949  1.3859
 6246TIP3   OH218743   5.173   5.125   4.538  0.3473 -0.7298 -0.2615
 6246TIP3    H118744   5.081   5.099   4.531 -0.1648  1.0745 -0.8012
 6246TIP3    H218745   5.185   5.189   4.469  1.6257  0.1311  0.7047
 6247TIP3   OH218746   6.119   1.231   4.345 -0.4188 -0.1029  0.1118
 6247TIP3    H118747   6.106   1.316   4.386 -0.7886 -0.2154  0.2295
 6247TIP3    H218748   6.202   1.200   4.380 -0.6198 -0.0947  0.6021
 6248TIP3   OH218749   0.905   0.868   3.279 -0.7308  0.2404 -0.0328
 6248TIP3    H118750   0.829   0.816   3.253 -0.4736 -0.4293  0.5311
 6248TIP3    H218751   0.929   0.836   3.366  0.7231 -0.1749 -0.5533
 6249TIP3   OH218752   5.755   0.568   4.745 -0.4466 -0.0841  0.0406
 6249TIP3    H118753   5.677   0.513   4.747 -0.7050  0.1003 -2.3020
 6249TIP3    H218754   5.726   0.650   4.704  0.7546  0.3857  0.0692
 6250TIP3   OH218755   4.136   3.782   3.413  0.1450  0.6705 -0.5878
 6250TIP3    H118756   4.148   3.718   3.484  2.6004  1.7895  0.0925
 6250TIP3    H218757   4.224   3.801   3.382 -0.2711  4.6291  0.0866
 6251TIP3   OH218758   0.626   4.764   4.933  0.2134  0.0158 -0.1996
 6251TIP3    H118759   0.535   4.760   4.903  0.0028 -0.8250  0.5085
 6251TIP3    H218760   0.647   4.674   4.957  1.1916  0.2340 -0.2049
 6252TIP3   OH218761   1.611   0.516   2.972  0.3009 -0.3377 -0.0344
 6252TIP3    H118762   1.681   0.522   2.907 -0.2036  0.8694 -0.4968
 6252TIP3    H218763   1.656   0.502   3.055  1.0059 -0.8884 -0.5037
 6253TIP3   OH218764   3.059   2.714   1.675  0.5021 -0.0130  0.4249
 6253TIP3    H118765   3.010   2.787   1.712 -1.9673 -0.6172 -1.3734
 6253TIP3    H218766   3.151   2.741   1.682 -0.1206  1.8518  2.5966
 6254TIP3   OH218767   4.783   1.871   3.064  0.6713  0.3247 -0.0827
 6254TIP3    H118768   4.820   1.929   2.998  1.6041  1.0844  1.0611
 6254TIP3    H218769   4.789   1.783   3.026  0.2687  0.8478 -1.3812
 6255TIP3   OH218770   0.585   5.653   4.253  0.4640  0.0186  0.6355
 6255TIP3    H118771   0.608   5.599   4.329 -0.0898 -0.7911  0.2441
 6255TIP3    H218772   0.529   5.722   4.289 -0.2348 -0.6673  0.9090
 6256TIP3   OH218773   4.831   3.132   3.426  0.1771 -0.3983  0.6399
 6256TIP3    H118774   4.878   3.116   3.344  0.4980 -0.8072  0.9009
 6256TIP3    H218775   4.897   3.169   3.484  0.1978 -1.0309  1.0272
 6257TIP3   OH218776   2.820   2.582   0.872  0.0769 -0.3640 -0.3702
 6257TIP3    H118777   2.900   2.631   0.887 -0.6213 -0.2885  4.6594
 6257TIP3    H218778   2.836   2.496   0.910 -0.7934 -2.1143 -3.5611
 6258TIP3   OH218779   4.156   3.040   1.665 -0.0701 -0.0508 -0.4433
 6258TIP3    H118780   4.149   3.073   1.755  2.8967  1.3207 -0.5884
 6258TIP3    H218781   4.069   3.052   1.628 -1.1070  0.3347  1.9129
 6259TIP3   OH218782   6.060   5.323   1.007 -0.4345 -0.1787  0.0744
 6259TIP3    H118783   6.069   5.418   1.011  0.9407 -0.3224  1.7197
 6259TIP3    H218784   6.121   5.296   0.938 -0.0198  0.0770  0.3351
 6260TIP3   OH218785   2.136   3.225   2.190 -0.2624  0.8730  0.2671
 6260TIP3    H118786   2.110   3.138   2.160  0.6540  1.1315 -1.4517
 6260TIP3    H218787   2.065   3.254   2.247  0.3126 -1.7586  2.5140
 6261TIP3   OH218788   0.797   0.394   1.428 -0.1189 -0.3093 -0.1433
 6261TIP3    H118789   0.714   0.365   1.391 -0.2058 -1.2771  0.7530
 6261TIP3    H218790   0.775   0.423   1.517  0.5549 -1.0044  0.2659
 6262TIP3   OH218791   3.433   1.154   4.165  0.0336 -0.1619  0.2307
 6262TIP3    H118792   3.514   1.104   4.176 -0.8519 -1.4394  1.2189
 6262TIP3    H218793   3.453   1.240   4.200  0.9100 -0.5295  0.6598
 6263TIP3   OH218794   4.421   4.213   4.239  0.6433  0.0597 -0.0044
 6263TIP3    H118795   4.362   4.271   4.191 -0.9897 -1.8354 -0.4064
 6263TIP3    H218796   4.507   4.227   4.199  0.5824  3.0006  0.6906
 6264TIP3   OH218797   3.701   0.867   1.846  0.6059  0.1449  0.7574
 6264TIP3    H118798   3.632   0.802   1.857  1.8645 -1.0894  1.6609
 6264TIP3    H218799   3.685   0.905   1.759 -0.3080 -1.1748  0.3196
 6265TIP3   OH218800   2.133   2.137   4.847  0.4993  0.5376  0.9461
 6265TIP3    H118801   2.094   2.179   4.770  1.4586 -0.2002  0.0299
 6265TIP3    H218802   2.069   2.072   4.875  1.1795 -0.9916 -0.8225
 6266TIP3   OH218803   3.480   0.403   4.886 -0.5436 -0.1231  0.3104
 6266TIP3    H118804   3.474   0.480   4.943 -0.1521 -0.8148  1.3082
 6266TIP3    H218805   3.488   0.439   4.798  1.2995  1.0215  0.8971
 6267TIP3   OH218806   1.087   0.332   5.123 -0.8775  0.1795 -0.5937
 6267TIP3    H118807   1.066   0.387   5.199 -0.6950 -2.0781  1.2052
 6267TIP3    H218808   1.181   0.345   5.110 -0.9863  0.9041 -0.7371
 6268TIP3   OH218809   6.167   3.895   2.608  0.1502 -0.1121 -0.2907
 6268TIP3    H118810   6.153   3.975   2.557 -0.3575  0.0613  0.1110
 6268TIP3    H218811   6.237   3.917   2.669 -0.5672  0.3054  0.3938
 6269TIP3   OH218812   5.967   2.329   0.413  0.1564 -0.0162 -0.1631
 6269TIP3    H118813   5.906   2.323   0.486 -1.3400  1.3359 -1.2143
 6269TIP3    H218814   5.994   2.420   0.411  0.5697 -0.1400 -0.9707
 6270TIP3   OH218815   2.890   3.192   2.949  0.0221 -0.2185  0.5817
 6270TIP3    H118816   2.799   3.189   2.979 -0.2144  0.3064 -0.0521
 6270TIP3    H218817   2.906   3.285   2.931  1.1482 -0.0928  2.0726
 6271TIP3   OH218818   3.355   1.535   1.209 -0.0599  0.0808 -0.4585
 6271TIP3    H118819   3.268   1.566   1.234  0.7085  1.0285  1.2015
 6271TIP3    H218820   3.408   1.614   1.201  1.0379 -0.5655  0.1230
 6272TIP3   OH218821   6.291   1.667   0.706  0.6865 -0.2224  0.0667
 6272TIP3    H118822   6.364   1.643   0.763  1.4112  0.8483 -0.3842
 6272TIP3    H218823   6.331   1.712   0.633 -0.3194 -0.7865 -0.8702
 6273TIP3   OH218824   5.259   0.139   0.033 -0.0031 -0.0040 -0.0424
 6273TIP3    H118825   5.285   0.091  -0.045  0.0085 -2.4079  1.3111
 6273TIP3    H218826   5.164   0.147   0.026 -0.0621 -0.6751 -0.0862
 6274TIP3   OH218827   3.196   3.999   3.999 -0.2009  0.1906  0.6840
 6274TIP3    H118828   3.131   4.043   3.945  0.2100  1.1928  0.9770
 6274TIP3    H218829   3.266   4.064   4.010  0.1093 -0.2902  1.6991
 6275TIP3   OH218830   3.961   5.249   5.041 -0.2595 -0.4348 -0.0850
 6275TIP3    H118831   4.003   5.195   5.107  1.7823  0.1334 -0.8478
 6275TIP3    H218832   3.962   5.195   4.962 -0.0839 -0.0623 -0.3422
 6276TIP3   OH218833   3.241   4.791   3.552 -0.0570 -0.3785  0.7790
 6276TIP3    H118834   3.251   4.874   3.505  1.8019 -0.6704  0.5815
 6276TIP3    H218835   3.170   4.807   3.614 -0.5498  0.9622 -0.0744
 6277TIP3   OH218836   3.594   3.310   0.497 -0.2051  0.4423 -0.6557
 6277TIP3    H118837   3.636   3.300   0.583 -2.5641 -1.5790  0.3900
 6277TIP3    H218838   3.524   3.373   0.512  0.5061  1.4912 -1.6153
 6278TIP3   OH218839   2.771   3.593   1.518 -0.5320 -0.5554  0.2809
 6278TIP3    H118840   2.756   3.663   1.455 -1.8852 -0.1845  0.9716
 6278TIP3    H218841   2.721   3.519   1.485  0.7103 -1.1591 -0.3253
 6279TIP3   OH218842   2.309   4.099   3.175 -0.4935 -0.3321 -0.3817
 6279TIP3    H118843   2.269   4.035   3.235 -1.0832 -0.5512 -0.9844
 6279TIP3    H218844   2.237   4.124   3.116 -0.4711  1.4662  0.2981
 6280TIP3   OH218845   1.083   2.399   0.750 -0.3531 -0.0366 -0.2976
 6280TIP3    H118846   1.001   2.386   0.799 -1.2477 -0.2646 -1.7938
 6280TIP3    H218847   1.102   2.312   0.713  1.9177 -0.6309  1.9464
 6281TIP3   OH218848   2.455   3.685   3.415 -0.0225 -0.0889  0.1126
 6281TIP3    H118849   2.408   3.768   3.409  1.1070  0.6077  0.4961
 6281TIP3    H218850   2.471   3.673   3.508 -0.5093 -0.9293  0.0872
 6282TIP3   OH218851   1.183   5.102   0.078 -0.7269 -0.3114  0.2048
 6282TIP3    H118852   1.244   5.151   0.022 -0.4993 -2.3521 -1.4501
 6282TIP3    H218853   1.114   5.165   0.098 -0.6070  0.6536 -2.0737
 6283TIP3   OH218854   0.932   2.144   3.950  0.4344 -0.1529 -0.1732
 6283TIP3    H118855   0.843   2.116   3.972  0.1666  1.1190  0.4633
 6283TIP3    H218856   0.984   2.064   3.950 -0.6970 -0.9111 -0.5154
 6284TIP3   OH218857   1.013   4.965   1.067  0.0323  0.3129 -0.1327
 6284TIP3    H118858   0.972   4.901   1.009 -0.9912  0.7682  0.0677
 6284TIP3    H218859   1.041   4.913   1.143 -1.7159  0.2135  0.4962
 6285TIP3   OH218860   0.140   5.092   0.130 -0.0074 -0.1879 -0.0684
 6285TIP3    H118861   0.190   5.088   0.049 -1.3011  1.2632 -1.0035
 6285TIP3    H218862   0.101   5.005   0.139 -0.1950 -0.2456 -1.2705
 6286TIP3   OH218863   4.755   4.087   3.033 -0.1458 -0.0365 -0.4355
 6286TIP3    H118864   4.762   4.180   3.055  0.5137  0.3852 -2.2438
 6286TIP3    H218865   4.842   4.052   3.048 -0.0663 -0.0635 -0.9340
 6287TIP3   OH218866   5.650   3.237   0.764 -0.6089  0.0376  0.3934
 6287TIP3    H118867   5.601   3.306   0.809 -0.9131  1.0863 -1.4404
 6287TIP3    H218868   5.588   3.165   0.755 -0.8391  0.1853  0.7716
 6288TIP3   OH218869   1.993   5.850   3.090  0.5520 -0.8450 -0.0719
 6288TIP3    H118870   2.024   5.780   3.033  1.7301 -0.0113 -0.4932
 6288TIP3    H218871   1.991   5.928   3.035 -0.6361 -0.4971  0.4165
 6289TIP3   OH218872   5.172   2.150   3.399  0.3556  0.6201 -0.3640
 6289TIP3    H118873   5.224   2.214   3.446  0.4492 -0.7098  1.4386
 6289TIP3    H218874   5.155   2.080   3.462 -1.2622 -0.3073 -1.7084
 6290TIP3   OH218875   2.513   0.112   2.994  0.3254 -0.0436 -0.2532
 6290TIP3    H118876   2.494   0.036   2.938  1.7384 -1.9273  1.6596
 6290TIP3    H218877   2.427   0.142   3.024 -0.2506 -1.0868 -0.7943
 6291TIP3   OH218878   5.778   5.135   2.710  0.5619  0.5261 -0.5015
 6291TIP3    H118879   5.730   5.198   2.763  0.4399  0.6668 -0.7748
 6291TIP3    H218880   5.870   5.158   2.722  0.5729  0.1375  0.1697
 6292TIP3   OH218881   1.642   2.753   1.790 -0.0908  0.2539 -0.1990
 6292TIP3    H118882   1.560   2.774   1.835  0.2012  1.4742 -0.1863
 6292TIP3    H218883   1.631   2.663   1.760 -1.2299  0.2251  0.2520
 6293TIP3   OH218884   1.149   3.384   2.401  0.2108  0.1201  0.5088
 6293TIP3    H118885   1.100   3.455   2.444 -0.1452  0.2365 -0.0831
 6293TIP3    H218886   1.218   3.428   2.352 -1.1315  0.2283 -1.3717
 6294TIP3   OH218887   2.689   5.531   3.668 -0.3103  0.1657 -0.3689
 6294TIP3    H118888   2.660   5.622   3.656 -1.4921 -0.0840  0.3416
 6294TIP3    H218889   2.612   5.478   3.645  0.1550 -0.6192 -0.1658
 6295TIP3   OH218890   5.804   0.478   2.429  0.5543  0.6572  0.3146
 6295TIP3    H118891   5.855   0.548   2.387  1.9976  0.0185  0.9063
 6295TIP3    H218892   5.713   0.498   2.408  1.1192  1.1851 -1.8247
 6296TIP3   OH218893   2.858   4.099   4.412 -0.2649  0.5263 -0.1464
 6296TIP3    H118894   2.928   4.080   4.350 -0.1328  1.7529 -0.4136
 6296TIP3    H218895   2.869   4.192   4.433 -0.5078  0.2275  1.4753
 6297TIP3   OH218896   0.841   0.505   3.002 -0.5272 -0.0140  0.6004
 6297TIP3    H118897   0.926   0.542   2.975  0.3353 -1.4135  1.3017
 6297TIP3    H218898   0.811   0.563   3.072 -0.4493  0.8175 -0.0263
 6298TIP3   OH218899   5.708   5.707   4.117  0.2917 -0.7601 -0.2485
 6298TIP3    H118900   5.781   5.691   4.057  2.9689  1.0577  2.2809
 6298TIP3    H218901   5.747   5.708   4.204 -2.4814  1.7253  1.1626
 6299TIP3   OH218902   3.956   1.623   2.620  0.0885  0.0474  0.1977
 6299TIP3    H118903   4.051   1.630   2.625  0.2185 -1.3742  0.2900
 6299TIP3    H218904   3.935   1.631   2.527  0.0154  2.8368  0.3733
 6300TIP3   OH218905   3.579   4.798   0.884 -0.2551  0.2054 -0.1198
 6300TIP3    H118906   3.485   4.807   0.869 -0.1544  0.1687 -0.8237
 6300TIP3    H218907   3.597   4.705   0.867 -0.0334  0.2919 -0.3701
 6301TIP3   OH218908   1.899   2.161   3.309 -0.2862 -0.0626 -0.3178
 6301TIP3    H118909   1.944   2.102   3.248  2.3111  1.0967  0.3320
 6301TIP3    H218910   1.891   2.243   3.261 -0.4926  0.1382  0.0577
 6302TIP3   OH218911   1.592   4.572   3.802  0.0230  0.5643  0.6517
 6302TIP3    H118912   1.649   4.637   3.760  0.3073  0.9879  1.6569
 6302TIP3    H218913   1.643   4.541   3.877 -0.2178 -0.6460  0.3415
 6303TIP3   OH218914   5.370   3.969   1.425  0.3751 -0.2248 -0.3660
 6303TIP3    H118915   5.300   4.008   1.373 -1.0754 -2.2442 -0.0498
 6303TIP3    H218916   5.449   3.979   1.371 -0.7893 -0.8269 -2.2805
 6304TIP3   OH218917   2.002   2.729   3.164 -0.2262  0.3799  0.1032
 6304TIP3    H118918   2.018   2.813   3.208  0.1009 -0.9330  2.7160
 6304TIP3    H218919   2.080   2.677   3.184 -1.3961 -1.2815  0.5031
 6305TIP3   OH218920   6.253   2.800   0.289  0.1039  0.1782  0.4636
 6305TIP3    H118921   6.321   2.787   0.354 -1.7918 -1.1381  2.2937
 6305TIP3    H218922   6.262   2.892   0.263  2.1549  0.1951  1.0503
 6306TIP3   OH218923   4.840   5.060   2.601  0.1624 -0.0460  0.0273
 6306TIP3    H118924   4.815   5.025   2.687  1.5661  0.4824  0.6800
 6306TIP3    H218925   4.766   5.038   2.544 -2.3221  2.3503  2.0381
 6307TIP3   OH218926   4.683   1.619   4.792 -0.5462 -0.1838 -0.3721
 6307TIP3    H118927   4.686   1.701   4.841  0.7489 -1.0037  0.9916
 6307TIP3    H218928   4.590   1.604   4.776 -0.8303  1.3089 -0.2645
 6308TIP3   OH218929   0.563   2.968   2.344  0.5342  0.0837 -0.0419
 6308TIP3    H118930   0.659   2.963   2.343  0.6330  0.0411 -3.4192
 6308TIP3    H218931   0.544   3.062   2.335  0.4138 -0.0936 -2.1901
 6309TIP3   OH218932   3.780   5.957   2.150  0.1862 -0.3764  0.4903
 6309TIP3    H118933   3.716   6.018   2.113  0.1166 -0.8229 -0.1262
 6309TIP3    H218934   3.844   5.944   2.080  1.0475  0.1757  1.1418
 6310TIP3   OH218935   5.243   1.826   4.931  0.6942  0.5510 -0.0051
 6310TIP3    H118936   5.248   1.749   4.875 -1.1622 -0.3979  1.0418
 6310TIP3    H218937   5.157   1.864   4.913  0.5977  0.9771  1.2232
 6311TIP3   OH218938   5.771   1.321   4.732  0.4770  0.3918 -0.7351
 6311TIP3    H118939   5.733   1.399   4.772  1.9292  0.7418  0.0662
 6311TIP3    H218940   5.865   1.341   4.727  0.7551 -0.9699 -1.2911
 6312TIP3   OH218941   2.369   5.391   1.633 -0.0726  0.5147  0.1758
 6312TIP3    H118942   2.304   5.321   1.620 -1.7126  1.7016  1.5345
 6312TIP3    H218943   2.328   5.468   1.594  1.1244  1.0187 -0.1099
 6313TIP3   OH218944   1.772   3.899   2.893  0.0100 -0.1567  0.8254
 6313TIP3    H118945   1.757   3.991   2.870  0.3491  0.0462  1.3826
 6313TIP3    H218946   1.688   3.868   2.926 -0.7059 -0.6709 -1.3030
 6314TIP3   OH218947   1.071   0.545   3.801 -0.4934  0.3103 -0.6932
 6314TIP3    H118948   1.039   0.626   3.840 -0.5735 -0.7796  1.6652
 6314TIP3    H218949   1.037   0.476   3.857 -0.6350 -1.4155 -2.7725
 6315TIP3   OH218950   3.703   3.556   2.367  0.2024 -0.3746  0.1390
 6315TIP3    H118951   3.697   3.477   2.313 -0.5709  1.1087 -2.0705
 6315TIP3    H218952   3.796   3.577   2.367  0.0939  0.2927 -1.7573
 6316TIP3   OH218953   3.277   4.019   5.105  0.6287 -0.2971  0.5643
 6316TIP3    H118954   3.329   4.099   5.105  1.5018 -0.7770 -1.7061
 6316TIP3    H218955   3.205   4.036   5.046  0.9368 -1.2169 -0.1116
 6317TIP3   OH218956   2.152   0.450   2.942 -0.2964  0.2993 -0.4477
 6317TIP3    H118957   2.123   0.359   2.938  1.7572 -0.4287  0.0721
 6317TIP3    H218958   2.083   0.495   2.990  0.2427 -1.7386  2.5353
 6318TIP3   OH218959   3.173   4.871   2.335 -0.3252  0.0603  0.5526
 6318TIP3    H118960   3.083   4.903   2.342 -0.3521 -0.1711  1.4112
 6318TIP3    H218961   3.181   4.840   2.245 -0.8586  0.8012  0.2390
 6319TIP3   OH218962   2.870   3.947   3.211  0.1938 -0.2303 -0.0393
 6319TIP3    H118963   2.827   3.890   3.275 -0.7046  0.8105  0.3188
 6319TIP3    H218964   2.957   3.962   3.247 -0.0272 -0.2952  0.5408
 6320TIP3   OH218965   2.934   5.809   2.714 -0.0700  0.0603  0.7660
 6320TIP3    H118966   3.004   5.748   2.737  0.2712 -0.5833 -1.6498
 6320TIP3    H218967   2.979   5.894   2.704  0.5229 -0.4111 -1.0894
 6321TIP3   OH218968   0.714   3.753   3.148  0.0950  0.0444  0.2048
 6321TIP3    H118969   0.724   3.835   3.100  1.6527 -0.2545 -0.0483
 6321TIP3    H218970   0.637   3.711   3.109 -1.0138  1.5664  0.6646
 6322TIP3   OH218971   0.123   2.255   4.124 -0.1951  0.1374  0.3683
 6322TIP3    H118972   0.148   2.279   4.035 -1.1921  0.8681  0.2607
 6322TIP3    H218973   0.054   2.190   4.112 -1.4519  1.3796  0.5408
 6323TIP3   OH218974   3.306   2.194   1.050  0.2877  0.5742 -0.2057
 6323TIP3    H118975   3.221   2.231   1.073 -0.5154 -0.4980 -1.2979
 6323TIP3    H218976   3.370   2.260   1.077 -0.7420  0.6276  2.3196
 6324TIP3   OH218977   3.815   1.940   2.862 -0.3486  0.0509  0.5462
 6324TIP3    H118978   3.799   1.896   2.779 -1.6743  1.7563 -0.1632
 6324TIP3    H218979   3.905   1.972   2.856 -0.0073 -0.9360  0.3071
 6325TIP3   OH218980   5.278   4.610   4.409 -0.3124 -0.4464 -0.1316
 6325TIP3    H118981   5.333   4.688   4.400 -1.3813  0.1953 -1.4523
 6325TIP3    H218982   5.331   4.539   4.372  0.6092 -0.3505  0.9515
 6326TIP3   OH218983   0.949   2.181   3.269 -0.3983  0.5044 -0.0835
 6326TIP3    H118984   1.042   2.187   3.245 -0.9559 -0.7989 -3.0776
 6326TIP3    H218985   0.932   2.087   3.272 -1.8977  0.7203 -0.9767
 6327TIP3   OH218986   5.988   2.012   3.257 -0.0251 -0.2794  0.4826
 6327TIP3    H118987   6.081   2.029   3.247 -0.3732  1.1643 -0.9005
 6327TIP3    H218988   5.947   2.068   3.190 -1.8605 -0.9906  0.9555
 6328TIP3   OH218989   5.050   0.524   1.179 -0.2411  0.3337 -0.3756
 6328TIP3    H118990   4.998   0.602   1.197 -0.4986  0.2905 -0.9196
 6328TIP3    H218991   5.138   0.547   1.207 -0.6412  0.2228  1.0656
 6329TIP3   OH218992   1.011   0.449   4.724  0.2447 -0.3905 -0.3482
 6329TIP3    H118993   1.042   0.373   4.773  0.3681 -0.0303  0.1460
 6329TIP3    H218994   1.091   0.491   4.692  0.3394  0.7138  1.1919
 6330TIP3   OH218995   1.367   1.937   1.856 -0.5211  0.0492 -0.5722
 6330TIP3    H118996   1.423   1.869   1.893  0.2033  0.7569 -0.3332
 6330TIP3    H218997   1.284   1.893   1.838 -0.0396 -0.9138 -0.5078
 6331TIP3   OH218998   3.934   1.176   1.541  0.5584 -0.6350  0.3606
 6331TIP3    H118999   3.958   1.103   1.598  1.9492 -0.9714 -0.5912
 6331TIP3    H219000   3.929   1.251   1.599 -2.7547 -1.7018  1.7172
 6332TIP3   OH219001   1.555   0.131   1.364 -0.2534  0.0509 -0.1230
 6332TIP3    H119002   1.627   0.130   1.302 -0.1186 -2.0493 -0.0203
 6332TIP3    H219003   1.512   0.046   1.352 -1.7032  0.5835  0.9711
 6333TIP3   OH219004   1.591   5.140   4.841  0.1053 -0.5824 -0.2757
 6333TIP3    H119005   1.516   5.198   4.831 -0.4753 -1.3230 -0.3669
 6333TIP3    H219006   1.608   5.107   4.753  0.9341  0.0436 -0.3598
 6334TIP3   OH219007   2.513   0.230   3.646  0.7044 -0.0136  0.0241
 6334TIP3    H119008   2.499   0.231   3.551  1.3199 -0.1055 -0.0690
 6334TIP3    H219009   2.589   0.173   3.659  0.4220 -0.2689  0.6036
 6335TIP3   OH219010   2.963   2.594   2.710  0.2454 -0.1629  0.4326
 6335TIP3    H119011   3.015   2.664   2.748  0.4417  0.1420 -0.3758
 6335TIP3    H219012   2.940   2.626   2.622 -0.2101 -0.8342  0.3007
 6336TIP3   OH219013   1.496   0.699   2.355  0.0105  0.0236 -0.1307
 6336TIP3    H119014   1.478   0.793   2.343  0.1258  0.2309  1.1269
 6336TIP3    H219015   1.449   0.657   2.283  1.3188  1.1370 -1.7281
 6337TIP3   OH219016   4.122   5.091   3.038 -0.2134  0.2716  0.0027
 6337TIP3    H119017   4.040   5.140   3.042  1.3985  3.3724 -1.1780
 6337TIP3    H219018   4.168   5.115   3.119  0.1879 -0.1325 -0.1019
 6338TIP3   OH219019   0.921   3.323   3.334 -0.0615 -0.6983  0.3031
 6338TIP3    H119020   0.850   3.261   3.352 -1.1869  0.1222 -1.0858
 6338TIP3    H219021   0.878   3.408   3.332  1.0630 -0.1271 -0.1299
 6339TIP3   OH219022   4.851   3.901   1.701 -0.2783 -0.3557 -0.0503
 6339TIP3    H119023   4.941   3.931   1.690 -0.1797 -0.6074  0.0695
 6339TIP3    H219024   4.819   3.886   1.612 -1.0073  2.0666 -0.2760
 6340TIP3   OH219025   3.906   1.406   4.953  0.1521 -0.2654  0.1009
 6340TIP3    H119026   3.834   1.350   4.925  0.0274  0.5600 -1.2932
 6340TIP3    H219027   3.883   1.432   5.043 -1.8377  0.8025 -0.6555
 6341TIP3   OH219028   2.356   5.628   2.623  1.1455  0.1939  0.5883
 6341TIP3    H119029   2.446   5.597   2.637  1.4423  0.0085 -1.3666
 6341TIP3    H219030   2.323   5.573   2.552 -0.3224  0.6474  0.8857
 6342TIP3   OH219031   2.492   2.353   1.798 -0.2631 -0.4150  0.4643
 6342TIP3    H119032   2.498   2.442   1.764  0.4118 -0.6175  0.0438
 6342TIP3    H219033   2.463   2.300   1.724  1.7904 -0.9613 -0.0241
 6343TIP3   OH219034   6.133   2.329   0.978  0.5207  0.5847  0.4326
 6343TIP3    H119035   6.040   2.307   0.992  0.5527  1.7053  2.9230
 6343TIP3    H219036   6.139   2.421   1.003  1.8227  1.3765 -2.4541
 6344TIP3   OH219037   4.069   3.357   0.817 -0.1662  0.4932 -0.3151
 6344TIP3    H119038   3.998   3.294   0.809  0.0223  0.2593 -0.1668
 6344TIP3    H219039   4.104   3.344   0.906 -2.3091  3.1261  1.0681
 6345TIP3   OH219040   2.139   4.703   0.597  0.2705  0.1734 -0.1704
 6345TIP3    H119041   2.109   4.622   0.555  1.8983 -0.1202 -0.8449
 6345TIP3    H219042   2.234   4.691   0.606  0.1344  0.6870  2.6376
 6346TIP3   OH219043   4.979   0.204   5.091  0.2726 -0.3261 -0.2779
 6346TIP3    H119044   4.895   0.219   5.048 -1.3084 -0.8144  2.3873
 6346TIP3    H219045   4.975   0.112   5.119  1.1425 -0.0214  0.9386
 6347TIP3   OH219046   1.394   1.618   0.604  0.1362  0.0842  0.1226
 6347TIP3    H119047   1.463   1.683   0.611  2.0633 -1.8398 -0.2041
 6347TIP3    H219048   1.362   1.608   0.694  0.7922  0.4696  0.4068
 6348TIP3   OH219049   4.834   5.211   1.707 -0.3182  0.0179 -0.5359
 6348TIP3    H119050   4.748   5.242   1.678 -0.4274 -0.6869 -0.9898
 6348TIP3    H219051   4.820   5.180   1.796 -0.1698  1.4110 -0.0095
 6349TIP3   OH219052   5.606   0.901   3.997 -0.1121  0.0581 -0.1188
 6349TIP3    H119053   5.566   0.942   3.920 -0.1863  0.5259  0.1627
 6349TIP3    H219054   5.608   0.971   4.062 -0.1635 -0.3676  0.3460
 6350TIP3   OH219055   3.281   1.937   1.416 -0.4415  0.1003  0.4838
 6350TIP3    H119056   3.351   1.993   1.448 -1.5029  2.3997 -0.9582
 6350TIP3    H219057   3.300   1.925   1.323 -0.7704 -1.1940  0.5537
 6351TIP3   OH219058   4.765   0.432   1.118 -0.1286  0.5677  0.1564
 6351TIP3    H119059   4.724   0.515   1.144  0.2575  0.5259  0.9246
 6351TIP3    H219060   4.859   0.447   1.131 -0.0700 -0.0372  0.4312
 6352TIP3   OH219061   4.281   4.875   4.279 -0.5108  0.0149  0.3911
 6352TIP3    H119062   4.199   4.874   4.230 -0.7155  1.0664  0.6808
 6352TIP3    H219063   4.341   4.824   4.226 -0.3651  2.1339 -1.6441
 6353TIP3   OH219064   3.313   2.013   1.882  0.2304 -0.1404  0.5126
 6353TIP3    H119065   3.327   1.925   1.918  2.2428 -0.2673 -0.4163
 6353TIP3    H219066   3.324   2.071   1.956 -1.1966 -0.6415  1.1550
 6354TIP3   OH219067   5.548   4.175   4.304 -0.3898  0.0461 -0.2304
 6354TIP3    H119068   5.583   4.092   4.271 -2.1820 -0.3114 -1.3673
 6354TIP3    H219069   5.499   4.150   4.383  0.4124  0.2901  0.3602
 6355TIP3   OH219070   0.237   0.900   5.053 -0.3506 -0.0004  0.9937
 6355TIP3    H119071   0.208   0.955   5.126 -0.7029 -1.2111  1.7926
 6355TIP3    H219072   0.296   0.836   5.093 -0.7043 -0.8059  0.2601
 6356TIP3   OH219073   2.970   2.114   4.628 -0.7820 -0.0210 -0.4740
 6356TIP3    H119074   2.971   2.128   4.722 -0.7520  0.4313 -0.5411
 6356TIP3    H219075   3.061   2.129   4.600 -0.8377  0.0649 -0.6079
 6357TIP3   OH219076   2.965   1.014   3.819 -0.4628 -0.0593  0.0553
 6357TIP3    H119077   2.957   1.098   3.865  1.2652 -0.1010  0.4853
 6357TIP3    H219078   2.981   1.039   3.728  0.6505  0.1031  0.2869
 6358TIP3   OH219079   5.784   5.648   2.694 -0.4349  0.3209 -0.6089
 6358TIP3    H119080   5.788   5.640   2.789 -0.1566  0.2403 -0.6269
 6358TIP3    H219081   5.703   5.602   2.670 -1.4569  1.8658 -0.2612
 6359TIP3   OH219082   0.394   2.241   4.259  0.2333 -0.2133 -0.0986
 6359TIP3    H119083   0.348   2.305   4.312  1.0762  0.3350 -0.0105
 6359TIP3    H219084   0.332   2.217   4.190 -0.2798  0.2924  0.1827
 6360TIP3   OH219085   5.387   1.772   2.172  0.0087  0.0657 -0.7602
 6360TIP3    H119086   5.439   1.703   2.131  0.8927 -0.0514  0.4922
 6360TIP3    H219087   5.317   1.726   2.217  0.3765 -0.0150 -0.2483
 6361TIP3   OH219088   5.709   1.272   1.197 -0.3533  0.2531  0.3148
 6361TIP3    H119089   5.694   1.230   1.112 -1.1564  1.2337 -0.0603
 6361TIP3    H219090   5.796   1.311   1.189 -0.3390  0.1661  0.0125
 6362TIP3   OH219091   5.307   3.278   3.499 -0.1240  0.0166  0.0182
 6362TIP3    H119092   5.375   3.344   3.513 -0.1585  0.0383  0.0828
 6362TIP3    H219093   5.224   3.325   3.512 -0.1328 -0.2473  0.9534
 6363TIP3   OH219094   3.666   1.067   3.602  0.0475 -0.0238 -0.1367
 6363TIP3    H119095   3.665   1.105   3.690 -0.9777 -0.6559  0.1377
 6363TIP3    H219096   3.679   0.974   3.617  2.1964  0.1007 -0.7896
 6364TIP3   OH219097   0.426   1.894   3.858 -0.2058  0.1459 -0.4846
 6364TIP3    H119098   0.361   1.953   3.818 -1.6042 -1.9530 -1.5449
 6364TIP3    H219099   0.510   1.925   3.824 -0.9119  1.3030 -1.2772
 6365TIP3   OH219100   2.638   1.101   1.311  1.2111  0.4616 -0.1240
 6365TIP3    H119101   2.668   1.164   1.375  0.3281  1.6992 -0.8923
 6365TIP3    H219102   2.630   1.019   1.359  0.6122  1.3445  1.3284
 6366TIP3   OH219103   0.175   3.804   4.554 -0.6650  0.4222  0.2950
 6366TIP3    H119104   0.116   3.877   4.573 -2.0696  0.2119 -2.6145
 6366TIP3    H219105   0.131   3.727   4.590 -0.9467  0.5770  0.2822
 6367TIP3   OH219106   3.975   2.161   1.519  0.0051 -0.1143  0.9984
 6367TIP3    H119107   3.951   2.251   1.542  0.5606  0.4182 -0.3929
 6367TIP3    H219108   4.069   2.156   1.534  0.0474 -0.3328  0.6779
 6368TIP3   OH219109   6.113   3.990   3.475  0.3891  0.2484 -0.1643
 6368TIP3    H119110   6.206   4.011   3.484 -0.2820  4.0880 -0.4089
 6368TIP3    H219111   6.086   3.964   3.563  1.4699  0.0154  0.1191
 6369TIP3   OH219112   5.648   3.661   4.032  0.1690  0.4793  0.0263
 6369TIP3    H119113   5.716   3.636   4.094  2.1926 -0.7523 -2.4746
 6369TIP3    H219114   5.683   3.737   3.986 -1.7883  2.1003  1.0555
 6370TIP3   OH219115   4.673   4.387   2.702  0.0656  0.3021  0.4935
 6370TIP3    H119116   4.697   4.295   2.709 -2.2009 -0.2874  1.3692
 6370TIP3    H219117   4.580   4.390   2.726 -0.2739  2.6403 -0.7699
 6371TIP3   OH219118   5.854   2.394   2.305 -0.0141 -0.2838 -0.1781
 6371TIP3    H119119   5.874   2.355   2.390 -0.5120  0.2407  0.1893
 6371TIP3    H219120   5.786   2.458   2.324  1.4448  1.4723 -0.5927
 6372TIP3   OH219121   5.784   1.538   5.025  0.7000  0.2043  0.4632
 6372TIP3    H119122   5.864   1.582   4.997 -0.2311  1.8735  0.3237
 6372TIP3    H219123   5.740   1.514   4.944  0.9549 -0.5867  0.5419
 6373TIP3   OH219124   1.559   3.247   1.647  0.6201  0.0618 -0.1719
 6373TIP3    H119125   1.463   3.239   1.646  0.5197  1.1013  0.2327
 6373TIP3    H219126   1.589   3.170   1.695 -0.2672  1.6645  3.2211
 6374TIP3   OH219127   0.610   5.563   1.632 -0.1292 -0.8441  0.3883
 6374TIP3    H119128   0.619   5.567   1.537 -0.3920 -0.1088  0.3919
 6374TIP3    H219129   0.699   5.575   1.665 -0.3286  1.3752  0.2835
 6375TIP3   OH219130   3.055   2.375   2.920  1.4341 -0.0992  0.0598
 6375TIP3    H119131   3.077   2.468   2.923 -0.9928  0.5199  0.1884
 6375TIP3    H219132   3.033   2.358   2.829  0.4021 -0.1650  0.3159
 6376TIP3   OH219133   1.527   0.713   3.305 -0.2071  0.2853 -0.5197
 6376TIP3    H119134   1.452   0.771   3.314 -0.4795 -0.0849 -0.3620
 6376TIP3    H219135   1.602   0.771   3.293 -0.5369  0.6555 -0.8230
 6377TIP3   OH219136   1.793   5.925   0.551  0.1260 -0.5799  0.0944
 6377TIP3    H119137   1.819   5.999   0.606  1.4555 -1.6285  0.9498
 6377TIP3    H219138   1.821   5.950   0.463 -0.2550  0.2972  0.2101
 6378TIP3   OH219139   1.715   4.011   4.471  0.6780  0.3997 -0.0165
 6378TIP3    H119140   1.640   4.022   4.413  1.3417  1.5070 -0.7169
 6378TIP3    H219141   1.750   3.925   4.449  0.2679  0.3458 -0.4811
 6379TIP3   OH219142   5.651   5.299   2.880  0.3817 -0.0207 -0.8282
 6379TIP3    H119143   5.660   5.369   2.944  2.6288 -0.4471 -0.5787
 6379TIP3    H219144   5.625   5.223   2.931 -2.1091  0.5580 -1.1059
 6380TIP3   OH219145   2.883   2.337   2.550  0.2141  0.0294  0.3406
 6380TIP3    H119146   2.967   2.295   2.533  0.2207  0.5210 -0.8634
 6380TIP3    H219147   2.904   2.429   2.567 -0.0865  0.1681 -0.0334
 6381TIP3   OH219148   5.473   4.118   4.834 -0.2470 -0.7990  0.0866
 6381TIP3    H119149   5.417   4.184   4.876  0.7739 -1.4736  2.6527
 6381TIP3    H219150   5.531   4.170   4.778 -1.7877  0.1112 -0.7701
 6382TIP3   OH219151   4.998   5.337   1.521 -0.7901  0.7385  0.4076
 6382TIP3    H119152   4.943   5.264   1.493 -0.7225  0.2737  1.4498
 6382TIP3    H219153   4.965   5.360   1.607 -0.9888  2.1423 -0.0243
 6383TIP3   OH219154   6.266   3.359   4.103 -0.2222  0.0811 -0.3200
 6383TIP3    H119155   6.209   3.356   4.180  1.0058 -0.2620  0.6057
 6383TIP3    H219156   6.291   3.451   4.096  1.3082 -0.1783  0.9891
 6384TIP3   OH219157   3.153   1.719   3.509  0.0539 -0.0413  0.2847
 6384TIP3    H119158   3.239   1.689   3.537  0.6992  2.9097  1.9336
 6384TIP3    H219159   3.123   1.653   3.446  1.4852 -3.5836  3.0010
 6385TIP3   OH219160   4.514   3.014   2.497  0.2256 -0.1245 -0.3486
 6385TIP3    H119161   4.587   3.003   2.435 -0.2718 -0.1844 -0.9285
 6385TIP3    H219162   4.448   2.952   2.468  0.4157 -0.9770  0.9277
 6386TIP3   OH219163   2.194   3.836   1.003  0.1069  0.4043 -0.2552
 6386TIP3    H119164   2.142   3.898   0.951 -1.6915 -0.2340  0.7172
 6386TIP3    H219165   2.159   3.750   0.979 -0.8376  0.0979  2.0251
 6387TIP3   OH219166   4.066   1.232   3.720  0.5793  0.7946  0.1574
 6387TIP3    H119167   4.032   1.194   3.639  3.4000 -0.5702 -0.5091
 6387TIP3    H219168   4.007   1.200   3.788  0.3388 -1.2408 -0.9312
 6388TIP3   OH219169   1.020   4.067   1.768 -0.1260  0.0182 -0.0269
 6388TIP3    H119170   0.946   4.034   1.819  0.1015  0.2064  0.4308
 6388TIP3    H219171   0.995   4.157   1.746 -1.6493 -1.0155 -2.9971
 6389TIP3   OH219172   5.704   4.460   3.981 -0.2121  0.3226 -0.2581
 6389TIP3    H119173   5.791   4.500   3.976 -0.6088  1.3396  0.5294
 6389TIP3    H219174   5.675   4.453   3.890  0.3979  0.6402 -0.4823
 6390TIP3   OH219175   2.187   4.797   1.921 -0.0759  0.2912  0.1152
 6390TIP3    H119176   2.104   4.819   1.964 -1.1008 -3.1115  0.1602
 6390TIP3    H219177   2.161   4.770   1.833  1.4435  2.2867 -1.0423
 6391TIP3   OH219178   5.607   0.262   3.232 -0.0139 -0.4279 -0.3991
 6391TIP3    H119179   5.631   0.170   3.227 -4.1648 -1.6885 -1.2071
 6391TIP3    H219180   5.628   0.297   3.145  0.4688 -0.9672 -0.5004
 6392TIP3   OH219181   3.794   0.730   4.934 -0.0771  0.3814 -0.3244
 6392TIP3    H119182   3.783   0.821   4.961 -0.6836 -0.1128  1.1604
 6392TIP3    H219183   3.837   0.687   5.008 -0.3559 -0.6807 -0.7518
 6393TIP3   OH219184   4.113   4.151   2.496  0.5471 -0.2481 -0.0283
 6393TIP3    H119185   4.088   4.219   2.434 -1.4799 -1.0451 -0.1816
 6393TIP3    H219186   4.083   4.184   2.581  0.5980 -0.4549  0.0710
 6394TIP3   OH219187   6.350   3.597   2.518  0.6953  0.9157 -0.2629
 6394TIP3    H119188   6.272   3.584   2.463  0.4486  1.9548 -0.1880
 6394TIP3    H219189   6.418   3.545   2.476 -0.0088  0.0610 -0.3835
 6395TIP3   OH219190   1.618   2.266   2.114 -0.3151  0.3612  0.2466
 6395TIP3    H119191   1.575   2.258   2.200  1.7853 -3.3060  1.1963
 6395TIP3    H219192   1.546   2.265   2.051 -1.8337 -0.5866  1.8956
 6396TIP3   OH219193   0.587   1.065   4.563 -0.0465  0.0637 -0.2161
 6396TIP3    H119194   0.548   0.982   4.592  0.7872  0.4038  2.0859
 6396TIP3    H219195   0.523   1.102   4.502 -1.7559 -0.9354  0.9014
 6397TIP3   OH219196   2.750   2.039   4.351 -0.1877 -0.3420 -0.3081
 6397TIP3    H119197   2.754   2.008   4.260  1.8656  0.6923 -0.6294
 6397TIP3    H219198   2.661   2.075   4.360  0.3189  1.8375 -2.7491
 6398TIP3   OH219199   3.332   3.734   4.969 -0.1503  0.0517 -0.3119
 6398TIP3    H119200   3.250   3.683   4.973  0.0098 -0.1542  1.0725
 6398TIP3    H219201   3.313   3.813   5.019  0.5160 -0.0368  0.0929
 6399TIP3   OH219202   3.749   4.957   0.727 -0.0679 -0.2240 -0.7417
 6399TIP3    H119203   3.768   5.043   0.764 -0.0815 -0.4718 -0.1552
 6399TIP3    H219204   3.677   4.923   0.780  1.2624 -1.4492  0.3672
 6400TIP3   OH219205   3.877   4.379   0.131  0.1600  0.3501  0.5435
 6400TIP3    H119206   3.791   4.341   0.112  0.2671  0.9645 -1.2818
 6400TIP3    H219207   3.861   4.435   0.208 -1.2329  0.9750 -0.1621
 6401TIP3   OH219208   5.211   1.466   3.360 -0.0749  0.1986  0.3515
 6401TIP3    H119209   5.165   1.386   3.335 -1.7675  0.4900  2.2398
 6401TIP3    H219210   5.202   1.470   3.455 -1.0832  3.1926  0.2389
 6402TIP3   OH219211   2.946   5.537   0.117 -0.0417 -0.4560  0.3637
 6402TIP3    H119212   2.954   5.492   0.201  0.1604 -3.1893 -0.9918
 6402TIP3    H219213   2.867   5.590   0.126 -0.5421 -1.4029  1.9903
 6403TIP3   OH219214   4.723   4.322   1.599 -0.0216  0.5236  0.2876
 6403TIP3    H119215   4.687   4.325   1.510  3.3591 -0.1156 -1.2781
 6403TIP3    H219216   4.702   4.234   1.631  2.1105 -0.7755 -1.5990
 6404TIP3   OH219217   5.757   2.981   4.882 -0.4080 -0.5701 -0.1365
 6404TIP3    H119218   5.760   3.004   4.789  1.4316 -2.2279 -0.5525
 6404TIP3    H219219   5.664   2.962   4.899 -0.9461  0.8394 -1.3172
 6405TIP3   OH219220   2.564   0.671   0.748  0.5524 -0.2531 -0.2754
 6405TIP3    H119221   2.479   0.655   0.789 -1.2568 -0.2615 -3.6743
 6405TIP3    H219222   2.609   0.586   0.751  0.1287 -0.4467  0.8889
 6406TIP3   OH219223   6.303   4.891   2.065  0.2046  0.0976 -0.9070
 6406TIP3    H119224   6.282   4.901   1.973 -0.6995 -1.6906 -0.9440
 6406TIP3    H219225   6.355   4.968   2.087 -2.1273  2.1545 -2.1190
 6407TIP3   OH219226   3.959   1.164   3.459  0.0314  0.0342  0.7561
 6407TIP3    H119227   3.999   1.078   3.446  0.4430  0.0430  1.8837
 6407TIP3    H219228   4.002   1.221   3.395 -1.3063 -0.8836 -1.0640
 6408TIP3   OH219229   3.677   4.208   3.565 -0.0220  0.3617 -0.0365
 6408TIP3    H119230   3.631   4.134   3.527 -1.2645  1.8138 -1.5416
 6408TIP3    H219231   3.622   4.236   3.638  0.0211  0.2980  0.0205
 6409TIP3   OH219232   4.633   3.784   4.990  0.6286 -0.1039  0.0026
 6409TIP3    H119233   4.626   3.690   4.975 -0.8416  0.0359 -0.3721
 6409TIP3    H219234   4.623   3.795   5.084  3.6917 -0.4991  0.4779
 6410TIP3   OH219235   6.299   4.416   3.374  0.2751 -0.5889 -0.5412
 6410TIP3    H119236   6.295   4.491   3.315  0.2922 -0.5424 -0.4835
 6410TIP3    H219237   6.285   4.453   3.461  0.1334 -0.6733 -0.5274
 6411TIP3   OH219238   2.147   5.170   2.986 -0.4399 -0.4728 -0.2080
 6411TIP3    H119239   2.170   5.246   2.932  1.4901 -1.4890 -0.9082
 6411TIP3    H219240   2.060   5.145   2.955 -0.9436  1.1607 -0.2501
 6412TIP3   OH219241   3.280   4.573   1.964 -0.8803 -0.0092  0.3323
 6412TIP3    H119242   3.201   4.522   1.947 -0.9074 -0.7671  2.4191
 6412TIP3    H219243   3.351   4.521   1.927 -1.1832 -0.1008 -0.1331
 6413TIP3   OH219244   0.251   2.639   2.232  0.2720 -0.3083 -0.6207
 6413TIP3    H119245   0.180   2.658   2.170  2.3068  1.1829 -2.7071
 6413TIP3    H219246   0.230   2.691   2.309  0.2946  2.1463 -2.1691
 6414TIP3   OH219247   4.506   0.843   1.681  0.4476  0.4387  0.5328
 6414TIP3    H119248   4.418   0.822   1.651  0.8962 -1.0590  0.1679
 6414TIP3    H219249   4.561   0.833   1.603  0.9532  1.2761  0.7730
 6415TIP3   OH219250   5.440   3.461   4.269 -0.1928 -0.0298 -0.4285
 6415TIP3    H119251   5.480   3.403   4.204 -0.6756  0.0514 -0.8010
 6415TIP3    H219252   5.376   3.406   4.313 -1.8676  0.6386 -1.9269
 6416TIP3   OH219253   1.688   4.128   3.108 -0.0754  0.3253  0.5475
 6416TIP3    H119254   1.730   4.211   3.131  0.8708 -0.0083  0.0580
 6416TIP3    H219255   1.647   4.145   3.023  2.4784 -0.4535 -0.9439
 6417TIP3   OH219256   3.411   4.243   0.251 -0.4165  0.4084  0.2900
 6417TIP3    H119257   3.390   4.152   0.229  2.1958 -0.1568 -0.2500
 6417TIP3    H219258   3.337   4.294   0.217 -1.2688 -1.3928 -0.6842
 6418TIP3   OH219259   3.377   5.280   3.156 -0.1008 -0.3605 -0.0481
 6418TIP3    H119260   3.444   5.215   3.178 -0.7980 -0.3248  2.5296
 6418TIP3    H219261   3.425   5.348   3.109  1.6706 -0.4571  1.4869
 6419TIP3   OH219262   2.934   2.420   0.419 -0.1455  0.2762 -0.0301
 6419TIP3    H119263   2.945   2.482   0.347  1.5693  1.1136  0.8934
 6419TIP3    H219264   3.021   2.383   0.432 -0.0933  1.0654  2.3812
 6420TIP3   OH219265   4.863   2.134   3.424 -0.2319 -0.0158 -0.1145
 6420TIP3    H119266   4.825   2.060   3.377  2.3863 -2.2250  0.9402
 6420TIP3    H219267   4.925   2.172   3.362  0.2379 -0.3215  0.1613
 6421TIP3   OH219268   1.611   2.249   0.747  0.8919  0.0298 -0.5145
 6421TIP3    H119269   1.621   2.284   0.835 -0.6195 -0.1911 -0.2275
 6421TIP3    H219270   1.641   2.319   0.690  0.2704  0.8510  0.1329
 6422TIP3   OH219271   2.349   5.084   1.087 -0.1715 -0.0829 -0.2643
 6422TIP3    H119272   2.259   5.053   1.080 -0.0981 -0.1220 -1.2437
 6422TIP3    H219273   2.341   5.169   1.130 -0.8756  0.6823 -1.8073
 6423TIP3   OH219274   4.552   0.282   2.080 -0.0703  0.1288  0.1106
 6423TIP3    H119275   4.482   0.222   2.054 -0.4789  0.9016 -0.6163
 6423TIP3    H219276   4.622   0.225   2.111 -0.5016 -0.7160 -0.4419
 6424TIP3   OH219277   2.821   0.875   4.296  0.0210  0.3928 -0.1537
 6424TIP3    H119278   2.741   0.892   4.246  0.6402  1.7201 -0.7267
 6424TIP3    H219279   2.892   0.884   4.232  0.6233 -1.2260  0.2451
 6425TIP3   OH219280   4.568   1.019   3.603 -0.2459  0.4164 -0.4124
 6425TIP3    H119281   4.508   0.986   3.669 -2.3667  2.4512 -1.2082
 6425TIP3    H219282   4.519   1.014   3.521  1.5844 -0.1229 -1.5301
 6426TIP3   OH219283   0.197   5.832   3.325 -0.1000  0.0481  0.3740
 6426TIP3    H119284   0.123   5.808   3.380 -2.5701 -0.1509 -2.7695
 6426TIP3    H219285   0.228   5.915   3.361 -4.2567  2.0841 -0.1669
 6427TIP3   OH219286   2.697   1.138   3.413  0.1501  0.0781 -0.7354
 6427TIP3    H119287   2.769   1.083   3.445 -0.8384 -0.8143  0.0126
 6427TIP3    H219288   2.634   1.076   3.377 -0.1739  0.8711 -1.5602
 6428TIP3   OH219289   2.211   5.627   3.777 -0.2068 -0.1468  0.2924
 6428TIP3    H119290   2.212   5.715   3.817 -0.2437  0.8928 -1.8805
 6428TIP3    H219291   2.252   5.639   3.692  0.3307 -2.4032  0.2000
 6429TIP3   OH219292   3.732   1.814   5.085 -0.2335  0.7231  0.0258
 6429TIP3    H119293   3.806   1.804   5.144 -0.2196  0.0901 -0.0905
 6429TIP3    H219294   3.770   1.848   5.004  0.0906 -0.5376 -0.3698
 6430TIP3   OH219295   4.563   5.588   3.790  0.1968 -0.6408 -0.0164
 6430TIP3    H119296   4.630   5.635   3.741  1.7063 -1.7441  0.8805
 6430TIP3    H219297   4.507   5.548   3.723  0.8525 -0.2712 -0.8019
 6431TIP3   OH219298   1.223   1.617   0.397  0.0350 -0.1547  0.4987
 6431TIP3    H119299   1.305   1.619   0.445  1.2965  3.3643 -1.4419
 6431TIP3    H219300   1.155   1.621   0.465  1.4114 -2.4597  2.1079
 6432TIP3   OH219301   3.575   2.567   3.868 -0.3975 -0.2174  0.5038
 6432TIP3    H119302   3.512   2.502   3.836 -2.0164  0.5283  2.0181
 6432TIP3    H219303   3.648   2.515   3.902 -0.1774 -1.0958 -1.1803
 6433TIP3   OH219304   2.201   2.427   3.470 -0.8858 -0.0893  0.3076
 6433TIP3    H119305   2.160   2.343   3.450 -1.0134 -0.1101  0.6629
 6433TIP3    H219306   2.216   2.467   3.384  0.2216 -0.9701  0.0771
 6434TIP3   OH219307   2.026   2.332   4.665  0.5887 -0.6201  0.2668
 6434TIP3    H119308   1.944   2.317   4.619  0.5750 -0.5364  0.2636
 6434TIP3    H219309   2.094   2.313   4.600  0.5655  0.9165 -0.2645
 6435TIP3   OH219310   5.975   1.790   1.351 -0.1106 -0.0993  0.1877
 6435TIP3    H119311   5.894   1.746   1.324 -0.6748  0.8173  0.3548
 6435TIP3    H219312   5.946   1.856   1.415  1.0000 -1.1215  1.8213
 6436TIP3   OH219313   1.277   5.833   4.650  0.1612  0.5178 -0.0876
 6436TIP3    H119314   1.304   5.798   4.735 -0.7054 -0.8835 -0.3558
 6436TIP3    H219315   1.242   5.757   4.603 -0.6256  1.5278 -1.1929
 6437TIP3   OH219316   4.339   1.546   3.744 -0.0891 -0.1872 -0.5124
 6437TIP3    H119317   4.299   1.492   3.813 -0.3701 -0.2119 -0.6924
 6437TIP3    H219318   4.328   1.494   3.664  0.8856 -0.4854 -0.4628
 6438TIP3   OH219319   0.996   5.776   0.291 -0.1222 -0.0913  0.1346
 6438TIP3    H119320   0.906   5.757   0.265  0.2224 -1.6252 -0.0857
 6438TIP3    H219321   1.045   5.697   0.266  0.9690  0.0001  1.8302
 6439TIP3   OH219322   4.081   0.046   4.012 -0.4468  0.1288 -0.7910
 6439TIP3    H119323   4.047   0.124   3.968  0.1175 -0.0036 -1.4769
 6439TIP3    H219324   4.067  -0.025   3.949 -1.0540 -0.3563 -0.1285
 6440TIP3   OH219325   4.269   0.896   4.261 -0.0491 -0.0194 -0.1585
 6440TIP3    H119326   4.213   0.965   4.226  0.3596  0.6133  0.4081
 6440TIP3    H219327   4.272   0.914   4.355 -0.1269 -0.9526  0.0296
 6441TIP3   OH219328   2.218   5.509   0.461 -0.3817  0.0043 -0.0909
 6441TIP3    H119329   2.236   5.458   0.382  0.5436 -0.6035  0.4936
 6441TIP3    H219330   2.304   5.529   0.498 -0.7962 -1.2508  1.7152
 6442TIP3   OH219331   5.484   5.557   0.113 -0.0284  0.1023 -0.6472
 6442TIP3    H119332   5.440   5.500   0.176 -0.0444  0.1202 -0.6424
 6442TIP3    H219333   5.551   5.602   0.164  0.9560 -0.9865 -0.9334
 6443TIP3   OH219334   2.734   3.662   4.893  0.9780 -0.3930  0.0312
 6443TIP3    H119335   2.693   3.578   4.917  0.9739 -0.1184  1.0469
 6443TIP3    H219336   2.805   3.638   4.834  0.3910 -1.0276 -0.4414
 6444TIP3   OH219337   1.301   0.277   3.881  0.6048 -0.1159 -0.0109
 6444TIP3    H119338   1.339   0.275   3.969  2.3940 -0.5471 -0.7513
 6444TIP3    H219339   1.327   0.362   3.846  0.9416 -0.4262 -0.5366
 6445TIP3   OH219340   3.732   3.168   1.701 -0.3017  0.0297 -0.2919
 6445TIP3    H119341   3.694   3.249   1.669 -0.3422  0.8592  1.7050
 6445TIP3    H219342   3.801   3.146   1.638  0.2202  2.0406 -0.4690
 6446TIP3   OH219343   0.478   1.162   2.496  0.4597  0.1983  0.0315
 6446TIP3    H119344   0.478   1.071   2.523  0.9740  0.6914  1.7926
 6446TIP3    H219345   0.502   1.211   2.575 -2.5133  2.0860 -0.1119
 6447TIP3   OH219346   4.649   5.858   3.321  0.6473  0.2394  0.2728
 6447TIP3    H119347   4.668   5.945   3.286 -1.0741  1.5067  2.2476
 6447TIP3    H219348   4.557   5.843   3.300  0.7267 -0.7614  0.6138
 6448TIP3   OH219349   3.060   4.681   4.020  0.3007  0.2914  0.8079
 6448TIP3    H119350   3.097   4.593   4.013 -0.1215  0.0286  1.7914
 6448TIP3    H219351   3.106   4.721   4.093  1.2767  1.3054 -0.3118
 6449TIP3   OH219352   5.454   3.348   3.832  0.3409  0.3889  0.5706
 6449TIP3    H119353   5.478   3.391   3.749 -0.2315 -1.3812 -0.5698
 6449TIP3    H219354   5.358   3.346   3.830  0.3439 -1.9459 -0.0167
 6450TIP3   OH219355   0.816   2.903   3.822 -0.1641  0.0315  0.5058
 6450TIP3    H119356   0.766   2.845   3.764  1.2920  0.2938 -1.0761
 6450TIP3    H219357   0.865   2.843   3.879 -0.1318 -0.2755  0.1587
 6451TIP3   OH219358   5.900   1.243   3.594  0.0790 -0.3516  0.1949
 6451TIP3    H119359   5.899   1.338   3.608  0.8894 -0.4476  1.0196
 6451TIP3    H219360   5.823   1.211   3.640 -0.4305 -0.0542 -0.4410
 6452TIP3   OH219361   1.787   4.059   0.404  0.5286 -0.5591  0.4455
 6452TIP3    H119362   1.791   3.981   0.348 -0.1428 -1.1652  1.2221
 6452TIP3    H219363   1.696   4.064   0.431  1.1120 -1.2150  2.7657
 6453TIP3   OH219364   4.878   2.013   2.372  0.6775 -0.1803  0.1441
 6453TIP3    H119365   4.856   1.926   2.406  0.1913  0.7096  2.2525
 6453TIP3    H219366   4.814   2.029   2.302 -2.1995  0.2168  2.6600
 6454TIP3   OH219367   1.834   5.492   0.332 -0.7661 -0.2291  0.2405
 6454TIP3    H119368   1.756   5.444   0.362  0.1114 -1.3852  0.7324
 6454TIP3    H219369   1.895   5.423   0.305  0.2298  0.6580  0.1995
 6455TIP3   OH219370   0.920   5.119   2.299 -0.0891  0.5802 -0.1073
 6455TIP3    H119371   1.012   5.140   2.279 -0.4263  0.7285 -1.6219
 6455TIP3    H219372   0.925   5.040   2.353  0.8695 -1.5507 -3.0681
 6456TIP3   OH219373   3.971   0.897   0.771  0.0526  0.0057  0.2261
 6456TIP3    H119374   3.964   0.954   0.847 -1.0969 -1.1602  1.0274
 6456TIP3    H219375   3.911   0.825   0.789 -0.1632 -0.3603 -1.7427
 6457TIP3   OH219376   4.606   2.136   3.520 -0.1990  0.6779 -0.2004
 6457TIP3    H119377   4.568   2.140   3.432 -1.6742  1.4754  0.4308
 6457TIP3    H219378   4.700   2.146   3.506 -0.3042 -0.1141 -1.7440
 6458TIP3   OH219379   0.370   5.073   4.918  0.2266  0.2896  0.6007
 6458TIP3    H119380   0.356   4.981   4.898  0.9988  0.3318 -0.1704
 6458TIP3    H219381   0.291   5.117   4.886 -0.1779 -0.1003  1.0418
 6459TIP3   OH219382   1.537   0.921   1.666  0.1825 -0.9298 -0.2570
 6459TIP3    H119383   1.486   0.844   1.694  0.1570 -0.3140  1.4915
 6459TIP3    H219384   1.530   0.982   1.739  1.0621  0.3375 -1.1986
 6460TIP3   OH219385   2.814   5.509   5.017 -0.1767  0.2181  0.4106
 6460TIP3    H119386   2.776   5.589   4.980  0.8287  0.6846  0.3672
 6460TIP3    H219387   2.751   5.482   5.084 -1.5694 -0.1438 -0.9826
 6461TIP3   OH219388   0.104   4.537   3.842 -0.4522  0.3127  0.0258
 6461TIP3    H119389   0.061   4.616   3.807  0.6305  0.6070 -0.6977
 6461TIP3    H219390   0.058   4.465   3.800 -0.8321  0.5876 -0.0397
 6462TIP3   OH219391   0.876   0.055   2.668 -0.2094  0.0079  0.6557
 6462TIP3    H119392   0.871   0.088   2.758  0.5284  3.4241 -0.4493
 6462TIP3    H219393   0.829   0.119   2.615  1.7566 -0.3950 -1.7599
 6463TIP3   OH219394   4.897   3.899   4.925  0.0526  0.4246  0.5711
 6463TIP3    H119395   4.951   3.889   5.003  0.7838  0.9194  0.1325
 6463TIP3    H219396   4.810   3.870   4.953  0.3413  0.4393  1.5226
 6464TIP3   OH219397   3.938   5.383   3.990  0.7261  0.2494 -0.1051
 6464TIP3    H119398   3.851   5.401   4.026  0.4471 -0.3554 -0.4593
 6464TIP3    H219399   3.961   5.463   3.943  0.7830  0.7764  0.7912
 6465TIP3   OH219400   5.636   4.084   0.797 -0.7376  0.6664  0.2355
 6465TIP3    H119401   5.611   4.170   0.764 -0.9499  0.6261  0.2897
 6465TIP3    H219402   5.578   4.069   0.872 -1.1696  0.1887 -0.1838
 6466TIP3   OH219403   3.462   0.778   0.754 -0.2082  0.2988 -0.3827
 6466TIP3    H119404   3.515   0.845   0.710  0.2206  0.2500  0.0491
 6466TIP3    H219405   3.511   0.757   0.834  0.0309 -1.0591 -0.8618
 6467TIP3   OH219406   0.063   1.367   1.008 -0.5003  0.7612  0.2279
 6467TIP3    H119407   0.148   1.334   0.976 -0.4962 -0.5657  1.4773
 6467TIP3    H219408  -0.001   1.332   0.947 -0.2106  1.1939 -0.3303
 6468TIP3   OH219409   0.278   0.383   2.232  0.0499  0.4159 -0.1596
 6468TIP3    H119410   0.217   0.352   2.300  0.0957  2.1493  0.7237
 6468TIP3    H219411   0.365   0.367   2.269  0.1993 -1.6712 -1.2470
 6469TIP3   OH219412   3.372   2.461   1.218 -0.0589  0.0631  0.0481
 6469TIP3    H119413   3.301   2.425   1.271 -0.5467 -0.2630 -0.8244
 6469TIP3    H219414   3.361   2.556   1.224 -1.6138  0.0158 -1.4531
 6470TIP3   OH219415   5.755   1.482   0.361  0.8474 -0.0451  0.1930
 6470TIP3    H119416   5.768   1.552   0.426  0.5871 -0.2011  0.4141
 6470TIP3    H219417   5.680   1.511   0.309  0.3829 -0.4210  0.6431
 6471TIP3   OH219418   2.977   2.760   4.181 -0.0675  0.7475 -0.4028
 6471TIP3    H119419   3.029   2.790   4.256 -1.7908 -1.6637  1.9636
 6471TIP3    H219420   3.037   2.707   4.129  0.5443  0.2447  0.7736
 6472TIP3   OH219421   6.037   1.383   4.713 -0.8516  0.3907 -0.3403
 6472TIP3    H119422   6.063   1.352   4.800  0.9692  0.6111 -0.7545
 6472TIP3    H219423   6.120   1.398   4.668 -1.7161  2.3351 -1.3983
 6473TIP3   OH219424   4.504   2.265   2.956 -0.2576  0.6716 -0.3904
 6473TIP3    H119425   4.425   2.240   3.004  0.4823  0.4393  0.7538
 6473TIP3    H219426   4.475   2.334   2.896 -0.9636  2.0523  1.4432
 6474TIP3   OH219427   4.002   2.648   2.925 -0.8407 -0.1614  0.1616
 6474TIP3    H119428   4.006   2.559   2.959  0.6400 -0.0667  0.2726
 6474TIP3    H219429   3.945   2.642   2.848  0.4304 -1.5176 -0.7201
 6475TIP3   OH219430   1.933   5.202   0.800  0.6478 -0.8190  0.0352
 6475TIP3    H119431   1.933   5.249   0.717  2.8602  0.0249  0.4476
 6475TIP3    H219432   1.875   5.128   0.786 -1.7543  1.1190 -1.1457
 6476TIP3   OH219433   3.308   3.034   3.728  0.2778 -0.2510 -0.2321
 6476TIP3    H119434   3.303   3.001   3.818  0.3803 -2.9879 -1.1286
 6476TIP3    H219435   3.220   3.020   3.693  0.6702 -0.8126 -1.0295
 6477TIP3   OH219436   3.035   0.846   2.970 -0.0535  0.2836  0.6958
 6477TIP3    H119437   3.109   0.863   2.912 -1.3424 -1.2871 -1.5754
 6477TIP3    H219438   3.039   0.751   2.987 -0.1965  0.5672  2.5722
 6478TIP3   OH219439   5.979   3.725   4.224  0.3486  0.0342  0.1912
 6478TIP3    H119440   5.905   3.717   4.285 -0.0225  0.5681 -0.1745
 6478TIP3    H219441   6.036   3.791   4.263  0.2715  0.1413  0.1245
 6479TIP3   OH219442   4.813   2.260   2.711  0.5184 -0.1567 -0.5781
 6479TIP3    H119443   4.801   2.351   2.737 -1.4797 -0.5258 -0.0289
 6479TIP3    H219444   4.760   2.250   2.632  0.6476 -0.8651 -0.5830
 6480TIP3   OH219445   5.864   0.859   4.167  0.5157  0.1192 -0.0230
 6480TIP3    H119446   5.804   0.918   4.214 -0.2712 -1.2939  0.8263
 6480TIP3    H219447   5.811   0.824   4.095  0.8215  0.0716 -0.2256
 6481TIP3   OH219448   2.686   1.020   2.899  0.1376 -0.6271 -0.1908
 6481TIP3    H119449   2.591   1.013   2.910  0.1184 -1.5291 -0.7869
 6481TIP3    H219450   2.713   0.932   2.874  1.1169 -0.3403 -0.1728
 6482TIP3   OH219451   0.985   5.103   0.408  0.3233  0.5926 -0.0977
 6482TIP3    H119452   1.053   5.047   0.370  0.9735  0.6878  0.9044
 6482TIP3    H219453   0.906   5.080   0.359  0.1150 -2.5643  1.4350
 6483TIP3   OH219454   4.559   1.360   3.676 -0.5120 -0.2062 -0.2544
 6483TIP3    H119455   4.536   1.353   3.583  0.5315  0.7819 -0.6172
 6483TIP3    H219456   4.489   1.315   3.722 -1.5467  0.1151 -1.4712
 6484TIP3   OH219457   2.206   4.392   0.184 -0.1123 -0.5589  0.7957
 6484TIP3    H119458   2.187   4.308   0.226 -0.1244 -1.3555 -0.7344
 6484TIP3    H219459   2.270   4.433   0.242 -0.1426 -1.5924  1.6052
 6485TIP3   OH219460   2.578   1.575   0.941  0.4536 -0.4967  0.4235
 6485TIP3    H119461   2.640   1.620   0.998 -0.3058 -0.1316  0.9711
 6485TIP3    H219462   2.579   1.484   0.970 -0.1529 -0.2560  1.2350
 6486TIP3   OH219463   0.454   2.522   1.222  0.3035  0.0055  0.2644
 6486TIP3    H119464   0.385   2.582   1.194  0.6618  0.6257  0.6936
 6486TIP3    H219465   0.530   2.547   1.169  0.9214  1.0315  1.5791
 6487TIP3   OH219466   3.022   4.059   0.720 -0.3416 -0.1817  0.7961
 6487TIP3    H119467   3.095   4.018   0.675  0.4470 -1.9118  3.4192
 6487TIP3    H219468   2.948   4.000   0.705 -0.2042 -0.4887  1.2902
 6488TIP3   OH219469   4.691   3.621   1.381  0.1148  0.3404  0.2971
 6488TIP3    H119470   4.612   3.572   1.359 -0.7086  1.8565 -0.2536
 6488TIP3    H219471   4.762   3.558   1.372 -0.8733 -0.6762 -0.6355
 6489TIP3   OH219472   1.390   1.667   1.643  0.0903  0.2923 -0.5920
 6489TIP3    H119473   1.398   1.630   1.731 -1.0723  1.4855  0.0659
 6489TIP3    H219474   1.453   1.619   1.590  0.3984 -0.8559  0.7647
 6490TIP3   OH219475   1.264   5.082   0.969  0.0395 -0.1956 -0.0733
 6490TIP3    H119476   1.176   5.047   0.983 -0.0203 -0.5864 -1.3280
 6490TIP3    H219477   1.319   5.004   0.960  0.2775  0.0408 -0.6650
 6491TIP3   OH219478   1.051   1.066   1.771 -0.6813  0.3071  0.7735
 6491TIP3    H119479   1.038   0.981   1.729 -1.2402  1.7480 -2.2270
 6491TIP3    H219480   1.083   1.045   1.858 -0.2144 -2.9507 -0.0579
 6492TIP3   OH219481   5.913   5.734   3.268  0.5095  0.1974  0.0055
 6492TIP3    H119482   5.974   5.774   3.330  1.3294  0.0035 -0.6534
 6492TIP3    H219483   5.962   5.661   3.230  0.5270  1.1263 -1.8533
 6493TIP3   OH219484   5.396   0.492   0.236 -0.2792  0.3125 -0.4692
 6493TIP3    H119485   5.364   0.485   0.146 -1.3043  2.0389 -0.2889
 6493TIP3    H219486   5.484   0.456   0.233 -1.0082 -1.5147 -1.7187
 6494TIP3   OH219487   6.185   5.479   3.691 -0.0798  0.1427 -0.6607
 6494TIP3    H119488   6.132   5.557   3.708 -1.0422 -0.3268 -1.3866
 6494TIP3    H219489   6.167   5.458   3.599 -0.9619 -1.7612 -0.0906
 6495TIP3   OH219490   4.000   0.398   1.697 -0.0808 -0.4312  0.3399
 6495TIP3    H119491   3.946   0.349   1.634 -0.4780 -0.5371  0.7495
 6495TIP3    H219492   3.956   0.383   1.781 -0.0281  0.3850  0.5170
 6496TIP3   OH219493   4.046   2.591   2.445 -0.1128 -0.6205 -0.0957
 6496TIP3    H119494   4.084   2.669   2.485 -0.9499 -0.3833  0.2385
 6496TIP3    H219495   4.122   2.541   2.416  0.4515  0.8781 -1.4173
 6497TIP3   OH219496   2.126   1.141   4.265 -0.2410  0.2326  0.6818
 6497TIP3    H119497   2.156   1.133   4.174  0.9936  0.0463  1.0790
 6497TIP3    H219498   2.058   1.075   4.275 -0.5226  0.3874 -0.1549
 6498TIP3   OH219499   0.878   0.467   3.345 -0.0012  0.0593 -0.3511
 6498TIP3    H119500   0.842   0.380   3.364  0.6763 -0.0165  0.6491
 6498TIP3    H219501   0.960   0.470   3.393  1.1154  0.4319 -2.1896
 6499TIP3   OH219502   2.048   4.845   3.739  0.2157  0.5834 -0.1678
 6499TIP3    H119503   2.008   4.931   3.730  0.4474  0.6193 -0.9057
 6499TIP3    H219504   1.998   4.803   3.809 -0.5519  0.9535 -0.4750
 6500TIP3   OH219505   4.507   2.245   1.940  0.0940 -0.0145 -0.1569
 6500TIP3    H119506   4.558   2.164   1.947  1.5447  0.7929 -0.8123
 6500TIP3    H219507   4.470   2.243   1.851  1.0068  0.4994 -0.5662
 6501TIP3   OH219508   1.518   5.139   4.026 -0.3108  0.0170  0.3574
 6501TIP3    H119509   1.510   5.203   4.097 -0.0652 -0.8345  1.1808
 6501TIP3    H219510   1.428   5.121   4.000 -0.4122  0.2053  0.5706
 6502TIP3   OH219511   2.893   3.266   1.258  0.3945 -0.0595 -0.4659
 6502TIP3    H119512   2.822   3.329   1.252 -0.1498 -0.7132 -1.0748
 6502TIP3    H219513   2.897   3.243   1.351  0.4915  0.7314 -0.2668
 6503TIP3   OH219514   5.675   4.943   1.358 -0.3119  0.2965  0.0583
 6503TIP3    H119515   5.580   4.934   1.362 -0.3684  1.1576  1.3714
 6503TIP3    H219516   5.691   4.985   1.273 -1.0578 -0.2780 -0.3777
 6504TIP3   OH219517   0.703   2.859   4.439 -0.6123 -0.1256  0.3358
 6504TIP3    H119518   0.749   2.859   4.355  0.1128  2.0340  0.6655
 6504TIP3    H219519   0.627   2.916   4.426 -1.7810 -1.5880  0.5400
 6505TIP3   OH219520   2.811   0.212   1.640 -0.0010  0.5394 -0.1136
 6505TIP3    H119521   2.738   0.150   1.640  0.0135  0.5225 -0.1461
 6505TIP3    H219522   2.879   0.170   1.692 -0.4715  1.0938  1.0015
 6506TIP3   OH219523   1.522   2.778   3.418  0.4145 -0.4072  0.1785
 6506TIP3    H119524   1.526   2.758   3.511  0.6099  1.6472  0.6549
 6506TIP3    H219525   1.613   2.779   3.388  0.3853 -0.5245  0.0814
 6507TIP3   OH219526   1.050   4.842   3.478 -0.7395  0.0562 -0.1346
 6507TIP3    H119527   1.074   4.793   3.557  0.5888  0.8713  0.0077
 6507TIP3    H219528   1.051   4.777   3.408  0.5798 -0.2400  0.1182
 6508TIP3   OH219529   3.704   5.175   2.637  0.0202 -0.3298  0.1893
 6508TIP3    H119530   3.696   5.152   2.545 -0.8565 -0.6259  0.3286
 6508TIP3    H219531   3.722   5.092   2.681  1.9767  0.0196  0.1377
 6509TIP3   OH219532   3.779   0.679   0.546 -0.4257  0.5419 -0.8822
 6509TIP3    H119533   3.733   0.596   0.535  1.3165 -0.4969 -0.6986
 6509TIP3    H219534   3.758   0.728   0.466 -0.9113 -0.3653 -1.3324
 6510TIP3   OH219535   6.259   1.243   1.942  0.4853 -0.2433 -0.1085
 6510TIP3    H119536   6.323   1.314   1.947 -0.7927  1.0712 -1.3479
 6510TIP3    H219537   6.213   1.258   1.859  0.7364 -3.0516 -0.8760
 6511TIP3   OH219538   3.395   4.989   5.009 -0.1441  0.0116  0.4712
 6511TIP3    H119539   3.430   5.076   5.026 -0.0381  0.0259  0.1839
 6511TIP3    H219540   3.378   4.987   4.915 -0.6803 -0.0845  0.5690
 6512TIP3   OH219541   5.259   4.168   0.969  0.1503 -0.0267  0.6590
 6512TIP3    H119542   5.169   4.154   0.942  0.5516  1.4406 -1.7593
 6512TIP3    H219543   5.309   4.102   0.922  0.5088  0.2883  0.5912
 6513TIP3   OH219544   3.773   3.695   4.174  0.0636  0.6634  0.3167
 6513TIP3    H119545   3.802   3.785   4.154  0.1687  0.9983  1.8706
 6513TIP3    H219546   3.749   3.698   4.266 -1.1986 -0.6054  0.0591
 6514TIP3   OH219547   5.775   0.309   2.163 -0.9440 -0.3838 -0.7687
 6514TIP3    H119548   5.808   0.375   2.223 -1.4753 -1.6414  0.9914
 6514TIP3    H219549   5.720   0.357   2.102 -0.0910  0.9868 -0.5037
 6515TIP3   OH219550   1.661   0.390   1.497  0.3269  0.1982  0.2883
 6515TIP3    H119551   1.582   0.370   1.546 -1.6706  0.4872 -2.5539
 6515TIP3    H219552   1.690   0.305   1.463  1.3902  0.0700  1.4458
 6516TIP3   OH219553   0.089   2.326   5.053  0.1901  0.1685 -0.8443
 6516TIP3    H119554   0.098   2.401   5.112 -1.4747  1.1776 -1.7783
 6516TIP3    H219555   0.039   2.261   5.103  1.4753 -0.2759 -0.0966
 6517TIP3   OH219556   0.787   4.768   1.909 -0.0273 -0.3430 -0.4486
 6517TIP3    H119557   0.827   4.795   1.992 -0.4846 -0.3676 -0.2137
 6517TIP3    H219558   0.843   4.697   1.877 -1.3255 -2.2337  1.2144
 6518TIP3   OH219559   4.371   2.455   0.285 -0.0975  0.3640  0.2416
 6518TIP3    H119560   4.314   2.378   0.281 -0.6245  0.6132  2.2884
 6518TIP3    H219561   4.459   2.420   0.273 -0.3748 -0.5018  0.6796
 6519TIP3   OH219562   3.672   2.180   0.314  0.1079 -0.6540 -0.0511
 6519TIP3    H119563   3.611   2.205   0.383  0.1175  0.7819 -0.5336
 6519TIP3    H219564   3.656   2.086   0.301 -2.1756 -0.2907 -0.3093
 6520TIP3   OH219565   5.258   5.196   4.916 -0.7623  0.1249  0.3141
 6520TIP3    H119566   5.163   5.194   4.923 -0.6713 -1.3357  1.5696
 6520TIP3    H219567   5.288   5.123   4.969  1.0017 -0.4678 -1.3548
 6521TIP3   OH219568   0.694   0.748   3.561  0.3343  0.4992 -0.0223
 6521TIP3    H119569   0.638   0.710   3.629  0.5138  0.6632  0.2182
 6521TIP3    H219570   0.695   0.841   3.580  0.8119  0.4802  0.0696
 6522TIP3   OH219571   4.788   2.663   1.672  0.4276  0.2244  0.2509
 6522TIP3    H119572   4.861   2.724   1.659 -0.3976  0.9501 -1.3486
 6522TIP3    H219573   4.764   2.635   1.583 -0.3586 -1.0671  0.8395
 6523TIP3   OH219574   0.724   2.813   2.063 -0.1542 -0.2821  0.2511
 6523TIP3    H119575   0.719   2.905   2.039  1.0207 -0.0289  0.9360
 6523TIP3    H219576   0.634   2.790   2.089 -0.0581  1.2387  2.0872
 6524TIP3   OH219577   3.641   5.777   3.639  0.7012  0.0661 -0.6762
 6524TIP3    H119578   3.602   5.764   3.553  0.4021  0.3889 -0.5925
 6524TIP3    H219579   3.648   5.873   3.648  0.7201  0.0352 -0.3391
 6525TIP3   OH219580   0.780   3.169   3.105 -0.0856  0.3545  0.0885
 6525TIP3    H119581   0.857   3.195   3.155 -0.8540 -0.8541  1.9817
 6525TIP3    H219582   0.798   3.078   3.080 -1.3478 -0.3403  1.5645
 6526TIP3   OH219583   3.856   3.864   0.747 -0.1223 -0.3726 -0.5036
 6526TIP3    H119584   3.872   3.812   0.826 -2.8816 -0.4254  0.1058
 6526TIP3    H219585   3.841   3.953   0.779  0.8413  0.0521 -1.1948
 6527TIP3   OH219586   2.286   5.353   1.206  0.2064 -0.3110 -0.6163
 6527TIP3    H119587   2.336   5.430   1.232  0.2441 -0.2221 -0.9424
 6527TIP3    H219588   2.233   5.383   1.132  0.3432 -0.6393 -0.8502
 6528TIP3   OH219589   1.858   1.317   4.542 -0.5010  0.3653  0.2214
 6528TIP3    H119590   1.810   1.287   4.620 -2.6205  3.4077  0.2677
 6528TIP3    H219591   1.793   1.368   4.493  1.6012  1.0537 -2.0048
 6529TIP3   OH219592   3.233   4.754   4.200 -0.0301 -0.1357  0.1576
 6529TIP3    H119593   3.288   4.700   4.258  1.9505  0.5187 -1.0212
 6529TIP3    H219594   3.287   4.769   4.123 -2.8203 -1.6051 -2.3131
 6530TIP3   OH219595   4.480   3.091   1.143  0.3171  0.2160  0.5342
 6530TIP3    H119596   4.540   3.076   1.216 -0.2460 -0.1615  0.9247
 6530TIP3    H219597   4.514   3.169   1.100  0.9831  0.1111  0.8615
 6531TIP3   OH219598   4.169   5.653   0.419 -0.0878 -0.2867  0.0464
 6531TIP3    H119599   4.082   5.616   0.433 -0.4923  0.0432 -1.4186
 6531TIP3    H219600   4.179   5.656   0.324  1.6148 -0.5082  0.1787
 6532TIP3   OH219601   5.031   2.728   2.932  0.0047  0.7769  0.1298
 6532TIP3    H119602   5.011   2.729   2.838  1.1336 -0.1682 -0.1431
 6532TIP3    H219603   5.069   2.814   2.949  3.7047 -0.3883 -1.2517
 6533TIP3   OH219604   6.200   5.365   1.324  0.4011  0.2611  0.0865
 6533TIP3    H119605   6.199   5.284   1.377  0.8048  0.7600  0.8802
 6533TIP3    H219606   6.116   5.407   1.343  0.7304  0.6604  0.6992
 6534TIP3   OH219607   4.073   1.912   2.210  0.1412  0.1240  0.3989
 6534TIP3    H119608   4.088   1.925   2.116  0.1799 -1.0574  0.2336
 6534TIP3    H219609   4.159   1.919   2.249  0.1696  0.2854  0.3106
 6535TIP3   OH219610   4.998   0.006   4.508 -0.1480  0.1891  0.3566
 6535TIP3    H119611   4.972   0.089   4.549  2.3225  1.3700 -0.2343
 6535TIP3    H219612   5.091   0.018   4.488 -0.1915 -1.9964 -1.5544
 6536TIP3   OH219613   3.153   3.912   4.524 -0.1483 -0.3010  0.4048
 6536TIP3    H119614   3.075   3.933   4.473  1.4745  0.9437 -1.7320
 6536TIP3    H219615   3.161   3.817   4.519 -0.7829 -0.3148 -0.5169
 6537TIP3   OH219616   0.847   1.582   2.870  0.5192  0.1592  0.0128
 6537TIP3    H119617   0.886   1.656   2.917 -0.9313  1.1025 -0.1905
 6537TIP3    H219618   0.807   1.528   2.938  0.6610  0.1164  0.0643
 6538TIP3   OH219619   1.107   4.610   2.260  0.4674 -0.1389 -0.3521
 6538TIP3    H119620   1.166   4.680   2.232 -0.4452  0.6165 -0.4418
 6538TIP3    H219621   1.164   4.545   2.302  1.0339  1.9661  2.4162
 6539TIP3   OH219622   6.225   4.753   4.643  0.1409  0.6210 -0.5631
 6539TIP3    H119623   6.220   4.662   4.671 -1.7586  0.5880 -0.9237
 6539TIP3    H219624   6.151   4.796   4.686  1.3118  2.1414  0.0332
 6540TIP3   OH219625   3.201   2.676   4.616 -0.2219 -0.2554 -0.1235
 6540TIP3    H119626   3.123   2.622   4.627  0.2724 -0.8882  0.3568
 6540TIP3    H219627   3.273   2.613   4.607  0.2163  0.3108 -0.7681
 6541TIP3   OH219628   4.545   5.378   0.393 -0.3615 -0.2296  0.1827
 6541TIP3    H119629   4.553   5.450   0.455  2.8830  1.7730 -2.2200
 6541TIP3    H219630   4.459   5.390   0.353 -1.5602 -0.2351  2.5631
 6542TIP3   OH219631   5.306   3.616   2.197  0.2742  0.2934 -0.7505
 6542TIP3    H119632   5.220   3.625   2.154  0.7622  1.1371 -1.5927
 6542TIP3    H219633   5.358   3.688   2.161  1.4923 -0.4859 -0.6008
 6543TIP3   OH219634   5.337   1.451   4.463 -0.3472 -0.2396  0.2628
 6543TIP3    H119635   5.425   1.487   4.450 -0.5081 -0.4217 -1.5049
 6543TIP3    H219636   5.278   1.524   4.445 -0.5955 -0.5804 -0.3341
 6544TIP3   OH219637   3.127   5.859   0.587 -0.0812 -0.1906  0.0323
 6544TIP3    H119638   3.099   5.845   0.678  0.0923  1.9164  0.4567
 6544TIP3    H219639   3.053   5.828   0.535 -0.6752 -0.3310  0.9253
 6545TIP3   OH219640   5.667   3.621   2.545 -0.3035 -0.4108 -0.1051
 6545TIP3    H119641   5.663   3.686   2.475 -1.5878  0.4007  0.6730
 6545TIP3    H219642   5.603   3.555   2.520  0.3247 -0.9042 -0.4294
 6546TIP3   OH219643   1.769   0.078   3.140  0.2630  0.0364  0.1661
 6546TIP3    H119644   1.749   0.084   3.233  0.6101 -0.2788  0.2671
 6546TIP3    H219645   1.854   0.034   3.137  0.9056  1.2490 -0.2441
 6547TIP3   OH219646   5.828   6.016   1.831 -0.2658  0.1029  0.6051
 6547TIP3    H119647   5.785   5.944   1.876 -0.1442  0.4198  1.2329
 6547TIP3    H219648   5.900   5.974   1.783  1.3411  0.0661  2.9003
 6548TIP3   OH219649   0.778   2.737   3.499 -0.0891  0.0736  0.4825
 6548TIP3    H119650   0.741   2.672   3.439 -0.1382  1.1577 -0.6958
 6548TIP3    H219651   0.704   2.767   3.550 -0.2021 -0.2345  0.5056
 6549TIP3   OH219652   6.226   2.288   2.917  0.0007 -0.2627 -0.3144
 6549TIP3    H119653   6.269   2.372   2.902 -1.0889  0.2592 -0.5829
 6549TIP3    H219654   6.176   2.301   2.999  0.9640 -1.1128  0.4298
 6550TIP3   OH219655   1.919   0.503   2.080  0.3059  0.1361  0.5608
 6550TIP3    H119656   1.978   0.573   2.051  2.2121 -1.2471  0.9397
 6550TIP3    H219657   1.977   0.438   2.120 -1.2725 -2.0875 -0.5805
 6551TIP3   OH219658   5.193   3.586   0.326 -0.2038  0.1038  0.7286
 6551TIP3    H119659   5.125   3.559   0.387 -0.6257 -1.3335 -0.3042
 6551TIP3    H219660   5.268   3.608   0.381 -1.1486  0.6478  1.8248
 6552TIP3   OH219661   5.087   0.449   0.596 -0.9220  0.3074  0.4733
 6552TIP3    H119662   5.078   0.356   0.577  1.1466  0.0070  0.7304
 6552TIP3    H219663   5.020   0.466   0.663 -1.4088 -0.9613  0.3336
 6553TIP3   OH219664   2.783   2.306   3.131 -0.1837 -0.4859 -0.2519
 6553TIP3    H119665   2.813   2.218   3.111 -1.6856 -0.6749 -1.8771
 6553TIP3    H219666   2.860   2.350   3.167  1.4884 -1.5342 -2.3203
 6554TIP3   OH219667   3.067   3.725   4.273 -0.5097  0.1859  0.7523
 6554TIP3    H119668   3.058   3.636   4.308  1.6665 -0.0924  0.7269
 6554TIP3    H219669   3.140   3.719   4.211 -1.4554  1.6302 -0.5932
 6555TIP3   OH219670   0.529   3.088   0.776 -0.4535  0.3074 -0.1506
 6555TIP3    H119671   0.563   3.002   0.750  0.2275 -0.2326  2.2206
 6555TIP3    H219672   0.606   3.134   0.812 -0.8644  1.8269 -1.1291
 6556TIP3   OH219673   4.972   1.253   2.327 -0.1309  0.4627 -0.3456
 6556TIP3    H119674   4.911   1.183   2.353  0.5897  0.0781  0.3562
 6556TIP3    H219675   4.998   1.294   2.409 -0.6202  1.6477 -0.7560
 6557TIP3   OH219676   3.409   3.572   1.597  0.0145 -0.6600 -0.4111
 6557TIP3    H119677   3.448   3.623   1.669 -0.5543 -0.1316 -0.4720
 6557TIP3    H219678   3.385   3.489   1.638 -0.5881 -0.2509  0.0947
 6558TIP3   OH219679   1.337   5.777   0.893 -0.2032  0.2403 -0.3705
 6558TIP3    H119680   1.431   5.791   0.910  0.4921 -2.0794 -1.8195
 6558TIP3    H219681   1.323   5.813   0.806 -0.1704 -1.0421 -0.9318
 6559TIP3   OH219682   5.808   2.703   4.815  0.6710  0.4520  0.0518
 6559TIP3    H119683   5.841   2.755   4.741  3.7959  0.8182  1.5500
 6559TIP3    H219684   5.805   2.765   4.888  0.2461 -0.5250  0.8889
 6560TIP3   OH219685   2.450   1.766   0.445 -0.4623 -0.0440 -0.0950
 6560TIP3    H119686   2.412   1.681   0.424 -0.2247  0.1064 -1.1904
 6560TIP3    H219687   2.463   1.808   0.360  2.4589 -0.2356  0.1644
 6561TIP3   OH219688   4.889   4.900   3.223  0.6715 -0.3391 -0.1524
 6561TIP3    H119689   4.977   4.866   3.203  0.3073 -1.5176  0.1661
 6561TIP3    H219690   4.870   4.867   3.311 -0.6016 -1.2002 -0.7157
 6562TIP3   OH219691   3.885   3.362   3.095  0.4362 -0.0697 -0.1580
 6562TIP3    H119692   3.815   3.394   3.038  0.7661  0.9235 -0.0355
 6562TIP3    H219693   3.915   3.441   3.141 -0.1677 -0.8942  1.7754
 6563TIP3   OH219694   4.979   1.604   0.115  0.8046  0.2457 -0.5063
 6563TIP3    H119695   4.986   1.549   0.036  0.5197 -1.1609  0.4239
 6563TIP3    H219696   5.043   1.567   0.175 -1.5666 -1.1668  1.3267
 6564TIP3   OH219697   5.476  -0.005   0.484  0.2500 -0.4890  0.4678
 6564TIP3    H119698   5.522   0.045   0.551  0.5236  0.0117 -0.0871
 6564TIP3    H219699   5.397  -0.037   0.527  0.0657  0.4309  0.8237
 6565TIP3   OH219700   6.274   0.373   0.881 -0.0117  0.7386 -0.1568
 6565TIP3    H119701   6.328   0.348   0.956 -1.1766  1.7495  1.0743
 6565TIP3    H219702   6.333   0.422   0.825  0.5190  1.3215  0.8737
 6566TIP3   OH219703   2.178   3.175   4.290  0.1374  0.0460  0.2351
 6566TIP3    H119704   2.270   3.192   4.267 -0.0237  0.0702 -0.4038
 6566TIP3    H219705   2.140   3.137   4.211 -0.2945 -0.3892  0.6408
 6567TIP3   OH219706   4.305   0.620   4.301  0.1589 -0.7446 -0.0956
 6567TIP3    H119707   4.272   0.710   4.308 -1.6497 -1.3835 -0.0310
 6567TIP3    H219708   4.398   0.627   4.325 -0.0022  1.0585  0.1491
 6568TIP3   OH219709   1.453   1.883   1.245 -0.1678 -0.7025 -0.2625
 6568TIP3    H119710   1.386   1.921   1.301  0.1305 -1.9457  1.0022
 6568TIP3    H219711   1.464   1.794   1.278  1.8466 -0.6438 -0.6421
 6569TIP3   OH219712   5.636   5.879   1.326 -0.5807 -0.3228  0.2733
 6569TIP3    H119713   5.690   5.802   1.343 -0.2735 -0.4131 -1.0671
 6569TIP3    H219714   5.560   5.867   1.383 -0.7841 -1.8830 -0.2766
 6570TIP3   OH219715   2.984   5.107   1.131  0.1079  0.1284  0.0896
 6570TIP3    H119716   3.013   5.191   1.094 -1.8614 -0.1964 -2.4850
 6570TIP3    H219717   2.900   5.127   1.173  0.4660 -0.2580  1.0112
 6571TIP3   OH219718   3.197   5.647   2.111  0.2133 -0.4061  0.1932
 6571TIP3    H119719   3.258   5.713   2.145  0.4900 -0.3143 -0.4590
 6571TIP3    H219720   3.220   5.567   2.158  0.2017 -0.1477  0.6399
 6572TIP3   OH219721   6.158   3.426   4.762 -0.2519  0.2485  0.1795
 6572TIP3    H119722   6.197   3.488   4.700 -0.1831  1.7428  1.6692
 6572TIP3    H219723   6.069   3.457   4.775 -0.4119 -0.3190  0.4817
 6573TIP3   OH219724   0.709   2.557   0.542  0.2971 -0.9065  0.3225
 6573TIP3    H119725   0.679   2.626   0.483 -0.0881  1.0125  2.6277
 6573TIP3    H219726   0.805   2.556   0.532  0.3044 -0.0174  0.2538
 6574TIP3   OH219727   1.387   2.096   2.924 -0.5038 -0.1543  0.2656
 6574TIP3    H119728   1.413   2.004   2.929  0.3841  0.1321  1.3069
 6574TIP3    H219729   1.312   2.096   2.865  0.9946 -1.2121 -1.7757
 6575TIP3   OH219730   5.012   2.221   1.208 -0.0942  0.0910 -0.1638
 6575TIP3    H119731   5.018   2.303   1.158  0.3939  0.2646  0.1674
 6575TIP3    H219732   4.941   2.172   1.167  0.3469  0.2004 -1.0702
 6576TIP3   OH219733   3.091   1.831   2.690  0.7631  0.4093  0.3963
 6576TIP3    H119734   3.110   1.841   2.597  0.2873  1.6101  0.3996
 6576TIP3    H219735   3.177   1.829   2.732  0.9690  1.4158  0.0545
 6577TIP3   OH219736   5.367   0.380   4.486  0.0840  0.3628 -0.6527
 6577TIP3    H119737   5.448   0.343   4.522 -0.4691 -0.4743 -0.2288
 6577TIP3    H219738   5.298   0.347   4.544 -0.7270 -0.2264 -1.9050
 6578TIP3   OH219739   3.002   0.696   0.600 -0.3850  0.5345  0.1036
 6578TIP3    H119740   2.978   0.604   0.593  0.5104  0.0870  2.2589
 6578TIP3    H219741   2.935   0.734   0.658 -0.5025  1.1744 -0.4273
 6579TIP3   OH219742   2.568   5.315   3.562 -0.4259 -0.0878 -0.1476
 6579TIP3    H119743   2.478   5.339   3.585 -0.8799 -3.1011  1.8308
 6579TIP3    H219744   2.559   5.259   3.486 -0.3480 -1.0214  0.5150
 6580TIP3   OH219745   1.080   4.429   0.415 -0.6284 -0.5467  0.0300
 6580TIP3    H119746   1.124   4.347   0.438 -3.0179 -1.4344  1.8305
 6580TIP3    H219747   0.990   4.403   0.396 -1.0608  1.4991 -0.9802
 6581TIP3   OH219748   5.751   4.194   0.059 -0.0664  0.8500 -0.0332
 6581TIP3    H119749   5.835   4.149   0.063  0.3469  1.6460  0.3784
 6581TIP3    H219750   5.704   4.165   0.137 -0.8903 -0.9328 -1.1197
 6582TIP3   OH219751   6.054   1.055   3.482  0.0607 -0.4938 -0.2801
 6582TIP3    H119752   6.110   1.111   3.427 -1.4956  0.0849 -1.3334
 6582TIP3    H219753   5.990   1.115   3.519  0.2916 -1.1044  1.1710
 6583TIP3   OH219754   2.934   2.509   4.854 -0.3326 -0.2192 -0.0881
 6583TIP3    H119755   2.937   2.413   4.854 -0.4663 -0.2236 -0.2418
 6583TIP3    H219756   3.010   2.535   4.906  0.0493 -0.4010 -0.5423
 6584TIP3   OH219757   4.210   3.114   4.832 -0.2289 -0.0758 -0.6455
 6584TIP3    H119758   4.153   3.161   4.892  0.6930 -1.2894  1.2960
 6584TIP3    H219759   4.296   3.114   4.875  0.1003 -2.3581 -1.1437
 6585TIP3   OH219760   0.869   4.311   5.085  0.4920  0.1142 -0.1850
 6585TIP3    H119761   0.962   4.321   5.104  0.6484  0.8594 -1.2850
 6585TIP3    H219762   0.855   4.359   5.003 -1.5179  2.8915  1.5988
 6586TIP3   OH219763   1.876   0.202   1.269  0.0842 -0.2867  0.0027
 6586TIP3    H119764   1.949   0.263   1.282 -2.0391  2.1341  1.6897
 6586TIP3    H219765   1.850   0.177   1.358  0.0068 -2.6615 -0.6234
 6587TIP3   OH219766   5.248   3.790   0.914  0.3095  0.3097  0.2273
 6587TIP3    H119767   5.330   3.806   0.962  0.2869 -0.7673  0.6448
 6587TIP3    H219768   5.204   3.722   0.965 -0.3604  0.1355 -0.5768
 6588TIP3   OH219769   3.590   1.281   1.768 -0.1426 -0.0148 -0.1778
 6588TIP3    H119770   3.495   1.293   1.776 -0.0297  1.1628 -0.3956
 6588TIP3    H219771   3.612   1.218   1.837 -0.7983  1.2553  1.2465
 6589TIP3   OH219772   3.006   2.449   3.274 -0.2284 -0.1589 -0.2926
 6589TIP3    H119773   3.081   2.394   3.298  0.4968  0.9811  0.1418
 6589TIP3    H219774   2.972   2.482   3.357 -1.1735 -0.6114 -0.4955
 6590TIP3   OH219775   0.386   0.503   3.943 -0.6152 -0.7202  0.4086
 6590TIP3    H119776   0.383   0.591   3.981 -0.8495 -0.1631 -0.8659
 6590TIP3    H219777   0.369   0.445   4.018 -0.5789  0.3096  1.2469
 6591TIP3   OH219778   3.519   3.533   4.891 -0.3669  0.5540 -0.2191
 6591TIP3    H119779   3.452   3.596   4.866 -0.2511  0.6280 -0.3434
 6591TIP3    H219780   3.495   3.507   4.980 -1.3579 -0.4843 -0.7634
 6592TIP3   OH219781   1.024   3.151   2.315 -0.2045 -0.1690  0.0496
 6592TIP3    H119782   0.967   3.180   2.244 -0.1414 -0.9870 -0.3463
 6592TIP3    H219783   1.055   3.232   2.356 -0.4121  0.3036 -0.7164
 6593TIP3   OH219784   3.438   0.769   4.302 -0.2784  0.1642  0.3393
 6593TIP3    H119785   3.441   0.717   4.383  2.0513 -0.2214  0.0952
 6593TIP3    H219786   3.486   0.849   4.324 -0.6229  0.5604 -0.3439
 6594TIP3   OH219787   2.971   0.334   1.080  0.2323 -0.4342 -0.6838
 6594TIP3    H119788   2.979   0.429   1.077  0.2157 -0.3704  0.7503
 6594TIP3    H219789   3.048   0.305   1.129 -0.1958 -1.0993 -0.3955
 6595TIP3   OH219790   2.502   0.184   0.802 -0.1918 -0.1630 -0.5095
 6595TIP3    H119791   2.493   0.185   0.898  1.7786  0.1454 -0.2873
 6595TIP3    H219792   2.431   0.127   0.773 -0.8558 -0.2490  1.1289
 6596TIP3   OH219793   5.785   0.915   2.718 -1.1417 -0.1754  0.0190
 6596TIP3    H119794   5.828   0.954   2.642 -0.4479 -0.1601  0.4149
 6596TIP3    H219795   5.713   0.975   2.738 -0.0802  0.9232  0.6308
 6597TIP3   OH219796   5.541   2.457   3.046 -0.1463  0.5656  0.1528
 6597TIP3    H119797   5.463   2.420   3.006 -0.8637  2.8094 -0.6796
 6597TIP3    H219798   5.540   2.549   3.020  1.7730  1.0936  1.6990
 6598TIP3   OH219799   2.713   3.075   3.590  0.0792  0.1971 -0.3082
 6598TIP3    H119800   2.780   3.129   3.547 -0.3146  0.9075 -0.0546
 6598TIP3    H219801   2.630   3.107   3.554 -0.3053  1.2108  1.3614
 6599TIP3   OH219802   5.504   2.205   5.017  0.2576  0.2296  0.4639
 6599TIP3    H119803   5.411   2.199   4.992  0.3874  0.3548 -0.0621
 6599TIP3    H219804   5.547   2.137   4.966  0.1135 -1.5210  2.5161
 6600TIP3   OH219805   1.434   0.980   2.347  0.3272  0.3925  0.1334
 6600TIP3    H119806   1.347   0.992   2.386 -0.0427  2.0222 -1.1036
 6600TIP3    H219807   1.494   1.018   2.411 -0.2600  2.8492 -0.6668
 6601TIP3   OH219808   2.477   0.893   4.683 -0.6919  0.5550  0.0415
 6601TIP3    H119809   2.413   0.822   4.676 -0.4775  0.4205 -0.6115
 6601TIP3    H219810   2.508   0.888   4.774 -1.3496  0.4046  0.2641
 6602TIP3   OH219811   3.720   5.426   2.963  0.5798 -0.5872  0.2072
 6602TIP3    H119812   3.791   5.372   2.996  0.8032  0.2783  1.1958
 6602TIP3    H219813   3.752   5.516   2.970  0.0297 -0.2738 -0.9301
 6603TIP3   OH219814   3.232   2.565   1.492  0.0455 -0.0587 -0.1201
 6603TIP3    H119815   3.283   2.644   1.471  0.2455 -0.4951 -1.3590
 6603TIP3    H219816   3.152   2.599   1.534  0.7696  0.7040  0.7077
 6604TIP3   OH219817   2.477   3.540   2.008 -0.3599 -0.0602 -0.4248
 6604TIP3    H119818   2.507   3.450   2.022  0.3277  0.4639  1.7516
 6604TIP3    H219819   2.546   3.581   1.956  0.4632 -0.1805  0.5445
 6605TIP3   OH219820   4.534   4.133   4.494 -0.3590 -0.1584 -0.0356
 6605TIP3    H119821   4.516   4.179   4.411  0.1081 -0.0824 -0.0984
 6605TIP3    H219822   4.628   4.119   4.493 -0.2888  0.2244  0.6838
 6606TIP3   OH219823   4.163   2.512   2.165  0.2691  0.0562 -0.1065
 6606TIP3    H119824   4.178   2.469   2.249  0.9922  0.0547 -0.2253
 6606TIP3    H219825   4.182   2.444   2.100 -1.3379 -0.2650 -0.2760
 6607TIP3   OH219826   5.263   1.842   3.002  0.0006 -0.9217  0.1721
 6607TIP3    H119827   5.274   1.747   3.006 -0.4567 -1.0479 -1.0972
 6607TIP3    H219828   5.291   1.873   3.088 -1.3974 -2.3459  1.1924
 6608TIP3   OH219829   2.246   2.212   0.807  0.2415  0.5253 -0.4725
 6608TIP3    H119830   2.251   2.237   0.715  1.9019  1.3485 -0.1923
 6608TIP3    H219831   2.165   2.254   0.838 -0.1793  0.4896 -1.4661
 6609TIP3   OH219832   1.366   0.089   1.116  0.3339  0.1506 -0.6165
 6609TIP3    H119833   1.371   0.020   1.182 -1.9590  0.2674 -0.2256
 6609TIP3    H219834   1.398   0.167   1.161 -0.5390  0.0770  0.1820
 6610TIP3   OH219835   0.644   1.406   0.763 -0.5801 -0.1096  0.1648
 6610TIP3    H119836   0.614   1.348   0.693 -0.0005  0.0625 -0.2330
 6610TIP3    H219837   0.633   1.355   0.843 -0.2737 -0.6882 -0.1574
 6611TIP3   OH219838   2.736   1.222   4.069 -0.3602 -0.2090 -0.0332
 6611TIP3    H119839   2.728   1.304   4.118 -2.6005  0.6860 -1.6885
 6611TIP3    H219840   2.659   1.172   4.095  0.4378 -1.3438  0.1712
 6612TIP3   OH219841   0.374   3.637   3.096 -0.7948  0.4630 -0.4173
 6612TIP3    H119842   0.308   3.697   3.061 -1.5417 -0.7916 -1.2442
 6612TIP3    H219843   0.449   3.648   3.037 -1.1067  0.2514 -0.8633
 6613TIP3   OH219844   6.352   1.837   0.465 -0.0753 -0.2942 -0.0980
 6613TIP3    H119845   6.317   1.895   0.532  1.2824  0.2559  0.1694
 6613TIP3    H219846   6.299   1.855   0.387 -1.3035 -0.5481  0.6588
 6614TIP3   OH219847   2.201   4.793   1.026 -0.7415  0.4999  0.7942
 6614TIP3    H119848   2.154   4.727   0.976 -1.4617  1.2827  0.4207
 6614TIP3    H219849   2.191   4.874   0.976  0.1412  0.9006  1.2330
 6615TIP3   OH219850   3.443   1.509   0.033 -0.2873 -0.3293 -0.4248
 6615TIP3    H119851   3.521   1.481  -0.014 -1.5031 -1.1250 -2.0734
 6615TIP3    H219852   3.455   1.475   0.122  0.8264 -1.2059 -0.8862
 6616TIP3   OH219853   1.345   2.263   3.448  0.3551 -0.3041 -0.2185
 6616TIP3    H119854   1.416   2.299   3.395 -0.5969 -1.1482 -2.1663
 6616TIP3    H219855   1.385   2.244   3.532  2.4160 -0.6160 -1.2036
 6617TIP3   OH219856   4.985   5.500   4.395  0.2879  0.1845 -0.2670
 6617TIP3    H119857   5.062   5.535   4.440 -0.0249  1.9881 -1.0693
 6617TIP3    H219858   5.014   5.484   4.306  0.0586 -0.3897 -0.2471
 6618TIP3   OH219859   4.643   3.204   1.394  0.1129  0.5195  0.3771
 6618TIP3    H119860   4.611   3.210   1.484 -0.3641 -2.4813  0.4860
 6618TIP3    H219861   4.723   3.152   1.400  0.0078  0.1699 -0.9421
 6619TIP3   OH219862   5.678   1.483   2.867 -0.1743  0.7827  0.0263
 6619TIP3    H119863   5.645   1.564   2.907  1.0442  1.1771  0.2802
 6619TIP3    H219864   5.755   1.460   2.919  1.0609  0.9343 -1.6406
 6620TIP3   OH219865   2.257   1.821   0.632  0.3046  0.3681 -0.5478
 6620TIP3    H119866   2.330   1.818   0.571  0.2930  0.0595 -0.5488
 6620TIP3    H219867   2.210   1.902   0.611  0.1133  0.0988 -1.1607
 6621TIP3   OH219868   1.554   0.821   4.314  0.5158 -0.2154  0.0009
 6621TIP3    H119869   1.622   0.810   4.247  0.9822  1.2446  0.2023
 6621TIP3    H219870   1.501   0.894   4.283 -0.9039 -1.2477 -0.0793
 6622TIP3   OH219871   2.463   4.559   1.412 -0.1275  0.5796 -0.3102
 6622TIP3    H119872   2.498   4.625   1.353 -1.0691 -0.3802 -1.9927
 6622TIP3    H219873   2.374   4.589   1.432 -0.0868  0.4979  0.0061
 6623TIP3   OH219874   5.512   0.313   2.803  0.1019 -0.1013 -0.0567
 6623TIP3    H119875   5.449   0.377   2.834 -1.4971 -0.5609 -2.1013
 6623TIP3    H219876   5.498   0.236   2.858 -1.2262 -0.2203 -0.5348
 6624TIP3   OH219877   2.801   0.787   2.677 -0.7090 -0.2998  0.0612
 6624TIP3    H119878   2.793   0.723   2.606 -2.2676 -0.2623  0.1856
 6624TIP3    H219879   2.779   0.871   2.637  0.2834  0.0217  0.1565
 6625TIP3   OH219880   3.756   1.838   4.024 -0.3744 -0.1132  0.0559
 6625TIP3    H119881   3.844   1.801   4.036 -0.6065 -0.0409  2.3878
 6625TIP3    H219882   3.771   1.932   4.016 -0.0246 -0.3186 -3.0941
 6626TIP3   OH219883   4.904   1.315   2.803  0.4604  0.0532 -0.1494
 6626TIP3    H119884   4.940   1.349   2.885  0.4957 -0.5627  0.0939
 6626TIP3    H219885   4.911   1.388   2.742  2.6227 -0.1785 -0.2585
 6627TIP3   OH219886   1.797   1.200   5.064  0.2305  0.7634 -0.0222
 6627TIP3    H119887   1.887   1.169   5.052  0.2587  0.3713  1.1190
 6627TIP3    H219888   1.803   1.265   5.134 -0.7101 -1.1575  1.9770
 6628TIP3   OH219889   4.832   1.724   4.586  0.4218 -0.2006 -0.1716
 6628TIP3    H119890   4.796   1.810   4.565 -0.8954 -0.9772 -1.2154
 6628TIP3    H219891   4.774   1.689   4.654  0.3566 -0.6602 -0.4553
 6629TIP3   OH219892   0.961   0.241   1.264  0.4553  0.0870  0.1065
 6629TIP3    H119893   0.922   0.313   1.314  1.4768  0.4361  0.4208
 6629TIP3    H219894   0.916   0.163   1.295  0.6443  0.3747  1.1217
 6630TIP3   OH219895   0.870   1.907   4.616  0.3099 -0.0361  0.0973
 6630TIP3    H119896   0.893   1.903   4.523  0.7820  0.9953  0.1610
 6630TIP3    H219897   0.775   1.901   4.618  0.2287  0.9278 -0.5167
 6631TIP3   OH219898   2.307   0.036   3.609 -0.0992  0.8927  0.2531
 6631TIP3    H119899   2.288   0.091   3.534  2.5075  0.2029 -1.0137
 6631TIP3    H219900   2.366   0.088   3.663  1.7583 -0.2532 -0.5658
 6632TIP3   OH219901   0.086   0.419   4.951  0.3445  0.2717  0.3903
 6632TIP3    H119902   0.131   0.371   5.021 -0.2553 -0.7887  0.0667
 6632TIP3    H219903   0.128   0.389   4.870 -0.9803 -0.8333  0.0689
 6633TIP3   OH219904   1.876   3.865   0.222 -0.5893  1.2371 -0.1740
 6633TIP3    H119905   1.865   3.770   0.225 -1.7969  1.3605  0.1107
 6633TIP3    H219906   1.911   3.883   0.135  0.6295  0.4589  0.1315
 6634TIP3   OH219907   1.004   2.747   5.136 -0.4689 -0.2217 -0.2086
 6634TIP3    H119908   0.935   2.748   5.202 -1.1930 -0.3863 -0.9521
 6634TIP3    H219909   0.960   2.722   5.055  0.5666 -0.9015 -0.5841
 6635TIP3   OH219910   0.918   5.498   4.452 -0.5629  0.0981  0.5253
 6635TIP3    H119911   1.002   5.455   4.471  0.0398  1.5635  1.3493
 6635TIP3    H219912   0.903   5.481   4.359  0.0676 -1.1470  0.6274
 6636TIP3   OH219913   2.755   5.318   1.311 -0.0970 -0.2954  0.2640
 6636TIP3    H119914   2.820   5.388   1.320 -0.6538  0.2567  0.0807
 6636TIP3    H219915   2.713   5.313   1.397 -0.0710 -0.3879  0.2713
 6637TIP3   OH219916   5.073   1.813   4.622  0.6601 -0.4005  0.2858
 6637TIP3    H119917   5.053   1.896   4.666  1.6248 -0.3158  0.6003
 6637TIP3    H219918   4.988   1.775   4.602  0.1590  1.4087 -1.2926
 6638TIP3   OH219919   0.977   3.091   3.709 -0.4408 -0.3928  0.1888
 6638TIP3    H119920   1.033   3.016   3.686 -0.7964 -1.3828  2.3783
 6638TIP3    H219921   0.918   3.058   3.775 -0.1366  2.0101  1.7789
 6639TIP3   OH219922   3.880   2.414   0.492 -0.2531  0.1671 -0.1493
 6639TIP3    H119923   3.859   2.439   0.402  2.8201  1.0849 -0.7220
 6639TIP3    H219924   3.950   2.350   0.483 -1.4802 -1.5308  1.6101
 6640TIP3   OH219925   1.321   1.326   4.129 -0.6170 -0.5785 -0.4423
 6640TIP3    H119926   1.333   1.243   4.175  1.1210  0.0168  0.2826
 6640TIP3    H219927   1.410   1.356   4.111 -1.1205  1.9124  0.7944
   6.34972   5.98658   5.18452   0.00000   0.00000  -2.11657   0.00000  -2.11657  -2.99329
