Title t= 387.00000 step= 193500
44463
    1GLY      N    1   2.708   3.151   4.170
    1GLY    HT1    2   2.807   3.119   4.169
    1GLY    HT2    3   2.685   3.207   4.254
    1GLY    HT3    4   2.686   3.210   4.088
    1GLY     CA    5   2.636   3.024   4.171
    1GLY    HA1    6   2.626   2.986   4.070
    1GLY    HA2    7   2.543   3.061   4.210
    1GLY      C    8   2.676   2.915   4.268
    1GLY      O    9   2.786   2.932   4.318
    2PRO      N   10   2.606   2.804   4.285
    2PRO     CD   11   2.468   2.793   4.234
    2PRO    HD1   12   2.466   2.785   4.123
    2PRO    HD2   13   2.398   2.874   4.265
    2PRO     CA   14   2.643   2.679   4.358
    2PRO     HA   15   2.632   2.700   4.463
    2PRO     CB   16   2.541   2.573   4.312
    2PRO    HB1   17   2.534   2.492   4.389
    2PRO    HB2   18   2.558   2.522   4.215
    2PRO     CG   19   2.412   2.660   4.304
    2PRO    HG1   20   2.331   2.609   4.248
    2PRO    HG2   21   2.375   2.695   4.403
    2PRO      C   22   2.782   2.644   4.335
    2PRO      O   23   2.827   2.638   4.220
    3GLY      N   24   2.853   2.610   4.444
    3GLY     HN   25   2.809   2.609   4.533
    3GLY     CA   26   2.994   2.581   4.446
    3GLY    HA1   27   3.020   2.562   4.550
    3GLY    HA2   28   3.047   2.669   4.413
    3GLY      C   29   3.038   2.466   4.358
    3GLY      O   30   2.955   2.386   4.302
    4ASP      N   31   3.174   2.461   4.329
    4ASP     HN   32   3.233   2.524   4.379
    4ASP     CA   33   3.252   2.359   4.260
    4ASP     HA   34   3.214   2.378   4.161
    4ASP     CB   35   3.396   2.375   4.271
    4ASP    HB1   36   3.450   2.303   4.205
    4ASP    HB2   37   3.429   2.357   4.375
    4ASP     CG   38   3.441   2.513   4.226
    4ASP    OD1   39   3.416   2.561   4.115
    4ASP    OD2   40   3.508   2.575   4.314
    4ASP      C   41   3.215   2.219   4.296
    4ASP      O   42   3.215   2.188   4.420
    5PRO      N   43   3.173   2.125   4.206
    5PRO     CD   44   3.097   2.167   4.088
    5PRO    HD1   45   3.169   2.169   4.004
    5PRO    HD2   46   3.051   2.268   4.095
    5PRO     CA   47   3.143   1.986   4.238
    5PRO     HA   48   3.073   1.987   4.320
    5PRO     CB   49   3.076   1.933   4.109
    5PRO    HB1   50   3.021   1.840   4.133
    5PRO    HB2   51   3.158   1.912   4.038
    5PRO     CG   52   3.001   2.052   4.055
    5PRO    HG1   53   2.982   2.045   3.945
    5PRO    HG2   54   2.900   2.071   4.097
    5PRO      C   55   3.253   1.906   4.309
    5PRO      O   56   3.354   1.880   4.250
    6GLY      N   57   3.227   1.863   4.429
    6GLY     HN   58   3.135   1.884   4.461
    6GLY     CA   59   3.314   1.784   4.516
    6GLY    HA1   60   3.278   1.808   4.615
    6GLY    HA2   61   3.416   1.817   4.503
    6GLY      C   62   3.312   1.633   4.492
    6GLY      O   63   3.280   1.591   4.381
    7PRO      N   64   3.350   1.560   4.599
    7PRO     CD   65   3.417   1.614   4.717
    7PRO    HD1   66   3.350   1.681   4.776
    7PRO    HD2   67   3.507   1.670   4.682
    7PRO     CA   68   3.332   1.414   4.607
    7PRO     HA   69   3.400   1.372   4.534
    7PRO     CB   70   3.380   1.380   4.753
    7PRO    HB1   71   3.438   1.285   4.755
    7PRO    HB2   72   3.297   1.381   4.826
    7PRO     CG   73   3.479   1.492   4.798
    7PRO    HG1   74   3.475   1.522   4.905
    7PRO    HG2   75   3.582   1.464   4.769
    7PRO      C   76   3.192   1.358   4.564
    7PRO      O   77   3.087   1.410   4.601
    8GLY      N   78   3.189   1.248   4.490
    8GLY     HN   79   3.276   1.212   4.460
    8GLY     CA   80   3.067   1.193   4.442
    8GLY    HA1   81   2.986   1.240   4.495
    8GLY    HA2   82   3.078   1.087   4.459
    8GLY      C   83   3.042   1.220   4.297
    8GLY      O   84   3.096   1.312   4.232
    9ASP      N   85   2.950   1.141   4.243
    9ASP     HN   86   2.909   1.062   4.288
    9ASP     CA   87   2.910   1.140   4.103
    9ASP     HA   88   3.001   1.118   4.049
    9ASP     CB   89   2.813   1.024   4.078
    9ASP    HB1   90   2.763   1.036   3.979
    9ASP    HB2   91   2.725   1.024   4.147
    9ASP     CG   92   2.886   0.891   4.064
    9ASP    OD1   93   2.849   0.792   4.126
    9ASP    OD2   94   2.987   0.884   3.992
    9ASP      C   95   2.851   1.276   4.049
    9ASP      O   96   2.812   1.361   4.128
   10PRO      N   97   2.857   1.309   3.916
   10PRO     CD   98   2.913   1.222   3.809
   10PRO    HD1   99   2.841   1.152   3.764
   10PRO    HD2  100   3.002   1.160   3.836
   10PRO     CA  101   2.806   1.428   3.856
   10PRO     HA  102   2.853   1.512   3.904
   10PRO     CB  103   2.837   1.418   3.710
   10PRO    HB1  104   2.861   1.514   3.660
   10PRO    HB2  105   2.751   1.371   3.657
   10PRO     CG  106   2.955   1.325   3.699
   10PRO    HG1  107   2.953   1.281   3.597
   10PRO    HG2  108   3.041   1.389   3.728
   10PRO      C  109   2.653   1.451   3.886
   10PRO      O  110   2.582   1.350   3.907
   11GLY      N  111   2.603   1.579   3.885
   11GLY     HN  112   2.670   1.650   3.864
   11GLY     CA  113   2.464   1.621   3.909
   11GLY    HA1  114   2.405   1.555   3.846
   11GLY    HA2  115   2.467   1.725   3.883
   11GLY      C  116   2.407   1.610   4.051
   11GLY      O  117   2.483   1.599   4.146
   12PRO      N  118   2.273   1.614   4.062
   12PRO     CD  119   2.184   1.671   3.954
   12PRO    HD1  120   2.168   1.606   3.866
   12PRO    HD2  121   2.219   1.768   3.910
   12PRO     CA  122   2.212   1.612   4.195
   12PRO     HA  123   2.254   1.691   4.255
   12PRO     CB  124   2.065   1.614   4.155
   12PRO    HB1  125   2.003   1.662   4.234
   12PRO    HB2  126   2.023   1.511   4.154
   12PRO     CG  127   2.055   1.700   4.025
   12PRO    HG1  128   1.964   1.664   3.973
   12PRO    HG2  129   2.050   1.809   4.048
   12PRO      C  130   2.242   1.478   4.270
   12PRO      O  131   2.250   1.376   4.205
   13GLY      N  132   2.260   1.482   4.398
   13GLY     HN  133   2.250   1.569   4.445
   13GLY     CA  134   2.296   1.371   4.478
   13GLY    HA1  135   2.348   1.410   4.564
   13GLY    HA2  136   2.354   1.305   4.414
   13GLY      C  137   2.187   1.297   4.539
   13GLY      O  138   2.064   1.326   4.513
   14ASP      N  139   2.222   1.181   4.610
   14ASP     HN  140   2.317   1.158   4.630
   14ASP     CA  141   2.122   1.090   4.670
   14ASP     HA  142   2.042   1.076   4.599
   14ASP     CB  143   2.193   0.965   4.683
   14ASP    HB1  144   2.152   0.893   4.757
   14ASP    HB2  145   2.299   0.987   4.708
   14ASP     CG  146   2.201   0.869   4.561
   14ASP    OD1  147   2.131   0.891   4.458
   14ASP    OD2  148   2.262   0.759   4.567
   14ASP      C  149   2.065   1.140   4.801
   14ASP      O  150   2.133   1.215   4.874
   15PRO      N  151   1.941   1.103   4.845
   15PRO     CD  152   1.848   1.027   4.757
   15PRO    HD1  153   1.894   0.940   4.705
   15PRO    HD2  154   1.812   1.100   4.682
   15PRO     CA  155   1.884   1.142   4.973
   15PRO     HA  156   1.879   1.250   4.984
   15PRO     CB  157   1.737   1.104   4.952
   15PRO    HB1  158   1.688   1.188   4.900
   15PRO    HB2  159   1.674   1.085   5.042
   15PRO     CG  160   1.737   0.987   4.857
   15PRO    HG1  161   1.789   0.904   4.910
   15PRO    HG2  162   1.649   0.957   4.796
   15PRO      C  163   1.943   1.074   5.096
   15PRO    OT1  164   2.028   0.986   5.083
   15PRO    OT2  165   1.901   1.106   5.211
   16LIT    LIT  166   2.064   1.032   5.288
   17LIT    LIT  167   2.546   1.580   5.147
   18LIT    LIT  168   3.305   6.854   1.361
   19LIT    LIT  169   5.890   5.320   2.480
   20LIT    LIT  170   2.188   5.725   2.689
   21LIT    LIT  171   0.550   2.750   2.989
   22LIT    LIT  172   0.825   1.800   4.272
   23LIT    LIT  173   1.673   2.192   2.208
   24LIT    LIT  174   2.449   6.080   0.421
   25LIT    LIT  175   5.782   0.653   3.629
   26LIT    LIT  176   6.912   2.706   3.452
   27LIT    LIT  177   2.165   4.247   6.124
   28LIT    LIT  178   4.786   2.150   5.803
   29LIT    LIT  179   1.650   6.382   1.170
   30LIT    LIT  180   7.727   7.056   6.704
   31LIT    LIT  181   7.242   5.567   5.996
   32LIT    LIT  182   4.506   4.053   0.342
   33LIT    LIT  183   7.388   3.038   1.433
   34LIT    LIT  184   3.874   5.961   2.429
   35LIT    LIT  185   6.094   0.743   5.933
   36LIT    LIT  186   1.450   7.587   4.279
   37LIT    LIT  187   1.406   5.807   0.218
   38LIT    LIT  188   4.100   7.507   4.458
   39LIT    LIT  189   0.190   7.589   3.969
   40LIT    LIT  190   0.989   0.819   3.764
   41LIT    LIT  191   5.028   0.066   3.737
   42LIT    LIT  192   1.535   5.662   6.533
   43LIT    LIT  193   3.966   2.193   0.513
   44LIT    LIT  194   7.321   0.559   6.010
   45LIT    LIT  195   7.440   6.434   2.565
   46LIT    LIT  196   8.199   5.939   0.595
   47LIT    LIT  197   1.886   4.895   2.279
   48LIT    LIT  198   7.858   1.244   3.057
   49LIT    LIT  199   7.076   7.735   6.135
   50LIT    LIT  200   8.169   0.852   4.653
   51LIT    LIT  201   2.640   0.287   3.120
   52LIT    LIT  202   3.724   2.741   6.418
   53LIT    LIT  203   0.939   4.152   0.754
   54LIT    LIT  204   0.149   3.599   2.373
   55LIT    LIT  205   5.560   7.390   3.261
   56LIT    LIT  206   7.650   1.120   2.166
   57LIT    LIT  207   6.350   5.791   0.691
   58LIT    LIT  208   2.221   0.708   4.377
   59LIT    LIT  209   0.623   5.433   4.634
   60LIT    LIT  210   3.023   4.151   3.949
   61CLA    CLA  211   8.303   5.456   3.597
   62CLA    CLA  212   1.344   5.255   4.662
   63CLA    CLA  213   0.010   2.043   4.396
   64CLA    CLA  214   5.889   2.391   0.071
   65CLA    CLA  215   8.286   0.835   1.789
   66CLA    CLA  216   0.699   1.657   3.798
   67CLA    CLA  217   7.044   6.974   5.370
   68CLA    CLA  218   3.162   7.638   3.659
   69CLA    CLA  219   2.384   2.127   5.512
   70CLA    CLA  220   5.011   5.674   5.652
   71CLA    CLA  221   8.102   5.069   6.466
   72CLA    CLA  222   3.994   4.699   1.466
   73CLA    CLA  223   0.507   3.000   2.155
   74CLA    CLA  224   0.797   5.303   4.237
   75CLA    CLA  225   5.823   0.012   4.653
   76CLA    CLA  226   4.280   1.475   1.358
   77CLA    CLA  227   2.520   5.769   4.295
   78CLA    CLA  228   4.688   5.501   1.624
   79CLA    CLA  229   5.021   2.503   6.075
   80CLA    CLA  230   0.683   4.739   2.036
   81CLA    CLA  231   4.532   6.823   4.924
   82CLA    CLA  232   1.221   0.069   5.848
   83CLA    CLA  233   2.996   4.424   0.464
   84CLA    CLA  234   0.430   0.522   1.427
   85CLA    CLA  235   2.419   6.204   5.232
   86CLA    CLA  236   7.064   5.073   2.852
   87CLA    CLA  237   3.467   6.216   2.213
   88CLA    CLA  238   4.420   3.712   0.413
   89CLA    CLA  239   6.285   3.404   5.895
   90CLA    CLA  240   6.632   2.001   0.385
   91CLA    CLA  241   4.130   3.678   3.696
   92CLA    CLA  242   4.797   7.241   6.503
   93CLA    CLA  243   4.927   1.041   4.486
   94CLA    CLA  244   2.354   2.253   6.540
   95CLA    CLA  245   2.365   5.846   3.069
   96CLA    CLA  246   0.170   2.092   2.056
   97CLA    CLA  247   7.925   1.503   3.678
   98CLA    CLA  248   1.670   7.149   5.673
   99CLA    CLA  249   7.554   2.895   1.444
  100CLA    CLA  250   2.676   3.396   4.380
  101CLA    CLA  251   0.418   2.676   3.167
  102CLA    CLA  252   1.641   0.025   4.802
  103TIP3   OH2  253   2.684   6.231   1.941
  103TIP3    H1  254   2.716   6.181   2.016
  103TIP3    H2  255   2.702   6.322   1.964
  104TIP3   OH2  256   1.053   2.137   0.809
  104TIP3    H1  257   1.060   2.194   0.732
  104TIP3    H2  258   1.142   2.130   0.842
  105TIP3   OH2  259   0.070   1.581   2.215
  105TIP3    H1  260   0.071   1.541   2.128
  105TIP3    H2  261   0.144   1.642   2.214
  106TIP3   OH2  262   6.825   6.280   0.335
  106TIP3    H1  263   6.874   6.356   0.306
  106TIP3    H2  264   6.818   6.291   0.430
  107TIP3   OH2  265   1.691   2.946   1.056
  107TIP3    H1  266   1.605   2.978   1.084
  107TIP3    H2  267   1.738   3.024   1.026
  108TIP3   OH2  268   0.463   5.070   0.898
  108TIP3    H1  269   0.398   5.021   0.948
  108TIP3    H2  270   0.439   5.162   0.911
  109TIP3   OH2  271   6.865   7.454   2.501
  109TIP3    H1  272   6.865   7.547   2.481
  109TIP3    H2  273   6.776   7.436   2.532
  110TIP3   OH2  274   3.514   5.617   4.171
  110TIP3    H1  275   3.461   5.669   4.232
  110TIP3    H2  276   3.590   5.672   4.154
  111TIP3   OH2  277   6.418   4.802   5.440
  111TIP3    H1  278   6.466   4.771   5.363
  111TIP3    H2  279   6.447   4.745   5.511
  112TIP3   OH2  280   2.618   4.006   6.423
  112TIP3    H1  281   2.640   4.095   6.448
  112TIP3    H2  282   2.681   3.951   6.470
  113TIP3   OH2  283   0.827   7.727   1.048
  113TIP3    H1  284   0.861   7.812   1.019
  113TIP3    H2  285   0.824   7.675   0.968
  114TIP3   OH2  286   6.299   6.246   0.356
  114TIP3    H1  287   6.285   6.253   0.262
  114TIP3    H2  288   6.256   6.164   0.381
  115TIP3   OH2  289   7.402   0.112   4.673
  115TIP3    H1  290   7.412   0.107   4.578
  115TIP3    H2  291   7.489   0.091   4.707
  116TIP3   OH2  292   3.203   4.524   5.645
  116TIP3    H1  293   3.218   4.595   5.583
  116TIP3    H2  294   3.260   4.453   5.616
  117TIP3   OH2  295   5.770   3.142   2.619
  117TIP3    H1  296   5.757   3.119   2.710
  117TIP3    H2  297   5.764   3.059   2.571
  118TIP3   OH2  298   0.358   3.270   0.745
  118TIP3    H1  299   0.434   3.223   0.711
  118TIP3    H2  300   0.378   3.362   0.730
  119TIP3   OH2  301   1.831   6.824   2.535
  119TIP3    H1  302   1.857   6.913   2.559
  119TIP3    H2  303   1.835   6.824   2.439
  120TIP3   OH2  304   2.204   1.782   5.823
  120TIP3    H1  305   2.274   1.773   5.758
  120TIP3    H2  306   2.249   1.780   5.907
  121TIP3   OH2  307   4.605   4.949   0.398
  121TIP3    H1  308   4.603   4.999   0.317
  121TIP3    H2  309   4.584   4.859   0.373
  122TIP3   OH2  310   6.294   7.043   5.203
  122TIP3    H1  311   6.254   7.105   5.141
  122TIP3    H2  312   6.221   6.994   5.239
  123TIP3   OH2  313   5.460   4.709   1.913
  123TIP3    H1  314   5.390   4.719   1.849
  123TIP3    H2  315   5.415   4.709   1.998
  124TIP3   OH2  316   8.248   5.512   3.289
  124TIP3    H1  317   8.245   5.507   3.385
  124TIP3    H2  318   8.338   5.538   3.270
  125TIP3   OH2  319   0.404   4.508   4.540
  125TIP3    H1  320   0.320   4.548   4.563
  125TIP3    H2  321   0.392   4.415   4.558
  126TIP3   OH2  322   8.104   3.197   0.052
  126TIP3    H1  323   8.158   3.276   0.061
  126TIP3    H2  324   8.017   3.230   0.030
  127TIP3   OH2  325   4.530   7.811   0.935
  127TIP3    H1  326   4.558   7.728   0.897
  127TIP3    H2  327   4.602   7.837   0.992
  128TIP3   OH2  328   0.856   3.205   1.608
  128TIP3    H1  329   0.904   3.237   1.685
  128TIP3    H2  330   0.847   3.111   1.622
  129TIP3   OH2  331   0.885   1.636   0.217
  129TIP3    H1  332   0.799   1.593   0.222
  129TIP3    H2  333   0.865   1.729   0.222
  130TIP3   OH2  334   7.087   2.280   2.797
  130TIP3    H1  335   7.182   2.273   2.787
  130TIP3    H2  336   7.062   2.198   2.840
  131TIP3   OH2  337   3.405   2.851   0.275
  131TIP3    H1  338   3.397   2.940   0.239
  131TIP3    H2  339   3.337   2.801   0.231
  132TIP3   OH2  340   4.407   3.212   3.574
  132TIP3    H1  341   4.478   3.277   3.579
  132TIP3    H2  342   4.441   3.143   3.517
  133TIP3   OH2  343   3.718   6.180   6.250
  133TIP3    H1  344   3.734   6.101   6.302
  133TIP3    H2  345   3.705   6.147   6.161
  134TIP3   OH2  346   8.108   7.684   3.742
  134TIP3    H1  347   8.039   7.749   3.755
  134TIP3    H2  348   8.124   7.684   3.647
  135TIP3   OH2  349   5.531   6.174   5.514
  135TIP3    H1  350   5.485   6.258   5.519
  135TIP3    H2  351   5.577   6.176   5.430
  136TIP3   OH2  352   7.925   3.712   1.619
  136TIP3    H1  353   7.900   3.758   1.539
  136TIP3    H2  354   7.981   3.640   1.588
  137TIP3   OH2  355   4.668   5.214   0.630
  137TIP3    H1  356   4.730   5.255   0.570
  137TIP3    H2  357   4.606   5.169   0.574
  138TIP3   OH2  358   3.147   4.702   4.896
  138TIP3    H1  359   3.199   4.773   4.859
  138TIP3    H2  360   3.208   4.655   4.954
  139TIP3   OH2  361   7.608   5.106   0.463
  139TIP3    H1  362   7.524   5.130   0.503
  139TIP3    H2  363   7.584   5.058   0.384
  140TIP3   OH2  364   1.070   7.367   1.548
  140TIP3    H1  365   1.144   7.309   1.565
  140TIP3    H2  366   0.993   7.309   1.547
  141TIP3   OH2  367   3.472   4.920   2.046
  141TIP3    H1  368   3.466   4.964   2.131
  141TIP3    H2  369   3.549   4.960   2.004
  142TIP3   OH2  370   4.294   6.431   2.952
  142TIP3    H1  371   4.312   6.388   2.868
  142TIP3    H2  372   4.324   6.368   3.018
  143TIP3   OH2  373   0.461   6.426   0.998
  143TIP3    H1  374   0.485   6.341   0.960
  143TIP3    H2  375   0.396   6.403   1.065
  144TIP3   OH2  376   0.429   5.267   2.932
  144TIP3    H1  377   0.523   5.271   2.915
  144TIP3    H2  378   0.422   5.266   3.028
  145TIP3   OH2  379   5.801   4.955   5.378
  145TIP3    H1  380   5.782   5.018   5.448
  145TIP3    H2  381   5.836   4.879   5.424
  146TIP3   OH2  382   5.924   6.059   2.589
  146TIP3    H1  383   5.916   5.966   2.565
  146TIP3    H2  384   5.858   6.103   2.535
  147TIP3   OH2  385   1.245   3.559   3.497
  147TIP3    H1  386   1.193   3.480   3.514
  147TIP3    H2  387   1.331   3.539   3.533
  148TIP3   OH2  388   8.020   4.640   1.569
  148TIP3    H1  389   8.082   4.568   1.575
  148TIP3    H2  390   8.032   4.689   1.651
  149TIP3   OH2  391   0.469   0.808   6.239
  149TIP3    H1  392   0.402   0.819   6.171
  149TIP3    H2  393   0.419   0.796   6.319
  150TIP3   OH2  394   5.018   6.757   4.108
  150TIP3    H1  395   5.087   6.819   4.085
  150TIP3    H2  396   4.937   6.803   4.089
  151TIP3   OH2  397   2.153   4.176   4.745
  151TIP3    H1  398   2.157   4.269   4.765
  151TIP3    H2  399   2.226   4.161   4.685
  152TIP3   OH2  400   6.588   3.372   5.406
  152TIP3    H1  401   6.610   3.279   5.395
  152TIP3    H2  402   6.584   3.384   5.501
  153TIP3   OH2  403   7.357   5.108   3.283
  153TIP3    H1  404   7.274   5.087   3.325
  153TIP3    H2  405   7.370   5.201   3.299
  154TIP3   OH2  406   0.664   1.335   5.221
  154TIP3    H1  407   0.572   1.342   5.195
  154TIP3    H2  408   0.681   1.414   5.272
  155TIP3   OH2  409   5.758   3.962   0.822
  155TIP3    H1  410   5.816   3.952   0.897
  155TIP3    H2  411   5.716   4.047   0.834
  156TIP3   OH2  412   0.117   4.453   4.679
  156TIP3    H1  413   0.103   4.425   4.769
  156TIP3    H2  414   0.164   4.380   4.638
  157TIP3   OH2  415   7.601   2.347   0.744
  157TIP3    H1  416   7.675   2.374   0.689
  157TIP3    H2  417   7.614   2.394   0.826
  158TIP3   OH2  418   8.224   2.735   1.820
  158TIP3    H1  419   8.180   2.691   1.748
  158TIP3    H2  420   8.164   2.727   1.894
  159TIP3   OH2  421   1.596   0.116   1.349
  159TIP3    H1  422   1.574   0.053   1.281
  159TIP3    H2  423   1.512   0.154   1.375
  160TIP3   OH2  424   2.647   4.439   2.045
  160TIP3    H1  425   2.682   4.432   1.956
  160TIP3    H2  426   2.657   4.351   2.082
  161TIP3   OH2  427   7.821   6.829   5.768
  161TIP3    H1  428   7.895   6.882   5.739
  161TIP3    H2  429   7.857   6.741   5.775
  162TIP3   OH2  430   7.774   3.399   0.423
  162TIP3    H1  431   7.834   3.419   0.494
  162TIP3    H2  432   7.760   3.304   0.430
  163TIP3   OH2  433   7.173   2.800   2.863
  163TIP3    H1  434   7.263   2.824   2.842
  163TIP3    H2  435   7.141   2.754   2.786
  164TIP3   OH2  436   5.486   2.460   5.068
  164TIP3    H1  437   5.466   2.551   5.047
  164TIP3    H2  438   5.554   2.435   5.005
  165TIP3   OH2  439   4.495   2.768   3.507
  165TIP3    H1  440   4.480   2.726   3.423
  165TIP3    H2  441   4.523   2.697   3.565
  166TIP3   OH2  442   0.874   3.126   6.090
  166TIP3    H1  443   0.872   3.034   6.066
  166TIP3    H2  444   0.792   3.162   6.056
  167TIP3   OH2  445   6.939   1.841   5.477
  167TIP3    H1  446   6.949   1.795   5.394
  167TIP3    H2  447   7.017   1.818   5.527
  168TIP3   OH2  448   1.801   7.435   1.544
  168TIP3    H1  449   1.748   7.475   1.474
  168TIP3    H2  450   1.784   7.341   1.537
  169TIP3   OH2  451   7.466   1.266   5.047
  169TIP3    H1  452   7.375   1.251   5.071
  169TIP3    H2  453   7.462   1.334   4.979
  170TIP3   OH2  454   4.974   1.780   1.275
  170TIP3    H1  455   5.003   1.863   1.238
  170TIP3    H2  456   4.885   1.769   1.242
  171TIP3   OH2  457   6.884   7.616   0.067
  171TIP3    H1  458   6.940   7.692   0.082
  171TIP3    H2  459   6.941   7.553   0.022
  172TIP3   OH2  460   0.500   6.794   3.014
  172TIP3    H1  461   0.528   6.839   2.935
  172TIP3    H2  462   0.406   6.810   3.020
  173TIP3   OH2  463   3.384   4.724   6.323
  173TIP3    H1  464   3.369   4.668   6.400
  173TIP3    H2  465   3.387   4.813   6.359
  174TIP3   OH2  466   8.316   4.798   3.549
  174TIP3    H1  467   8.245   4.785   3.486
  174TIP3    H2  468   8.272   4.809   3.633
  175TIP3   OH2  469   2.314   6.246   3.015
  175TIP3    H1  470   2.287   6.302   3.088
  175TIP3    H2  471   2.235   6.196   2.994
  176TIP3   OH2  472   4.015   3.638   4.954
  176TIP3    H1  473   4.005   3.674   4.866
  176TIP3    H2  474   3.940   3.580   4.965
  177TIP3   OH2  475   0.787   6.187   4.060
  177TIP3    H1  476   0.721   6.221   3.999
  177TIP3    H2  477   0.816   6.105   4.021
  178TIP3   OH2  478   5.399   6.307   2.395
  178TIP3    H1  479   5.462   6.362   2.442
  178TIP3    H2  480   5.430   6.218   2.409
  179TIP3   OH2  481   7.126   4.067   3.671
  179TIP3    H1  482   7.189   3.996   3.659
  179TIP3    H2  483   7.053   4.043   3.613
  180TIP3   OH2  484   2.281   0.930   5.547
  180TIP3    H1  485   2.199   0.942   5.499
  180TIP3    H2  486   2.254   0.926   5.639
  181TIP3   OH2  487   2.773   1.757   2.400
  181TIP3    H1  488   2.737   1.846   2.410
  181TIP3    H2  489   2.838   1.749   2.469
  182TIP3   OH2  490   1.172   6.313   2.687
  182TIP3    H1  491   1.196   6.353   2.771
  182TIP3    H2  492   1.170   6.386   2.626
  183TIP3   OH2  493   1.659   5.808   6.565
  183TIP3    H1  494   1.706   5.872   6.512
  183TIP3    H2  495   1.673   5.836   6.656
  184TIP3   OH2  496   7.816   6.805   2.792
  184TIP3    H1  497   7.891   6.804   2.733
  184TIP3    H2  498   7.849   6.844   2.873
  185TIP3   OH2  499   5.939   2.189   0.889
  185TIP3    H1  500   5.843   2.195   0.889
  185TIP3    H2  501   5.962   2.169   0.798
  186TIP3   OH2  502   5.242   0.300   4.215
  186TIP3    H1  503   5.289   0.331   4.292
  186TIP3    H2  504   5.152   0.330   4.229
  187TIP3   OH2  505   1.996   4.201   6.509
  187TIP3    H1  506   1.920   4.208   6.566
  187TIP3    H2  507   2.040   4.286   6.518
  188TIP3   OH2  508   4.053   1.356   6.186
  188TIP3    H1  509   3.964   1.355   6.150
  188TIP3    H2  510   4.073   1.264   6.201
  189TIP3   OH2  511   8.254   3.984   6.805
  189TIP3    H1  512   8.236   4.078   6.809
  189TIP3    H2  513   8.173   3.945   6.773
  190TIP3   OH2  514   5.258   7.253   1.022
  190TIP3    H1  515   5.236   7.336   0.980
  190TIP3    H2  516   5.341   7.227   0.981
  191TIP3   OH2  517   7.767   7.668   1.634
  191TIP3    H1  518   7.760   7.723   1.712
  191TIP3    H2  519   7.683   7.680   1.589
  192TIP3   OH2  520   5.086   5.980   5.700
  192TIP3    H1  521   5.155   6.002   5.637
  192TIP3    H2  522   5.065   5.889   5.681
  193TIP3   OH2  523   7.135   7.386   1.953
  193TIP3    H1  524   7.103   7.470   1.985
  193TIP3    H2  525   7.196   7.357   2.020
  194TIP3   OH2  526   6.465   3.158   3.993
  194TIP3    H1  527   6.400   3.104   3.948
  194TIP3    H2  528   6.436   3.248   3.978
  195TIP3   OH2  529   0.340   2.249   0.983
  195TIP3    H1  530   0.369   2.215   0.898
  195TIP3    H2  531   0.379   2.190   1.047
  196TIP3   OH2  532   7.130   2.622   2.636
  196TIP3    H1  533   7.193   2.591   2.571
  196TIP3    H2  534   7.054   2.651   2.585
  197TIP3   OH2  535   7.534   2.140   1.342
  197TIP3    H1  536   7.548   2.229   1.373
  197TIP3    H2  537   7.536   2.147   1.246
  198TIP3   OH2  538   5.737   6.026   1.397
  198TIP3    H1  539   5.768   6.012   1.487
  198TIP3    H2  540   5.656   5.976   1.391
  199TIP3   OH2  541   5.779   5.145   5.585
  199TIP3    H1  542   5.847   5.124   5.649
  199TIP3    H2  543   5.697   5.141   5.635
  200TIP3   OH2  544   2.581   4.735   3.886
  200TIP3    H1  545   2.595   4.669   3.818
  200TIP3    H2  546   2.632   4.811   3.857
  201TIP3   OH2  547   5.489   4.240   6.204
  201TIP3    H1  548   5.511   4.166   6.148
  201TIP3    H2  549   5.570   4.262   6.249
  202TIP3   OH2  550   5.143   1.126   0.151
  202TIP3    H1  551   5.213   1.066   0.179
  202TIP3    H2  552   5.062   1.077   0.166
  203TIP3   OH2  553   5.238   4.142   4.439
  203TIP3    H1  554   5.275   4.067   4.485
  203TIP3    H2  555   5.154   4.111   4.406
  204TIP3   OH2  556   3.792   2.537   2.300
  204TIP3    H1  557   3.870   2.493   2.269
  204TIP3    H2  558   3.739   2.468   2.341
  205TIP3   OH2  559   1.067   5.417   4.505
  205TIP3    H1  560   1.061   5.423   4.410
  205TIP3    H2  561   1.144   5.361   4.520
  206TIP3   OH2  562   3.540   4.628   6.685
  206TIP3    H1  563   3.486   4.689   6.735
  206TIP3    H2  564   3.485   4.551   6.673
  207TIP3   OH2  565   3.349   7.399   3.540
  207TIP3    H1  566   3.325   7.487   3.570
  207TIP3    H2  567   3.341   7.345   3.618
  208TIP3   OH2  568   6.567   0.907   1.829
  208TIP3    H1  569   6.567   0.952   1.744
  208TIP3    H2  570   6.493   0.945   1.876
  209TIP3   OH2  571   4.470   4.647   0.822
  209TIP3    H1  572   4.547   4.590   0.813
  209TIP3    H2  573   4.450   4.674   0.732
  210TIP3   OH2  574   7.233   1.457   5.762
  210TIP3    H1  575   7.252   1.550   5.779
  210TIP3    H2  576   7.147   1.458   5.719
  211TIP3   OH2  577   5.763   0.230   4.076
  211TIP3    H1  578   5.730   0.265   4.159
  211TIP3    H2  579   5.849   0.195   4.097
  212TIP3   OH2  580   1.120   5.689   0.406
  212TIP3    H1  581   1.105   5.730   0.492
  212TIP3    H2  582   1.128   5.595   0.425
  213TIP3   OH2  583   4.157   7.510   0.895
  213TIP3    H1  584   4.164   7.605   0.883
  213TIP3    H2  585   4.131   7.499   0.986
  214TIP3   OH2  586   0.577   6.461   1.890
  214TIP3    H1  587   0.607   6.525   1.825
  214TIP3    H2  588   0.583   6.377   1.846
  215TIP3   OH2  589   8.112   4.034   1.528
  215TIP3    H1  590   8.125   4.096   1.600
  215TIP3    H2  591   8.166   4.069   1.457
  216TIP3   OH2  592   0.843   4.894   4.369
  216TIP3    H1  593   0.776   4.837   4.407
  216TIP3    H2  594   0.801   4.932   4.292
  217TIP3   OH2  595   3.656   6.245   5.795
  217TIP3    H1  596   3.654   6.338   5.820
  217TIP3    H2  597   3.665   6.198   5.878
  218TIP3   OH2  598   8.021   4.129   3.660
  218TIP3    H1  599   8.098   4.186   3.667
  218TIP3    H2  600   7.947   4.188   3.674
  219TIP3   OH2  601   5.391   6.098   2.039
  219TIP3    H1  602   5.325   6.131   2.099
  219TIP3    H2  603   5.383   6.002   2.045
  220TIP3   OH2  604   1.992   1.882   2.080
  220TIP3    H1  605   2.016   1.887   2.172
  220TIP3    H2  606   2.075   1.870   2.034
  221TIP3   OH2  607   1.379   7.885   2.034
  221TIP3    H1  608   1.409   7.819   1.972
  221TIP3    H2  609   1.395   7.847   2.120
  222TIP3   OH2  610   7.855   5.801   3.752
  222TIP3    H1  611   7.933   5.848   3.782
  222TIP3    H2  612   7.841   5.734   3.819
  223TIP3   OH2  613   1.651   2.356   5.118
  223TIP3    H1  614   1.723   2.313   5.071
  223TIP3    H2  615   1.619   2.423   5.058
  224TIP3   OH2  616   1.653   3.332   6.475
  224TIP3    H1  617   1.667   3.333   6.570
  224TIP3    H2  618   1.713   3.398   6.441
  225TIP3   OH2  619   5.045   5.899   1.345
  225TIP3    H1  620   4.952   5.879   1.357
  225TIP3    H2  621   5.068   5.957   1.417
  226TIP3   OH2  622   1.165   6.043   4.556
  226TIP3    H1  623   1.217   6.008   4.483
  226TIP3    H2  624   1.202   6.130   4.571
  227TIP3   OH2  625   1.728   4.073   0.181
  227TIP3    H1  626   1.799   4.029   0.228
  227TIP3    H2  627   1.649   4.055   0.232
  228TIP3   OH2  628   1.442   7.359   3.587
  228TIP3    H1  629   1.391   7.392   3.513
  228TIP3    H2  630   1.514   7.310   3.547
  229TIP3   OH2  631   0.567   2.178   5.628
  229TIP3    H1  632   0.566   2.103   5.569
  229TIP3    H2  633   0.616   2.147   5.704
  230TIP3   OH2  634   6.679   1.916   3.144
  230TIP3    H1  635   6.680   2.012   3.146
  230TIP3    H2  636   6.676   1.894   3.051
  231TIP3   OH2  637   4.069   5.089   1.943
  231TIP3    H1  638   3.982   5.102   1.980
  231TIP3    H2  639   4.114   5.172   1.958
  232TIP3   OH2  640   3.281   3.417   3.747
  232TIP3    H1  641   3.262   3.326   3.722
  232TIP3    H2  642   3.195   3.455   3.768
  233TIP3   OH2  643   1.378   2.853   6.066
  233TIP3    H1  644   1.296   2.806   6.050
  233TIP3    H2  645   1.426   2.797   6.127
  234TIP3   OH2  646   4.812   0.114   4.279
  234TIP3    H1  647   4.816   0.184   4.213
  234TIP3    H2  648   4.900   0.078   4.282
  235TIP3   OH2  649   2.843   1.679   0.098
  235TIP3    H1  650   2.932   1.642   0.094
  235TIP3    H2  651   2.807   1.664   0.010
  236TIP3   OH2  652   3.532   1.702   2.928
  236TIP3    H1  653   3.478   1.669   3.000
  236TIP3    H2  654   3.604   1.748   2.972
  237TIP3   OH2  655   3.890   5.944   4.256
  237TIP3    H1  656   3.831   5.893   4.200
  237TIP3    H2  657   3.831   5.990   4.316
  238TIP3   OH2  658   2.111   6.134   3.442
  238TIP3    H1  659   2.112   6.199   3.512
  238TIP3    H2  660   2.063   6.059   3.479
  239TIP3   OH2  661   4.369   6.969   5.139
  239TIP3    H1  662   4.423   7.045   5.161
  239TIP3    H2  663   4.426   6.914   5.085
  240TIP3   OH2  664   1.602   3.827   5.924
  240TIP3    H1  665   1.563   3.852   5.840
  240TIP3    H2  666   1.688   3.869   5.924
  241TIP3   OH2  667   6.888   0.613   5.975
  241TIP3    H1  668   6.918   0.524   5.993
  241TIP3    H2  669   6.881   0.617   5.880
  242TIP3   OH2  670   3.821   4.937   4.095
  242TIP3    H1  671   3.862   4.862   4.137
  242TIP3    H2  672   3.817   5.004   4.163
  243TIP3   OH2  673   7.778   0.229   1.743
  243TIP3    H1  674   7.820   0.150   1.708
  243TIP3    H2  675   7.795   0.226   1.837
  244TIP3   OH2  676   1.968   3.769   3.535
  244TIP3    H1  677   1.920   3.825   3.475
  244TIP3    H2  678   2.059   3.777   3.507
  245TIP3   OH2  679   7.625   7.521   6.705
  245TIP3    H1  680   7.545   7.536   6.654
  245TIP3    H2  681   7.673   7.604   6.699
  246TIP3   OH2  682   6.698   5.555   3.896
  246TIP3    H1  683   6.666   5.625   3.954
  246TIP3    H2  684   6.648   5.478   3.921
  247TIP3   OH2  685   2.005   5.169   6.321
  247TIP3    H1  686   1.916   5.137   6.315
  247TIP3    H2  687   2.053   5.099   6.366
  248TIP3   OH2  688   4.166   2.053   5.092
  248TIP3    H1  689   4.261   2.059   5.103
  248TIP3    H2  690   4.148   1.960   5.080
  249TIP3   OH2  691   3.931   1.779   5.643
  249TIP3    H1  692   3.852   1.745   5.602
  249TIP3    H2  693   3.989   1.801   5.570
  250TIP3   OH2  694   6.959   3.392  -0.017
  250TIP3    H1  695   6.867   3.418  -0.006
  250TIP3    H2  696   6.969   3.314   0.037
  251TIP3   OH2  697   2.571   5.732   4.716
  251TIP3    H1  698   2.627   5.696   4.647
  251TIP3    H2  699   2.521   5.801   4.672
  252TIP3   OH2  700   1.376   3.212   2.870
  252TIP3    H1  701   1.314   3.146   2.903
  252TIP3    H2  702   1.396   3.183   2.781
  253TIP3   OH2  703   1.796   2.089   2.105
  253TIP3    H1  704   1.882   2.088   2.145
  253TIP3    H2  705   1.802   2.026   2.033
  254TIP3   OH2  706   2.603   6.410   5.368
  254TIP3    H1  707   2.570   6.337   5.317
  254TIP3    H2  708   2.685   6.435   5.325
  255TIP3   OH2  709   4.331   2.954   2.565
  255TIP3    H1  710   4.406   2.965   2.507
  255TIP3    H2  711   4.329   2.861   2.584
  256TIP3   OH2  712   6.257   3.248   2.891
  256TIP3    H1  713   6.203   3.219   2.817
  256TIP3    H2  714   6.342   3.270   2.851
  257TIP3   OH2  715   3.395   7.794   6.201
  257TIP3    H1  716   3.381   7.884   6.171
  257TIP3    H2  717   3.350   7.740   6.136
  258TIP3   OH2  718   2.906   0.581   6.093
  258TIP3    H1  719   2.918   0.489   6.114
  258TIP3    H2  720   2.967   0.627   6.151
  259TIP3   OH2  721   7.734   1.237   4.281
  259TIP3    H1  722   7.722   1.326   4.246
  259TIP3    H2  723   7.664   1.186   4.241
  260TIP3   OH2  724   1.988   1.095   5.806
  260TIP3    H1  725   2.081   1.083   5.784
  260TIP3    H2  726   1.964   1.014   5.849
  261TIP3   OH2  727   0.067   6.218   2.471
  261TIP3    H1  728   0.050   6.133   2.511
  261TIP3    H2  729   0.150   6.207   2.424
  262TIP3   OH2  730   7.723   6.487   0.989
  262TIP3    H1  731   7.771   6.417   1.033
  262TIP3    H2  732   7.631   6.459   0.992
  263TIP3   OH2  733   3.649   7.114   2.752
  263TIP3    H1  734   3.684   7.027   2.772
  263TIP3    H2  735   3.559   7.099   2.726
  264TIP3   OH2  736   6.580   4.056   2.967
  264TIP3    H1  737   6.512   4.058   3.034
  264TIP3    H2  738   6.535   4.024   2.889
  265TIP3   OH2  739   6.956   4.602   1.639
  265TIP3    H1  740   6.945   4.598   1.544
  265TIP3    H2  741   6.933   4.513   1.669
  266TIP3   OH2  742   5.213   5.733   3.442
  266TIP3    H1  743   5.273   5.758   3.371
  266TIP3    H2  744   5.216   5.637   3.442
  267TIP3   OH2  745   0.147   0.106   4.128
  267TIP3    H1  746   0.083   0.165   4.168
  267TIP3    H2  747   0.145   0.127   4.035
  268TIP3   OH2  748   5.990   2.963   6.195
  268TIP3    H1  749   6.001   2.993   6.285
  268TIP3    H2  750   6.026   3.034   6.142
  269TIP3   OH2  751   0.236   1.751   6.279
  269TIP3    H1  752   0.170   1.691   6.246
  269TIP3    H2  753   0.268   1.710   6.359
  270TIP3   OH2  754   7.819   2.010   4.305
  270TIP3    H1  755   7.757   2.022   4.233
  270TIP3    H2  756   7.767   2.017   4.384
  271TIP3   OH2  757   4.384   0.421   5.748
  271TIP3    H1  758   4.376   0.485   5.819
  271TIP3    H2  759   4.382   0.336   5.792
  272TIP3   OH2  760   6.580   4.171   0.286
  272TIP3    H1  761   6.634   4.127   0.352
  272TIP3    H2  762   6.497   4.125   0.289
  273TIP3   OH2  763   2.710   5.483   3.088
  273TIP3    H1  764   2.657   5.556   3.058
  273TIP3    H2  765   2.700   5.417   3.019
  274TIP3   OH2  766   1.776   0.910   6.116
  274TIP3    H1  767   1.724   0.984   6.148
  274TIP3    H2  768   1.725   0.873   6.044
  275TIP3   OH2  769   5.907   6.984   4.183
  275TIP3    H1  770   5.892   7.034   4.103
  275TIP3    H2  771   5.980   7.028   4.226
  276TIP3   OH2  772   5.920   1.021   3.048
  276TIP3    H1  773   5.989   0.958   3.065
  276TIP3    H2  774   5.886   0.999   2.961
  277TIP3   OH2  775   4.962   1.943   4.819
  277TIP3    H1  776   4.874   1.913   4.798
  277TIP3    H2  777   4.982   2.008   4.752
  278TIP3   OH2  778   8.243   7.731   3.322
  278TIP3    H1  779   8.212   7.640   3.315
  278TIP3    H2  780   8.238   7.765   3.232
  279TIP3   OH2  781   7.254   5.017   5.059
  279TIP3    H1  782   7.183   5.069   5.096
  279TIP3    H2  783   7.212   4.933   5.037
  280TIP3   OH2  784   2.606   6.282   3.887
  280TIP3    H1  785   2.592   6.194   3.851
  280TIP3    H2  786   2.525   6.303   3.932
  281TIP3   OH2  787   3.894   1.169   3.972
  281TIP3    H1  788   3.968   1.229   3.981
  281TIP3    H2  789   3.827   1.205   4.030
  282TIP3   OH2  790   2.748   0.809   2.085
  282TIP3    H1  791   2.790   0.813   1.999
  282TIP3    H2  792   2.669   0.756   2.071
  283TIP3   OH2  793   4.412   3.711   4.280
  283TIP3    H1  794   4.471   3.636   4.272
  283TIP3    H2  795   4.434   3.768   4.206
  284TIP3   OH2  796   6.076   6.365   0.461
  284TIP3    H1  797   6.019   6.369   0.383
  284TIP3    H2  798   6.150   6.312   0.433
  285TIP3   OH2  799   6.550   0.923   2.682
  285TIP3    H1  800   6.578   0.897   2.770
  285TIP3    H2  801   6.496   0.851   2.651
  286TIP3   OH2  802   2.831   2.715   4.713
  286TIP3    H1  803   2.857   2.805   4.694
  286TIP3    H2  804   2.737   2.721   4.729
  287TIP3   OH2  805   8.043   7.006   4.983
  287TIP3    H1  806   7.950   7.030   4.978
  287TIP3    H2  807   8.057   6.980   5.074
  288TIP3   OH2  808   6.082   3.822   1.587
  288TIP3    H1  809   6.046   3.739   1.556
  288TIP3    H2  810   6.062   3.824   1.680
  289TIP3   OH2  811   3.078   6.126   4.851
  289TIP3    H1  812   3.007   6.179   4.887
  289TIP3    H2  813   3.130   6.101   4.927
  290TIP3   OH2  814   6.847   3.863   3.055
  290TIP3    H1  815   6.826   3.827   2.969
  290TIP3    H2  816   6.936   3.897   3.046
  291TIP3   OH2  817   2.412   5.568   5.729
  291TIP3    H1  818   2.467   5.616   5.667
  291TIP3    H2  819   2.447   5.479   5.728
  292TIP3   OH2  820   8.103   0.568   0.753
  292TIP3    H1  821   8.044   0.494   0.736
  292TIP3    H2  822   8.180   0.527   0.792
  293TIP3   OH2  823   0.341   1.642   6.001
  293TIP3    H1  824   0.344   1.737   6.005
  293TIP3    H2  825   0.257   1.619   6.041
  294TIP3   OH2  826   6.381   0.557   4.199
  294TIP3    H1  827   6.436   0.480   4.215
  294TIP3    H2  828   6.302   0.542   4.250
  295TIP3   OH2  829   3.333   4.173   2.517
  295TIP3    H1  830   3.279   4.146   2.443
  295TIP3    H2  831   3.272   4.185   2.589
  296TIP3   OH2  832   4.302   1.518   2.269
  296TIP3    H1  833   4.339   1.430   2.257
  296TIP3    H2  834   4.213   1.511   2.233
  297TIP3   OH2  835   4.192   0.582   1.371
  297TIP3    H1  836   4.212   0.533   1.450
  297TIP3    H2  837   4.238   0.665   1.382
  298TIP3   OH2  838   1.000   2.957   2.425
  298TIP3    H1  839   0.958   2.912   2.499
  298TIP3    H2  840   0.957   2.922   2.348
  299TIP3   OH2  841   6.320   5.869   5.441
  299TIP3    H1  842   6.397   5.817   5.420
  299TIP3    H2  843   6.344   5.959   5.417
  300TIP3   OH2  844   3.472   3.884   0.524
  300TIP3    H1  845   3.458   3.815   0.589
  300TIP3    H2  846   3.417   3.858   0.450
  301TIP3   OH2  847   4.517   6.594   1.430
  301TIP3    H1  848   4.504   6.616   1.338
  301TIP3    H2  849   4.610   6.574   1.437
  302TIP3   OH2  850   8.051   4.908   2.273
  302TIP3    H1  851   8.097   4.851   2.334
  302TIP3    H2  852   8.077   4.996   2.298
  303TIP3   OH2  853   4.288   3.143   2.942
  303TIP3    H1  854   4.323   3.207   2.880
  303TIP3    H2  855   4.211   3.187   2.980
  304TIP3   OH2  856   6.434   6.529   5.335
  304TIP3    H1  857   6.436   6.625   5.336
  304TIP3    H2  858   6.364   6.505   5.396
  305TIP3   OH2  859   8.198   2.426   4.543
  305TIP3    H1  860   8.120   2.440   4.598
  305TIP3    H2  861   8.243   2.353   4.586
  306TIP3   OH2  862   5.021   5.111   6.432
  306TIP3    H1  863   4.975   5.040   6.385
  306TIP3    H2  864   5.114   5.091   6.420
  307TIP3   OH2  865   8.226   0.803   2.525
  307TIP3    H1  866   8.232   0.811   2.430
  307TIP3    H2  867   8.314   0.775   2.552
  308TIP3   OH2  868   6.940   7.749   6.283
  308TIP3    H1  869   6.946   7.767   6.377
  308TIP3    H2  870   6.852   7.779   6.259
  309TIP3   OH2  871   0.719   3.802   4.528
  309TIP3    H1  872   0.630   3.770   4.548
  309TIP3    H2  873   0.770   3.722   4.515
  310TIP3   OH2  874   1.191   7.115   1.868
  310TIP3    H1  875   1.124   7.139   1.931
  310TIP3    H2  876   1.261   7.179   1.880
  311TIP3   OH2  877   0.421   2.907   2.444
  311TIP3    H1  878   0.464   2.915   2.358
  311TIP3    H2  879   0.369   2.987   2.452
  312TIP3   OH2  880   7.379   4.160   2.238
  312TIP3    H1  881   7.356   4.080   2.192
  312TIP3    H2  882   7.296   4.207   2.247
  313TIP3   OH2  883   3.451   0.025   5.034
  313TIP3    H1  884   3.466   0.012   4.940
  313TIP3    H2  885   3.493  -0.051   5.075
  314TIP3   OH2  886   0.789   6.201   0.872
  314TIP3    H1  887   0.832   6.275   0.830
  314TIP3    H2  888   0.765   6.143   0.800
  315TIP3   OH2  889   7.433   5.608   6.058
  315TIP3    H1  890   7.455   5.565   6.140
  315TIP3    H2  891   7.492   5.683   6.053
  316TIP3   OH2  892   5.618   4.704   6.636
  316TIP3    H1  893   5.583   4.754   6.562
  316TIP3    H2  894   5.694   4.754   6.666
  317TIP3   OH2  895   0.960   6.041   6.045
  317TIP3    H1  896   0.936   6.132   6.030
  317TIP3    H2  897   1.054   6.044   6.061
  318TIP3   OH2  898   2.131   4.048   5.285
  318TIP3    H1  899   2.218   4.082   5.267
  318TIP3    H2  900   2.072   4.119   5.260
  319TIP3   OH2  901   3.905   7.575   4.088
  319TIP3    H1  902   3.883   7.482   4.078
  319TIP3    H2  903   3.824   7.621   4.069
  320TIP3   OH2  904   7.269   4.820   6.132
  320TIP3    H1  905   7.249   4.754   6.198
  320TIP3    H2  906   7.208   4.891   6.150
  321TIP3   OH2  907   3.221   0.511   2.814
  321TIP3    H1  908   3.212   0.599   2.777
  321TIP3    H2  909   3.148   0.503   2.875
  322TIP3   OH2  910   4.869   0.175   2.035
  322TIP3    H1  911   4.883   0.084   2.062
  322TIP3    H2  912   4.915   0.183   1.952
  323TIP3   OH2  913   5.022   4.186   1.862
  323TIP3    H1  914   4.978   4.106   1.890
  323TIP3    H2  915   5.055   4.166   1.775
  324TIP3   OH2  916   0.811   5.503   6.519
  324TIP3    H1  917   0.846   5.593   6.519
  324TIP3    H2  918   0.718   5.513   6.500
  325TIP3   OH2  919   7.705   3.965   1.058
  325TIP3    H1  920   7.663   3.964   0.972
  325TIP3    H2  921   7.635   3.993   1.118
  326TIP3   OH2  922   4.983   1.227   1.190
  326TIP3    H1  923   5.014   1.143   1.226
  326TIP3    H2  924   5.058   1.286   1.201
  327TIP3   OH2  925   2.285   3.432   5.341
  327TIP3    H1  926   2.216   3.379   5.301
  327TIP3    H2  927   2.239   3.487   5.404
  328TIP3   OH2  928   2.655   1.852   3.544
  328TIP3    H1  929   2.698   1.937   3.535
  328TIP3    H2  930   2.653   1.816   3.456
  329TIP3   OH2  931   7.490   6.611   4.926
  329TIP3    H1  932   7.439   6.676   4.878
  329TIP3    H2  933   7.426   6.544   4.951
  330TIP3   OH2  934   1.221   3.194   1.658
  330TIP3    H1  935   1.229   3.262   1.590
  330TIP3    H2  936   1.180   3.120   1.613
  331TIP3   OH2  937   8.286   5.139   3.558
  331TIP3    H1  938   8.317   5.229   3.566
  331TIP3    H2  939   8.357   5.092   3.515
  332TIP3   OH2  940   3.716   1.953   1.985
  332TIP3    H1  941   3.653   1.923   1.919
  332TIP3    H2  942   3.774   1.879   1.998
  333TIP3   OH2  943   4.390   1.318   6.060
  333TIP3    H1  944   4.436   1.274   5.988
  333TIP3    H2  945   4.310   1.351   6.020
  334TIP3   OH2  946   4.490   4.151   0.514
  334TIP3    H1  947   4.490   4.095   0.592
  334TIP3    H2  948   4.434   4.224   0.537
  335TIP3   OH2  949   1.974   5.913   4.647
  335TIP3    H1  950   1.897   5.949   4.605
  335TIP3    H2  951   1.948   5.826   4.677
  336TIP3   OH2  952   2.401   6.107   0.901
  336TIP3    H1  953   2.341   6.119   0.975
  336TIP3    H2  954   2.373   6.024   0.860
  337TIP3   OH2  955   2.441   5.523   2.211
  337TIP3    H1  956   2.443   5.431   2.238
  337TIP3    H2  957   2.494   5.568   2.277
  338TIP3   OH2  958   3.293   2.451   0.526
  338TIP3    H1  959   3.231   2.484   0.462
  338TIP3    H2  960   3.351   2.393   0.477
  339TIP3   OH2  961   7.727   2.486   6.473
  339TIP3    H1  962   7.781   2.457   6.400
  339TIP3    H2  963   7.767   2.568   6.501
  340TIP3   OH2  964   5.139   2.354   3.887
  340TIP3    H1  965   5.193   2.374   3.964
  340TIP3    H2  966   5.049   2.352   3.920
  341TIP3   OH2  967   5.265   4.923   1.785
  341TIP3    H1  968   5.184   4.938   1.834
  341TIP3    H2  969   5.328   4.984   1.825
  342TIP3   OH2  970   0.157   0.715   0.941
  342TIP3    H1  971   0.200   0.730   1.026
  342TIP3    H2  972   0.229   0.716   0.878
  343TIP3   OH2  973   6.800   4.414   5.883
  343TIP3    H1  974   6.765   4.501   5.900
  343TIP3    H2  975   6.833   4.419   5.793
  344TIP3   OH2  976   0.434   5.366   0.923
  344TIP3    H1  977   0.353   5.409   0.897
  344TIP3    H2  978   0.498   5.392   0.856
  345TIP3   OH2  979   0.717   5.274   6.726
  345TIP3    H1  980   0.713   5.314   6.639
  345TIP3    H2  981   0.743   5.183   6.710
  346TIP3   OH2  982   7.011   6.654   4.621
  346TIP3    H1  983   6.968   6.726   4.575
  346TIP3    H2  984   7.009   6.581   4.558
  347TIP3   OH2  985   3.301   4.457   4.042
  347TIP3    H1  986   3.284   4.436   4.134
  347TIP3    H2  987   3.370   4.395   4.016
  348TIP3   OH2  988   3.797   7.039   3.707
  348TIP3    H1  989   3.758   7.043   3.794
  348TIP3    H2  990   3.743   6.976   3.659
  349TIP3   OH2  991   6.710   1.452   3.731
  349TIP3    H1  992   6.653   1.501   3.790
  349TIP3    H2  993   6.741   1.518   3.668
  350TIP3   OH2  994   7.408   1.076   2.508
  350TIP3    H1  995   7.320   1.055   2.540
  350TIP3    H2  996   7.435   1.152   2.560
  351TIP3   OH2  997   5.686   7.306   2.758
  351TIP3    H1  998   5.781   7.309   2.768
  351TIP3    H2  999   5.658   7.397   2.763
  352TIP3   OH2 1000   1.157   4.582   3.130
  352TIP3    H1 1001   1.120   4.504   3.171
  352TIP3    H2 1002   1.180   4.555   3.042
  353TIP3   OH2 1003   4.170   6.056   0.822
  353TIP3    H1 1004   4.249   6.107   0.810
  353TIP3    H2 1005   4.166   6.039   0.917
  354TIP3   OH2 1006   0.907   1.098   5.157
  354TIP3    H1 1007   0.907   1.067   5.248
  354TIP3    H2 1008   0.965   1.174   5.158
  355TIP3   OH2 1009   1.984   0.766   2.948
  355TIP3    H1 1010   2.040   0.708   3.000
  355TIP3    H2 1011   1.897   0.726   2.953
  356TIP3   OH2 1012   6.950   2.172   0.913
  356TIP3    H1 1013   6.955   2.200   1.005
  356TIP3    H2 1014   6.979   2.248   0.863
  357TIP3   OH2 1015   3.307   7.399   0.753
  357TIP3    H1 1016   3.247   7.474   0.756
  357TIP3    H2 1017   3.362   7.410   0.831
  358TIP3   OH2 1018   1.568   6.117   5.911
  358TIP3    H1 1019   1.483   6.116   5.869
  358TIP3    H2 1020   1.627   6.157   5.847
  359TIP3   OH2 1021   6.168   1.894   0.399
  359TIP3    H1 1022   6.203   1.930   0.481
  359TIP3    H2 1023   6.206   1.807   0.393
  360TIP3   OH2 1024   2.943   0.545   4.176
  360TIP3    H1 1025   2.937   0.631   4.135
  360TIP3    H2 1026   2.859   0.503   4.157
  361TIP3   OH2 1027   2.887   3.420   3.159
  361TIP3    H1 1028   2.947   3.374   3.218
  361TIP3    H2 1029   2.802   3.412   3.201
  362TIP3   OH2 1030   2.178   5.352   0.552
  362TIP3    H1 1031   2.205   5.268   0.589
  362TIP3    H2 1032   2.234   5.363   0.476
  363TIP3   OH2 1033   3.742   0.746   0.097
  363TIP3    H1 1034   3.665   0.691   0.086
  363TIP3    H2 1035   3.798   0.696   0.157
  364TIP3   OH2 1036   4.791   5.481   3.949
  364TIP3    H1 1037   4.776   5.563   3.996
  364TIP3    H2 1038   4.705   5.457   3.915
  365TIP3   OH2 1039   6.522   5.421   5.731
  365TIP3    H1 1040   6.453   5.359   5.706
  365TIP3    H2 1041   6.521   5.487   5.662
  366TIP3   OH2 1042   0.517   6.567   4.703
  366TIP3    H1 1043   0.527   6.472   4.705
  366TIP3    H2 1044   0.425   6.581   4.680
  367TIP3   OH2 1045   5.131   5.666   5.344
  367TIP3    H1 1046   5.063   5.618   5.297
  367TIP3    H2 1047   5.097   5.674   5.433
  368TIP3   OH2 1048   5.652   0.492   5.210
  368TIP3    H1 1049   5.740   0.454   5.210
  368TIP3    H2 1050   5.641   0.528   5.122
  369TIP3   OH2 1051   7.055   5.850   0.128
  369TIP3    H1 1052   7.103   5.918   0.176
  369TIP3    H2 1053   6.974   5.893   0.101
  370TIP3   OH2 1054   2.275   4.037   4.510
  370TIP3    H1 1055   2.364   4.013   4.535
  370TIP3    H2 1056   2.284   4.116   4.456
  371TIP3   OH2 1057   6.427   2.497   5.923
  371TIP3    H1 1058   6.451   2.422   5.977
  371TIP3    H2 1059   6.332   2.494   5.920
  372TIP3   OH2 1060   2.978   3.923   3.107
  372TIP3    H1 1061   3.018   3.843   3.141
  372TIP3    H2 1062   2.931   3.960   3.182
  373TIP3   OH2 1063   6.085   1.609   4.493
  373TIP3    H1 1064   6.151   1.541   4.490
  373TIP3    H2 1065   6.100   1.655   4.575
  374TIP3   OH2 1066   5.101   3.963   5.525
  374TIP3    H1 1067   5.171   3.900   5.541
  374TIP3    H2 1068   5.124   4.003   5.441
  375TIP3   OH2 1069   0.467   1.290   0.061
  375TIP3    H1 1070   0.398   1.354   0.041
  375TIP3    H2 1071   0.476   1.293   0.156
  376TIP3   OH2 1072   7.028   2.834   5.034
  376TIP3    H1 1073   7.059   2.887   4.960
  376TIP3    H2 1074   7.048   2.744   5.008
  377TIP3   OH2 1075   5.029   0.578   1.981
  377TIP3    H1 1076   5.042   0.657   1.928
  377TIP3    H2 1077   5.094   0.516   1.949
  378TIP3   OH2 1078   3.404   0.492   0.468
  378TIP3    H1 1079   3.467   0.420   0.469
  378TIP3    H2 1080   3.331   0.461   0.521
  379TIP3   OH2 1081   7.246   4.172   1.141
  379TIP3    H1 1082   7.219   4.218   1.220
  379TIP3    H2 1083   7.167   4.125   1.112
  380TIP3   OH2 1084   4.220   1.037   5.118
  380TIP3    H1 1085   4.240   1.007   5.207
  380TIP3    H2 1086   4.142   1.092   5.128
  381TIP3   OH2 1087   1.967   5.612   5.524
  381TIP3    H1 1088   1.958   5.606   5.619
  381TIP3    H2 1089   2.054   5.649   5.510
  382TIP3   OH2 1090   6.389   3.460   4.466
  382TIP3    H1 1091   6.361   3.543   4.428
  382TIP3    H2 1092   6.410   3.481   4.557
  383TIP3   OH2 1093   5.138   5.071   0.246
  383TIP3    H1 1094   5.121   4.977   0.254
  383TIP3    H2 1095   5.052   5.110   0.232
  384TIP3   OH2 1096   5.614   4.306   5.767
  384TIP3    H1 1097   5.646   4.310   5.857
  384TIP3    H2 1098   5.682   4.257   5.720
  385TIP3   OH2 1099   1.862   7.720   0.942
  385TIP3    H1 1100   1.947   7.676   0.934
  385TIP3    H2 1101   1.868   7.768   1.025
  386TIP3   OH2 1102   4.239   4.530   0.953
  386TIP3    H1 1103   4.153   4.557   0.921
  386TIP3    H2 1104   4.301   4.573   0.894
  387TIP3   OH2 1105   7.739   1.908   1.899
  387TIP3    H1 1106   7.765   1.964   1.972
  387TIP3    H2 1107   7.819   1.862   1.874
  388TIP3   OH2 1108   4.988   2.983   3.938
  388TIP3    H1 1109   5.064   2.925   3.946
  388TIP3    H2 1110   4.928   2.954   4.007
  389TIP3   OH2 1111   5.579   6.562   1.222
  389TIP3    H1 1112   5.617   6.605   1.146
  389TIP3    H2 1113   5.643   6.576   1.292
  390TIP3   OH2 1114   2.381   7.688   1.023
  390TIP3    H1 1115   2.394   7.656   1.113
  390TIP3    H2 1116   2.374   7.783   1.032
  391TIP3   OH2 1117   0.535   1.857   0.834
  391TIP3    H1 1118   0.462   1.814   0.878
  391TIP3    H2 1119   0.575   1.912   0.901
  392TIP3   OH2 1120   2.341   1.934   1.597
  392TIP3    H1 1121   2.362   1.848   1.562
  392TIP3    H2 1122   2.335   1.990   1.519
  393TIP3   OH2 1123   2.635   1.907   4.352
  393TIP3    H1 1124   2.601   1.990   4.385
  393TIP3    H2 1125   2.656   1.924   4.260
  394TIP3   OH2 1126   0.364   1.739   5.157
  394TIP3    H1 1127   0.341   1.770   5.245
  394TIP3    H2 1128   0.456   1.764   5.146
  395TIP3   OH2 1129   4.213   3.239   2.436
  395TIP3    H1 1130   4.263   3.241   2.518
  395TIP3    H2 1131   4.131   3.195   2.460
  396TIP3   OH2 1132   8.230   1.147   3.323
  396TIP3    H1 1133   8.159   1.083   3.318
  396TIP3    H2 1134   8.288   1.113   3.392
  397TIP3   OH2 1135   2.605   4.596   3.114
  397TIP3    H1 1136   2.658   4.530   3.069
  397TIP3    H2 1137   2.669   4.660   3.146
  398TIP3   OH2 1138   4.497   2.033   3.633
  398TIP3    H1 1139   4.423   2.086   3.664
  398TIP3    H2 1140   4.478   1.945   3.665
  399TIP3   OH2 1141   1.619   6.251   2.303
  399TIP3    H1 1142   1.653   6.240   2.391
  399TIP3    H2 1143   1.679   6.200   2.248
  400TIP3   OH2 1144   0.961   7.036   4.149
  400TIP3    H1 1145   0.990   7.090   4.076
  400TIP3    H2 1146   0.982   6.946   4.122
  401TIP3   OH2 1147   6.443   5.628   4.018
  401TIP3    H1 1148   6.411   5.674   3.940
  401TIP3    H2 1149   6.368   5.626   4.077
  402TIP3   OH2 1150   3.746   1.928   3.389
  402TIP3    H1 1151   3.827   1.969   3.358
  402TIP3    H2 1152   3.768   1.835   3.399
  403TIP3   OH2 1153   7.444   5.649   3.904
  403TIP3    H1 1154   7.444   5.590   3.828
  403TIP3    H2 1155   7.494   5.602   3.971
  404TIP3   OH2 1156   6.288   2.635   2.205
  404TIP3    H1 1157   6.305   2.715   2.255
  404TIP3    H2 1158   6.343   2.568   2.247
  405TIP3   OH2 1159   3.152   6.017   1.342
  405TIP3    H1 1160   3.065   6.049   1.365
  405TIP3    H2 1161   3.144   5.922   1.344
  406TIP3   OH2 1162   0.158   3.946   3.154
  406TIP3    H1 1163   0.229   3.971   3.095
  406TIP3    H2 1164   0.084   4.000   3.127
  407TIP3   OH2 1165   5.377   5.094   4.572
  407TIP3    H1 1166   5.423   5.018   4.538
  407TIP3    H2 1167   5.291   5.092   4.529
  408TIP3   OH2 1168   4.778   0.186   3.337
  408TIP3    H1 1169   4.821   0.265   3.369
  408TIP3    H2 1170   4.699   0.217   3.294
  409TIP3   OH2 1171   4.076   6.540   2.811
  409TIP3    H1 1172   4.110   6.494   2.888
  409TIP3    H2 1173   4.144   6.531   2.745
  410TIP3   OH2 1174   3.165   1.240   2.256
  410TIP3    H1 1175   3.179   1.205   2.344
  410TIP3    H2 1176   3.070   1.243   2.246
  411TIP3   OH2 1177   7.194   1.822   2.899
  411TIP3    H1 1178   7.247   1.897   2.925
  411TIP3    H2 1179   7.213   1.810   2.806
  412TIP3   OH2 1180   7.052   3.377   0.796
  412TIP3    H1 1181   7.082   3.436   0.866
  412TIP3    H2 1182   7.009   3.435   0.733
  413TIP3   OH2 1183   3.897   0.058   2.970
  413TIP3    H1 1184   3.847  -0.022   2.952
  413TIP3    H2 1185   3.988   0.030   2.968
  414TIP3   OH2 1186   3.567   4.704   0.909
  414TIP3    H1 1187   3.610   4.659   0.983
  414TIP3    H2 1188   3.579   4.797   0.928
  415TIP3   OH2 1189   6.596   6.063   0.210
  415TIP3    H1 1190   6.546   5.987   0.179
  415TIP3    H2 1191   6.687   6.034   0.205
  416TIP3   OH2 1192   2.795   0.981   4.437
  416TIP3    H1 1193   2.704   1.007   4.421
  416TIP3    H2 1194   2.796   0.955   4.529
  417TIP3   OH2 1195   4.341   4.865   3.361
  417TIP3    H1 1196   4.373   4.811   3.289
  417TIP3    H2 1197   4.281   4.808   3.409
  418TIP3   OH2 1198   8.065   5.504   0.705
  418TIP3    H1 1199   7.991   5.545   0.751
  418TIP3    H2 1200   8.142   5.545   0.743
  419TIP3   OH2 1201   2.600   1.296   2.702
  419TIP3    H1 1202   2.598   1.332   2.613
  419TIP3    H2 1203   2.582   1.372   2.758
  420TIP3   OH2 1204   7.255   3.489   1.245
  420TIP3    H1 1205   7.243   3.410   1.193
  420TIP3    H2 1206   7.172   3.536   1.237
  421TIP3   OH2 1207   2.541   7.381   6.600
  421TIP3    H1 1208   2.511   7.428   6.522
  421TIP3    H2 1209   2.616   7.330   6.569
  422TIP3   OH2 1210   3.631   2.159   6.683
  422TIP3    H1 1211   3.611   2.226   6.748
  422TIP3    H2 1212   3.636   2.207   6.600
  423TIP3   OH2 1213   6.588   0.880   5.038
  423TIP3    H1 1214   6.663   0.835   4.998
  423TIP3    H2 1215   6.616   0.971   5.045
  424TIP3   OH2 1216   5.676   6.235   4.898
  424TIP3    H1 1217   5.605   6.202   4.954
  424TIP3    H2 1218   5.677   6.329   4.914
  425TIP3   OH2 1219   6.263   0.178   0.071
  425TIP3    H1 1220   6.268   0.107   0.007
  425TIP3    H2 1221   6.348   0.222   0.065
  426TIP3   OH2 1222   4.060   2.568   1.451
  426TIP3    H1 1223   3.965   2.579   1.445
  426TIP3    H2 1224   4.092   2.651   1.487
  427TIP3   OH2 1225   7.329   4.861   5.518
  427TIP3    H1 1226   7.243   4.850   5.477
  427TIP3    H2 1227   7.387   4.805   5.467
  428TIP3   OH2 1228   6.780   1.239   1.663
  428TIP3    H1 1229   6.789   1.216   1.570
  428TIP3    H2 1230   6.699   1.291   1.666
  429TIP3   OH2 1231   4.932   6.275   2.245
  429TIP3    H1 1232   5.006   6.324   2.279
  429TIP3    H2 1233   4.866   6.281   2.314
  430TIP3   OH2 1234   2.598   6.010   3.786
  430TIP3    H1 1235   2.589   6.008   3.882
  430TIP3    H2 1236   2.568   5.923   3.758
  431TIP3   OH2 1237   2.547   0.235   0.604
  431TIP3    H1 1238   2.613   0.271   0.545
  431TIP3    H2 1239   2.571   0.143   0.615
  432TIP3   OH2 1240   1.559   0.363   3.485
  432TIP3    H1 1241   1.503   0.338   3.412
  432TIP3    H2 1242   1.629   0.415   3.446
  433TIP3   OH2 1243   2.316   4.414   4.449
  433TIP3    H1 1244   2.321   4.507   4.471
  433TIP3    H2 1245   2.223   4.392   4.457
  434TIP3   OH2 1246   3.601   2.320   6.457
  434TIP3    H1 1247   3.616   2.244   6.400
  434TIP3    H2 1248   3.506   2.323   6.468
  435TIP3   OH2 1249   0.874   0.946   4.695
  435TIP3    H1 1250   0.827   0.930   4.777
  435TIP3    H2 1251   0.839   0.882   4.634
  436TIP3   OH2 1252   3.912   6.550   1.116
  436TIP3    H1 1253   3.987   6.610   1.113
  436TIP3    H2 1254   3.939   6.474   1.065
  437TIP3   OH2 1255   7.535   3.703   6.696
  437TIP3    H1 1256   7.593   3.692   6.620
  437TIP3    H2 1257   7.507   3.794   6.691
  438TIP3   OH2 1258   5.730   4.317   2.012
  438TIP3    H1 1259   5.763   4.289   2.097
  438TIP3    H2 1260   5.678   4.243   1.980
  439TIP3   OH2 1261   6.473   0.970   4.469
  439TIP3    H1 1262   6.505   0.910   4.538
  439TIP3    H2 1263   6.475   0.917   4.389
  440TIP3   OH2 1264   6.303   4.231   5.914
  440TIP3    H1 1265   6.258   4.150   5.938
  440TIP3    H2 1266   6.393   4.204   5.897
  441TIP3   OH2 1267   4.360   2.193   4.884
  441TIP3    H1 1268   4.384   2.139   4.959
  441TIP3    H2 1269   4.318   2.270   4.922
  442TIP3   OH2 1270   6.229   3.717   5.865
  442TIP3    H1 1271   6.322   3.739   5.863
  442TIP3    H2 1272   6.223   3.633   5.819
  443TIP3   OH2 1273   3.680   1.128   6.769
  443TIP3    H1 1274   3.628   1.048   6.762
  443TIP3    H2 1275   3.715   1.141   6.680
  444TIP3   OH2 1276   5.539   6.697   0.780
  444TIP3    H1 1277   5.449   6.669   0.766
  444TIP3    H2 1278   5.566   6.738   0.698
  445TIP3   OH2 1279   3.736   7.769  -0.004
  445TIP3    H1 1280   3.796   7.695  -0.012
  445TIP3    H2 1281   3.703   7.765   0.085
  446TIP3   OH2 1282   7.871   3.812   0.401
  446TIP3    H1 1283   7.844   3.777   0.486
  446TIP3    H2 1284   7.791   3.850   0.365
  447TIP3   OH2 1285   0.600   2.911   6.267
  447TIP3    H1 1286   0.526   2.900   6.327
  447TIP3    H2 1287   0.625   3.003   6.277
  448TIP3   OH2 1288   2.243   3.076   2.047
  448TIP3    H1 1289   2.206   2.992   2.072
  448TIP3    H2 1290   2.218   3.088   1.956
  449TIP3   OH2 1291   8.307   2.881   3.695
  449TIP3    H1 1292   8.390   2.928   3.700
  449TIP3    H2 1293   8.256   2.914   3.769
  450TIP3   OH2 1294   5.598   7.325   4.584
  450TIP3    H1 1295   5.549   7.291   4.659
  450TIP3    H2 1296   5.600   7.252   4.523
  451TIP3   OH2 1297   5.357   2.123   2.963
  451TIP3    H1 1298   5.339   2.191   3.027
  451TIP3    H2 1299   5.451   2.107   2.970
  452TIP3   OH2 1300   5.607   1.536   6.846
  452TIP3    H1 1301   5.580   1.497   6.762
  452TIP3    H2 1302   5.671   1.474   6.881
  453TIP3   OH2 1303   3.097   7.761   2.473
  453TIP3    H1 1304   3.163   7.692   2.484
  453TIP3    H2 1305   3.122   7.828   2.537
  454TIP3   OH2 1306   1.344   5.664   0.782
  454TIP3    H1 1307   1.401   5.589   0.800
  454TIP3    H2 1308   1.296   5.677   0.864
  455TIP3   OH2 1309   2.433   4.930   2.715
  455TIP3    H1 1310   2.523   4.916   2.746
  455TIP3    H2 1311   2.437   4.916   2.621
  456TIP3   OH2 1312   6.078   3.460   0.342
  456TIP3    H1 1313   6.131   3.484   0.266
  456TIP3    H2 1314   6.107   3.372   0.365
  457TIP3   OH2 1315   3.204   1.624   3.906
  457TIP3    H1 1316   3.239   1.535   3.901
  457TIP3    H2 1317   3.147   1.624   3.983
  458TIP3   OH2 1318   4.172   0.460   5.524
  458TIP3    H1 1319   4.229   0.497   5.591
  458TIP3    H2 1320   4.222   0.388   5.486
  459TIP3   OH2 1321   7.151   4.663   2.635
  459TIP3    H1 1322   7.069   4.705   2.659
  459TIP3    H2 1323   7.212   4.689   2.704
  460TIP3   OH2 1324   5.136   0.688   0.106
  460TIP3    H1 1325   5.123   0.617   0.044
  460TIP3    H2 1326   5.050   0.729   0.115
  461TIP3   OH2 1327   3.205   3.109   5.598
  461TIP3    H1 1328   3.292   3.132   5.631
  461TIP3    H2 1329   3.178   3.185   5.545
  462TIP3   OH2 1330   0.826   1.187   0.748
  462TIP3    H1 1331   0.820   1.279   0.772
  462TIP3    H2 1332   0.911   1.159   0.782
  463TIP3   OH2 1333   0.356   1.084   5.936
  463TIP3    H1 1334   0.413   1.155   5.908
  463TIP3    H2 1335   0.317   1.051   5.855
  464TIP3   OH2 1336   2.191   7.134   5.498
  464TIP3    H1 1337   2.256   7.150   5.429
  464TIP3    H2 1338   2.143   7.216   5.504
  465TIP3   OH2 1339   4.894   5.847   0.084
  465TIP3    H1 1340   4.979   5.888   0.100
  465TIP3    H2 1341   4.851   5.906   0.022
  466TIP3   OH2 1342   5.756   2.936   0.106
  466TIP3    H1 1343   5.781   3.007   0.047
  466TIP3    H2 1344   5.837   2.889   0.124
  467TIP3   OH2 1345   1.308   4.001   0.897
  467TIP3    H1 1346   1.369   3.937   0.858
  467TIP3    H2 1347   1.346   4.021   0.983
  468TIP3   OH2 1348   7.820   3.275   5.415
  468TIP3    H1 1349   7.740   3.327   5.412
  468TIP3    H2 1350   7.891   3.339   5.421
  469TIP3   OH2 1351   6.144   0.984   1.535
  469TIP3    H1 1352   6.090   0.958   1.460
  469TIP3    H2 1353   6.156   1.079   1.524
  470TIP3   OH2 1354   1.778   5.063   0.677
  470TIP3    H1 1355   1.835   5.091   0.750
  470TIP3    H2 1356   1.695   5.108   0.694
  471TIP3   OH2 1357   6.000   6.463   5.889
  471TIP3    H1 1358   6.001   6.369   5.907
  471TIP3    H2 1359   5.924   6.496   5.937
  472TIP3   OH2 1360   6.415   0.091   0.994
  472TIP3    H1 1361   6.499   0.134   1.007
  472TIP3    H2 1362   6.372   0.142   0.925
  473TIP3   OH2 1363   2.596   7.846   3.596
  473TIP3    H1 1364   2.585   7.830   3.502
  473TIP3    H2 1365   2.680   7.891   3.603
  474TIP3   OH2 1366   5.505   3.044   5.820
  474TIP3    H1 1367   5.518   3.054   5.915
  474TIP3    H2 1368   5.450   2.966   5.812
  475TIP3   OH2 1369   0.595   0.440   6.070
  475TIP3    H1 1370   0.504   0.413   6.060
  475TIP3    H2 1371   0.636   0.416   5.986
  476TIP3   OH2 1372   4.204   1.434   3.077
  476TIP3    H1 1373   4.216   1.440   3.171
  476TIP3    H2 1374   4.287   1.463   3.040
  477TIP3   OH2 1375   1.728   1.885   6.559
  477TIP3    H1 1376   1.707   1.825   6.488
  477TIP3    H2 1377   1.722   1.972   6.520
  478TIP3   OH2 1378   2.614   3.477   5.054
  478TIP3    H1 1379   2.523   3.486   5.023
  478TIP3    H2 1380   2.609   3.411   5.124
  479TIP3   OH2 1381   7.612   0.770   2.883
  479TIP3    H1 1382   7.584   0.814   2.803
  479TIP3    H2 1383   7.545   0.794   2.948
  480TIP3   OH2 1384   7.276   4.384   6.051
  480TIP3    H1 1385   7.306   4.306   6.004
  480TIP3    H2 1386   7.345   4.449   6.036
  481TIP3   OH2 1387   4.626   3.947   6.035
  481TIP3    H1 1388   4.720   3.956   6.053
  481TIP3    H2 1389   4.608   4.011   5.967
  482TIP3   OH2 1390   5.341   6.921   6.284
  482TIP3    H1 1391   5.289   6.858   6.233
  482TIP3    H2 1392   5.285   6.944   6.358
  483TIP3   OH2 1393  -0.059   4.710   1.298
  483TIP3    H1 1394  -0.002   4.636   1.277
  483TIP3    H2 1395  -0.022   4.783   1.249
  484TIP3   OH2 1396   7.570   7.138   4.040
  484TIP3    H1 1397   7.646   7.176   3.996
  484TIP3    H2 1398   7.532   7.079   3.975
  485TIP3   OH2 1399   3.129   3.643   6.187
  485TIP3    H1 1400   3.150   3.550   6.175
  485TIP3    H2 1401   3.047   3.655   6.138
  486TIP3   OH2 1402   2.704   5.256   2.919
  486TIP3    H1 1403   2.617   5.217   2.912
  486TIP3    H2 1404   2.753   5.196   2.975
  487TIP3   OH2 1405   2.944   1.337   1.911
  487TIP3    H1 1406   2.957   1.244   1.890
  487TIP3    H2 1407   2.973   1.383   1.833
  488TIP3   OH2 1408   8.243   5.329   3.098
  488TIP3    H1 1409   8.245   5.400   3.162
  488TIP3    H2 1410   8.325   5.281   3.112
  489TIP3   OH2 1411   3.584   7.637   4.390
  489TIP3    H1 1412   3.510   7.578   4.380
  489TIP3    H2 1413   3.633   7.603   4.465
  490TIP3   OH2 1414   1.165   7.470   6.061
  490TIP3    H1 1415   1.178   7.385   6.104
  490TIP3    H2 1416   1.164   7.449   5.968
  491TIP3   OH2 1417   1.229   2.912   6.441
  491TIP3    H1 1418   1.192   2.842   6.387
  491TIP3    H2 1419   1.323   2.896   6.440
  492TIP3   OH2 1420   1.371   2.936   4.436
  492TIP3    H1 1421   1.302   2.900   4.492
  492TIP3    H2 1422   1.346   2.910   4.347
  493TIP3   OH2 1423   1.960   1.307   0.463
  493TIP3    H1 1424   1.993   1.370   0.399
  493TIP3    H2 1425   1.876   1.342   0.490
  494TIP3   OH2 1426   5.658   2.373   2.479
  494TIP3    H1 1427   5.723   2.313   2.515
  494TIP3    H2 1428   5.639   2.434   2.550
  495TIP3   OH2 1429   0.944   5.467   2.996
  495TIP3    H1 1430   1.001   5.392   2.983
  495TIP3    H2 1431   0.858   5.430   3.018
  496TIP3   OH2 1432   1.438   4.266   3.414
  496TIP3    H1 1433   1.493   4.239   3.488
  496TIP3    H2 1434   1.474   4.220   3.339
  497TIP3   OH2 1435   1.142   3.431   1.522
  497TIP3    H1 1436   1.094   3.451   1.441
  497TIP3    H2 1437   1.080   3.453   1.591
  498TIP3   OH2 1438   4.445   5.728   0.378
  498TIP3    H1 1439   4.371   5.778   0.412
  498TIP3    H2 1440   4.435   5.731   0.283
  499TIP3   OH2 1441   3.554  -0.044   1.295
  499TIP3    H1 1442   3.584  -0.078   1.211
  499TIP3    H2 1443   3.530   0.047   1.277
  500TIP3   OH2 1444   3.560   2.844   3.840
  500TIP3    H1 1445   3.599   2.798   3.766
  500TIP3    H2 1446   3.629   2.902   3.871
  501TIP3   OH2 1447   0.188   7.502   5.166
  501TIP3    H1 1448   0.110   7.483   5.219
  501TIP3    H2 1449   0.157   7.495   5.076
  502TIP3   OH2 1450   6.585   4.933   3.908
  502TIP3    H1 1451   6.522   4.970   3.846
  502TIP3    H2 1452   6.653   5.000   3.916
  503TIP3   OH2 1453   4.264   4.638   5.484
  503TIP3    H1 1454   4.184   4.647   5.434
  503TIP3    H2 1455   4.266   4.547   5.513
  504TIP3   OH2 1456   3.096   5.754   1.331
  504TIP3    H1 1457   3.123   5.670   1.369
  504TIP3    H2 1458   3.027   5.785   1.389
  505TIP3   OH2 1459   1.528   6.773   2.486
  505TIP3    H1 1460   1.585   6.833   2.535
  505TIP3    H2 1461   1.548   6.791   2.394
  506TIP3   OH2 1462   5.614   0.864   5.540
  506TIP3    H1 1463   5.590   0.944   5.587
  506TIP3    H2 1464   5.584   0.793   5.597
  507TIP3   OH2 1465   2.747   6.185   3.617
  507TIP3    H1 1466   2.707   6.107   3.656
  507TIP3    H2 1467   2.709   6.191   3.529
  508TIP3   OH2 1468   3.771   2.145   5.600
  508TIP3    H1 1469   3.864   2.147   5.623
  508TIP3    H2 1470   3.765   2.079   5.531
  509TIP3   OH2 1471   6.542   6.804   6.694
  509TIP3    H1 1472   6.568   6.827   6.605
  509TIP3    H2 1473   6.616   6.828   6.749
  510TIP3   OH2 1474   4.292   1.841   1.916
  510TIP3    H1 1475   4.329   1.925   1.944
  510TIP3    H2 1476   4.362   1.777   1.930
  511TIP3   OH2 1477   0.226   5.794   3.769
  511TIP3    H1 1478   0.199   5.835   3.851
  511TIP3    H2 1479   0.145   5.783   3.719
  512TIP3   OH2 1480   3.475   6.724   3.119
  512TIP3    H1 1481   3.525   6.803   3.100
  512TIP3    H2 1482   3.427   6.744   3.199
  513TIP3   OH2 1483   8.091   3.803   3.962
  513TIP3    H1 1484   8.083   3.718   4.006
  513TIP3    H2 1485   8.040   3.794   3.882
  514TIP3   OH2 1486   5.750   7.026   2.506
  514TIP3    H1 1487   5.745   7.121   2.499
  514TIP3    H2 1488   5.710   6.994   2.425
  515TIP3   OH2 1489   0.468   0.517   4.805
  515TIP3    H1 1490   0.407   0.535   4.733
  515TIP3    H2 1491   0.498   0.428   4.789
  516TIP3   OH2 1492   4.741   6.289   5.427
  516TIP3    H1 1493   4.705   6.206   5.459
  516TIP3    H2 1494   4.775   6.332   5.506
  517TIP3   OH2 1495   8.169   6.952   5.993
  517TIP3    H1 1496   8.186   6.993   5.908
  517TIP3    H2 1497   8.167   7.025   6.055
  518TIP3   OH2 1498   5.704   4.935   4.965
  518TIP3    H1 1499   5.682   4.993   4.892
  518TIP3    H2 1500   5.623   4.887   4.983
  519TIP3   OH2 1501   4.054   0.615   6.540
  519TIP3    H1 1502   4.084   0.698   6.578
  519TIP3    H2 1503   4.128   0.586   6.487
  520TIP3   OH2 1504   1.877   7.014   4.362
  520TIP3    H1 1505   1.946   7.071   4.396
  520TIP3    H2 1506   1.795   7.058   4.387
  521TIP3   OH2 1507   3.684   4.531   5.565
  521TIP3    H1 1508   3.720   4.442   5.565
  521TIP3    H2 1509   3.649   4.542   5.653
  522TIP3   OH2 1510   1.337   4.715   6.442
  522TIP3    H1 1511   1.345   4.780   6.512
  522TIP3    H2 1512   1.294   4.640   6.483
  523TIP3   OH2 1513   1.465   7.598   5.558
  523TIP3    H1 1514   1.544   7.612   5.505
  523TIP3    H2 1515   1.453   7.503   5.559
  524TIP3   OH2 1516   5.234   5.980   4.993
  524TIP3    H1 1517   5.242   5.941   5.080
  524TIP3    H2 1518   5.204   5.908   4.937
  525TIP3   OH2 1519   6.270   6.510   5.931
  525TIP3    H1 1520   6.311   6.456   5.863
  525TIP3    H2 1521   6.180   6.524   5.899
  526TIP3   OH2 1522   0.388   2.348   0.327
  526TIP3    H1 1523   0.441   2.364   0.249
  526TIP3    H2 1524   0.302   2.385   0.306
  527TIP3   OH2 1525   4.897   0.698   0.243
  527TIP3    H1 1526   4.934   0.644   0.313
  527TIP3    H2 1527   4.803   0.683   0.248
  528TIP3   OH2 1528   0.262   3.758   4.331
  528TIP3    H1 1529   0.257   3.827   4.264
  528TIP3    H2 1530   0.171   3.731   4.344
  529TIP3   OH2 1531   4.206   6.995   6.319
  529TIP3    H1 1532   4.155   6.915   6.305
  529TIP3    H2 1533   4.153   7.047   6.380
  530TIP3   OH2 1534   2.762   6.728   3.498
  530TIP3    H1 1535   2.686   6.743   3.554
  530TIP3    H2 1536   2.786   6.636   3.513
  531TIP3   OH2 1537   1.901   5.350   4.350
  531TIP3    H1 1538   1.855   5.270   4.373
  531TIP3    H2 1539   1.859   5.380   4.269
  532TIP3   OH2 1540   0.036   7.271   0.339
  532TIP3    H1 1541  -0.033   7.330   0.310
  532TIP3    H2 1542   0.013   7.186   0.301
  533TIP3   OH2 1543   6.114   6.308   3.793
  533TIP3    H1 1544   6.050   6.375   3.766
  533TIP3    H2 1545   6.110   6.242   3.724
  534TIP3   OH2 1546   8.101   5.907   0.764
  534TIP3    H1 1547   8.032   5.843   0.776
  534TIP3    H2 1548   8.086   5.972   0.833
  535TIP3   OH2 1549   6.626   3.164   5.182
  535TIP3    H1 1550   6.637   3.163   5.087
  535TIP3    H2 1551   6.554   3.225   5.197
  536TIP3   OH2 1552   2.347   1.789   3.082
  536TIP3    H1 1553   2.266   1.833   3.055
  536TIP3    H2 1554   2.318   1.701   3.107
  537TIP3   OH2 1555   0.566   2.958   0.833
  537TIP3    H1 1556   0.527   2.937   0.748
  537TIP3    H2 1557   0.620   2.882   0.854
  538TIP3   OH2 1558   7.593   2.020   4.164
  538TIP3    H1 1559   7.589   1.944   4.105
  538TIP3    H2 1560   7.525   2.080   4.131
  539TIP3   OH2 1561   2.725   4.905   2.781
  539TIP3    H1 1562   2.691   4.828   2.736
  539TIP3    H2 1563   2.818   4.905   2.761
  540TIP3   OH2 1564   0.947   7.146   5.327
  540TIP3    H1 1565   0.970   7.089   5.401
  540TIP3    H2 1566   0.880   7.205   5.362
  541TIP3   OH2 1567   7.830   5.413   0.897
  541TIP3    H1 1568   7.773   5.338   0.914
  541TIP3    H2 1569   7.900   5.406   0.962
  542TIP3   OH2 1570   5.620   6.236   2.799
  542TIP3    H1 1571   5.654   6.260   2.885
  542TIP3    H2 1572   5.544   6.294   2.787
  543TIP3   OH2 1573   2.382   1.245   2.010
  543TIP3    H1 1574   2.473   1.214   2.010
  543TIP3    H2 1575   2.387   1.332   1.971
  544TIP3   OH2 1576   1.516   3.166   4.610
  544TIP3    H1 1577   1.475   3.112   4.678
  544TIP3    H2 1578   1.546   3.102   4.545
  545TIP3   OH2 1579   7.644   1.023   5.005
  545TIP3    H1 1580   7.731   1.020   4.966
  545TIP3    H2 1581   7.630   1.116   5.026
  546TIP3   OH2 1582   1.282   0.085   4.385
  546TIP3    H1 1583   1.266   0.020   4.317
  546TIP3    H2 1584   1.200   0.088   4.435
  547TIP3   OH2 1585   2.045   3.062   6.119
  547TIP3    H1 1586   1.962   3.035   6.156
  547TIP3    H2 1587   2.060   3.002   6.046
  548TIP3   OH2 1588   4.617   0.470   6.489
  548TIP3    H1 1589   4.646   0.404   6.552
  548TIP3    H2 1590   4.609   0.421   6.407
  549TIP3   OH2 1591   2.548   6.064   6.464
  549TIP3    H1 1592   2.633   6.052   6.422
  549TIP3    H2 1593   2.493   6.103   6.395
  550TIP3   OH2 1594   6.740   1.160   6.739
  550TIP3    H1 1595   6.813   1.098   6.747
  550TIP3    H2 1596   6.782   1.245   6.729
  551TIP3   OH2 1597   6.645   1.690   5.353
  551TIP3    H1 1598   6.577   1.757   5.366
  551TIP3    H2 1599   6.673   1.701   5.262
  552TIP3   OH2 1600   5.795   0.460   6.005
  552TIP3    H1 1601   5.794   0.409   6.086
  552TIP3    H2 1602   5.828   0.399   5.938
  553TIP3   OH2 1603   2.579   2.342   0.990
  553TIP3    H1 1604   2.623   2.378   0.913
  553TIP3    H2 1605   2.624   2.381   1.065
  554TIP3   OH2 1606   4.004   6.814   3.076
  554TIP3    H1 1607   3.974   6.894   3.119
  554TIP3    H2 1608   4.093   6.833   3.048
  555TIP3   OH2 1609   2.059   1.840   4.762
  555TIP3    H1 1610   2.144   1.821   4.801
  555TIP3    H2 1611   2.005   1.765   4.783
  556TIP3   OH2 1612   1.208   0.784   4.189
  556TIP3    H1 1613   1.170   0.781   4.277
  556TIP3    H2 1614   1.217   0.877   4.170
  557TIP3   OH2 1615   4.780   1.790   2.369
  557TIP3    H1 1616   4.760   1.805   2.462
  557TIP3    H2 1617   4.715   1.726   2.341
  558TIP3   OH2 1618   7.548   6.429   5.718
  558TIP3    H1 1619   7.576   6.451   5.630
  558TIP3    H2 1620   7.545   6.333   5.720
  559TIP3   OH2 1621   1.699   4.221   5.726
  559TIP3    H1 1622   1.633   4.252   5.788
  559TIP3    H2 1623   1.782   4.250   5.762
  560TIP3   OH2 1624   3.614   6.127   2.976
  560TIP3    H1 1625   3.635   6.177   2.897
  560TIP3    H2 1626   3.699   6.112   3.018
  561TIP3   OH2 1627   2.319   7.789   5.160
  561TIP3    H1 1628   2.303   7.729   5.087
  561TIP3    H2 1629   2.399   7.837   5.135
  562TIP3   OH2 1630   5.920   1.258   5.167
  562TIP3    H1 1631   5.932   1.333   5.108
  562TIP3    H2 1632   5.931   1.295   5.255
  563TIP3   OH2 1633   4.501   2.457   1.101
  563TIP3    H1 1634   4.485   2.380   1.155
  563TIP3    H2 1635   4.595   2.474   1.111
  564TIP3   OH2 1636   6.101   0.990   0.112
  564TIP3    H1 1637   6.123   1.059   0.049
  564TIP3    H2 1638   6.038   0.936   0.066
  565TIP3   OH2 1639   6.462   0.630   5.835
  565TIP3    H1 1640   6.492   0.645   5.925
  565TIP3    H2 1641   6.473   0.715   5.793
  566TIP3   OH2 1642   8.102   5.620   1.177
  566TIP3    H1 1643   8.158   5.561   1.228
  566TIP3    H2 1644   8.149   5.704   1.177
  567TIP3   OH2 1645   3.894   4.835   3.605
  567TIP3    H1 1646   3.855   4.894   3.541
  567TIP3    H2 1647   3.894   4.885   3.687
  568TIP3   OH2 1648   5.042   6.571   4.887
  568TIP3    H1 1649   4.967   6.593   4.942
  568TIP3    H2 1650   5.099   6.518   4.942
  569TIP3   OH2 1651   6.970   2.763   1.912
  569TIP3    H1 1652   6.924   2.701   1.968
  569TIP3    H2 1653   7.057   2.771   1.951
  570TIP3   OH2 1654   2.840   0.797   2.953
  570TIP3    H1 1655   2.898   0.873   2.952
  570TIP3    H2 1656   2.813   0.786   2.862
  571TIP3   OH2 1657   4.777   3.474   1.910
  571TIP3    H1 1658   4.797   3.485   1.817
  571TIP3    H2 1659   4.843   3.412   1.942
  572TIP3   OH2 1660   7.035   0.547   4.925
  572TIP3    H1 1661   6.964   0.555   4.861
  572TIP3    H2 1662   7.017   0.465   4.970
  573TIP3   OH2 1663   4.660   0.183   1.346
  573TIP3    H1 1664   4.726   0.162   1.413
  573TIP3    H2 1665   4.711   0.220   1.274
  574TIP3   OH2 1666   6.686   4.399   2.351
  574TIP3    H1 1667   6.669   4.325   2.293
  574TIP3    H2 1668   6.764   4.441   2.314
  575TIP3   OH2 1669   4.258   6.687   0.589
  575TIP3    H1 1670   4.196   6.673   0.661
  575TIP3    H2 1671   4.235   6.774   0.554
  576TIP3   OH2 1672   7.915   5.671   0.456
  576TIP3    H1 1673   7.855   5.695   0.386
  576TIP3    H2 1674   7.941   5.581   0.436
  577TIP3   OH2 1675   2.030   7.566   1.596
  577TIP3    H1 1676   1.941   7.532   1.605
  577TIP3    H2 1677   2.036   7.634   1.664
  578TIP3   OH2 1678   2.260   2.337   4.168
  578TIP3    H1 1679   2.328   2.281   4.129
  578TIP3    H2 1680   2.179   2.306   4.129
  579TIP3   OH2 1681   0.224   6.627   1.854
  579TIP3    H1 1682   0.282   6.650   1.781
  579TIP3    H2 1683   0.139   6.664   1.829
  580TIP3   OH2 1684   4.195   3.827   4.036
  580TIP3    H1 1685   4.190   3.733   4.056
  580TIP3    H2 1686   4.126   3.842   3.971
  581TIP3   OH2 1687   0.086   2.256   5.237
  581TIP3    H1 1688   0.117   2.218   5.155
  581TIP3    H2 1689   0.158   2.312   5.267
  582TIP3   OH2 1690   7.315   0.823   1.293
  582TIP3    H1 1691   7.262   0.809   1.371
  582TIP3    H2 1692   7.389   0.877   1.324
  583TIP3   OH2 1693   5.042   3.860   0.352
  583TIP3    H1 1694   4.987   3.939   0.358
  583TIP3    H2 1695   5.057   3.834   0.443
  584TIP3   OH2 1696   2.996   5.398   0.373
  584TIP3    H1 1697   3.026   5.333   0.438
  584TIP3    H2 1698   3.075   5.448   0.352
  585TIP3   OH2 1699   1.688   3.637   4.516
  585TIP3    H1 1700   1.604   3.678   4.534
  585TIP3    H2 1701   1.684   3.551   4.558
  586TIP3   OH2 1702   7.321   7.112   4.681
  586TIP3    H1 1703   7.268   7.191   4.696
  586TIP3    H2 1704   7.355   7.123   4.592
  587TIP3   OH2 1705   0.451   3.085   5.876
  587TIP3    H1 1706   0.527   3.119   5.922
  587TIP3    H2 1707   0.390   3.060   5.946
  588TIP3   OH2 1708   1.277   5.051   3.169
  588TIP3    H1 1709   1.318   5.070   3.254
  588TIP3    H2 1710   1.212   4.983   3.189
  589TIP3   OH2 1711   7.319   4.200   5.339
  589TIP3    H1 1712   7.317   4.144   5.416
  589TIP3    H2 1713   7.339   4.287   5.372
  590TIP3   OH2 1714   5.127   3.676   4.224
  590TIP3    H1 1715   5.202   3.632   4.184
  590TIP3    H2 1716   5.056   3.664   4.161
  591TIP3   OH2 1717   1.590   1.647   2.401
  591TIP3    H1 1718   1.613   1.635   2.308
  591TIP3    H2 1719   1.644   1.719   2.430
  592TIP3   OH2 1720   0.546   3.380   6.687
  592TIP3    H1 1721   0.516   3.395   6.776
  592TIP3    H2 1722   0.600   3.456   6.666
  593TIP3   OH2 1723   4.526   5.003   5.978
  593TIP3    H1 1724   4.431   5.018   5.973
  593TIP3    H2 1725   4.558   5.075   6.031
  594TIP3   OH2 1726   0.727   5.962   1.894
  594TIP3    H1 1727   0.737   5.939   1.986
  594TIP3    H2 1728   0.815   5.985   1.865
  595TIP3   OH2 1729   8.180   6.615   0.380
  595TIP3    H1 1730   8.202   6.590   0.470
  595TIP3    H2 1731   8.185   6.533   0.331
  596TIP3   OH2 1732   3.515   2.344   3.105
  596TIP3    H1 1733   3.450   2.275   3.092
  596TIP3    H2 1734   3.599   2.303   3.087
  597TIP3   OH2 1735   5.157   4.163   2.969
  597TIP3    H1 1736   5.106   4.232   3.012
  597TIP3    H2 1737   5.129   4.082   3.013
  598TIP3   OH2 1738   1.367   3.136   5.947
  598TIP3    H1 1739   1.400   3.099   6.029
  598TIP3    H2 1740   1.374   3.064   5.884
  599TIP3   OH2 1741   3.956   1.876   0.775
  599TIP3    H1 1742   3.969   1.868   0.870
  599TIP3    H2 1743   4.002   1.801   0.738
  600TIP3   OH2 1744   4.774   7.841   2.318
  600TIP3    H1 1745   4.771   7.749   2.290
  600TIP3    H2 1746   4.699   7.849   2.378
  601TIP3   OH2 1747   0.455   4.129   0.144
  601TIP3    H1 1748   0.400   4.181   0.203
  601TIP3    H2 1749   0.412   4.044   0.140
  602TIP3   OH2 1750   8.217   1.648   3.725
  602TIP3    H1 1751   8.135   1.600   3.710
  602TIP3    H2 1752   8.212   1.722   3.665
  603TIP3   OH2 1753   6.339   5.265   4.063
  603TIP3    H1 1754   6.294   5.194   4.017
  603TIP3    H2 1755   6.361   5.227   4.148
  604TIP3   OH2 1756   3.857   0.021   4.977
  604TIP3    H1 1757   3.848  -0.008   5.068
  604TIP3    H2 1758   3.922   0.091   4.980
  605TIP3   OH2 1759   0.471   2.337   0.074
  605TIP3    H1 1760   0.394   2.365   0.025
  605TIP3    H2 1761   0.486   2.246   0.047
  606TIP3   OH2 1762   4.871   4.871   0.122
  606TIP3    H1 1763   4.829   4.933   0.181
  606TIP3    H2 1764   4.946   4.838   0.172
  607TIP3   OH2 1765   1.472   1.727   5.785
  607TIP3    H1 1766   1.492   1.762   5.698
  607TIP3    H2 1767   1.548   1.674   5.807
  608TIP3   OH2 1768   6.833   3.981   1.897
  608TIP3    H1 1769   6.838   4.076   1.901
  608TIP3    H2 1770   6.894   3.956   1.828
  609TIP3   OH2 1771   5.713   0.137   2.335
  609TIP3    H1 1772   5.637   0.195   2.345
  609TIP3    H2 1773   5.685   0.054   2.373
  610TIP3   OH2 1774   7.564   1.984   4.842
  610TIP3    H1 1775   7.580   1.890   4.833
  610TIP3    H2 1776   7.502   1.991   4.914
  611TIP3   OH2 1777   8.270   2.499   0.614
  611TIP3    H1 1778   8.243   2.542   0.532
  611TIP3    H2 1779   8.252   2.406   0.599
  612TIP3   OH2 1780   3.075   3.327   5.453
  612TIP3    H1 1781   3.078   3.401   5.391
  612TIP3    H2 1782   2.982   3.314   5.471
  613TIP3   OH2 1783   6.683   7.467   3.700
  613TIP3    H1 1784   6.703   7.446   3.791
  613TIP3    H2 1785   6.764   7.448   3.653
  614TIP3   OH2 1786   7.353   4.806   1.646
  614TIP3    H1 1787   7.426   4.747   1.664
  614TIP3    H2 1788   7.300   4.804   1.726
  615TIP3   OH2 1789   1.080   7.577   3.733
  615TIP3    H1 1790   1.098   7.483   3.734
  615TIP3    H2 1791   1.155   7.616   3.689
  616TIP3   OH2 1792   3.103   3.168   6.095
  616TIP3    H1 1793   3.142   3.118   6.024
  616TIP3    H2 1794   3.065   3.102   6.153
  617TIP3   OH2 1795   6.348   2.807   3.335
  617TIP3    H1 1796   6.279   2.805   3.401
  617TIP3    H2 1797   6.418   2.754   3.372
  618TIP3   OH2 1798   0.480   0.733   4.991
  618TIP3    H1 1799   0.465   0.667   4.924
  618TIP3    H2 1800   0.495   0.684   5.071
  619TIP3   OH2 1801   4.045   4.972   1.354
  619TIP3    H1 1802   4.029   5.019   1.436
  619TIP3    H2 1803   4.030   4.880   1.376
  620TIP3   OH2 1804   6.291   6.769   2.669
  620TIP3    H1 1805   6.251   6.714   2.737
  620TIP3    H2 1806   6.328   6.843   2.718
  621TIP3   OH2 1807   4.750   5.125   4.601
  621TIP3    H1 1808   4.743   5.163   4.689
  621TIP3    H2 1809   4.691   5.177   4.547
  622TIP3   OH2 1810   0.923   4.741   2.227
  622TIP3    H1 1811   0.977   4.679   2.178
  622TIP3    H2 1812   0.848   4.757   2.171
  623TIP3   OH2 1813   5.607   3.731   0.168
  623TIP3    H1 1814   5.530   3.788   0.170
  623TIP3    H2 1815   5.603   3.684   0.251
  624TIP3   OH2 1816   4.684   2.890   0.587
  624TIP3    H1 1817   4.729   2.967   0.552
  624TIP3    H2 1818   4.591   2.913   0.582
  625TIP3   OH2 1819   5.734   7.461   3.300
  625TIP3    H1 1820   5.792   7.392   3.333
  625TIP3    H2 1821   5.775   7.542   3.329
  626TIP3   OH2 1822   3.472   4.432   2.019
  626TIP3    H1 1823   3.501   4.477   1.939
  626TIP3    H2 1824   3.483   4.339   1.999
  627TIP3   OH2 1825   5.931   7.545   3.730
  627TIP3    H1 1826   5.855   7.590   3.768
  627TIP3    H2 1827   6.007   7.589   3.769
  628TIP3   OH2 1828   1.448   4.253   5.521
  628TIP3    H1 1829   1.449   4.348   5.521
  628TIP3    H2 1830   1.521   4.228   5.577
  629TIP3   OH2 1831   3.962   7.323   0.138
  629TIP3    H1 1832   4.023   7.320   0.211
  629TIP3    H2 1833   4.018   7.319   0.060
  630TIP3   OH2 1834   4.855   0.730   4.577
  630TIP3    H1 1835   4.923   0.714   4.644
  630TIP3    H2 1836   4.867   0.821   4.552
  631TIP3   OH2 1837   1.012   2.356   2.844
  631TIP3    H1 1838   0.942   2.305   2.804
  631TIP3    H2 1839   1.082   2.357   2.779
  632TIP3   OH2 1840   2.387   2.300   2.068
  632TIP3    H1 1841   2.384   2.300   1.972
  632TIP3    H2 1842   2.369   2.390   2.092
  633TIP3   OH2 1843   5.966   0.934   2.464
  633TIP3    H1 1844   6.004   0.956   2.549
  633TIP3    H2 1845   5.898   0.870   2.483
  634TIP3   OH2 1846   4.080   0.439   0.197
  634TIP3    H1 1847   4.108   0.515   0.147
  634TIP3    H2 1848   4.097   0.365   0.138
  635TIP3   OH2 1849   6.759   0.683   4.228
  635TIP3    H1 1850   6.801   0.751   4.174
  635TIP3    H2 1851   6.680   0.660   4.180
  636TIP3   OH2 1852   5.089   6.028   0.836
  636TIP3    H1 1853   5.028   6.082   0.786
  636TIP3    H2 1854   5.123   5.965   0.773
  637TIP3   OH2 1855   6.145   7.780   1.087
  637TIP3    H1 1856   6.227   7.731   1.090
  637TIP3    H2 1857   6.102   7.760   1.170
  638TIP3   OH2 1858   5.393   3.341   5.326
  638TIP3    H1 1859   5.313   3.390   5.308
  638TIP3    H2 1860   5.371   3.250   5.303
  639TIP3   OH2 1861   5.820   7.658   1.952
  639TIP3    H1 1862   5.753   7.692   1.893
  639TIP3    H2 1863   5.782   7.666   2.039
  640TIP3   OH2 1864   7.396   2.083   3.018
  640TIP3    H1 1865   7.388   2.150   2.950
  640TIP3    H2 1866   7.364   2.127   3.097
  641TIP3   OH2 1867   6.243   0.571   3.843
  641TIP3    H1 1868   6.282   0.538   3.762
  641TIP3    H2 1869   6.201   0.495   3.882
  642TIP3   OH2 1870   5.607   1.799   6.647
  642TIP3    H1 1871   5.515   1.776   6.665
  642TIP3    H2 1872   5.636   1.845   6.726
  643TIP3   OH2 1873   1.420   4.809   4.379
  643TIP3    H1 1874   1.501   4.774   4.416
  643TIP3    H2 1875   1.356   4.804   4.450
  644TIP3   OH2 1876   1.243   5.135   5.644
  644TIP3    H1 1877   1.323   5.172   5.608
  644TIP3    H2 1878   1.175   5.160   5.582
  645TIP3   OH2 1879   4.435   7.338   4.512
  645TIP3    H1 1880   4.469   7.357   4.600
  645TIP3    H2 1881   4.512   7.346   4.455
  646TIP3   OH2 1882   0.138   1.157   0.635
  646TIP3    H1 1883   0.206   1.220   0.612
  646TIP3    H2 1884   0.114   1.116   0.551
  647TIP3   OH2 1885   1.144   1.848   2.514
  647TIP3    H1 1886   1.099   1.876   2.434
  647TIP3    H2 1887   1.237   1.854   2.492
  648TIP3   OH2 1888   8.078   5.270   5.700
  648TIP3    H1 1889   8.133   5.329   5.752
  648TIP3    H2 1890   8.107   5.183   5.724
  649TIP3   OH2 1891   3.395   1.042   4.651
  649TIP3    H1 1892   3.386   0.965   4.595
  649TIP3    H2 1893   3.486   1.039   4.681
  650TIP3   OH2 1894   3.194   6.843   0.267
  650TIP3    H1 1895   3.263   6.907   0.251
  650TIP3    H2 1896   3.134   6.853   0.193
  651TIP3   OH2 1897   5.798   3.569   4.253
  651TIP3    H1 1898   5.884   3.583   4.292
  651TIP3    H2 1899   5.751   3.651   4.266
  652TIP3   OH2 1900   5.490   5.782   4.794
  652TIP3    H1 1901   5.413   5.771   4.738
  652TIP3    H2 1902   5.456   5.780   4.883
  653TIP3   OH2 1903   0.616   0.022   5.869
  653TIP3    H1 1904   0.626   0.079   5.945
  653TIP3    H2 1905   0.553   0.066   5.813
  654TIP3   OH2 1906   4.704   3.181   0.234
  654TIP3    H1 1907   4.622   3.185   0.186
  654TIP3    H2 1908   4.728   3.272   0.249
  655TIP3   OH2 1909   6.885   7.331   2.026
  655TIP3    H1 1910   6.964   7.360   1.980
  655TIP3    H2 1911   6.916   7.304   2.112
  656TIP3   OH2 1912   2.688   7.490   5.784
  656TIP3    H1 1913   2.611   7.542   5.759
  656TIP3    H2 1914   2.674   7.469   5.876
  657TIP3   OH2 1915   6.987   3.158   0.934
  657TIP3    H1 1916   7.016   3.216   0.863
  657TIP3    H2 1917   7.029   3.074   0.915
  658TIP3   OH2 1918   0.552   4.458   6.366
  658TIP3    H1 1919   0.583   4.416   6.286
  658TIP3    H2 1920   0.627   4.455   6.426
  659TIP3   OH2 1921   0.424   4.387   0.883
  659TIP3    H1 1922   0.395   4.475   0.856
  659TIP3    H2 1923   0.466   4.401   0.968
  660TIP3   OH2 1924   7.927   7.641   4.462
  660TIP3    H1 1925   8.011   7.659   4.420
  660TIP3    H2 1926   7.862   7.679   4.403
  661TIP3   OH2 1927   7.726   4.946   5.023
  661TIP3    H1 1928   7.646   4.957   5.075
  661TIP3    H2 1929   7.791   5.000   5.067
  662TIP3   OH2 1930   1.718   2.552   3.844
  662TIP3    H1 1931   1.667   2.514   3.773
  662TIP3    H2 1932   1.674   2.522   3.924
  663TIP3   OH2 1933   2.045   4.337   4.458
  663TIP3    H1 1934   2.004   4.413   4.417
  663TIP3    H2 1935   1.977   4.302   4.516
  664TIP3   OH2 1936   4.270   6.168   2.021
  664TIP3    H1 1937   4.330   6.179   2.095
  664TIP3    H2 1938   4.184   6.155   2.062
  665TIP3   OH2 1939   7.482   4.913   6.779
  665TIP3    H1 1940   7.518   4.952   6.700
  665TIP3    H2 1941   7.396   4.953   6.790
  666TIP3   OH2 1942   6.607   7.667   4.133
  666TIP3    H1 1943   6.671   7.650   4.202
  666TIP3    H2 1944   6.653   7.723   4.071
  667TIP3   OH2 1945   0.663   5.198   0.581
  667TIP3    H1 1946   0.624   5.125   0.629
  667TIP3    H2 1947   0.716   5.156   0.513
  668TIP3   OH2 1948   4.559   6.922   0.228
  668TIP3    H1 1949   4.600   6.848   0.183
  668TIP3    H2 1950   4.621   6.994   0.216
  669TIP3   OH2 1951   3.945   3.696   3.449
  669TIP3    H1 1952   3.987   3.708   3.534
  669TIP3    H2 1953   3.980   3.767   3.395
  670TIP3   OH2 1954   3.085   1.564   4.157
  670TIP3    H1 1955   3.058   1.475   4.179
  670TIP3    H2 1956   3.117   1.601   4.239
  671TIP3   OH2 1957   1.921   0.523   0.928
  671TIP3    H1 1958   1.998   0.580   0.931
  671TIP3    H2 1959   1.899   0.518   0.835
  672TIP3   OH2 1960   5.087   1.359   2.726
  672TIP3    H1 1961   5.079   1.437   2.671
  672TIP3    H2 1962   5.178   1.331   2.716
  673TIP3   OH2 1963   6.310   4.333   3.249
  673TIP3    H1 1964   6.271   4.371   3.328
  673TIP3    H2 1965   6.258   4.370   3.177
  674TIP3   OH2 1966   5.962   3.267   2.386
  674TIP3    H1 1967   5.891   3.206   2.404
  674TIP3    H2 1968   5.983   3.254   2.294
  675TIP3   OH2 1969   7.949   5.387   1.142
  675TIP3    H1 1970   8.013   5.316   1.127
  675TIP3    H2 1971   8.002   5.466   1.146
  676TIP3   OH2 1972   6.398   6.097   5.357
  676TIP3    H1 1973   6.427   6.139   5.438
  676TIP3    H2 1974   6.467   6.118   5.294
  677TIP3   OH2 1975   5.625   5.379   5.577
  677TIP3    H1 1976   5.644   5.431   5.500
  677TIP3    H2 1977   5.710   5.347   5.607
  678TIP3   OH2 1978   6.427   3.554   4.731
  678TIP3    H1 1979   6.388   3.634   4.697
  678TIP3    H2 1980   6.464   3.579   4.815
  679TIP3   OH2 1981   3.346   2.764   0.548
  679TIP3    H1 1982   3.407   2.769   0.474
  679TIP3    H2 1983   3.348   2.673   0.576
  680TIP3   OH2 1984   7.676   6.022   2.915
  680TIP3    H1 1985   7.654   5.932   2.893
  680TIP3    H2 1986   7.686   6.022   3.010
  681TIP3   OH2 1987   2.917   4.094   1.963
  681TIP3    H1 1988   2.969   4.156   2.014
  681TIP3    H2 1989   2.883   4.032   2.027
  682TIP3   OH2 1990   7.452   0.872   0.842
  682TIP3    H1 1991   7.542   0.879   0.811
  682TIP3    H2 1992   7.402   0.842   0.767
  683TIP3   OH2 1993   1.435   5.703   2.708
  683TIP3    H1 1994   1.518   5.748   2.724
  683TIP3    H2 1995   1.395   5.751   2.635
  684TIP3   OH2 1996   3.778   0.087   4.023
  684TIP3    H1 1997   3.830   0.107   4.102
  684TIP3    H2 1998   3.808   0.000   3.997
  685TIP3   OH2 1999   3.231   2.774   3.451
  685TIP3    H1 2000   3.262   2.735   3.533
  685TIP3    H2 2001   3.138   2.752   3.447
  686TIP3   OH2 2002   3.464   5.572   0.420
  686TIP3    H1 2003   3.522   5.632   0.467
  686TIP3    H2 2004   3.471   5.490   0.468
  687TIP3   OH2 2005   5.046   5.279   4.175
  687TIP3    H1 2006   5.033   5.249   4.085
  687TIP3    H2 2007   4.965   5.256   4.220
  688TIP3   OH2 2008   3.357   6.134   1.191
  688TIP3    H1 2009   3.300   6.096   1.259
  688TIP3    H2 2010   3.446   6.120   1.224
  689TIP3   OH2 2011   5.674   3.574   1.146
  689TIP3    H1 2012   5.657   3.578   1.240
  689TIP3    H2 2013   5.769   3.582   1.139
  690TIP3   OH2 2014   6.044   6.157   5.510
  690TIP3    H1 2015   6.066   6.070   5.545
  690TIP3    H2 2016   6.010   6.140   5.423
  691TIP3   OH2 2017   6.596   3.200   3.616
  691TIP3    H1 2018   6.629   3.270   3.673
  691TIP3    H2 2019   6.608   3.234   3.528
  692TIP3   OH2 2020   4.145   4.591   1.717
  692TIP3    H1 2021   4.100   4.630   1.642
  692TIP3    H2 2022   4.173   4.665   1.770
  693TIP3   OH2 2023   4.176   4.828   6.128
  693TIP3    H1 2024   4.223   4.863   6.053
  693TIP3    H2 2025   4.123   4.902   6.159
  694TIP3   OH2 2026   5.884   1.346   0.981
  694TIP3    H1 2027   5.843   1.390   0.907
  694TIP3    H2 2028   5.924   1.268   0.943
  695TIP3   OH2 2029   3.044   3.922   5.523
  695TIP3    H1 2030   2.999   3.841   5.548
  695TIP3    H2 2031   3.046   3.920   5.427
  696TIP3   OH2 2032   3.046   5.866   5.094
  696TIP3    H1 2033   3.118   5.807   5.115
  696TIP3    H2 2034   2.996   5.820   5.026
  697TIP3   OH2 2035   1.907   3.763   2.798
  697TIP3    H1 2036   1.839   3.697   2.785
  697TIP3    H2 2037   1.861   3.836   2.838
  698TIP3   OH2 2038   6.181   7.114   3.698
  698TIP3    H1 2039   6.127   7.151   3.768
  698TIP3    H2 2040   6.120   7.060   3.647
  699TIP3   OH2 2041   4.353   4.244   6.441
  699TIP3    H1 2042   4.384   4.249   6.531
  699TIP3    H2 2043   4.258   4.246   6.447
  700TIP3   OH2 2044   0.911   6.427   1.921
  700TIP3    H1 2045   0.842   6.383   1.970
  700TIP3    H2 2046   0.912   6.385   1.836
  701TIP3   OH2 2047   3.753   0.068   6.501
  701TIP3    H1 2048   3.806   0.126   6.555
  701TIP3    H2 2049   3.815   0.004   6.466
  702TIP3   OH2 2050   7.891   5.313   4.323
  702TIP3    H1 2051   7.798   5.293   4.314
  702TIP3    H2 2052   7.910   5.375   4.253
  703TIP3   OH2 2053   0.494   3.079   4.416
  703TIP3    H1 2054   0.486   3.096   4.510
  703TIP3    H2 2055   0.435   3.005   4.401
  704TIP3   OH2 2056   3.280   6.740   6.277
  704TIP3    H1 2057   3.358   6.789   6.252
  704TIP3    H2 2058   3.313   6.659   6.316
  705TIP3   OH2 2059   7.058   4.938   6.608
  705TIP3    H1 2060   6.963   4.924   6.604
  705TIP3    H2 2061   7.079   4.981   6.525
  706TIP3   OH2 2062   6.251   5.180   3.380
  706TIP3    H1 2063   6.238   5.142   3.293
  706TIP3    H2 2064   6.331   5.138   3.413
  707TIP3   OH2 2065   3.483   1.209   5.566
  707TIP3    H1 2066   3.575   1.188   5.549
  707TIP3    H2 2067   3.443   1.126   5.589
  708TIP3   OH2 2068   6.440   1.390   4.997
  708TIP3    H1 2069   6.365   1.363   4.943
  708TIP3    H2 2070   6.402   1.447   5.064
  709TIP3   OH2 2071   5.563   3.400   2.907
  709TIP3    H1 2072   5.612   3.428   2.985
  709TIP3    H2 2073   5.573   3.305   2.905
  710TIP3   OH2 2074   1.178   4.131   3.879
  710TIP3    H1 2075   1.214   4.050   3.843
  710TIP3    H2 2076   1.142   4.105   3.964
  711TIP3   OH2 2077   5.977   5.941   4.932
  711TIP3    H1 2078   5.917   5.936   4.857
  711TIP3    H2 2079   5.970   5.855   4.973
  712TIP3   OH2 2080   2.442   2.568   4.628
  712TIP3    H1 2081   2.432   2.508   4.555
  712TIP3    H2 2082   2.366   2.626   4.622
  713TIP3   OH2 2083   7.457   4.385   3.115
  713TIP3    H1 2084   7.549   4.375   3.140
  713TIP3    H2 2085   7.441   4.479   3.120
  714TIP3   OH2 2086   0.618   4.751   3.733
  714TIP3    H1 2087   0.609   4.845   3.719
  714TIP3    H2 2088   0.596   4.712   3.648
  715TIP3   OH2 2089   1.571   5.583   6.364
  715TIP3    H1 2090   1.633   5.516   6.333
  715TIP3    H2 2091   1.560   5.641   6.289
  716TIP3   OH2 2092   0.933   3.935   0.077
  716TIP3    H1 2093   0.907   4.027   0.083
  716TIP3    H2 2094   1.022   3.938   0.043
  717TIP3   OH2 2095   2.535   4.241   2.720
  717TIP3    H1 2096   2.568   4.156   2.693
  717TIP3    H2 2097   2.513   4.286   2.638
  718TIP3   OH2 2098   2.338   7.246   2.031
  718TIP3    H1 2099   2.331   7.268   1.938
  718TIP3    H2 2100   2.397   7.313   2.067
  719TIP3   OH2 2101   4.818   2.170   4.189
  719TIP3    H1 2102   4.856   2.224   4.120
  719TIP3    H2 2103   4.743   2.128   4.149
  720TIP3   OH2 2104   2.216   3.614   4.672
  720TIP3    H1 2105   2.310   3.631   4.681
  720TIP3    H2 2106   2.178   3.700   4.652
  721TIP3   OH2 2107   4.909   7.700   3.014
  721TIP3    H1 2108   4.870   7.646   3.083
  721TIP3    H2 2109   4.905   7.645   2.936
  722TIP3   OH2 2110   6.448   4.818   2.979
  722TIP3    H1 2111   6.362   4.845   2.947
  722TIP3    H2 2112   6.453   4.854   3.067
  723TIP3   OH2 2113   4.731   5.109   0.878
  723TIP3    H1 2114   4.802   5.171   0.890
  723TIP3    H2 2115   4.705   5.119   0.787
  724TIP3   OH2 2116   7.156   4.118   4.108
  724TIP3    H1 2117   7.128   4.147   4.022
  724TIP3    H2 2118   7.132   4.190   4.167
  725TIP3   OH2 2119   0.620   7.854   0.479
  725TIP3    H1 2120   0.677   7.803   0.536
  725TIP3    H2 2121   0.556   7.791   0.446
  726TIP3   OH2 2122   2.349   7.671   5.401
  726TIP3    H1 2123   2.257   7.682   5.421
  726TIP3    H2 2124   2.359   7.707   5.313
  727TIP3   OH2 2125   7.158   3.225   0.604
  727TIP3    H1 2126   7.215   3.286   0.556
  727TIP3    H2 2127   7.128   3.274   0.680
  728TIP3   OH2 2128   2.941   1.078   1.766
  728TIP3    H1 2129   3.017   1.051   1.714
  728TIP3    H2 2130   2.866   1.042   1.719
  729TIP3   OH2 2131   3.484   5.706   5.324
  729TIP3    H1 2132   3.528   5.628   5.357
  729TIP3    H2 2133   3.494   5.770   5.394
  730TIP3   OH2 2134   6.765   1.742   2.475
  730TIP3    H1 2135   6.802   1.828   2.454
  730TIP3    H2 2136   6.797   1.685   2.405
  731TIP3   OH2 2137   0.604   7.770   3.155
  731TIP3    H1 2138   0.605   7.866   3.155
  731TIP3    H2 2139   0.675   7.746   3.214
  732TIP3   OH2 2140   0.426   1.133   6.587
  732TIP3    H1 2141   0.487   1.152   6.658
  732TIP3    H2 2142   0.345   1.106   6.630
  733TIP3   OH2 2143   4.161   2.195   0.479
  733TIP3    H1 2144   4.228   2.189   0.546
  733TIP3    H2 2145   4.209   2.186   0.396
  734TIP3   OH2 2146   7.605   6.511   4.309
  734TIP3    H1 2147   7.527   6.563   4.292
  734TIP3    H2 2148   7.652   6.560   4.377
  735TIP3   OH2 2149   3.177   2.613   5.649
  735TIP3    H1 2150   3.179   2.627   5.554
  735TIP3    H2 2151   3.174   2.517   5.659
  736TIP3   OH2 2152   8.264   2.112   6.217
  736TIP3    H1 2153   8.201   2.172   6.257
  736TIP3    H2 2154   8.299   2.160   6.142
  737TIP3   OH2 2155   1.811   5.333   1.678
  737TIP3    H1 2156   1.851   5.415   1.707
  737TIP3    H2 2157   1.731   5.359   1.632
  738TIP3   OH2 2158   7.760   4.963   5.651
  738TIP3    H1 2159   7.845   4.920   5.646
  738TIP3    H2 2160   7.714   4.918   5.722
  739TIP3   OH2 2161   6.254   2.757   6.178
  739TIP3    H1 2162   6.341   2.779   6.145
  739TIP3    H2 2163   6.219   2.841   6.209
  740TIP3   OH2 2164   5.071   5.086   1.038
  740TIP3    H1 2165   5.151   5.044   1.008
  740TIP3    H2 2166   5.085   5.100   1.132
  741TIP3   OH2 2167   0.436   1.961   4.951
  741TIP3    H1 2168   0.365   1.906   4.918
  741TIP3    H2 2169   0.494   1.901   4.997
  742TIP3   OH2 2170   2.751   4.002   2.426
  742TIP3    H1 2171   2.786   3.924   2.383
  742TIP3    H2 2172   2.745   3.978   2.518
  743TIP3   OH2 2173   1.028   0.415   5.018
  743TIP3    H1 2174   0.951   0.358   5.023
  743TIP3    H2 2175   1.066   0.413   5.105
  744TIP3   OH2 2176   7.983   0.774   4.637
  744TIP3    H1 2177   7.942   0.710   4.578
  744TIP3    H2 2178   7.955   0.747   4.725
  745TIP3   OH2 2179   6.221   1.671   6.692
  745TIP3    H1 2180   6.141   1.702   6.651
  745TIP3    H2 2181   6.291   1.723   6.652
  746TIP3   OH2 2182   4.733   2.195   3.588
  746TIP3    H1 2183   4.724   2.245   3.507
  746TIP3    H2 2184   4.648   2.152   3.600
  747TIP3   OH2 2185   2.332   4.370   5.501
  747TIP3    H1 2186   2.399   4.333   5.443
  747TIP3    H2 2187   2.382   4.423   5.563
  748TIP3   OH2 2188   1.215   0.090   1.247
  748TIP3    H1 2189   1.142   0.044   1.287
  748TIP3    H2 2190   1.254   0.141   1.318
  749TIP3   OH2 2191   7.933   4.647   0.407
  749TIP3    H1 2192   7.875   4.678   0.338
  749TIP3    H2 2193   7.977   4.571   0.369
  750TIP3   OH2 2194   1.354   5.747   6.532
  750TIP3    H1 2195   1.341   5.839   6.508
  750TIP3    H2 2196   1.270   5.720   6.568
  751TIP3   OH2 2197   2.423   6.762   3.292
  751TIP3    H1 2198   2.461   6.675   3.308
  751TIP3    H2 2199   2.330   6.746   3.279
  752TIP3   OH2 2200   5.000   1.663   0.461
  752TIP3    H1 2201   5.093   1.644   0.450
  752TIP3    H2 2202   4.996   1.759   0.463
  753TIP3   OH2 2203   0.450   1.282   0.339
  753TIP3    H1 2204   0.365   1.315   0.367
  753TIP3    H2 2205   0.491   1.251   0.420
  754TIP3   OH2 2206   5.945   2.713   1.150
  754TIP3    H1 2207   5.887   2.657   1.098
  754TIP3    H2 2208   5.923   2.802   1.124
  755TIP3   OH2 2209   7.710   1.083   3.498
  755TIP3    H1 2210   7.792   1.063   3.544
  755TIP3    H2 2211   7.719   1.174   3.470
  756TIP3   OH2 2212   5.834   2.600   0.289
  756TIP3    H1 2213   5.839   2.540   0.214
  756TIP3    H2 2214   5.757   2.654   0.271
  757TIP3   OH2 2215   7.069   4.805   0.951
  757TIP3    H1 2216   7.069   4.877   1.014
  757TIP3    H2 2217   7.052   4.727   1.004
  758TIP3   OH2 2218   3.588   6.051   1.296
  758TIP3    H1 2219   3.677   6.068   1.324
  758TIP3    H2 2220   3.558   5.979   1.352
  759TIP3   OH2 2221   7.261   4.650   6.373
  759TIP3    H1 2222   7.233   4.679   6.460
  759TIP3    H2 2223   7.179   4.632   6.326
  760TIP3   OH2 2224   7.704   0.823   6.189
  760TIP3    H1 2225   7.704   0.752   6.125
  760TIP3    H2 2226   7.640   0.886   6.156
  761TIP3   OH2 2227   0.622   5.563   4.200
  761TIP3    H1 2228   0.670   5.483   4.221
  761TIP3    H2 2229   0.654   5.589   4.114
  762TIP3   OH2 2230   7.990   2.974   4.469
  762TIP3    H1 2231   7.954   3.029   4.539
  762TIP3    H2 2232   8.024   2.897   4.515
  763TIP3   OH2 2233   6.133   0.498   5.353
  763TIP3    H1 2234   6.171   0.532   5.272
  763TIP3    H2 2235   6.104   0.576   5.400
  764TIP3   OH2 2236   1.458   5.010   2.984
  764TIP3    H1 2237   1.389   5.020   3.049
  764TIP3    H2 2238   1.506   5.093   2.987
  765TIP3   OH2 2239   4.426   2.382   5.945
  765TIP3    H1 2240   4.506   2.406   5.898
  765TIP3    H2 2241   4.355   2.402   5.884
  766TIP3   OH2 2242   0.014   3.085   6.465
  766TIP3    H1 2243  -0.066   3.106   6.417
  766TIP3    H2 2244   0.004   3.131   6.549
  767TIP3   OH2 2245   2.781   0.962   5.704
  767TIP3    H1 2246   2.699   0.990   5.664
  767TIP3    H2 2247   2.840   0.947   5.629
  768TIP3   OH2 2248   4.595   2.720   6.375
  768TIP3    H1 2249   4.591   2.815   6.367
  768TIP3    H2 2250   4.573   2.687   6.288
  769TIP3   OH2 2251   2.611   2.577   6.718
  769TIP3    H1 2252   2.612   2.645   6.786
  769TIP3    H2 2253   2.558   2.615   6.648
  770TIP3   OH2 2254   3.309   1.460   3.630
  770TIP3    H1 2255   3.305   1.391   3.697
  770TIP3    H2 2256   3.395   1.499   3.641
  771TIP3   OH2 2257   7.722   6.562   0.535
  771TIP3    H1 2258   7.768   6.549   0.618
  771TIP3    H2 2259   7.788   6.598   0.476
  772TIP3   OH2 2260   2.338   1.818   5.392
  772TIP3    H1 2261   2.371   1.908   5.388
  772TIP3    H2 2262   2.390   1.776   5.460
  773TIP3   OH2 2263   1.206   4.784   4.198
  773TIP3    H1 2264   1.147   4.733   4.255
  773TIP3    H2 2265   1.289   4.786   4.247
  774TIP3   OH2 2266   5.977   5.518   1.184
  774TIP3    H1 2267   5.944   5.575   1.253
  774TIP3    H2 2268   6.051   5.567   1.147
  775TIP3   OH2 2269   6.236   6.440   4.829
  775TIP3    H1 2270   6.236   6.385   4.907
  775TIP3    H2 2271   6.245   6.379   4.756
  776TIP3   OH2 2272   5.921  -0.009   0.144
  776TIP3    H1 2273   5.828  -0.019   0.165
  776TIP3    H2 2274   5.923   0.018   0.052
  777TIP3   OH2 2275   0.438   7.573   2.992
  777TIP3    H1 2276   0.488   7.531   3.062
  777TIP3    H2 2277   0.504   7.606   2.931
  778TIP3   OH2 2278   1.393   2.710   0.897
  778TIP3    H1 2279   1.383   2.623   0.935
  778TIP3    H2 2280   1.387   2.769   0.973
  779TIP3   OH2 2281   1.858   6.932   0.905
  779TIP3    H1 2282   1.783   6.925   0.845
  779TIP3    H2 2283   1.935   6.929   0.848
  780TIP3   OH2 2284   1.732   7.239   1.919
  780TIP3    H1 2285   1.785   7.291   1.979
  780TIP3    H2 2286   1.793   7.212   1.850
  781TIP3   OH2 2287   3.704   6.080   6.005
  781TIP3    H1 2288   3.780   6.027   5.983
  781TIP3    H2 2289   3.629   6.029   5.975
  782TIP3   OH2 2290   1.997   0.698   1.272
  782TIP3    H1 2291   1.920   0.746   1.302
  782TIP3    H2 2292   2.068   0.762   1.276
  783TIP3   OH2 2293   5.466   5.478   5.780
  783TIP3    H1 2294   5.495   5.453   5.692
  783TIP3    H2 2295   5.403   5.410   5.804
  784TIP3   OH2 2296   2.595   3.698   4.456
  784TIP3    H1 2297   2.624   3.607   4.464
  784TIP3    H2 2298   2.616   3.722   4.366
  785TIP3   OH2 2299   2.760   2.307   2.121
  785TIP3    H1 2300   2.833   2.246   2.126
  785TIP3    H2 2301   2.715   2.298   2.206
  786TIP3   OH2 2302   6.959   2.852   4.211
  786TIP3    H1 2303   7.044   2.828   4.173
  786TIP3    H2 2304   6.941   2.939   4.175
  787TIP3   OH2 2305   6.273   4.822   3.339
  787TIP3    H1 2306   6.291   4.797   3.430
  787TIP3    H2 2307   6.338   4.889   3.319
  788TIP3   OH2 2308   5.822   2.988   0.999
  788TIP3    H1 2309   5.743   2.993   1.052
  788TIP3    H2 2310   5.790   2.987   0.909
  789TIP3   OH2 2311   3.727   6.893   1.172
  789TIP3    H1 2312   3.780   6.923   1.097
  789TIP3    H2 2313   3.741   6.960   1.239
  790TIP3   OH2 2314   7.618   6.817   0.739
  790TIP3    H1 2315   7.685   6.749   0.732
  790TIP3    H2 2316   7.554   6.795   0.672
  791TIP3   OH2 2317   2.776   2.116   3.514
  791TIP3    H1 2318   2.840   2.156   3.573
  791TIP3    H2 2319   2.692   2.154   3.540
  792TIP3   OH2 2320   2.821   3.238   5.571
  792TIP3    H1 2321   2.896   3.223   5.629
  792TIP3    H2 2322   2.767   3.159   5.581
  793TIP3   OH2 2323   1.144   7.243   2.287
  793TIP3    H1 2324   1.095   7.257   2.368
  793TIP3    H2 2325   1.188   7.326   2.271
  794TIP3   OH2 2326   7.732   0.521   0.666
  794TIP3    H1 2327   7.771   0.599   0.626
  794TIP3    H2 2328   7.693   0.552   0.747
  795TIP3   OH2 2329   6.196   3.914   3.147
  795TIP3    H1 2330   6.194   3.904   3.052
  795TIP3    H2 2331   6.261   3.983   3.162
  796TIP3   OH2 2332   2.062   2.344   4.548
  796TIP3    H1 2333   2.026   2.426   4.580
  796TIP3    H2 2334   2.045   2.281   4.618
  797TIP3   OH2 2335   3.717   3.845   1.056
  797TIP3    H1 2336   3.768   3.843   0.975
  797TIP3    H2 2337   3.673   3.760   1.058
  798TIP3   OH2 2338   0.605   1.075   6.389
  798TIP3    H1 2339   0.578   1.005   6.330
  798TIP3    H2 2340   0.531   1.087   6.448
  799TIP3   OH2 2341   1.262   0.472   5.623
  799TIP3    H1 2342   1.314   0.404   5.663
  799TIP3    H2 2343   1.249   0.537   5.692
  800TIP3   OH2 2344   1.295   0.583   0.691
  800TIP3    H1 2345   1.339   0.591   0.607
  800TIP3    H2 2346   1.353   0.529   0.744
  801TIP3   OH2 2347   4.426   2.470   6.702
  801TIP3    H1 2348   4.508   2.460   6.752
  801TIP3    H2 2349   4.453   2.465   6.610
  802TIP3   OH2 2350   3.163   0.755   1.518
  802TIP3    H1 2351   3.087   0.699   1.533
  802TIP3    H2 2352   3.222   0.736   1.591
  803TIP3   OH2 2353   1.257   2.675   0.102
  803TIP3    H1 2354   1.323   2.612   0.131
  803TIP3    H2 2355   1.256   2.742   0.170
  804TIP3   OH2 2356   5.902   4.753   0.455
  804TIP3    H1 2357   5.941   4.833   0.490
  804TIP3    H2 2358   5.969   4.686   0.470
  805TIP3   OH2 2359   6.438   7.018   6.035
  805TIP3    H1 2360   6.378   6.966   6.088
  805TIP3    H2 2361   6.398   7.020   5.948
  806TIP3   OH2 2362   0.480   6.348   1.553
  806TIP3    H1 2363   0.396   6.325   1.594
  806TIP3    H2 2364   0.468   6.438   1.522
  807TIP3   OH2 2365   5.009   6.684   2.962
  807TIP3    H1 2366   5.067   6.675   3.038
  807TIP3    H2 2367   4.946   6.613   2.972
  808TIP3   OH2 2368   4.736   0.925   1.205
  808TIP3    H1 2369   4.770   0.971   1.282
  808TIP3    H2 2370   4.685   0.853   1.241
  809TIP3   OH2 2371   3.267   7.002   1.761
  809TIP3    H1 2372   3.348   6.951   1.766
  809TIP3    H2 2373   3.268   7.057   1.840
  810TIP3   OH2 2374   6.679   5.707   3.112
  810TIP3    H1 2375   6.611   5.762   3.073
  810TIP3    H2 2376   6.705   5.647   3.042
  811TIP3   OH2 2377   6.871   2.366   5.624
  811TIP3    H1 2378   6.798   2.415   5.662
  811TIP3    H2 2379   6.936   2.433   5.602
  812TIP3   OH2 2380   4.091   1.655   1.782
  812TIP3    H1 2381   4.156   1.714   1.820
  812TIP3    H2 2382   4.086   1.582   1.843
  813TIP3   OH2 2383   1.718   4.904   2.357
  813TIP3    H1 2384   1.688   4.834   2.415
  813TIP3    H2 2385   1.660   4.978   2.378
  814TIP3   OH2 2386   3.143   1.799   6.390
  814TIP3    H1 2387   3.096   1.735   6.443
  814TIP3    H2 2388   3.210   1.833   6.449
  815TIP3   OH2 2389   7.633   5.850   4.392
  815TIP3    H1 2390   7.722   5.818   4.379
  815TIP3    H2 2391   7.634   5.885   4.481
  816TIP3   OH2 2392   3.041   3.409   4.693
  816TIP3    H1 2393   3.020   3.458   4.613
  816TIP3    H2 2394   2.970   3.345   4.700
  817TIP3   OH2 2395   3.556   7.086   5.728
  817TIP3    H1 2396   3.481   7.063   5.783
  817TIP3    H2 2397   3.627   7.030   5.759
  818TIP3   OH2 2398   5.805   2.999   2.386
  818TIP3    H1 2399   5.823   2.908   2.366
  818TIP3    H2 2400   5.711   3.009   2.371
  819TIP3   OH2 2401   0.890   7.326   6.707
  819TIP3    H1 2402   0.833   7.376   6.766
  819TIP3    H2 2403   0.868   7.234   6.725
  820TIP3   OH2 2404   7.089   5.835   4.137
  820TIP3    H1 2405   7.046   5.907   4.182
  820TIP3    H2 2406   7.082   5.857   4.044
  821TIP3   OH2 2407   3.786   0.568   1.086
  821TIP3    H1 2408   3.824   0.561   0.999
  821TIP3    H2 2409   3.829   0.499   1.136
  822TIP3   OH2 2410   4.752   6.930   2.903
  822TIP3    H1 2411   4.684   6.896   2.961
  822TIP3    H2 2412   4.771   6.859   2.842
  823TIP3   OH2 2413   7.906   7.448   2.357
  823TIP3    H1 2414   7.838   7.477   2.418
  823TIP3    H2 2415   7.980   7.426   2.413
  824TIP3   OH2 2416   4.423   0.841   4.462
  824TIP3    H1 2417   4.384   0.853   4.375
  824TIP3    H2 2418   4.486   0.913   4.469
  825TIP3   OH2 2419   5.016   1.620   4.736
  825TIP3    H1 2420   4.976   1.672   4.666
  825TIP3    H2 2421   4.998   1.529   4.711
  826TIP3   OH2 2422   7.313   2.066   2.205
  826TIP3    H1 2423   7.387   2.076   2.145
  826TIP3    H2 2424   7.344   2.100   2.288
  827TIP3   OH2 2425   3.705   6.953   3.333
  827TIP3    H1 2426   3.670   6.935   3.420
  827TIP3    H2 2427   3.648   7.021   3.297
  828TIP3   OH2 2428   2.940   5.921   0.201
  828TIP3    H1 2429   3.020   5.871   0.216
  828TIP3    H2 2430   2.900   5.880   0.124
  829TIP3   OH2 2431   2.375   4.670   4.166
  829TIP3    H1 2432   2.430   4.730   4.116
  829TIP3    H2 2433   2.420   4.660   4.250
  830TIP3   OH2 2434   5.375   7.680   1.521
  830TIP3    H1 2435   5.468   7.703   1.522
  830TIP3    H2 2436   5.372   7.588   1.548
  831TIP3   OH2 2437   1.513   0.197   6.716
  831TIP3    H1 2438   1.454   0.152   6.776
  831TIP3    H2 2439   1.474   0.184   6.629
  832TIP3   OH2 2440   1.295   1.254   2.326
  832TIP3    H1 2441   1.270   1.245   2.418
  832TIP3    H2 2442   1.327   1.344   2.318
  833TIP3   OH2 2443   2.983   3.155   4.160
  833TIP3    H1 2444   3.002   3.071   4.201
  833TIP3    H2 2445   3.067   3.203   4.163
  834TIP3   OH2 2446   5.209   6.793   2.790
  834TIP3    H1 2447   5.217   6.888   2.790
  834TIP3    H2 2448   5.122   6.775   2.825
  835TIP3   OH2 2449   5.448   0.464   5.374
  835TIP3    H1 2450   5.481   0.394   5.430
  835TIP3    H2 2451   5.519   0.482   5.313
  836TIP3   OH2 2452   8.104   3.206   6.382
  836TIP3    H1 2453   8.109   3.301   6.391
  836TIP3    H2 2454   8.111   3.191   6.288
  837TIP3   OH2 2455   4.044   3.481   6.594
  837TIP3    H1 2456   4.075   3.525   6.515
  837TIP3    H2 2457   3.970   3.428   6.565
  838TIP3   OH2 2458   5.062   2.543   1.536
  838TIP3    H1 2459   5.123   2.614   1.557
  838TIP3    H2 2460   5.015   2.526   1.618
  839TIP3   OH2 2461   3.467   2.334   0.332
  839TIP3    H1 2462   3.392   2.285   0.299
  839TIP3    H2 2463   3.511   2.367   0.253
  840TIP3   OH2 2464   1.227   7.291   4.698
  840TIP3    H1 2465   1.161   7.223   4.710
  840TIP3    H2 2466   1.202   7.361   4.757
  841TIP3   OH2 2467   0.562   2.099   6.112
  841TIP3    H1 2468   0.514   2.021   6.140
  841TIP3    H2 2469   0.539   2.166   6.176
  842TIP3   OH2 2470   6.969   2.324   1.226
  842TIP3    H1 2471   7.065   2.334   1.227
  842TIP3    H2 2472   6.937   2.412   1.207
  843TIP3   OH2 2473   1.542   4.622   0.930
  843TIP3    H1 2474   1.612   4.562   0.903
  843TIP3    H2 2475   1.518   4.591   1.018
  844TIP3   OH2 2476   3.777   4.755   5.000
  844TIP3    H1 2477   3.717   4.823   4.968
  844TIP3    H2 2478   3.864   4.793   4.990
  845TIP3   OH2 2479   3.844   1.725   4.792
  845TIP3    H1 2480   3.755   1.735   4.825
  845TIP3    H2 2481   3.834   1.681   4.708
  846TIP3   OH2 2482   1.719   6.761   3.233
  846TIP3    H1 2483   1.687   6.678   3.269
  846TIP3    H2 2484   1.658   6.781   3.162
  847TIP3   OH2 2485   8.001   5.222   3.180
  847TIP3    H1 2486   8.088   5.234   3.140
  847TIP3    H2 2487   8.019   5.182   3.265
  848TIP3   OH2 2488   4.838   0.785   4.957
  848TIP3    H1 2489   4.910   0.785   5.021
  848TIP3    H2 2490   4.872   0.835   4.883
  849TIP3   OH2 2491   6.940   1.750   5.783
  849TIP3    H1 2492   6.896   1.703   5.712
  849TIP3    H2 2493   7.026   1.771   5.748
  850TIP3   OH2 2494   5.546   5.117   0.254
  850TIP3    H1 2495   5.581   5.109   0.165
  850TIP3    H2 2496   5.613   5.076   0.309
  851TIP3   OH2 2497   6.651   1.080   5.930
  851TIP3    H1 2498   6.630   1.005   5.986
  851TIP3    H2 2499   6.743   1.098   5.946
  852TIP3   OH2 2500   4.434   5.012   3.614
  852TIP3    H1 2501   4.398   4.937   3.567
  852TIP3    H2 2502   4.521   5.025   3.576
  853TIP3   OH2 2503   7.500   5.579   0.098
  853TIP3    H1 2504   7.499   5.486   0.078
  853TIP3    H2 2505   7.408   5.602   0.111
  854TIP3   OH2 2506   8.060   7.805   4.048
  854TIP3    H1 2507   8.148   7.824   4.016
  854TIP3    H2 2508   8.002   7.838   3.979
  855TIP3   OH2 2509   6.339   5.647   3.604
  855TIP3    H1 2510   6.311   5.695   3.682
  855TIP3    H2 2511   6.258   5.618   3.563
  856TIP3   OH2 2512   3.291   3.905   5.698
  856TIP3    H1 2513   3.287   3.824   5.750
  856TIP3    H2 2514   3.208   3.909   5.652
  857TIP3   OH2 2515   2.139   2.016   3.836
  857TIP3    H1 2516   2.185   1.939   3.803
  857TIP3    H2 2517   2.107   2.060   3.758
  858TIP3   OH2 2518   0.957   6.394   5.460
  858TIP3    H1 2519   0.900   6.387   5.383
  858TIP3    H2 2520   1.038   6.350   5.435
  859TIP3   OH2 2521   4.380   7.492   4.115
  859TIP3    H1 2522   4.462   7.539   4.102
  859TIP3    H2 2523   4.312   7.553   4.088
  860TIP3   OH2 2524   3.344   4.574   4.407
  860TIP3    H1 2525   3.305   4.651   4.448
  860TIP3    H2 2526   3.391   4.530   4.478
  861TIP3   OH2 2527   4.069   5.993   5.815
  861TIP3    H1 2528   4.078   6.080   5.777
  861TIP3    H2 2529   4.095   6.004   5.907
  862TIP3   OH2 2530   0.232   5.609   4.699
  862TIP3    H1 2531   0.226   5.532   4.643
  862TIP3    H2 2532   0.291   5.668   4.652
  863TIP3   OH2 2533   4.150   2.317   1.434
  863TIP3    H1 2534   4.129   2.410   1.443
  863TIP3    H2 2535   4.109   2.275   1.509
  864TIP3   OH2 2536   0.879   4.230   6.056
  864TIP3    H1 2537   0.909   4.143   6.028
  864TIP3    H2 2538   0.958   4.272   6.091
  865TIP3   OH2 2539   3.281   0.221   5.667
  865TIP3    H1 2540   3.335   0.298   5.682
  865TIP3    H2 2541   3.257   0.226   5.574
  866TIP3   OH2 2542   3.131   7.676   3.190
  866TIP3    H1 2543   3.197   7.671   3.121
  866TIP3    H2 2544   3.050   7.701   3.145
  867TIP3   OH2 2545   1.216   1.115   2.589
  867TIP3    H1 2546   1.149   1.179   2.612
  867TIP3    H2 2547   1.175   1.061   2.521
  868TIP3   OH2 2548   3.865   6.814   6.128
  868TIP3    H1 2549   3.954   6.829   6.159
  868TIP3    H2 2550   3.869   6.729   6.083
  869TIP3   OH2 2551   1.254   5.050   5.305
  869TIP3    H1 2552   1.198   4.972   5.307
  869TIP3    H2 2553   1.230   5.095   5.224
  870TIP3   OH2 2554   4.808   5.799   1.867
  870TIP3    H1 2555   4.773   5.867   1.810
  870TIP3    H2 2556   4.790   5.717   1.821
  871TIP3   OH2 2557   2.516   1.728   2.842
  871TIP3    H1 2558   2.478   1.779   2.913
  871TIP3    H2 2559   2.467   1.646   2.843
  872TIP3   OH2 2560   2.468   3.483   3.846
  872TIP3    H1 2561   2.374   3.480   3.830
  872TIP3    H2 2562   2.476   3.523   3.933
  873TIP3   OH2 2563   6.584   4.726   5.225
  873TIP3    H1 2564   6.544   4.737   5.139
  873TIP3    H2 2565   6.580   4.632   5.243
  874TIP3   OH2 2566   1.322   6.636   5.827
  874TIP3    H1 2567   1.411   6.604   5.846
  874TIP3    H2 2568   1.280   6.562   5.783
  875TIP3   OH2 2569   4.514   7.248   4.218
  875TIP3    H1 2570   4.471   7.180   4.167
  875TIP3    H2 2571   4.476   7.330   4.186
  876TIP3   OH2 2572   3.373   6.020   3.565
  876TIP3    H1 2573   3.418   5.954   3.618
  876TIP3    H2 2574   3.323   6.072   3.629
  877TIP3   OH2 2575   4.657   7.564   5.846
  877TIP3    H1 2576   4.628   7.477   5.817
  877TIP3    H2 2577   4.577   7.608   5.873
  878TIP3   OH2 2578   3.721   3.204   3.613
  878TIP3    H1 2579   3.814   3.225   3.606
  878TIP3    H2 2580   3.713   3.116   3.578
  879TIP3   OH2 2581   5.202   1.103   1.785
  879TIP3    H1 2582   5.143   1.178   1.797
  879TIP3    H2 2583   5.223   1.103   1.692
  880TIP3   OH2 2584   4.494   5.857   1.971
  880TIP3    H1 2585   4.472   5.815   1.888
  880TIP3    H2 2586   4.538   5.938   1.946
  881TIP3   OH2 2587   1.082   5.958   3.474
  881TIP3    H1 2588   1.050   6.045   3.453
  881TIP3    H2 2589   1.097   5.916   3.389
  882TIP3   OH2 2590   5.253   3.246   3.820
  882TIP3    H1 2591   5.239   3.301   3.743
  882TIP3    H2 2592   5.294   3.304   3.885
  883TIP3   OH2 2593   7.360   0.341   5.252
  883TIP3    H1 2594   7.342   0.381   5.167
  883TIP3    H2 2595   7.278   0.297   5.276
  884TIP3   OH2 2596   5.105   3.607   3.941
  884TIP3    H1 2597   5.157   3.570   3.870
  884TIP3    H2 2598   5.098   3.700   3.919
  885TIP3   OH2 2599   7.236   2.385   1.367
  885TIP3    H1 2600   7.215   2.461   1.421
  885TIP3    H2 2601   7.271   2.320   1.428
  886TIP3   OH2 2602   5.759   7.343   6.220
  886TIP3    H1 2603   5.688   7.356   6.283
  886TIP3    H2 2604   5.827   7.297   6.270
  887TIP3   OH2 2605   5.236   0.694   2.963
  887TIP3    H1 2606   5.260   0.605   2.990
  887TIP3    H2 2607   5.158   0.682   2.909
  888TIP3   OH2 2608   4.376   1.807   4.225
  888TIP3    H1 2609   4.426   1.730   4.198
  888TIP3    H2 2610   4.305   1.814   4.161
  889TIP3   OH2 2611   4.734   2.348   2.616
  889TIP3    H1 2612   4.716   2.407   2.543
  889TIP3    H2 2613   4.788   2.279   2.578
  890TIP3   OH2 2614   5.755   0.244   2.019
  890TIP3    H1 2615   5.785   0.292   1.942
  890TIP3    H2 2616   5.803   0.161   2.015
  891TIP3   OH2 2617   4.220   2.032   4.731
  891TIP3    H1 2618   4.273   2.090   4.785
  891TIP3    H2 2619   4.130   2.050   4.757
  892TIP3   OH2 2620   4.587   2.860   1.018
  892TIP3    H1 2621   4.521   2.904   1.073
  892TIP3    H2 2622   4.586   2.909   0.936
  893TIP3   OH2 2623   5.036   3.096   4.779
  893TIP3    H1 2624   5.113   3.071   4.828
  893TIP3    H2 2625   5.052   3.187   4.754
  894TIP3   OH2 2626   3.045   4.245   3.323
  894TIP3    H1 2627   3.016   4.312   3.385
  894TIP3    H2 2628   3.004   4.164   3.356
  895TIP3   OH2 2629   7.791   2.687   6.658
  895TIP3    H1 2630   7.733   2.760   6.637
  895TIP3    H2 2631   7.750   2.645   6.734
  896TIP3   OH2 2632   5.617   0.574   4.965
  896TIP3    H1 2633   5.655   0.529   4.889
  896TIP3    H2 2634   5.565   0.645   4.926
  897TIP3   OH2 2635   5.818   0.593   2.037
  897TIP3    H1 2636   5.912   0.582   2.030
  897TIP3    H2 2637   5.794   0.645   1.959
  898TIP3   OH2 2638   3.765   4.677   3.352
  898TIP3    H1 2639   3.785   4.653   3.443
  898TIP3    H2 2640   3.743   4.770   3.356
  899TIP3   OH2 2641   6.123   5.637   1.986
  899TIP3    H1 2642   6.126   5.634   1.891
  899TIP3    H2 2643   6.162   5.722   2.009
  900TIP3   OH2 2644   7.586   3.068   2.568
  900TIP3    H1 2645   7.532   3.113   2.503
  900TIP3    H2 2646   7.525   3.042   2.637
  901TIP3   OH2 2647   4.142   0.693   0.945
  901TIP3    H1 2648   4.063   0.747   0.954
  901TIP3    H2 2649   4.209   0.754   0.915
  902TIP3   OH2 2650   3.169   3.716   4.546
  902TIP3    H1 2651   3.176   3.680   4.458
  902TIP3    H2 2652   3.075   3.712   4.566
  903TIP3   OH2 2653   1.386   4.535   3.385
  903TIP3    H1 2654   1.393   4.440   3.386
  903TIP3    H2 2655   1.433   4.564   3.463
  904TIP3   OH2 2656   6.838   4.491   5.634
  904TIP3    H1 2657   6.896   4.567   5.630
  904TIP3    H2 2658   6.836   4.458   5.544
  905TIP3   OH2 2659   2.133   0.798   3.224
  905TIP3    H1 2660   2.052   0.848   3.236
  905TIP3    H2 2661   2.106   0.707   3.222
  906TIP3   OH2 2662   5.287   3.758   6.000
  906TIP3    H1 2663   5.251   3.688   6.054
  906TIP3    H2 2664   5.382   3.744   6.001
  907TIP3   OH2 2665   6.320   1.240   0.255
  907TIP3    H1 2666   6.290   1.310   0.315
  907TIP3    H2 2667   6.405   1.213   0.290
  908TIP3   OH2 2668   3.781   4.504   6.032
  908TIP3    H1 2669   3.851   4.551   6.077
  908TIP3    H2 2670   3.819   4.418   6.013
  909TIP3   OH2 2671   3.577   4.536   1.792
  909TIP3    H1 2672   3.594   4.622   1.754
  909TIP3    H2 2673   3.657   4.514   1.841
  910TIP3   OH2 2674   3.413   0.292   2.407
  910TIP3    H1 2675   3.429   0.376   2.450
  910TIP3    H2 2676   3.489   0.278   2.351
  911TIP3   OH2 2677   2.931   5.721   3.075
  911TIP3    H1 2678   2.934   5.644   3.019
  911TIP3    H2 2679   2.905   5.688   3.161
  912TIP3   OH2 2680   0.891   6.907   0.556
  912TIP3    H1 2681   0.801   6.875   0.547
  912TIP3    H2 2682   0.903   6.921   0.650
  913TIP3   OH2 2683   0.895   0.327   2.110
  913TIP3    H1 2684   0.949   0.260   2.067
  913TIP3    H2 2685   0.822   0.341   2.050
  914TIP3   OH2 2686   5.049   6.699   1.751
  914TIP3    H1 2687   5.028   6.677   1.842
  914TIP3    H2 2688   5.141   6.728   1.754
  915TIP3   OH2 2689   3.048   2.811   2.442
  915TIP3    H1 2690   2.959   2.815   2.407
  915TIP3    H2 2691   3.087   2.735   2.399
  916TIP3   OH2 2692   3.022   1.657   0.947
  916TIP3    H1 2693   3.005   1.675   0.855
  916TIP3    H2 2694   3.051   1.741   0.983
  917TIP3   OH2 2695   8.038   0.679   5.111
  917TIP3    H1 2696   8.051   0.611   5.176
  917TIP3    H2 2697   8.103   0.746   5.133
  918TIP3   OH2 2698   2.223   2.270   6.036
  918TIP3    H1 2699   2.283   2.249   6.108
  918TIP3    H2 2700   2.250   2.357   6.007
  919TIP3   OH2 2701   6.151   4.098   2.570
  919TIP3    H1 2702   6.149   4.005   2.547
  919TIP3    H2 2703   6.224   4.134   2.521
  920TIP3   OH2 2704   0.612   6.965   1.775
  920TIP3    H1 2705   0.698   7.007   1.762
  920TIP3    H2 2706   0.549   7.036   1.763
  921TIP3   OH2 2707   5.665   1.731   6.033
  921TIP3    H1 2708   5.704   1.741   5.946
  921TIP3    H2 2709   5.595   1.796   6.036
  922TIP3   OH2 2710   6.976   3.513   4.400
  922TIP3    H1 2711   7.063   3.520   4.439
  922TIP3    H2 2712   6.917   3.500   4.474
  923TIP3   OH2 2713   4.209   3.916   5.034
  923TIP3    H1 2714   4.267   3.840   5.036
  923TIP3    H2 2715   4.244   3.975   5.100
  924TIP3   OH2 2716   8.017   3.176   3.002
  924TIP3    H1 2717   8.010   3.085   2.975
  924TIP3    H2 2718   8.080   3.175   3.074
  925TIP3   OH2 2719   6.357   2.174   0.097
  925TIP3    H1 2720   6.262   2.168   0.108
  925TIP3    H2 2721   6.383   2.247   0.152
  926TIP3   OH2 2722   1.585   6.515   3.289
  926TIP3    H1 2723   1.639   6.450   3.335
  926TIP3    H2 2724   1.558   6.470   3.209
  927TIP3   OH2 2725   5.843   6.861   2.716
  927TIP3    H1 2726   5.791   6.781   2.710
  927TIP3    H2 2727   5.808   6.917   2.646
  928TIP3   OH2 2728   4.028   0.328   3.905
  928TIP3    H1 2729   4.023   0.286   3.819
  928TIP3    H2 2730   3.940   0.322   3.940
  929TIP3   OH2 2731   5.825   6.001   3.615
  929TIP3    H1 2732   5.827   6.019   3.709
  929TIP3    H2 2733   5.879   5.923   3.604
  930TIP3   OH2 2734   1.001   3.582   3.083
  930TIP3    H1 2735   1.043   3.508   3.039
  930TIP3    H2 2736   1.053   3.658   3.059
  931TIP3   OH2 2737   1.066   4.511   5.904
  931TIP3    H1 2738   1.108   4.484   5.822
  931TIP3    H2 2739   1.093   4.444   5.967
  932TIP3   OH2 2740   6.274   1.311   6.410
  932TIP3    H1 2741   6.333   1.387   6.411
  932TIP3    H2 2742   6.247   1.303   6.319
  933TIP3   OH2 2743   4.362   3.158   6.183
  933TIP3    H1 2744   4.306   3.180   6.109
  933TIP3    H2 2745   4.337   3.220   6.252
  934TIP3   OH2 2746   6.093   7.223   3.045
  934TIP3    H1 2747   6.131   7.221   3.133
  934TIP3    H2 2748   6.109   7.135   3.011
  935TIP3   OH2 2749   1.956   4.844   6.189
  935TIP3    H1 2750   1.921   4.891   6.113
  935TIP3    H2 2751   1.883   4.841   6.251
  936TIP3   OH2 2752   2.596   2.297   1.492
  936TIP3    H1 2753   2.538   2.368   1.462
  936TIP3    H2 2754   2.663   2.341   1.544
  937TIP3   OH2 2755   0.274   3.793   0.730
  937TIP3    H1 2756   0.216   3.827   0.662
  937TIP3    H2 2757   0.226   3.806   0.812
  938TIP3   OH2 2758   1.618   3.623   1.838
  938TIP3    H1 2759   1.649   3.621   1.929
  938TIP3    H2 2760   1.526   3.600   1.844
  939TIP3   OH2 2761   7.017   0.316   4.044
  939TIP3    H1 2762   6.952   0.355   3.986
  939TIP3    H2 2763   7.011   0.222   4.026
  940TIP3   OH2 2764   4.121   2.039   1.293
  940TIP3    H1 2765   4.040   1.992   1.307
  940TIP3    H2 2766   4.125   2.102   1.365
  941TIP3   OH2 2767   4.038   1.534   4.831
  941TIP3    H1 2768   4.106   1.587   4.789
  941TIP3    H2 2769   3.965   1.595   4.845
  942TIP3   OH2 2770   0.871   7.186   1.603
  942TIP3    H1 2771   0.776   7.190   1.594
  942TIP3    H2 2772   0.885   7.147   1.689
  943TIP3   OH2 2773   6.469   2.214   3.968
  943TIP3    H1 2774   6.545   2.251   3.923
  943TIP3    H2 2775   6.396   2.270   3.940
  944TIP3   OH2 2776   0.503   5.502   5.925
  944TIP3    H1 2777   0.504   5.466   6.014
  944TIP3    H2 2778   0.559   5.444   5.874
  945TIP3   OH2 2779   7.227   1.481   3.623
  945TIP3    H1 2780   7.181   1.528   3.553
  945TIP3    H2 2781   7.273   1.411   3.577
  946TIP3   OH2 2782   7.743   0.093   4.485
  946TIP3    H1 2783   7.760   0.001   4.465
  946TIP3    H2 2784   7.685   0.090   4.561
  947TIP3   OH2 2785   7.194   4.266   3.854
  947TIP3    H1 2786   7.110   4.309   3.869
  947TIP3    H2 2787   7.174   4.193   3.795
  948TIP3   OH2 2788   6.635   6.050   0.816
  948TIP3    H1 2789   6.585   6.092   0.886
  948TIP3    H2 2790   6.654   5.962   0.849
  949TIP3   OH2 2791   7.145   3.304   3.465
  949TIP3    H1 2792   7.087   3.353   3.524
  949TIP3    H2 2793   7.188   3.240   3.521
  950TIP3   OH2 2794   7.824   0.519   6.484
  950TIP3    H1 2795   7.906   0.550   6.443
  950TIP3    H2 2796   7.782   0.467   6.416
  951TIP3   OH2 2797   4.365   5.027   1.584
  951TIP3    H1 2798   4.283   5.018   1.632
  951TIP3    H2 2799   4.408   5.102   1.625
  952TIP3   OH2 2800   4.868   4.700   4.088
  952TIP3    H1 2801   4.952   4.734   4.119
  952TIP3    H2 2802   4.838   4.764   4.024
  953TIP3   OH2 2803   5.203   6.852   6.593
  953TIP3    H1 2804   5.146   6.778   6.613
  953TIP3    H2 2805   5.148   6.929   6.606
  954TIP3   OH2 2806   3.077   7.394   3.446
  954TIP3    H1 2807   3.136   7.454   3.491
  954TIP3    H2 2808   2.997   7.445   3.432
  955TIP3   OH2 2809   0.455   6.378   2.118
  955TIP3    H1 2810   0.499   6.430   2.052
  955TIP3    H2 2811   0.474   6.287   2.094
  956TIP3   OH2 2812   3.502   6.226   4.484
  956TIP3    H1 2813   3.425   6.171   4.497
  956TIP3    H2 2814   3.519   6.264   4.571
  957TIP3   OH2 2815   3.197   3.752   5.185
  957TIP3    H1 2816   3.247   3.671   5.173
  957TIP3    H2 2817   3.263   3.817   5.208
  958TIP3   OH2 2818   0.466   2.312   5.955
  958TIP3    H1 2819   0.498   2.245   6.016
  958TIP3    H2 2820   0.414   2.371   6.009
  959TIP3   OH2 2821   0.906   3.370   5.432
  959TIP3    H1 2822   0.935   3.437   5.370
  959TIP3    H2 2823   0.987   3.337   5.471
  960TIP3   OH2 2824   5.704   2.411   4.911
  960TIP3    H1 2825   5.702   2.316   4.903
  960TIP3    H2 2826   5.752   2.441   4.833
  961TIP3   OH2 2827   5.829   5.070   3.016
  961TIP3    H1 2828   5.792   4.990   2.978
  961TIP3    H2 2829   5.911   5.084   2.968
  962TIP3   OH2 2830   7.694   2.615   4.880
  962TIP3    H1 2831   7.635   2.686   4.853
  962TIP3    H2 2832   7.778   2.658   4.896
  963TIP3   OH2 2833   2.302   0.645   5.803
  963TIP3    H1 2834   2.387   0.609   5.828
  963TIP3    H2 2835   2.260   0.574   5.754
  964TIP3   OH2 2836   0.246   6.150   1.338
  964TIP3    H1 2837   0.153   6.144   1.360
  964TIP3    H2 2838   0.256   6.237   1.300
  965TIP3   OH2 2839   0.292   7.258   2.623
  965TIP3    H1 2840   0.351   7.258   2.698
  965TIP3    H2 2841   0.345   7.293   2.551
  966TIP3   OH2 2842   4.700   3.651   0.850
  966TIP3    H1 2843   4.786   3.671   0.813
  966TIP3    H2 2844   4.649   3.731   0.837
  967TIP3   OH2 2845   4.917   5.107   4.373
  967TIP3    H1 2846   5.002   5.082   4.410
  967TIP3    H2 2847   4.854   5.083   4.440
  968TIP3   OH2 2848   4.023   4.685   2.354
  968TIP3    H1 2849   4.005   4.667   2.262
  968TIP3    H2 2850   3.988   4.609   2.401
  969TIP3   OH2 2851   8.295   5.260   4.665
  969TIP3    H1 2852   8.311   5.168   4.646
  969TIP3    H2 2853   8.244   5.259   4.746
  970TIP3   OH2 2854   0.632   4.076   1.085
  970TIP3    H1 2855   0.670   4.048   1.168
  970TIP3    H2 2856   0.549   4.116   1.109
  971TIP3   OH2 2857   3.848   3.682   1.554
  971TIP3    H1 2858   3.934   3.683   1.596
  971TIP3    H2 2859   3.864   3.713   1.465
  972TIP3   OH2 2860   7.176   5.646   1.429
  972TIP3    H1 2861   7.152   5.690   1.511
  972TIP3    H2 2862   7.232   5.573   1.456
  973TIP3   OH2 2863   5.313   7.338   1.805
  973TIP3    H1 2864   5.309   7.348   1.710
  973TIP3    H2 2865   5.359   7.255   1.819
  974TIP3   OH2 2866   8.088   3.792   1.828
  974TIP3    H1 2867   8.030   3.785   1.752
  974TIP3    H2 2868   8.176   3.781   1.791
  975TIP3   OH2 2869   3.212   6.934   0.575
  975TIP3    H1 2870   3.246   7.007   0.524
  975TIP3    H2 2871   3.221   6.858   0.517
  976TIP3   OH2 2872   0.982   0.688   5.159
  976TIP3    H1 2873   1.038   0.670   5.235
  976TIP3    H2 2874   1.040   0.731   5.096
  977TIP3   OH2 2875   1.892   1.907   1.519
  977TIP3    H1 2876   1.805   1.937   1.496
  977TIP3    H2 2877   1.926   1.865   1.440
  978TIP3   OH2 2878   6.742   4.957   3.604
  978TIP3    H1 2879   6.794   4.898   3.549
  978TIP3    H2 2880   6.663   4.908   3.625
  979TIP3   OH2 2881   4.891   6.421   0.515
  979TIP3    H1 2882   4.886   6.500   0.461
  979TIP3    H2 2883   4.861   6.351   0.457
  980TIP3   OH2 2884   2.400   5.511   1.909
  980TIP3    H1 2885   2.393   5.495   2.003
  980TIP3    H2 2886   2.373   5.429   1.868
  981TIP3   OH2 2887   0.812   1.903   6.252
  981TIP3    H1 2888   0.740   1.889   6.313
  981TIP3    H2 2889   0.781   1.972   6.193
  982TIP3   OH2 2890   6.616   3.695   2.545
  982TIP3    H1 2891   6.564   3.631   2.496
  982TIP3    H2 2892   6.677   3.730   2.480
  983TIP3   OH2 2893   0.872   0.275   1.457
  983TIP3    H1 2894   0.785   0.304   1.430
  983TIP3    H2 2895   0.918   0.356   1.479
  984TIP3   OH2 2896   0.656   6.433   5.912
  984TIP3    H1 2897   0.655   6.425   6.008
  984TIP3    H2 2898   0.745   6.462   5.892
  985TIP3   OH2 2899   6.873   4.884   5.939
  985TIP3    H1 2900   6.881   4.892   6.034
  985TIP3    H2 2901   6.945   4.825   5.914
  986TIP3   OH2 2902   5.376   2.151   1.718
  986TIP3    H1 2903   5.309   2.204   1.673
  986TIP3    H2 2904   5.327   2.103   1.784
  987TIP3   OH2 2905   4.715   4.652   6.622
  987TIP3    H1 2906   4.804   4.665   6.588
  987TIP3    H2 2907   4.675   4.591   6.561
  988TIP3   OH2 2908   1.615   6.990   0.387
  988TIP3    H1 2909   1.618   7.034   0.472
  988TIP3    H2 2910   1.550   6.921   0.398
  989TIP3   OH2 2911   5.376   3.539   5.653
  989TIP3    H1 2912   5.323   3.523   5.731
  989TIP3    H2 2913   5.404   3.452   5.624
  990TIP3   OH2 2914   1.303   7.054   4.978
  990TIP3    H1 2915   1.263   7.003   5.049
  990TIP3    H2 2916   1.237   7.053   4.908
  991TIP3   OH2 2917   1.648   1.411   0.695
  991TIP3    H1 2918   1.631   1.321   0.669
  991TIP3    H2 2919   1.690   1.451   0.619
  992TIP3   OH2 2920   0.462   6.680   2.004
  992TIP3    H1 2921   0.377   6.704   1.967
  992TIP3    H2 2922   0.484   6.598   1.960
  993TIP3   OH2 2923   1.901   7.795   6.494
  993TIP3    H1 2924   1.957   7.738   6.547
  993TIP3    H2 2925   1.859   7.853   6.558
  994TIP3   OH2 2926   6.772   3.308   3.418
  994TIP3    H1 2927   6.692   3.333   3.373
  994TIP3    H2 2928   6.822   3.389   3.426
  995TIP3   OH2 2929   1.230   5.301   3.018
  995TIP3    H1 2930   1.277   5.379   3.047
  995TIP3    H2 2931   1.251   5.234   3.082
  996TIP3   OH2 2932   8.096   0.201   1.176
  996TIP3    H1 2933   8.183   0.233   1.151
  996TIP3    H2 2934   8.110   0.154   1.258
  997TIP3   OH2 2935   1.670   3.781   6.579
  997TIP3    H1 2936   1.726   3.855   6.557
  997TIP3    H2 2937   1.694   3.758   6.669
  998TIP3   OH2 2938   4.434   1.152   5.827
  998TIP3    H1 2939   4.368   1.159   5.759
  998TIP3    H2 2940   4.497   1.087   5.794
  999TIP3   OH2 2941   3.190   7.088   3.735
  999TIP3    H1 2942   3.153   7.175   3.750
  999TIP3    H2 2943   3.158   7.063   3.647
 1000TIP3   OH2 2944   5.555   3.752   6.055
 1000TIP3    H1 2945   5.574   3.774   5.964
 1000TIP3    H2 2946   5.614   3.680   6.075
 1001TIP3   OH2 2947   6.992   6.134   3.958
 1001TIP3    H1 2948   7.014   6.042   3.965
 1001TIP3    H2 2949   6.898   6.135   3.937
 1002TIP3   OH2 2950   7.775   3.054   5.228
 1002TIP3    H1 2951   7.796   3.125   5.289
 1002TIP3    H2 2952   7.793   3.090   5.141
 1003TIP3   OH2 2953   2.553   4.862   4.363
 1003TIP3    H1 2954   2.644   4.863   4.334
 1003TIP3    H2 2955   2.503   4.891   4.287
 1004TIP3   OH2 2956   1.668   7.228   6.586
 1004TIP3    H1 2957   1.587   7.243   6.635
 1004TIP3    H2 2958   1.661   7.138   6.554
 1005TIP3   OH2 2959   2.964   3.255   5.801
 1005TIP3    H1 2960   3.043   3.274   5.851
 1005TIP3    H2 2961   2.964   3.160   5.791
 1006TIP3   OH2 2962   4.853   5.065   2.673
 1006TIP3    H1 2963   4.785   5.112   2.625
 1006TIP3    H2 2964   4.819   4.976   2.683
 1007TIP3   OH2 2965   5.354   6.428   6.076
 1007TIP3    H1 2966   5.275   6.378   6.097
 1007TIP3    H2 2967   5.415   6.362   6.043
 1008TIP3   OH2 2968   7.044   6.347   3.519
 1008TIP3    H1 2969   6.957   6.335   3.482
 1008TIP3    H2 2970   7.037   6.314   3.609
 1009TIP3   OH2 2971   5.763   5.693   1.396
 1009TIP3    H1 2972   5.732   5.691   1.486
 1009TIP3    H2 2973   5.686   5.717   1.344
 1010TIP3   OH2 2974   0.523   7.397   3.192
 1010TIP3    H1 2975   0.468   7.429   3.263
 1010TIP3    H2 2976   0.562   7.316   3.227
 1011TIP3   OH2 2977   5.347   2.912   1.888
 1011TIP3    H1 2978   5.424   2.870   1.851
 1011TIP3    H2 2979   5.377   2.999   1.913
 1012TIP3   OH2 2980   5.620   0.729   6.157
 1012TIP3    H1 2981   5.632   0.649   6.209
 1012TIP3    H2 2982   5.628   0.700   6.066
 1013TIP3   OH2 2983   3.237   5.275   1.876
 1013TIP3    H1 2984   3.271   5.334   1.943
 1013TIP3    H2 2985   3.153   5.315   1.850
 1014TIP3   OH2 2986   4.408   1.851   5.702
 1014TIP3    H1 2987   4.376   1.767   5.670
 1014TIP3    H2 2988   4.337   1.887   5.754
 1015TIP3   OH2 2989   1.523   2.018   6.239
 1015TIP3    H1 2990   1.551   2.059   6.321
 1015TIP3    H2 2991   1.602   1.975   6.205
 1016TIP3   OH2 2992   3.588   0.572   3.970
 1016TIP3    H1 2993   3.493   0.584   3.970
 1016TIP3    H2 2994   3.620   0.633   4.036
 1017TIP3   OH2 2995   1.156   0.046   5.215
 1017TIP3    H1 2996   1.188   0.070   5.302
 1017TIP3    H2 2997   1.231   0.058   5.157
 1018TIP3   OH2 2998   5.474   5.648   1.252
 1018TIP3    H1 2999   5.390   5.661   1.208
 1018TIP3    H2 3000   5.466   5.561   1.292
 1019TIP3   OH2 3001   6.299   7.754   0.360
 1019TIP3    H1 3002   6.317   7.735   0.267
 1019TIP3    H2 3003   6.224   7.813   0.358
 1020TIP3   OH2 3004   1.648   6.235   1.947
 1020TIP3    H1 3005   1.586   6.163   1.937
 1020TIP3    H2 3006   1.712   6.203   2.010
 1021TIP3   OH2 3007   1.625   3.555   1.414
 1021TIP3    H1 3008   1.614   3.625   1.349
 1021TIP3    H2 3009   1.712   3.519   1.396
 1022TIP3   OH2 3010   7.528   3.504   6.009
 1022TIP3    H1 3011   7.539   3.530   5.917
 1022TIP3    H2 3012   7.555   3.581   6.059
 1023TIP3   OH2 3013   0.543   0.284   0.730
 1023TIP3    H1 3014   0.457   0.250   0.705
 1023TIP3    H2 3015   0.592   0.208   0.758
 1024TIP3   OH2 3016   2.175   2.436   2.889
 1024TIP3    H1 3017   2.149   2.528   2.893
 1024TIP3    H2 3018   2.229   2.430   2.810
 1025TIP3   OH2 3019   3.637   2.832   1.602
 1025TIP3    H1 3020   3.694   2.877   1.541
 1025TIP3    H2 3021   3.554   2.879   1.597
 1026TIP3   OH2 3022   2.847   6.153   2.187
 1026TIP3    H1 3023   2.900   6.075   2.170
 1026TIP3    H2 3024   2.897   6.201   2.253
 1027TIP3   OH2 3025   6.737   0.928   1.298
 1027TIP3    H1 3026   6.807   0.969   1.247
 1027TIP3    H2 3027   6.780   0.896   1.377
 1028TIP3   OH2 3028   0.159   5.675   6.272
 1028TIP3    H1 3029   0.192   5.722   6.195
 1028TIP3    H2 3030   0.085   5.624   6.239
 1029TIP3   OH2 3031   3.202   5.686   2.788
 1029TIP3    H1 3032   3.257   5.757   2.756
 1029TIP3    H2 3033   3.259   5.609   2.787
 1030TIP3   OH2 3034   6.886   3.189   5.262
 1030TIP3    H1 3035   6.793   3.175   5.243
 1030TIP3    H2 3036   6.899   3.145   5.346
 1031TIP3   OH2 3037   3.801   2.835   0.816
 1031TIP3    H1 3038   3.734   2.854   0.880
 1031TIP3    H2 3039   3.883   2.862   0.858
 1032TIP3   OH2 3040   2.788   1.816   6.551
 1032TIP3    H1 3041   2.849   1.883   6.521
 1032TIP3    H2 3042   2.832   1.775   6.625
 1033TIP3   OH2 3043   7.540   4.514   6.002
 1033TIP3    H1 3044   7.567   4.589   6.054
 1033TIP3    H2 3045   7.620   4.463   5.989
 1034TIP3   OH2 3046   5.807   2.779   5.465
 1034TIP3    H1 3047   5.847   2.839   5.402
 1034TIP3    H2 3048   5.723   2.820   5.486
 1035TIP3   OH2 3049   6.165   0.307   5.780
 1035TIP3    H1 3050   6.179   0.295   5.686
 1035TIP3    H2 3051   6.163   0.218   5.815
 1036TIP3   OH2 3052   6.673   3.934   0.713
 1036TIP3    H1 3053   6.635   3.847   0.702
 1036TIP3    H2 3054   6.685   3.943   0.807
 1037TIP3   OH2 3055   8.233   6.231   2.212
 1037TIP3    H1 3056   8.314   6.266   2.251
 1037TIP3    H2 3057   8.264   6.165   2.149
 1038TIP3   OH2 3058   3.128   2.845   4.047
 1038TIP3    H1 3059   3.207   2.825   3.997
 1038TIP3    H2 3060   3.161   2.873   4.133
 1039TIP3   OH2 3061   3.226   3.845   4.882
 1039TIP3    H1 3062   3.249   3.842   4.975
 1039TIP3    H2 3063   3.302   3.806   4.838
 1040TIP3   OH2 3064   5.683   5.428   1.842
 1040TIP3    H1 3065   5.767   5.388   1.864
 1040TIP3    H2 3066   5.673   5.413   1.748
 1041TIP3   OH2 3067   6.302   2.705   1.762
 1041TIP3    H1 3068   6.348   2.768   1.818
 1041TIP3    H2 3069   6.216   2.744   1.749
 1042TIP3   OH2 3070   2.383   5.885   0.715
 1042TIP3    H1 3071   2.436   5.959   0.686
 1042TIP3    H2 3072   2.407   5.813   0.656
 1043TIP3   OH2 3073   4.572   2.975   4.644
 1043TIP3    H1 3074   4.539   3.064   4.649
 1043TIP3    H2 3075   4.666   2.985   4.636
 1044TIP3   OH2 3076   2.022   0.547   2.387
 1044TIP3    H1 3077   1.988   0.565   2.475
 1044TIP3    H2 3078   2.055   0.631   2.356
 1045TIP3   OH2 3079   2.193   1.715   1.493
 1045TIP3    H1 3080   2.273   1.740   1.448
 1045TIP3    H2 3081   2.133   1.688   1.424
 1046TIP3   OH2 3082   7.072   3.471   3.262
 1046TIP3    H1 3083   7.106   3.407   3.325
 1046TIP3    H2 3084   7.004   3.518   3.310
 1047TIP3   OH2 3085   3.576   4.945   4.348
 1047TIP3    H1 3086   3.532   4.987   4.423
 1047TIP3    H2 3087   3.619   5.017   4.302
 1048TIP3   OH2 3088   4.225   5.440   6.594
 1048TIP3    H1 3089   4.135   5.452   6.564
 1048TIP3    H2 3090   4.220   5.364   6.653
 1049TIP3   OH2 3091   5.165   0.972   4.094
 1049TIP3    H1 3092   5.076   0.992   4.065
 1049TIP3    H2 3093   5.206   1.057   4.108
 1050TIP3   OH2 3094   8.243   2.583   3.912
 1050TIP3    H1 3095   8.303   2.619   3.977
 1050TIP3    H2 3096   8.243   2.646   3.841
 1051TIP3   OH2 3097   6.204   7.143   0.344
 1051TIP3    H1 3098   6.245   7.195   0.275
 1051TIP3    H2 3099   6.208   7.199   0.421
 1052TIP3   OH2 3100   7.246   3.095   2.970
 1052TIP3    H1 3101   7.214   3.185   2.965
 1052TIP3    H2 3102   7.274   3.084   3.061
 1053TIP3   OH2 3103   4.046   1.401   2.184
 1053TIP3    H1 3104   4.002   1.428   2.103
 1053TIP3    H2 3105   4.085   1.316   2.164
 1054TIP3   OH2 3106   0.256   2.544   6.669
 1054TIP3    H1 3107   0.211   2.490   6.734
 1054TIP3    H2 3108   0.190   2.607   6.640
 1055TIP3   OH2 3109   1.698   1.059   0.333
 1055TIP3    H1 3110   1.774   1.096   0.290
 1055TIP3    H2 3111   1.637   1.039   0.262
 1056TIP3   OH2 3112   4.487   4.696   1.620
 1056TIP3    H1 3113   4.397   4.708   1.591
 1056TIP3    H2 3114   4.538   4.751   1.560
 1057TIP3   OH2 3115   5.866   3.747   2.259
 1057TIP3    H1 3116   5.949   3.726   2.217
 1057TIP3    H2 3117   5.877   3.836   2.292
 1058TIP3   OH2 3118   4.695   2.618   5.161
 1058TIP3    H1 3119   4.789   2.599   5.155
 1058TIP3    H2 3120   4.691   2.713   5.173
 1059TIP3   OH2 3121   2.711   4.255   5.864
 1059TIP3    H1 3122   2.804   4.240   5.845
 1059TIP3    H2 3123   2.669   4.170   5.849
 1060TIP3   OH2 3124   5.832   3.044   2.881
 1060TIP3    H1 3125   5.891   3.046   2.956
 1060TIP3    H2 3126   5.749   3.077   2.915
 1061TIP3   OH2 3127   1.952   0.214   2.767
 1061TIP3    H1 3128   2.034   0.256   2.791
 1061TIP3    H2 3129   1.975   0.124   2.746
 1062TIP3   OH2 3130   4.804   6.807   1.599
 1062TIP3    H1 3131   4.888   6.832   1.560
 1062TIP3    H2 3132   4.783   6.723   1.560
 1063TIP3   OH2 3133   7.939   7.457   6.012
 1063TIP3    H1 3134   8.000   7.388   5.988
 1063TIP3    H2 3135   7.893   7.478   5.931
 1064TIP3   OH2 3136   3.189   3.458   4.905
 1064TIP3    H1 3137   3.156   3.414   4.827
 1064TIP3    H2 3138   3.114   3.505   4.940
 1065TIP3   OH2 3139   5.411   4.287   5.308
 1065TIP3    H1 3140   5.453   4.206   5.280
 1065TIP3    H2 3141   5.406   4.341   5.229
 1066TIP3   OH2 3142   6.740   1.929   1.825
 1066TIP3    H1 3143   6.677   1.868   1.786
 1066TIP3    H2 3144   6.755   1.995   1.756
 1067TIP3   OH2 3145   1.376   5.959   4.331
 1067TIP3    H1 3146   1.456   5.909   4.345
 1067TIP3    H2 3147   1.345   5.931   4.244
 1068TIP3   OH2 3148   6.756   7.516   3.208
 1068TIP3    H1 3149   6.831   7.461   3.186
 1068TIP3    H2 3150   6.788   7.606   3.200
 1069TIP3   OH2 3151   1.711   2.599   5.393
 1069TIP3    H1 3152   1.718   2.505   5.379
 1069TIP3    H2 3153   1.638   2.627   5.336
 1070TIP3   OH2 3154   1.306   7.532   1.287
 1070TIP3    H1 3155   1.247   7.574   1.350
 1070TIP3    H2 3156   1.256   7.529   1.206
 1071TIP3   OH2 3157   4.036   1.874   4.388
 1071TIP3    H1 3158   4.016   1.828   4.306
 1071TIP3    H2 3159   4.017   1.810   4.456
 1072TIP3   OH2 3160   5.888   7.776   6.462
 1072TIP3    H1 3161   5.950   7.761   6.534
 1072TIP3    H2 3162   5.868   7.869   6.467
 1073TIP3   OH2 3163   7.350   0.399   2.952
 1073TIP3    H1 3164   7.404   0.409   3.031
 1073TIP3    H2 3165   7.373   0.313   2.918
 1074TIP3   OH2 3166   0.261   2.371   1.346
 1074TIP3    H1 3167   0.354   2.392   1.342
 1074TIP3    H2 3168   0.251   2.323   1.428
 1075TIP3   OH2 3169   6.357   1.988   1.835
 1075TIP3    H1 3170   6.449   1.994   1.859
 1075TIP3    H2 3171   6.357   1.993   1.739
 1076TIP3   OH2 3172   7.009   4.675   4.242
 1076TIP3    H1 3173   7.000   4.704   4.152
 1076TIP3    H2 3174   7.059   4.744   4.285
 1077TIP3   OH2 3175   5.824   6.409   2.045
 1077TIP3    H1 3176   5.758   6.387   2.111
 1077TIP3    H2 3177   5.879   6.475   2.088
 1078TIP3   OH2 3178   5.525   5.566   0.792
 1078TIP3    H1 3179   5.601   5.609   0.833
 1078TIP3    H2 3180   5.503   5.494   0.851
 1079TIP3   OH2 3181   7.243   6.069   1.790
 1079TIP3    H1 3182   7.217   5.986   1.749
 1079TIP3    H2 3183   7.160   6.116   1.803
 1080TIP3   OH2 3184   0.630   4.497   5.590
 1080TIP3    H1 3185   0.653   4.463   5.676
 1080TIP3    H2 3186   0.561   4.439   5.558
 1081TIP3   OH2 3187   5.163   5.897   0.537
 1081TIP3    H1 3188   5.076   5.903   0.498
 1081TIP3    H2 3189   5.212   5.971   0.501
 1082TIP3   OH2 3190   2.692   1.115   6.486
 1082TIP3    H1 3191   2.633   1.166   6.430
 1082TIP3    H2 3192   2.663   1.133   6.575
 1083TIP3   OH2 3193   7.051   0.178   3.536
 1083TIP3    H1 3194   7.146   0.187   3.532
 1083TIP3    H2 3195   7.018   0.242   3.472
 1084TIP3   OH2 3196   8.013   4.368   4.660
 1084TIP3    H1 3197   8.091   4.423   4.669
 1084TIP3    H2 3198   8.045   4.279   4.675
 1085TIP3   OH2 3199   7.406   3.369   2.715
 1085TIP3    H1 3200   7.398   3.461   2.687
 1085TIP3    H2 3201   7.369   3.367   2.803
 1086TIP3   OH2 3202   3.351   2.838   5.748
 1086TIP3    H1 3203   3.424   2.802   5.798
 1086TIP3    H2 3204   3.304   2.761   5.716
 1087TIP3   OH2 3205   4.620   7.467   1.691
 1087TIP3    H1 3206   4.528   7.476   1.714
 1087TIP3    H2 3207   4.621   7.405   1.618
 1088TIP3   OH2 3208   7.589   3.909   5.949
 1088TIP3    H1 3209   7.554   3.886   6.036
 1088TIP3    H2 3210   7.574   3.831   5.896
 1089TIP3   OH2 3211   1.370   3.969   1.175
 1089TIP3    H1 3212   1.296   3.985   1.234
 1089TIP3    H2 3213   1.399   3.880   1.196
 1090TIP3   OH2 3214   4.039   3.493   3.280
 1090TIP3    H1 3215   4.106   3.461   3.340
 1090TIP3    H2 3216   3.987   3.554   3.332
 1091TIP3   OH2 3217   3.285   6.105   2.679
 1091TIP3    H1 3218   3.273   6.165   2.605
 1091TIP3    H2 3219   3.204   6.112   2.729
 1092TIP3   OH2 3220   4.787   0.027   5.242
 1092TIP3    H1 3221   4.872   0.014   5.201
 1092TIP3    H2 3222   4.729   0.052   5.170
 1093TIP3   OH2 3223   7.723   5.195   2.705
 1093TIP3    H1 3224   7.801   5.213   2.652
 1093TIP3    H2 3225   7.752   5.205   2.796
 1094TIP3   OH2 3226   6.444   0.830   3.686
 1094TIP3    H1 3227   6.434   0.782   3.768
 1094TIP3    H2 3228   6.506   0.778   3.635
 1095TIP3   OH2 3229   8.192   6.657   5.915
 1095TIP3    H1 3230   8.222   6.669   5.825
 1095TIP3    H2 3231   8.186   6.746   5.950
 1096TIP3   OH2 3232   5.273   7.782   0.943
 1096TIP3    H1 3233   5.236   7.712   0.998
 1096TIP3    H2 3234   5.266   7.861   0.997
 1097TIP3   OH2 3235   2.385   7.613   3.411
 1097TIP3    H1 3236   2.443   7.652   3.345
 1097TIP3    H2 3237   2.304   7.594   3.364
 1098TIP3   OH2 3238   5.870   4.199   4.549
 1098TIP3    H1 3239   5.787   4.220   4.505
 1098TIP3    H2 3240   5.919   4.282   4.547
 1099TIP3   OH2 3241   2.342   5.536   4.466
 1099TIP3    H1 3242   2.363   5.622   4.431
 1099TIP3    H2 3243   2.271   5.553   4.529
 1100TIP3   OH2 3244   2.314   4.675   6.367
 1100TIP3    H1 3245   2.322   4.604   6.303
 1100TIP3    H2 3246   2.401   4.714   6.370
 1101TIP3   OH2 3247   7.881   2.118   2.041
 1101TIP3    H1 3248   7.963   2.138   1.997
 1101TIP3    H2 3249   7.857   2.200   2.086
 1102TIP3   OH2 3250   0.248   7.273   6.004
 1102TIP3    H1 3251   0.175   7.335   5.992
 1102TIP3    H2 3252   0.326   7.323   5.981
 1103TIP3   OH2 3253   2.948   1.693   5.754
 1103TIP3    H1 3254   2.952   1.627   5.824
 1103TIP3    H2 3255   3.031   1.685   5.708
 1104TIP3   OH2 3256   5.474   5.864   0.705
 1104TIP3    H1 3257   5.546   5.867   0.643
 1104TIP3    H2 3258   5.447   5.772   0.706
 1105TIP3   OH2 3259   7.818   2.206   5.840
 1105TIP3    H1 3260   7.759   2.140   5.804
 1105TIP3    H2 3261   7.863   2.162   5.912
 1106TIP3   OH2 3262   7.542   5.198   5.689
 1106TIP3    H1 3263   7.569   5.111   5.659
 1106TIP3    H2 3264   7.624   5.242   5.710
 1107TIP3   OH2 3265   5.381   5.375   4.292
 1107TIP3    H1 3266   5.447   5.387   4.361
 1107TIP3    H2 3267   5.307   5.429   4.321
 1108TIP3   OH2 3268   2.088   7.186   5.170
 1108TIP3    H1 3269   2.114   7.278   5.174
 1108TIP3    H2 3270   2.137   7.150   5.096
 1109TIP3   OH2 3271   4.979   6.808   6.324
 1109TIP3    H1 3272   4.991   6.732   6.382
 1109TIP3    H2 3273   4.951   6.770   6.241
 1110TIP3   OH2 3274   1.779   1.781   1.971
 1110TIP3    H1 3275   1.860   1.813   2.010
 1110TIP3    H2 3276   1.794   1.785   1.876
 1111TIP3   OH2 3277   4.027   7.434   6.062
 1111TIP3    H1 3278   4.004   7.342   6.044
 1111TIP3    H2 3279   4.115   7.429   6.099
 1112TIP3   OH2 3280   0.946   2.405   4.982
 1112TIP3    H1 3281   0.949   2.339   5.052
 1112TIP3    H2 3282   0.857   2.439   4.985
 1113TIP3   OH2 3283   8.323   3.426   0.394
 1113TIP3    H1 3284   8.305   3.458   0.483
 1113TIP3    H2 3285   8.264   3.477   0.338
 1114TIP3   OH2 3286   3.321   4.595   2.691
 1114TIP3    H1 3287   3.395   4.638   2.733
 1114TIP3    H2 3288   3.361   4.527   2.636
 1115TIP3   OH2 3289   1.331   6.054   5.759
 1115TIP3    H1 3290   1.238   6.077   5.766
 1115TIP3    H2 3291   1.331   5.973   5.708
 1116TIP3   OH2 3292   3.308   5.313   4.453
 1116TIP3    H1 3293   3.305   5.358   4.369
 1116TIP3    H2 3294   3.238   5.354   4.504
 1117TIP3   OH2 3295   3.907   1.620   5.887
 1117TIP3    H1 3296   3.813   1.608   5.875
 1117TIP3    H2 3297   3.936   1.662   5.806
 1118TIP3   OH2 3298   2.330   6.543   5.750
 1118TIP3    H1 3299   2.338   6.508   5.662
 1118TIP3    H2 3300   2.327   6.638   5.739
 1119TIP3   OH2 3301   0.050   5.193   4.311
 1119TIP3    H1 3302   0.032   5.147   4.393
 1119TIP3    H2 3303   0.014   5.281   4.324
 1120TIP3   OH2 3304   5.626   1.225   5.317
 1120TIP3    H1 3305   5.696   1.249   5.257
 1120TIP3    H2 3306   5.671   1.199   5.398
 1121TIP3   OH2 3307   4.116   3.122   1.548
 1121TIP3    H1 3308   4.036   3.153   1.506
 1121TIP3    H2 3309   4.091   3.107   1.639
 1122TIP3   OH2 3310   7.605   7.041   5.518
 1122TIP3    H1 3311   7.658   7.111   5.556
 1122TIP3    H2 3312   7.556   7.005   5.591
 1123TIP3   OH2 3313   6.295   4.940   4.053
 1123TIP3    H1 3314   6.246   4.875   4.104
 1123TIP3    H2 3315   6.387   4.923   4.076
 1124TIP3   OH2 3316   3.725   0.911   3.028
 1124TIP3    H1 3317   3.795   0.849   3.050
 1124TIP3    H2 3318   3.751   0.992   3.073
 1125TIP3   OH2 3319   5.910   4.582   3.896
 1125TIP3    H1 3320   5.927   4.676   3.885
 1125TIP3    H2 3321   5.881   4.573   3.987
 1126TIP3   OH2 3322   2.449   5.037   3.235
 1126TIP3    H1 3323   2.500   5.060   3.158
 1126TIP3    H2 3324   2.513   5.037   3.307
 1127TIP3   OH2 3325   3.407   4.968   2.498
 1127TIP3    H1 3326   3.377   4.877   2.504
 1127TIP3    H2 3327   3.443   4.986   2.585
 1128TIP3   OH2 3328   6.953   5.712   2.496
 1128TIP3    H1 3329   6.984   5.660   2.422
 1128TIP3    H2 3330   7.023   5.775   2.511
 1129TIP3   OH2 3331   2.748   0.118   2.700
 1129TIP3    H1 3332   2.777   0.197   2.655
 1129TIP3    H2 3333   2.802   0.048   2.663
 1130TIP3   OH2 3334   0.522   0.643   2.849
 1130TIP3    H1 3335   0.532   0.738   2.852
 1130TIP3    H2 3336   0.441   0.629   2.799
 1131TIP3   OH2 3337   0.173   0.130   5.017
 1131TIP3    H1 3338   0.165   0.186   5.094
 1131TIP3    H2 3339   0.232   0.060   5.045
 1132TIP3   OH2 3340   7.490   6.048   6.211
 1132TIP3    H1 3341   7.455   6.137   6.196
 1132TIP3    H2 3342   7.461   5.999   6.134
 1133TIP3   OH2 3343   4.657   7.803   0.585
 1133TIP3    H1 3344   4.574   7.766   0.614
 1133TIP3    H2 3345   4.715   7.795   0.661
 1134TIP3   OH2 3346   6.476   0.403   0.325
 1134TIP3    H1 3347   6.444   0.470   0.265
 1134TIP3    H2 3348   6.454   0.320   0.283
 1135TIP3   OH2 3349   7.982   2.547   2.439
 1135TIP3    H1 3350   8.037   2.469   2.452
 1135TIP3    H2 3351   7.969   2.582   2.527
 1136TIP3   OH2 3352   0.295   6.541   0.210
 1136TIP3    H1 3353   0.219   6.489   0.238
 1136TIP3    H2 3354   0.296   6.615   0.271
 1137TIP3   OH2 3355   3.738   6.887   2.259
 1137TIP3    H1 3356   3.791   6.871   2.336
 1137TIP3    H2 3357   3.775   6.966   2.219
 1138TIP3   OH2 3358   5.191   7.228   0.484
 1138TIP3    H1 3359   5.263   7.168   0.503
 1138TIP3    H2 3360   5.160   7.257   0.570
 1139TIP3   OH2 3361   2.136   4.872   5.092
 1139TIP3    H1 3362   2.192   4.865   5.169
 1139TIP3    H2 3363   2.162   4.954   5.050
 1140TIP3   OH2 3364   3.883   7.055   4.980
 1140TIP3    H1 3365   3.932   7.077   4.901
 1140TIP3    H2 3366   3.951   7.034   5.044
 1141TIP3   OH2 3367   8.219   3.865   5.516
 1141TIP3    H1 3368   8.208   3.905   5.429
 1141TIP3    H2 3369   8.180   3.928   5.576
 1142TIP3   OH2 3370   3.689   7.520   5.305
 1142TIP3    H1 3371   3.774   7.477   5.318
 1142TIP3    H2 3372   3.652   7.526   5.393
 1143TIP3   OH2 3373   0.445   5.770   5.871
 1143TIP3    H1 3374   0.484   5.688   5.902
 1143TIP3    H2 3375   0.519   5.822   5.841
 1144TIP3   OH2 3376   4.814   3.173   3.618
 1144TIP3    H1 3377   4.744   3.231   3.647
 1144TIP3    H2 3378   4.875   3.171   3.692
 1145TIP3   OH2 3379   7.186   7.550   0.170
 1145TIP3    H1 3380   7.194   7.643   0.190
 1145TIP3    H2 3381   7.107   7.544   0.116
 1146TIP3   OH2 3382   2.434   5.294   5.669
 1146TIP3    H1 3383   2.385   5.254   5.740
 1146TIP3    H2 3384   2.368   5.317   5.604
 1147TIP3   OH2 3385   6.759   2.933   6.495
 1147TIP3    H1 3386   6.795   2.871   6.430
 1147TIP3    H2 3387   6.669   2.947   6.467
 1148TIP3   OH2 3388   3.149   5.133   2.784
 1148TIP3    H1 3389   3.218   5.119   2.849
 1148TIP3    H2 3390   3.140   5.048   2.741
 1149TIP3   OH2 3391   0.514   1.846   4.341
 1149TIP3    H1 3392   0.562   1.913   4.391
 1149TIP3    H2 3393   0.567   1.833   4.262
 1150TIP3   OH2 3394   1.531   5.607   4.843
 1150TIP3    H1 3395   1.492   5.537   4.894
 1150TIP3    H2 3396   1.621   5.614   4.875
 1151TIP3   OH2 3397   5.369   0.910   6.648
 1151TIP3    H1 3398   5.443   0.863   6.687
 1151TIP3    H2 3399   5.405   0.951   6.569
 1152TIP3   OH2 3400   2.846   1.303   3.344
 1152TIP3    H1 3401   2.887   1.387   3.327
 1152TIP3    H2 3402   2.768   1.325   3.396
 1153TIP3   OH2 3403   6.870   6.531   5.207
 1153TIP3    H1 3404   6.821   6.571   5.278
 1153TIP3    H2 3405   6.962   6.544   5.231
 1154TIP3   OH2 3406   6.409   2.191   4.346
 1154TIP3    H1 3407   6.451   2.123   4.293
 1154TIP3    H2 3408   6.334   2.220   4.294
 1155TIP3   OH2 3409   1.240   6.404   5.348
 1155TIP3    H1 3410   1.253   6.418   5.254
 1155TIP3    H2 3411   1.328   6.410   5.386
 1156TIP3   OH2 3412   0.352   1.379   0.807
 1156TIP3    H1 3413   0.434   1.362   0.853
 1156TIP3    H2 3414   0.379   1.395   0.717
 1157TIP3   OH2 3415   3.297   2.723   0.899
 1157TIP3    H1 3416   3.289   2.691   0.809
 1157TIP3    H2 3417   3.356   2.661   0.941
 1158TIP3   OH2 3418   4.125   2.760   5.176
 1158TIP3    H1 3419   4.175   2.681   5.156
 1158TIP3    H2 3420   4.139   2.817   5.101
 1159TIP3   OH2 3421   5.856   7.698   3.387
 1159TIP3    H1 3422   5.947   7.685   3.412
 1159TIP3    H2 3423   5.851   7.792   3.366
 1160TIP3   OH2 3424   1.152   6.963   2.214
 1160TIP3    H1 3425   1.068   6.938   2.252
 1160TIP3    H2 3426   1.176   7.043   2.261
 1161TIP3   OH2 3427   0.339   2.525   2.172
 1161TIP3    H1 3428   0.365   2.607   2.129
 1161TIP3    H2 3429   0.276   2.485   2.112
 1162TIP3   OH2 3430   8.193   3.588   6.704
 1162TIP3    H1 3431   8.189   3.584   6.609
 1162TIP3    H2 3432   8.105   3.564   6.733
 1163TIP3   OH2 3433   2.591   3.670   0.525
 1163TIP3    H1 3434   2.613   3.762   0.542
 1163TIP3    H2 3435   2.499   3.672   0.499
 1164TIP3   OH2 3436   3.342   3.932   6.374
 1164TIP3    H1 3437   3.335   3.933   6.279
 1164TIP3    H2 3438   3.305   4.016   6.402
 1165TIP3   OH2 3439   2.909   2.178   5.043
 1165TIP3    H1 3440   2.985   2.235   5.028
 1165TIP3    H2 3441   2.834   2.238   5.041
 1166TIP3   OH2 3442   4.497   1.849   4.659
 1166TIP3    H1 3443   4.425   1.906   4.630
 1166TIP3    H2 3444   4.537   1.818   4.578
 1167TIP3   OH2 3445   5.906   0.956   3.385
 1167TIP3    H1 3446   5.992   0.950   3.428
 1167TIP3    H2 3447   5.898   1.049   3.363
 1168TIP3   OH2 3448   4.705   0.078   2.625
 1168TIP3    H1 3449   4.660   0.138   2.566
 1168TIP3    H2 3450   4.796   0.109   2.628
 1169TIP3   OH2 3451   7.159   5.311   2.335
 1169TIP3    H1 3452   7.249   5.315   2.303
 1169TIP3    H2 3453   7.165   5.265   2.418
 1170TIP3   OH2 3454   4.793   0.583   5.517
 1170TIP3    H1 3455   4.788   0.659   5.460
 1170TIP3    H2 3456   4.873   0.596   5.568
 1171TIP3   OH2 3457   3.630   6.134   3.897
 1171TIP3    H1 3458   3.547   6.094   3.922
 1171TIP3    H2 3459   3.608   6.193   3.825
 1172TIP3   OH2 3460   1.886   7.780   3.682
 1172TIP3    H1 3461   1.960   7.739   3.727
 1172TIP3    H2 3462   1.858   7.850   3.740
 1173TIP3   OH2 3463   6.953   2.949   5.418
 1173TIP3    H1 3464   6.879   2.894   5.441
 1173TIP3    H2 3465   6.956   3.015   5.487
 1174TIP3   OH2 3466   7.926   5.220   2.122
 1174TIP3    H1 3467   7.981   5.161   2.174
 1174TIP3    H2 3468   7.925   5.301   2.172
 1175TIP3   OH2 3469   6.502   0.115   2.373
 1175TIP3    H1 3470   6.410   0.089   2.372
 1175TIP3    H2 3471   6.519   0.147   2.285
 1176TIP3   OH2 3472   2.693   0.026   1.527
 1176TIP3    H1 3473   2.675  -0.023   1.608
 1176TIP3    H2 3474   2.632  -0.011   1.463
 1177TIP3   OH2 3475   0.505   5.634   6.641
 1177TIP3    H1 3476   0.439   5.693   6.606
 1177TIP3    H2 3477   0.517   5.663   6.732
 1178TIP3   OH2 3478   2.784   2.610   3.719
 1178TIP3    H1 3479   2.764   2.593   3.811
 1178TIP3    H2 3480   2.765   2.528   3.674
 1179TIP3   OH2 3481   0.613   7.271   0.627
 1179TIP3    H1 3482   0.706   7.255   0.610
 1179TIP3    H2 3483   0.606   7.366   0.634
 1180TIP3   OH2 3484   8.311   6.748   3.174
 1180TIP3    H1 3485   8.341   6.762   3.263
 1180TIP3    H2 3486   8.240   6.685   3.182
 1181TIP3   OH2 3487   2.374   0.716   0.098
 1181TIP3    H1 3488   2.320   0.673   0.032
 1181TIP3    H2 3489   2.346   0.808   0.095
 1182TIP3   OH2 3490   5.056   5.891   3.923
 1182TIP3    H1 3491   5.086   5.959   3.863
 1182TIP3    H2 3492   4.962   5.883   3.908
 1183TIP3   OH2 3493   7.814   4.747   0.195
 1183TIP3    H1 3494   7.903   4.747   0.159
 1183TIP3    H2 3495   7.784   4.838   0.184
 1184TIP3   OH2 3496   1.291   6.838   2.623
 1184TIP3    H1 3497   1.222   6.810   2.562
 1184TIP3    H2 3498   1.372   6.831   2.572
 1185TIP3   OH2 3499   4.244   2.518   6.384
 1185TIP3    H1 3500   4.277   2.447   6.330
 1185TIP3    H2 3501   4.210   2.582   6.321
 1186TIP3   OH2 3502   7.879   5.734   0.710
 1186TIP3    H1 3503   7.784   5.747   0.713
 1186TIP3    H2 3504   7.897   5.706   0.620
 1187TIP3   OH2 3505   4.297   6.657   4.512
 1187TIP3    H1 3506   4.293   6.680   4.605
 1187TIP3    H2 3507   4.258   6.731   4.467
 1188TIP3   OH2 3508   2.562   2.497   2.905
 1188TIP3    H1 3509   2.635   2.555   2.884
 1188TIP3    H2 3510   2.517   2.540   2.978
 1189TIP3   OH2 3511   4.661   3.551   4.990
 1189TIP3    H1 3512   4.732   3.512   5.041
 1189TIP3    H2 3513   4.589   3.559   5.053
 1190TIP3   OH2 3514   7.066   4.913   3.107
 1190TIP3    H1 3515   7.161   4.900   3.104
 1190TIP3    H2 3516   7.046   4.961   3.026
 1191TIP3   OH2 3517   4.551   6.907   0.567
 1191TIP3    H1 3518   4.642   6.883   0.554
 1191TIP3    H2 3519   4.506   6.876   0.488
 1192TIP3   OH2 3520   5.235   4.140   5.001
 1192TIP3    H1 3521   5.192   4.211   5.049
 1192TIP3    H2 3522   5.164   4.091   4.962
 1193TIP3   OH2 3523   4.472   4.255   2.661
 1193TIP3    H1 3524   4.418   4.236   2.585
 1193TIP3    H2 3525   4.410   4.263   2.733
 1194TIP3   OH2 3526   2.291   5.818   3.585
 1194TIP3    H1 3527   2.385   5.831   3.602
 1194TIP3    H2 3528   2.287   5.782   3.496
 1195TIP3   OH2 3529   6.341   7.243   1.123
 1195TIP3    H1 3530   6.388   7.310   1.173
 1195TIP3    H2 3531   6.249   7.255   1.147
 1196TIP3   OH2 3532   1.342   0.784   2.267
 1196TIP3    H1 3533   1.264   0.791   2.323
 1196TIP3    H2 3534   1.315   0.725   2.197
 1197TIP3   OH2 3535   0.645   4.277   6.188
 1197TIP3    H1 3536   0.725   4.244   6.147
 1197TIP3    H2 3537   0.586   4.202   6.189
 1198TIP3   OH2 3538   0.849   4.221   4.087
 1198TIP3    H1 3539   0.762   4.209   4.124
 1198TIP3    H2 3540   0.842   4.300   4.033
 1199TIP3   OH2 3541   1.954   3.896   0.979
 1199TIP3    H1 3542   2.036   3.940   1.002
 1199TIP3    H2 3543   1.982   3.819   0.929
 1200TIP3   OH2 3544   8.181   0.771   3.881
 1200TIP3    H1 3545   8.222   0.693   3.918
 1200TIP3    H2 3546   8.155   0.823   3.957
 1201TIP3   OH2 3547   0.887   6.530   0.726
 1201TIP3    H1 3548   0.823   6.599   0.741
 1201TIP3    H2 3549   0.845   6.471   0.663
 1202TIP3   OH2 3550   6.643   3.655   0.639
 1202TIP3    H1 3551   6.738   3.644   0.652
 1202TIP3    H2 3552   6.611   3.566   0.623
 1203TIP3   OH2 3553   2.263   5.708   2.121
 1203TIP3    H1 3554   2.339   5.653   2.140
 1203TIP3    H2 3555   2.286   5.753   2.039
 1204TIP3   OH2 3556   2.730   4.400   4.958
 1204TIP3    H1 3557   2.766   4.320   4.997
 1204TIP3    H2 3558   2.797   4.466   4.972
 1205TIP3   OH2 3559   2.214   6.848   4.174
 1205TIP3    H1 3560   2.126   6.811   4.164
 1205TIP3    H2 3561   2.273   6.776   4.148
 1206TIP3   OH2 3562   1.405   6.418   1.598
 1206TIP3    H1 3563   1.390   6.386   1.687
 1206TIP3    H2 3564   1.371   6.508   1.599
 1207TIP3   OH2 3565   1.575   5.003   1.642
 1207TIP3    H1 3566   1.495   4.962   1.610
 1207TIP3    H2 3567   1.604   4.948   1.715
 1208TIP3   OH2 3568   7.886   6.120   0.124
 1208TIP3    H1 3569   7.831   6.042   0.117
 1208TIP3    H2 3570   7.933   6.124   0.040
 1209TIP3   OH2 3571   7.532   1.006   1.367
 1209TIP3    H1 3572   7.624   0.999   1.340
 1209TIP3    H2 3573   7.492   1.064   1.302
 1210TIP3   OH2 3574   7.645   5.174   2.093
 1210TIP3    H1 3575   7.738   5.150   2.092
 1210TIP3    H2 3576   7.609   5.137   2.013
 1211TIP3   OH2 3577   0.741   4.025   1.328
 1211TIP3    H1 3578   0.766   3.934   1.344
 1211TIP3    H2 3579   0.697   4.053   1.408
 1212TIP3   OH2 3580   1.315   1.541   0.560
 1212TIP3    H1 3581   1.345   1.477   0.625
 1212TIP3    H2 3582   1.268   1.488   0.495
 1213TIP3   OH2 3583   4.794   0.786   1.547
 1213TIP3    H1 3584   4.881   0.824   1.556
 1213TIP3    H2 3585   4.804   0.722   1.476
 1214TIP3   OH2 3586   4.172   1.140   3.529
 1214TIP3    H1 3587   4.220   1.092   3.462
 1214TIP3    H2 3588   4.157   1.076   3.598
 1215TIP3   OH2 3589   6.340   3.687   1.550
 1215TIP3    H1 3590   6.392   3.701   1.629
 1215TIP3    H2 3591   6.252   3.715   1.573
 1216TIP3   OH2 3592   2.182   0.844   3.779
 1216TIP3    H1 3593   2.137   0.867   3.860
 1216TIP3    H2 3594   2.201   0.751   3.787
 1217TIP3   OH2 3595   7.934   2.354   3.334
 1217TIP3    H1 3596   7.954   2.383   3.423
 1217TIP3    H2 3597   7.840   2.368   3.325
 1218TIP3   OH2 3598   0.298   6.367   0.713
 1218TIP3    H1 3599   0.363   6.437   0.706
 1218TIP3    H2 3600   0.240   6.396   0.784
 1219TIP3   OH2 3601   1.880   4.491   1.641
 1219TIP3    H1 3602   1.804   4.438   1.663
 1219TIP3    H2 3603   1.955   4.433   1.655
 1220TIP3   OH2 3604   6.562   5.776   5.350
 1220TIP3    H1 3605   6.576   5.783   5.256
 1220TIP3    H2 3606   6.626   5.836   5.389
 1221TIP3   OH2 3607   1.054   6.477   1.354
 1221TIP3    H1 3608   1.139   6.490   1.313
 1221TIP3    H2 3609   0.992   6.474   1.281
 1222TIP3   OH2 3610   5.192   2.389   6.292
 1222TIP3    H1 3611   5.158   2.417   6.207
 1222TIP3    H2 3612   5.154   2.451   6.354
 1223TIP3   OH2 3613   3.678   6.710   1.742
 1223TIP3    H1 3614   3.680   6.622   1.780
 1223TIP3    H2 3615   3.741   6.706   1.670
 1224TIP3   OH2 3616   6.480   1.491   0.422
 1224TIP3    H1 3617   6.541   1.417   0.428
 1224TIP3    H2 3618   6.535   1.566   0.400
 1225TIP3   OH2 3619   0.770   2.103   1.660
 1225TIP3    H1 3620   0.813   2.164   1.720
 1225TIP3    H2 3621   0.702   2.062   1.713
 1226TIP3   OH2 3622   1.512   1.388   4.820
 1226TIP3    H1 3623   1.441   1.411   4.762
 1226TIP3    H2 3624   1.499   1.294   4.838
 1227TIP3   OH2 3625   5.158   6.263   2.918
 1227TIP3    H1 3626   5.241   6.274   2.873
 1227TIP3    H2 3627   5.166   6.317   2.997
 1228TIP3   OH2 3628   1.335   2.007   1.123
 1228TIP3    H1 3629   1.414   1.984   1.073
 1228TIP3    H2 3630   1.277   1.931   1.113
 1229TIP3   OH2 3631   2.778   6.950   2.297
 1229TIP3    H1 3632   2.722   6.872   2.305
 1229TIP3    H2 3633   2.853   6.931   2.354
 1230TIP3   OH2 3634   5.484   6.570   6.632
 1230TIP3    H1 3635   5.507   6.596   6.543
 1230TIP3    H2 3636   5.523   6.638   6.687
 1231TIP3   OH2 3637   7.922   4.172   6.512
 1231TIP3    H1 3638   8.005   4.131   6.486
 1231TIP3    H2 3639   7.904   4.235   6.442
 1232TIP3   OH2 3640   1.031   2.704   1.139
 1232TIP3    H1 3641   0.992   2.651   1.070
 1232TIP3    H2 3642   0.972   2.779   1.148
 1233TIP3   OH2 3643   2.885   5.491   2.296
 1233TIP3    H1 3644   2.956   5.513   2.357
 1233TIP3    H2 3645   2.888   5.396   2.289
 1234TIP3   OH2 3646   0.827   0.638   1.869
 1234TIP3    H1 3647   0.812   0.713   1.810
 1234TIP3    H2 3648   0.832   0.677   1.956
 1235TIP3   OH2 3649   5.313   3.122   4.575
 1235TIP3    H1 3650   5.358   3.041   4.601
 1235TIP3    H2 3651   5.297   3.167   4.657
 1236TIP3   OH2 3652   3.381   3.801   1.910
 1236TIP3    H1 3653   3.368   3.889   1.944
 1236TIP3    H2 3654   3.476   3.794   1.898
 1237TIP3   OH2 3655   2.473   0.497   1.384
 1237TIP3    H1 3656   2.380   0.499   1.409
 1237TIP3    H2 3657   2.481   0.567   1.319
 1238TIP3   OH2 3658   1.973   1.476   0.785
 1238TIP3    H1 3659   1.934   1.389   0.796
 1238TIP3    H2 3660   2.039   1.482   0.855
 1239TIP3   OH2 3661   7.716   3.324   2.533
 1239TIP3    H1 3662   7.759   3.339   2.617
 1239TIP3    H2 3663   7.686   3.233   2.538
 1240TIP3   OH2 3664   0.564   5.552   2.968
 1240TIP3    H1 3665   0.564   5.485   2.900
 1240TIP3    H2 3666   0.609   5.511   3.042
 1241TIP3   OH2 3667   6.380   6.044   2.246
 1241TIP3    H1 3668   6.391   6.113   2.181
 1241TIP3    H2 3669   6.461   6.047   2.298
 1242TIP3   OH2 3670   5.682   4.729   4.698
 1242TIP3    H1 3671   5.700   4.749   4.789
 1242TIP3    H2 3672   5.723   4.643   4.684
 1243TIP3   OH2 3673   7.440   0.143   2.875
 1243TIP3    H1 3674   7.505   0.130   2.943
 1243TIP3    H2 3675   7.400   0.057   2.863
 1244TIP3   OH2 3676   4.603   6.296   6.685
 1244TIP3    H1 3677   4.599   6.338   6.771
 1244TIP3    H2 3678   4.668   6.227   6.695
 1245TIP3   OH2 3679   3.398   7.461   5.190
 1245TIP3    H1 3680   3.441   7.413   5.260
 1245TIP3    H2 3681   3.387   7.550   5.224
 1246TIP3   OH2 3682   2.991   1.690   2.785
 1246TIP3    H1 3683   3.003   1.778   2.820
 1246TIP3    H2 3684   3.067   1.641   2.817
 1247TIP3   OH2 3685   7.519   0.923   3.851
 1247TIP3    H1 3686   7.449   0.972   3.808
 1247TIP3    H2 3687   7.591   0.985   3.858
 1248TIP3   OH2 3688   3.887   3.219   0.696
 1248TIP3    H1 3689   3.812   3.180   0.742
 1248TIP3    H2 3690   3.946   3.248   0.766
 1249TIP3   OH2 3691   6.367   7.258   4.364
 1249TIP3    H1 3692   6.338   7.201   4.435
 1249TIP3    H2 3693   6.340   7.346   4.391
 1250TIP3   OH2 3694   0.753   7.806   3.864
 1250TIP3    H1 3695   0.823   7.796   3.799
 1250TIP3    H2 3696   0.741   7.901   3.872
 1251TIP3   OH2 3697   4.496   1.300   1.234
 1251TIP3    H1 3698   4.590   1.315   1.222
 1251TIP3    H2 3699   4.464   1.382   1.273
 1252TIP3   OH2 3700   2.972   6.842   3.768
 1252TIP3    H1 3701   3.063   6.844   3.796
 1252TIP3    H2 3702   2.923   6.882   3.839
 1253TIP3   OH2 3703   2.452   1.244   1.444
 1253TIP3    H1 3704   2.413   1.246   1.531
 1253TIP3    H2 3705   2.436   1.332   1.409
 1254TIP3   OH2 3706   4.699   1.199   3.803
 1254TIP3    H1 3707   4.655   1.138   3.862
 1254TIP3    H2 3708   4.793   1.185   3.821
 1255TIP3   OH2 3709   7.562   3.998   0.800
 1255TIP3    H1 3710   7.493   4.055   0.834
 1255TIP3    H2 3711   7.537   3.984   0.708
 1256TIP3   OH2 3712   0.673   6.605   1.037
 1256TIP3    H1 3713   0.686   6.677   0.975
 1256TIP3    H2 3714   0.596   6.560   1.004
 1257TIP3   OH2 3715   7.173   2.258   5.819
 1257TIP3    H1 3716   7.154   2.179   5.769
 1257TIP3    H2 3717   7.268   2.256   5.833
 1258TIP3   OH2 3718   7.939   0.185   6.440
 1258TIP3    H1 3719   7.974   0.207   6.526
 1258TIP3    H2 3720   7.846   0.207   6.445
 1259TIP3   OH2 3721   5.364   4.202   5.563
 1259TIP3    H1 3722   5.413   4.230   5.486
 1259TIP3    H2 3723   5.336   4.284   5.604
 1260TIP3   OH2 3724   3.215   4.903   0.133
 1260TIP3    H1 3725   3.253   4.984   0.099
 1260TIP3    H2 3726   3.282   4.868   0.192
 1261TIP3   OH2 3727   1.540   0.950   3.971
 1261TIP3    H1 3728   1.568   0.970   3.882
 1261TIP3    H2 3729   1.447   0.974   3.973
 1262TIP3   OH2 3730   2.698   2.903   0.277
 1262TIP3    H1 3731   2.643   2.958   0.221
 1262TIP3    H2 3732   2.694   2.816   0.237
 1263TIP3   OH2 3733   5.429   5.023   3.834
 1263TIP3    H1 3734   5.390   5.101   3.873
 1263TIP3    H2 3735   5.520   5.048   3.817
 1264TIP3   OH2 3736   6.267   7.879   5.557
 1264TIP3    H1 3737   6.313   7.875   5.473
 1264TIP3    H2 3738   6.177   7.904   5.534
 1265TIP3   OH2 3739   6.878   6.060   0.108
 1265TIP3    H1 3740   6.884   6.126   0.177
 1265TIP3    H2 3741   6.868   6.110   0.027
 1266TIP3   OH2 3742   1.122   5.617   4.975
 1266TIP3    H1 3743   1.054   5.569   4.928
 1266TIP3    H2 3744   1.122   5.704   4.935
 1267TIP3   OH2 3745   3.014   1.427   2.486
 1267TIP3    H1 3746   3.010   1.388   2.399
 1267TIP3    H2 3747   2.958   1.370   2.540
 1268TIP3   OH2 3748   6.239   5.329   2.044
 1268TIP3    H1 3749   6.175   5.299   2.109
 1268TIP3    H2 3750   6.203   5.411   2.011
 1269TIP3   OH2 3751   2.498   6.746   4.333
 1269TIP3    H1 3752   2.563   6.676   4.340
 1269TIP3    H2 3753   2.454   6.731   4.249
 1270TIP3   OH2 3754   2.430   5.095   4.856
 1270TIP3    H1 3755   2.335   5.082   4.861
 1270TIP3    H2 3756   2.465   5.007   4.838
 1271TIP3   OH2 3757   7.840   5.023   0.580
 1271TIP3    H1 3758   7.873   5.113   0.586
 1271TIP3    H2 3759   7.762   5.029   0.525
 1272TIP3   OH2 3760   1.329   3.136   0.123
 1272TIP3    H1 3761   1.320   3.091   0.039
 1272TIP3    H2 3762   1.359   3.068   0.183
 1273TIP3   OH2 3763   0.621   6.378   2.554
 1273TIP3    H1 3764   0.679   6.423   2.615
 1273TIP3    H2 3765   0.619   6.434   2.477
 1274TIP3   OH2 3766   4.125   2.124   1.016
 1274TIP3    H1 3767   4.201   2.091   0.968
 1274TIP3    H2 3768   4.135   2.089   1.104
 1275TIP3   OH2 3769   2.375   4.448   3.213
 1275TIP3    H1 3770   2.405   4.514   3.150
 1275TIP3    H2 3771   2.455   4.408   3.247
 1276TIP3   OH2 3772   6.350   2.303   2.231
 1276TIP3    H1 3773   6.340   2.296   2.326
 1276TIP3    H2 3774   6.441   2.330   2.218
 1277TIP3   OH2 3775   1.885   7.080   2.598
 1277TIP3    H1 3776   1.914   7.155   2.546
 1277TIP3    H2 3777   1.829   7.118   2.666
 1278TIP3   OH2 3778   7.347   2.842   1.757
 1278TIP3    H1 3779   7.435   2.825   1.723
 1278TIP3    H2 3780   7.358   2.915   1.817
 1279TIP3   OH2 3781   5.326   4.235   3.558
 1279TIP3    H1 3782   5.383   4.171   3.601
 1279TIP3    H2 3783   5.332   4.314   3.613
 1280TIP3   OH2 3784   4.249   5.812   4.994
 1280TIP3    H1 3785   4.230   5.881   5.057
 1280TIP3    H2 3786   4.344   5.807   4.991
 1281TIP3   OH2 3787   2.086   0.311   0.473
 1281TIP3    H1 3788   2.174   0.333   0.504
 1281TIP3    H2 3789   2.032   0.310   0.552
 1282TIP3   OH2 3790   0.594   5.589   4.524
 1282TIP3    H1 3791   0.615   5.586   4.431
 1282TIP3    H2 3792   0.577   5.681   4.542
 1283TIP3   OH2 3793   7.467   6.608   0.376
 1283TIP3    H1 3794   7.492   6.694   0.410
 1283TIP3    H2 3795   7.478   6.549   0.451
 1284TIP3   OH2 3796   7.952   1.257   4.477
 1284TIP3    H1 3797   7.882   1.261   4.412
 1284TIP3    H2 3798   7.978   1.349   4.490
 1285TIP3   OH2 3799   5.237   1.886   1.490
 1285TIP3    H1 3800   5.143   1.902   1.482
 1285TIP3    H2 3801   5.257   1.904   1.581
 1286TIP3   OH2 3802   6.088   7.339   4.665
 1286TIP3    H1 3803   6.121   7.383   4.744
 1286TIP3    H2 3804   5.993   7.339   4.676
 1287TIP3   OH2 3805   5.035   1.800   2.827
 1287TIP3    H1 3806   5.066   1.717   2.790
 1287TIP3    H2 3807   4.945   1.783   2.853
 1288TIP3   OH2 3808   1.608   4.643   1.622
 1288TIP3    H1 3809   1.583   4.552   1.639
 1288TIP3    H2 3810   1.603   4.651   1.527
 1289TIP3   OH2 3811   0.290   3.452   0.428
 1289TIP3    H1 3812   0.239   3.499   0.362
 1289TIP3    H2 3813   0.225   3.410   0.484
 1290TIP3   OH2 3814   8.171   5.323   0.969
 1290TIP3    H1 3815   8.197   5.406   0.929
 1290TIP3    H2 3816   8.186   5.257   0.901
 1291TIP3   OH2 3817   6.520   0.165   4.653
 1291TIP3    H1 3818   6.609   0.200   4.662
 1291TIP3    H2 3819   6.473   0.198   4.729
 1292TIP3   OH2 3820   4.278   3.980   2.313
 1292TIP3    H1 3821   4.216   3.961   2.384
 1292TIP3    H2 3822   4.267   3.907   2.252
 1293TIP3   OH2 3823   5.175   2.346   3.348
 1293TIP3    H1 3824   5.183   2.332   3.442
 1293TIP3    H2 3825   5.081   2.355   3.332
 1294TIP3   OH2 3826   0.923   2.230   4.418
 1294TIP3    H1 3827   0.860   2.240   4.490
 1294TIP3    H2 3828   0.965   2.316   4.412
 1295TIP3   OH2 3829   4.961   7.171   6.048
 1295TIP3    H1 3830   4.983   7.128   6.130
 1295TIP3    H2 3831   5.019   7.246   6.043
 1296TIP3   OH2 3832   3.225   6.308   6.231
 1296TIP3    H1 3833   3.213   6.227   6.181
 1296TIP3    H2 3834   3.179   6.375   6.181
 1297TIP3   OH2 3835   0.658   2.687   1.953
 1297TIP3    H1 3836   0.664   2.782   1.940
 1297TIP3    H2 3837   0.571   2.674   1.990
 1298TIP3   OH2 3838   0.321   4.506   3.943
 1298TIP3    H1 3839   0.305   4.591   3.901
 1298TIP3    H2 3840   0.280   4.513   4.029
 1299TIP3   OH2 3841   6.893   4.151   5.402
 1299TIP3    H1 3842   6.899   4.243   5.377
 1299TIP3    H2 3843   6.918   4.103   5.323
 1300TIP3   OH2 3844   3.852   7.012   0.932
 1300TIP3    H1 3845   3.946   7.016   0.914
 1300TIP3    H2 3846   3.817   7.093   0.894
 1301TIP3   OH2 3847   6.941   6.393   2.162
 1301TIP3    H1 3848   7.027   6.359   2.139
 1301TIP3    H2 3849   6.942   6.399   2.257
 1302TIP3   OH2 3850   3.359   4.955   5.084
 1302TIP3    H1 3851   3.395   4.992   5.165
 1302TIP3    H2 3852   3.280   5.006   5.067
 1303TIP3   OH2 3853   0.548   0.208   2.411
 1303TIP3    H1 3854   0.553   0.287   2.358
 1303TIP3    H2 3855   0.637   0.195   2.444
 1304TIP3   OH2 3856   7.987   6.970   3.294
 1304TIP3    H1 3857   8.057   6.988   3.232
 1304TIP3    H2 3858   7.960   7.057   3.325
 1305TIP3   OH2 3859   8.069   4.003   2.014
 1305TIP3    H1 3860   7.988   3.973   2.054
 1305TIP3    H2 3861   8.082   3.945   1.939
 1306TIP3   OH2 3862   6.083   3.807   6.304
 1306TIP3    H1 3863   6.113   3.810   6.395
 1306TIP3    H2 3864   5.995   3.844   6.307
 1307TIP3   OH2 3865   7.409   2.050   6.294
 1307TIP3    H1 3866   7.472   1.980   6.313
 1307TIP3    H2 3867   7.333   2.005   6.259
 1308TIP3   OH2 3868   4.547   3.930   3.134
 1308TIP3    H1 3869   4.513   3.981   3.208
 1308TIP3    H2 3870   4.605   3.865   3.175
 1309TIP3   OH2 3871   1.150   4.122   0.330
 1309TIP3    H1 3872   1.079   4.187   0.324
 1309TIP3    H2 3873   1.230   4.173   0.318
 1310TIP3   OH2 3874   2.035   2.296   1.482
 1310TIP3    H1 3875   2.058   2.220   1.536
 1310TIP3    H2 3876   2.077   2.370   1.526
 1311TIP3   OH2 3877   4.599   0.705   1.279
 1311TIP3    H1 3878   4.576   0.650   1.353
 1311TIP3    H2 3879   4.555   0.665   1.204
 1312TIP3   OH2 3880   0.609   6.937   2.379
 1312TIP3    H1 3881   0.568   7.014   2.339
 1312TIP3    H2 3882   0.581   6.864   2.323
 1313TIP3   OH2 3883   5.133   7.298   5.484
 1313TIP3    H1 3884   5.078   7.232   5.441
 1313TIP3    H2 3885   5.094   7.310   5.570
 1314TIP3   OH2 3886   4.053   3.166   6.032
 1314TIP3    H1 3887   4.059   3.158   5.937
 1314TIP3    H2 3888   4.075   3.258   6.049
 1315TIP3   OH2 3889   2.615   7.399   4.368
 1315TIP3    H1 3890   2.618   7.494   4.353
 1315TIP3    H2 3891   2.706   7.370   4.354
 1316TIP3   OH2 3892   5.703   7.675   3.862
 1316TIP3    H1 3893   5.647   7.659   3.939
 1316TIP3    H2 3894   5.707   7.770   3.855
 1317TIP3   OH2 3895   5.415   4.453   5.869
 1317TIP3    H1 3896   5.489   4.413   5.823
 1317TIP3    H2 3897   5.344   4.451   5.805
 1318TIP3   OH2 3898   3.521   5.457   2.067
 1318TIP3    H1 3899   3.434   5.442   2.103
 1318TIP3    H2 3900   3.545   5.373   2.026
 1319TIP3   OH2 3901   6.604   5.317   5.353
 1319TIP3    H1 3902   6.582   5.224   5.353
 1319TIP3    H2 3903   6.700   5.318   5.358
 1320TIP3   OH2 3904   0.174   5.752   0.941
 1320TIP3    H1 3905   0.090   5.791   0.964
 1320TIP3    H2 3906   0.219   5.738   1.024
 1321TIP3   OH2 3907   6.898   0.383   4.263
 1321TIP3    H1 3908   6.853   0.467   4.258
 1321TIP3    H2 3909   6.957   0.382   4.188
 1322TIP3   OH2 3910   7.625   0.168   3.256
 1322TIP3    H1 3911   7.640   0.120   3.337
 1322TIP3    H2 3912   7.534   0.150   3.233
 1323TIP3   OH2 3913   7.382   5.081   4.825
 1323TIP3    H1 3914   7.344   5.070   4.913
 1323TIP3    H2 3915   7.307   5.078   4.766
 1324TIP3   OH2 3916   2.279   3.482   6.262
 1324TIP3    H1 3917   2.263   3.576   6.274
 1324TIP3    H2 3918   2.222   3.440   6.327
 1325TIP3   OH2 3919   2.283   3.064   3.968
 1325TIP3    H1 3920   2.249   3.047   3.881
 1325TIP3    H2 3921   2.221   3.022   4.028
 1326TIP3   OH2 3922   7.646   2.562   3.761
 1326TIP3    H1 3923   7.706   2.637   3.756
 1326TIP3    H2 3924   7.696   2.490   3.722
 1327TIP3   OH2 3925   6.049   2.652   5.203
 1327TIP3    H1 3926   6.013   2.740   5.204
 1327TIP3    H2 3927   6.099   2.645   5.284
 1328TIP3   OH2 3928   7.908   1.268   3.862
 1328TIP3    H1 3929   7.926   1.339   3.802
 1328TIP3    H2 3930   7.985   1.264   3.919
 1329TIP3   OH2 3931   3.241   6.886   3.930
 1329TIP3    H1 3932   3.238   6.929   3.845
 1329TIP3    H2 3933   3.304   6.938   3.981
 1330TIP3   OH2 3934   1.455   7.121   2.700
 1330TIP3    H1 3935   1.376   7.072   2.722
 1330TIP3    H2 3936   1.522   7.089   2.761
 1331TIP3   OH2 3937   6.014   7.029   3.480
 1331TIP3    H1 3938   5.922   7.003   3.468
 1331TIP3    H2 3939   6.064   6.951   3.459
 1332TIP3   OH2 3940   7.220   7.760   1.720
 1332TIP3    H1 3941   7.212   7.676   1.676
 1332TIP3    H2 3942   7.312   7.784   1.710
 1333TIP3   OH2 3943   5.858   3.975   5.077
 1333TIP3    H1 3944   5.863   4.023   4.995
 1333TIP3    H2 3945   5.765   3.955   5.088
 1334TIP3   OH2 3946   5.296   3.644   5.344
 1334TIP3    H1 3947   5.224   3.636   5.280
 1334TIP3    H2 3948   5.260   3.607   5.424
 1335TIP3   OH2 3949   3.326   3.374   3.200
 1335TIP3    H1 3950   3.387   3.321   3.251
 1335TIP3    H2 3951   3.364   3.376   3.112
 1336TIP3   OH2 3952   2.663   6.687   5.077
 1336TIP3    H1 3953   2.623   6.760   5.029
 1336TIP3    H2 3954   2.596   6.619   5.078
 1337TIP3   OH2 3955   8.268   4.521   6.313
 1337TIP3    H1 3956   8.216   4.481   6.244
 1337TIP3    H2 3957   8.256   4.615   6.301
 1338TIP3   OH2 3958   2.657   4.745   5.449
 1338TIP3    H1 3959   2.659   4.820   5.509
 1338TIP3    H2 3960   2.647   4.784   5.362
 1339TIP3   OH2 3961   7.893   4.393   6.697
 1339TIP3    H1 3962   7.962   4.420   6.636
 1339TIP3    H2 3963   7.812   4.420   6.655
 1340TIP3   OH2 3964   7.766   0.916   0.831
 1340TIP3    H1 3965   7.755   1.010   0.816
 1340TIP3    H2 3966   7.733   0.875   0.751
 1341TIP3   OH2 3967   6.044   4.192   5.425
 1341TIP3    H1 3968   6.104   4.192   5.351
 1341TIP3    H2 3969   6.086   4.247   5.491
 1342TIP3   OH2 3970   7.874   2.978   6.254
 1342TIP3    H1 3971   7.907   3.060   6.218
 1342TIP3    H2 3972   7.798   2.957   6.200
 1343TIP3   OH2 3973   6.242   5.235   2.679
 1343TIP3    H1 3974   6.273   5.179   2.609
 1343TIP3    H2 3975   6.246   5.324   2.643
 1344TIP3   OH2 3976   3.256   4.637   1.552
 1344TIP3    H1 3977   3.281   4.720   1.593
 1344TIP3    H2 3978   3.177   4.658   1.503
 1345TIP3   OH2 3979   3.792   3.637   5.184
 1345TIP3    H1 3980   3.799   3.720   5.137
 1345TIP3    H2 3981   3.759   3.575   5.118
 1346TIP3   OH2 3982   8.132   3.602   3.564
 1346TIP3    H1 3983   8.091   3.593   3.478
 1346TIP3    H2 3984   8.196   3.531   3.569
 1347TIP3   OH2 3985   5.087   4.412   6.453
 1347TIP3    H1 3986   5.023   4.451   6.394
 1347TIP3    H2 3987   5.090   4.319   6.427
 1348TIP3   OH2 3988   4.379   3.229   6.739
 1348TIP3    H1 3989   4.470   3.201   6.729
 1348TIP3    H2 3990   4.375   3.270   6.826
 1349TIP3   OH2 3991   5.966   0.425   3.289
 1349TIP3    H1 3992   6.033   0.479   3.332
 1349TIP3    H2 3993   5.917   0.487   3.234
 1350TIP3   OH2 3994   3.560   4.959   0.637
 1350TIP3    H1 3995   3.636   4.905   0.620
 1350TIP3    H2 3996   3.586   5.015   0.711
 1351TIP3   OH2 3997  -0.094   1.176   0.064
 1351TIP3    H1 3998  -0.061   1.177  -0.026
 1351TIP3    H2 3999  -0.053   1.099   0.104
 1352TIP3   OH2 4000   1.174   3.932   2.798
 1352TIP3    H1 4001   1.229   3.858   2.770
 1352TIP3    H2 4002   1.228   4.009   2.783
 1353TIP3   OH2 4003   7.504   4.171   1.536
 1353TIP3    H1 4004   7.564   4.102   1.566
 1353TIP3    H2 4005   7.523   4.179   1.442
 1354TIP3   OH2 4006   6.416   7.860   3.462
 1354TIP3    H1 4007   6.339   7.803   3.471
 1354TIP3    H2 4008   6.407   7.898   3.375
 1355TIP3   OH2 4009   1.728   0.261   0.679
 1355TIP3    H1 4010   1.813   0.219   0.668
 1355TIP3    H2 4011   1.690   0.220   0.757
 1356TIP3   OH2 4012   2.625   2.872   3.232
 1356TIP3    H1 4013   2.664   2.803   3.287
 1356TIP3    H2 4014   2.695   2.937   3.222
 1357TIP3   OH2 4015   4.463   1.482   4.787
 1357TIP3    H1 4016   4.490   1.477   4.696
 1357TIP3    H2 4017   4.389   1.421   4.794
 1358TIP3   OH2 4018   0.686   1.841   3.144
 1358TIP3    H1 4019   0.691   1.802   3.231
 1358TIP3    H2 4020   0.704   1.933   3.158
 1359TIP3   OH2 4021   5.159   4.238   6.700
 1359TIP3    H1 4022   5.242   4.191   6.691
 1359TIP3    H2 4023   5.165   4.281   6.785
 1360TIP3   OH2 4024   1.940   4.413   5.176
 1360TIP3    H1 4025   2.011   4.473   5.195
 1360TIP3    H2 4026   1.899   4.448   5.097
 1361TIP3   OH2 4027   6.163   3.112   4.086
 1361TIP3    H1 4028   6.180   3.182   4.150
 1361TIP3    H2 4029   6.091   3.146   4.032
 1362TIP3   OH2 4030   5.604   1.302   4.487
 1362TIP3    H1 4031   5.574   1.336   4.402
 1362TIP3    H2 4032   5.615   1.208   4.473
 1363TIP3   OH2 4033   1.017   5.729   2.977
 1363TIP3    H1 4034   0.943   5.784   2.951
 1363TIP3    H2 4035   0.977   5.649   3.012
 1364TIP3   OH2 4036   8.280   4.282   1.181
 1364TIP3    H1 4037   8.273   4.284   1.276
 1364TIP3    H2 4038   8.191   4.293   1.149
 1365TIP3   OH2 4039   4.018   2.855   2.811
 1365TIP3    H1 4040   4.003   2.949   2.800
 1365TIP3    H2 4041   3.978   2.816   2.733
 1366TIP3   OH2 4042   0.317   4.694   3.734
 1366TIP3    H1 4043   0.310   4.613   3.683
 1366TIP3    H2 4044   0.409   4.719   3.726
 1367TIP3   OH2 4045   1.075   1.331   1.483
 1367TIP3    H1 4046   1.158   1.373   1.505
 1367TIP3    H2 4047   1.015   1.404   1.464
 1368TIP3   OH2 4048   5.405   6.003   4.405
 1368TIP3    H1 4049   5.426   6.018   4.498
 1368TIP3    H2 4050   5.451   6.074   4.359
 1369TIP3   OH2 4051   4.093   4.343   6.401
 1369TIP3    H1 4052   4.049   4.286   6.338
 1369TIP3    H2 4053   4.133   4.412   6.348
 1370TIP3   OH2 4054   3.257   6.228   0.713
 1370TIP3    H1 4055   3.248   6.133   0.713
 1370TIP3    H2 4056   3.315   6.247   0.787
 1371TIP3   OH2 4057   1.605   1.368   0.165
 1371TIP3    H1 4058   1.670   1.298   0.159
 1371TIP3    H2 4059   1.543   1.349   0.095
 1372TIP3   OH2 4060   6.115   3.698   2.189
 1372TIP3    H1 4061   6.167   3.617   2.193
 1372TIP3    H2 4062   6.166   3.756   2.133
 1373TIP3   OH2 4063   5.870   2.512   5.413
 1373TIP3    H1 4064   5.844   2.470   5.331
 1373TIP3    H2 4065   5.833   2.600   5.408
 1374TIP3   OH2 4066   3.947   4.141   6.255
 1374TIP3    H1 4067   3.854   4.143   6.276
 1374TIP3    H2 4068   3.952   4.159   6.161
 1375TIP3   OH2 4069   7.273   2.836   5.640
 1375TIP3    H1 4070   7.270   2.770   5.571
 1375TIP3    H2 4071   7.190   2.826   5.686
 1376TIP3   OH2 4072   6.534   7.091   2.269
 1376TIP3    H1 4073   6.547   7.100   2.364
 1376TIP3    H2 4074   6.472   7.019   2.260
 1377TIP3   OH2 4075   6.801   2.427   1.492
 1377TIP3    H1 4076   6.809   2.465   1.579
 1377TIP3    H2 4077   6.886   2.443   1.451
 1378TIP3   OH2 4078   7.242   1.687   1.577
 1378TIP3    H1 4079   7.305   1.656   1.512
 1378TIP3    H2 4080   7.212   1.772   1.543
 1379TIP3   OH2 4081   5.503   6.108   5.091
 1379TIP3    H1 4082   5.552   6.030   5.115
 1379TIP3    H2 4083   5.412   6.088   5.115
 1380TIP3   OH2 4084   3.845   4.157   5.523
 1380TIP3    H1 4085   3.817   4.189   5.609
 1380TIP3    H2 4086   3.841   4.234   5.466
 1381TIP3   OH2 4087   6.001   6.746   6.141
 1381TIP3    H1 4088   5.944   6.679   6.104
 1381TIP3    H2 4089   5.944   6.822   6.154
 1382TIP3   OH2 4090   7.871   0.034   4.104
 1382TIP3    H1 4091   7.831   0.116   4.073
 1382TIP3    H2 4092   7.874   0.042   4.199
 1383TIP3   OH2 4093   5.315   0.720   0.682
 1383TIP3    H1 4094   5.229   0.682   0.665
 1383TIP3    H2 4095   5.339   0.685   0.768
 1384TIP3   OH2 4096   3.047   4.354   1.357
 1384TIP3    H1 4097   3.014   4.441   1.377
 1384TIP3    H2 4098   3.140   4.358   1.382
 1385TIP3   OH2 4099   0.804   4.744   4.689
 1385TIP3    H1 4100   0.820   4.658   4.728
 1385TIP3    H2 4101   0.755   4.726   4.609
 1386TIP3   OH2 4102   7.309   4.427   3.488
 1386TIP3    H1 4103   7.370   4.443   3.416
 1386TIP3    H2 4104   7.341   4.482   3.559
 1387TIP3   OH2 4105   5.132   7.061   1.725
 1387TIP3    H1 4106   5.207   7.006   1.702
 1387TIP3    H2 4107   5.141   7.138   1.669
 1388TIP3   OH2 4108   1.663   6.883   5.872
 1388TIP3    H1 4109   1.600   6.944   5.909
 1388TIP3    H2 4110   1.706   6.931   5.801
 1389TIP3   OH2 4111   6.476   1.540   6.425
 1389TIP3    H1 4112   6.465   1.598   6.500
 1389TIP3    H2 4113   6.516   1.595   6.358
 1390TIP3   OH2 4114   0.042   5.139   1.061
 1390TIP3    H1 4115   0.068   5.131   0.970
 1390TIP3    H2 4116  -0.006   5.222   1.065
 1391TIP3   OH2 4117   5.793   7.517   1.607
 1391TIP3    H1 4118   5.788   7.452   1.677
 1391TIP3    H2 4119   5.887   7.524   1.588
 1392TIP3   OH2 4120   6.739   4.800   1.416
 1392TIP3    H1 4121   6.736   4.841   1.502
 1392TIP3    H2 4122   6.833   4.789   1.398
 1393TIP3   OH2 4123   0.472   3.087   0.245
 1393TIP3    H1 4124   0.542   3.026   0.269
 1393TIP3    H2 4125   0.397   3.061   0.298
 1394TIP3   OH2 4126   7.141   3.747   5.494
 1394TIP3    H1 4127   7.076   3.751   5.424
 1394TIP3    H2 4128   7.213   3.803   5.462
 1395TIP3   OH2 4129   3.066   4.341   3.895
 1395TIP3    H1 4130   3.141   4.401   3.890
 1395TIP3    H2 4131   2.997   4.392   3.936
 1396TIP3   OH2 4132   2.048   3.695   0.826
 1396TIP3    H1 4133   2.085   3.640   0.895
 1396TIP3    H2 4134   2.037   3.636   0.751
 1397TIP3   OH2 4135   3.329   7.288   5.809
 1397TIP3    H1 4136   3.305   7.197   5.827
 1397TIP3    H2 4137   3.320   7.297   5.714
 1398TIP3   OH2 4138   5.068   6.935   3.801
 1398TIP3    H1 4139   4.998   6.939   3.867
 1398TIP3    H2 4140   5.033   6.982   3.726
 1399TIP3   OH2 4141   6.924   5.530   4.705
 1399TIP3    H1 4142   6.836   5.564   4.721
 1399TIP3    H2 4143   6.929   5.524   4.609
 1400TIP3   OH2 4144   4.861   0.055   0.580
 1400TIP3    H1 4145   4.860   0.098   0.666
 1400TIP3    H2 4146   4.804  -0.021   0.592
 1401TIP3   OH2 4147   6.465   0.433   2.785
 1401TIP3    H1 4148   6.549   0.479   2.776
 1401TIP3    H2 4149   6.470   0.361   2.722
 1402TIP3   OH2 4150   7.152   7.349   4.673
 1402TIP3    H1 4151   7.072   7.336   4.724
 1402TIP3    H2 4152   7.194   7.425   4.713
 1403TIP3   OH2 4153   4.860   5.692   5.939
 1403TIP3    H1 4154   4.890   5.702   5.849
 1403TIP3    H2 4155   4.778   5.742   5.942
 1404TIP3   OH2 4156   2.900   7.557   0.795
 1404TIP3    H1 4157   2.830   7.523   0.850
 1404TIP3    H2 4158   2.881   7.650   0.786
 1405TIP3   OH2 4159   5.291   5.166   2.271
 1405TIP3    H1 4160   5.253   5.162   2.183
 1405TIP3    H2 4161   5.290   5.259   2.293
 1406TIP3   OH2 4162   1.723   6.140   2.540
 1406TIP3    H1 4163   1.807   6.182   2.519
 1406TIP3    H2 4164   1.727   6.054   2.499
 1407TIP3   OH2 4165   0.815   0.353   5.586
 1407TIP3    H1 4166   0.846   0.441   5.608
 1407TIP3    H2 4167   0.892   0.297   5.596
 1408TIP3   OH2 4168   5.724   7.666   5.203
 1408TIP3    H1 4169   5.691   7.626   5.122
 1408TIP3    H2 4170   5.651   7.657   5.265
 1409TIP3   OH2 4171   2.093   2.866   2.064
 1409TIP3    H1 4172   2.012   2.914   2.045
 1409TIP3    H2 4173   2.083   2.783   2.017
 1410TIP3   OH2 4174   3.201   5.477   5.613
 1410TIP3    H1 4175   3.283   5.460   5.659
 1410TIP3    H2 4176   3.134   5.434   5.667
 1411TIP3   OH2 4177   7.767   2.121   2.602
 1411TIP3    H1 4178   7.768   2.161   2.515
 1411TIP3    H2 4179   7.857   2.089   2.614
 1412TIP3   OH2 4180   6.145   7.711   2.670
 1412TIP3    H1 4181   6.106   7.654   2.605
 1412TIP3    H2 4182   6.162   7.655   2.745
 1413TIP3   OH2 4183   4.191   6.443   1.130
 1413TIP3    H1 4184   4.258   6.376   1.116
 1413TIP3    H2 4185   4.198   6.501   1.054
 1414TIP3   OH2 4186   3.567   4.196   2.773
 1414TIP3    H1 4187   3.619   4.143   2.712
 1414TIP3    H2 4188   3.477   4.186   2.742
 1415TIP3   OH2 4189   7.791   1.908   5.729
 1415TIP3    H1 4190   7.758   1.820   5.709
 1415TIP3    H2 4191   7.836   1.936   5.650
 1416TIP3   OH2 4192   6.588   4.689   0.104
 1416TIP3    H1 4193   6.600   4.617   0.043
 1416TIP3    H2 4194   6.637   4.762   0.066
 1417TIP3   OH2 4195   5.000   3.033   2.347
 1417TIP3    H1 4196   4.992   3.124   2.318
 1417TIP3    H2 4197   4.920   2.990   2.315
 1418TIP3   OH2 4198   4.696   2.971   1.316
 1418TIP3    H1 4199   4.786   2.987   1.285
 1418TIP3    H2 4200   4.646   3.044   1.281
 1419TIP3   OH2 4201   7.439   5.553   5.474
 1419TIP3    H1 4202   7.531   5.528   5.471
 1419TIP3    H2 4203   7.426   5.609   5.397
 1420TIP3   OH2 4204   2.911   1.287   1.494
 1420TIP3    H1 4205   2.952   1.255   1.414
 1420TIP3    H2 4206   2.821   1.253   1.491
 1421TIP3   OH2 4207   2.871   6.794   2.026
 1421TIP3    H1 4208   2.941   6.740   2.060
 1421TIP3    H2 4209   2.828   6.829   2.104
 1422TIP3   OH2 4210   1.275   0.734   1.665
 1422TIP3    H1 4211   1.345   0.758   1.725
 1422TIP3    H2 4212   1.210   0.804   1.673
 1423TIP3   OH2 4213   3.564   5.433   4.546
 1423TIP3    H1 4214   3.485   5.382   4.529
 1423TIP3    H2 4215   3.550   5.515   4.498
 1424TIP3   OH2 4216   5.687   1.973   5.418
 1424TIP3    H1 4217   5.762   2.030   5.436
 1424TIP3    H2 4218   5.717   1.914   5.349
 1425TIP3   OH2 4219   8.157   6.386   5.956
 1425TIP3    H1 4220   8.168   6.350   5.868
 1425TIP3    H2 4221   8.179   6.478   5.948
 1426TIP3   OH2 4222   1.720   4.770  -0.009
 1426TIP3    H1 4223   1.661   4.705  -0.047
 1426TIP3    H2 4224   1.691   4.780   0.081
 1427TIP3   OH2 4225   2.685   5.453   1.982
 1427TIP3    H1 4226   2.591   5.466   1.992
 1427TIP3    H2 4227   2.697   5.358   1.992
 1428TIP3   OH2 4228   4.051   6.169   2.195
 1428TIP3    H1 4229   3.987   6.099   2.206
 1428TIP3    H2 4230   4.008   6.234   2.141
 1429TIP3   OH2 4231   2.918   0.637   1.571
 1429TIP3    H1 4232   2.900   0.688   1.650
 1429TIP3    H2 4233   2.845   0.575   1.565
 1430TIP3   OH2 4234   3.225   0.948   2.379
 1430TIP3    H1 4235   3.229   1.026   2.434
 1430TIP3    H2 4236   3.135   0.917   2.386
 1431TIP3   OH2 4237   3.847   6.182   0.966
 1431TIP3    H1 4238   3.899   6.168   1.045
 1431TIP3    H2 4239   3.800   6.100   0.953
 1432TIP3   OH2 4240   5.256   2.777   0.563
 1432TIP3    H1 4241   5.169   2.781   0.602
 1432TIP3    H2 4242   5.288   2.689   0.585
 1433TIP3   OH2 4243   7.228   6.597   5.062
 1433TIP3    H1 4244   7.173   6.567   4.989
 1433TIP3    H2 4245   7.232   6.692   5.051
 1434TIP3   OH2 4246   4.069   3.402   5.769
 1434TIP3    H1 4247   4.081   3.438   5.857
 1434TIP3    H2 4248   3.991   3.346   5.776
 1435TIP3   OH2 4249   7.203   6.753   5.515
 1435TIP3    H1 4250   7.157   6.835   5.499
 1435TIP3    H2 4251   7.250   6.767   5.597
 1436TIP3   OH2 4252   7.164   4.618   4.483
 1436TIP3    H1 4253   7.221   4.596   4.410
 1436TIP3    H2 4254   7.214   4.681   4.535
 1437TIP3   OH2 4255   5.274   1.850   2.966
 1437TIP3    H1 4256   5.202   1.854   2.903
 1437TIP3    H2 4257   5.305   1.940   2.973
 1438TIP3   OH2 4258   6.274   2.806   4.807
 1438TIP3    H1 4259   6.293   2.891   4.846
 1438TIP3    H2 4260   6.258   2.748   4.881
 1439TIP3   OH2 4261   7.083   2.394   1.738
 1439TIP3    H1 4262   7.029   2.406   1.816
 1439TIP3    H2 4263   7.040   2.322   1.690
 1440TIP3   OH2 4264   3.249   3.524   4.305
 1440TIP3    H1 4265   3.339   3.541   4.278
 1440TIP3    H2 4266   3.197   3.589   4.257
 1441TIP3   OH2 4267   5.146   2.254   1.575
 1441TIP3    H1 4268   5.108   2.342   1.569
 1441TIP3    H2 4269   5.076   2.201   1.614
 1442TIP3   OH2 4270   3.834   4.252   6.024
 1442TIP3    H1 4271   3.751   4.205   6.029
 1442TIP3    H2 4272   3.888   4.200   5.965
 1443TIP3   OH2 4273   7.549   3.522   0.051
 1443TIP3    H1 4274   7.511   3.598   0.096
 1443TIP3    H2 4275   7.585   3.469   0.122
 1444TIP3   OH2 4276   7.781   0.900   2.472
 1444TIP3    H1 4277   7.699   0.903   2.522
 1444TIP3    H2 4278   7.825   0.821   2.504
 1445TIP3   OH2 4279   4.302   1.860   0.365
 1445TIP3    H1 4280   4.345   1.776   0.381
 1445TIP3    H2 4281   4.354   1.901   0.296
 1446TIP3   OH2 4282   8.167   1.036   4.603
 1446TIP3    H1 4283   8.081   1.077   4.607
 1446TIP3    H2 4284   8.212   1.082   4.531
 1447TIP3   OH2 4285   0.636   5.497   3.232
 1447TIP3    H1 4286   0.629   5.474   3.324
 1447TIP3    H2 4287   0.633   5.593   3.230
 1448TIP3   OH2 4288   7.515   0.611   2.305
 1448TIP3    H1 4289   7.475   0.692   2.273
 1448TIP3    H2 4290   7.467   0.542   2.259
 1449TIP3   OH2 4291   4.657   4.183   4.756
 1449TIP3    H1 4292   4.714   4.111   4.727
 1449TIP3    H2 4293   4.696   4.261   4.718
 1450TIP3   OH2 4294   5.742   3.224   3.421
 1450TIP3    H1 4295   5.817   3.211   3.480
 1450TIP3    H2 4296   5.691   3.292   3.464
 1451TIP3   OH2 4297   4.084   0.281   1.900
 1451TIP3    H1 4298   4.045   0.337   1.967
 1451TIP3    H2 4299   4.089   0.194   1.941
 1452TIP3   OH2 4300   1.423   3.659   4.551
 1452TIP3    H1 4301   1.403   3.570   4.581
 1452TIP3    H2 4302   1.404   3.658   4.457
 1453TIP3   OH2 4303   6.012   4.580   2.008
 1453TIP3    H1 4304   6.015   4.499   1.956
 1453TIP3    H2 4305   5.919   4.591   2.029
 1454TIP3   OH2 4306   7.108   0.603   4.428
 1454TIP3    H1 4307   7.112   0.600   4.332
 1454TIP3    H2 4308   7.077   0.516   4.453
 1455TIP3   OH2 4309   0.790   3.019   0.268
 1455TIP3    H1 4310   0.820   3.100   0.310
 1455TIP3    H2 4311   0.775   3.043   0.177
 1456TIP3   OH2 4312   4.118   2.905   3.586
 1456TIP3    H1 4313   4.132   2.859   3.504
 1456TIP3    H2 4314   4.173   2.984   3.579
 1457TIP3   OH2 4315   0.632   2.189   2.552
 1457TIP3    H1 4316   0.546   2.228   2.536
 1457TIP3    H2 4317   0.623   2.097   2.525
 1458TIP3   OH2 4318   2.845   6.455   3.413
 1458TIP3    H1 4319   2.790   6.432   3.487
 1458TIP3    H2 4320   2.845   6.377   3.358
 1459TIP3   OH2 4321   1.049   0.800   5.750
 1459TIP3    H1 4322   1.003   0.724   5.716
 1459TIP3    H2 4323   1.139   0.790   5.719
 1460TIP3   OH2 4324   3.230   2.170   0.289
 1460TIP3    H1 4325   3.240   2.091   0.235
 1460TIP3    H2 4326   3.167   2.146   0.356
 1461TIP3   OH2 4327   0.512   3.448   0.984
 1461TIP3    H1 4328   0.503   3.479   0.894
 1461TIP3    H2 4329   0.422   3.436   1.014
 1462TIP3   OH2 4330   1.255   2.677   5.039
 1462TIP3    H1 4331   1.318   2.689   5.110
 1462TIP3    H2 4332   1.191   2.747   5.052
 1463TIP3   OH2 4333   5.316  -0.033   3.280
 1463TIP3    H1 4334   5.404  -0.002   3.261
 1463TIP3    H2 4335   5.261   0.045   3.274
 1464TIP3   OH2 4336   3.447   4.452   0.230
 1464TIP3    H1 4337   3.521   4.461   0.291
 1464TIP3    H2 4338   3.414   4.363   0.245
 1465TIP3   OH2 4339   1.980   1.361   5.852
 1465TIP3    H1 4340   2.072   1.377   5.836
 1465TIP3    H2 4341   1.961   1.280   5.805
 1466TIP3   OH2 4342   1.172   3.824   0.025
 1466TIP3    H1 4343   1.254   3.866   0.002
 1466TIP3    H2 4344   1.197   3.753   0.083
 1467TIP3   OH2 4345   0.976   0.778   0.125
 1467TIP3    H1 4346   0.950   0.700   0.173
 1467TIP3    H2 4347   0.940   0.765   0.037
 1468TIP3   OH2 4348   6.911   0.581   0.022
 1468TIP3    H1 4349   6.823   0.588  -0.015
 1468TIP3    H2 4350   6.912   0.644   0.094
 1469TIP3   OH2 4351   1.543   4.949   3.742
 1469TIP3    H1 4352   1.614   4.982   3.797
 1469TIP3    H2 4353   1.567   4.858   3.724
 1470TIP3   OH2 4354   4.736   7.274   3.990
 1470TIP3    H1 4355   4.777   7.356   3.960
 1470TIP3    H2 4356   4.677   7.249   3.918
 1471TIP3   OH2 4357   0.030   3.696   1.744
 1471TIP3    H1 4358   0.006   3.676   1.654
 1471TIP3    H2 4359   0.124   3.711   1.742
 1472TIP3   OH2 4360   4.786   1.674   2.867
 1472TIP3    H1 4361   4.744   1.737   2.925
 1472TIP3    H2 4362   4.796   1.595   2.920
 1473TIP3   OH2 4363   1.694   2.393   2.576
 1473TIP3    H1 4364   1.662   2.362   2.660
 1473TIP3    H2 4365   1.779   2.434   2.595
 1474TIP3   OH2 4366   5.785   4.910   6.714
 1474TIP3    H1 4367   5.718   4.956   6.765
 1474TIP3    H2 4368   5.862   4.910   6.770
 1475TIP3   OH2 4369   0.289   0.763   0.231
 1475TIP3    H1 4370   0.235   0.748   0.308
 1475TIP3    H2 4371   0.306   0.857   0.231
 1476TIP3   OH2 4372   6.329   1.699   3.366
 1476TIP3    H1 4373   6.380   1.656   3.434
 1476TIP3    H2 4374   6.332   1.637   3.292
 1477TIP3   OH2 4375   0.266   4.450   1.766
 1477TIP3    H1 4376   0.240   4.358   1.777
 1477TIP3    H2 4377   0.354   4.454   1.803
 1478TIP3   OH2 4378   2.114   2.339   5.648
 1478TIP3    H1 4379   2.184   2.351   5.583
 1478TIP3    H2 4380   2.138   2.258   5.694
 1479TIP3   OH2 4381   0.175   1.680   1.396
 1479TIP3    H1 4382   0.134   1.673   1.483
 1479TIP3    H2 4383   0.127   1.617   1.342
 1480TIP3   OH2 4384   5.671   2.619   4.582
 1480TIP3    H1 4385   5.740   2.637   4.647
 1480TIP3    H2 4386   5.589   2.634   4.630
 1481TIP3   OH2 4387   0.362   7.425   0.837
 1481TIP3    H1 4388   0.292   7.465   0.888
 1481TIP3    H2 4389   0.329   7.424   0.748
 1482TIP3   OH2 4390   1.096   6.768   2.450
 1482TIP3    H1 4391   1.144   6.727   2.379
 1482TIP3    H2 4392   1.004   6.751   2.430
 1483TIP3   OH2 4393   5.768   6.940   2.969
 1483TIP3    H1 4394   5.713   6.870   3.003
 1483TIP3    H2 4395   5.790   6.912   2.880
 1484TIP3   OH2 4396   0.698   4.002   4.808
 1484TIP3    H1 4397   0.730   3.960   4.728
 1484TIP3    H2 4398   0.760   3.975   4.876
 1485TIP3   OH2 4399   5.257   6.469   4.013
 1485TIP3    H1 4400   5.335   6.415   4.000
 1485TIP3    H2 4401   5.270   6.510   4.098
 1486TIP3   OH2 4402   2.845   2.723   5.391
 1486TIP3    H1 4403   2.815   2.763   5.309
 1486TIP3    H2 4404   2.903   2.652   5.363
 1487TIP3   OH2 4405   6.908   4.696   6.739
 1487TIP3    H1 4406   6.913   4.606   6.709
 1487TIP3    H2 4407   6.938   4.693   6.830
 1488TIP3   OH2 4408   5.619   3.826   5.122
 1488TIP3    H1 4409   5.539   3.853   5.166
 1488TIP3    H2 4410   5.603   3.736   5.095
 1489TIP3   OH2 4411   6.667   5.336   1.884
 1489TIP3    H1 4412   6.720   5.261   1.911
 1489TIP3    H2 4413   6.621   5.363   1.963
 1490TIP3   OH2 4414   5.593   3.039   6.318
 1490TIP3    H1 4415   5.636   3.007   6.239
 1490TIP3    H2 4416   5.632   3.125   6.334
 1491TIP3   OH2 4417   0.447   5.248   1.291
 1491TIP3    H1 4418   0.388   5.280   1.360
 1491TIP3    H2 4419   0.452   5.154   1.306
 1492TIP3   OH2 4420   0.097   4.960   1.278
 1492TIP3    H1 4421   0.091   5.023   1.207
 1492TIP3    H2 4422   0.090   5.013   1.358
 1493TIP3   OH2 4423   2.645   0.220   2.404
 1493TIP3    H1 4424   2.707   0.263   2.463
 1493TIP3    H2 4425   2.571   0.195   2.460
 1494TIP3   OH2 4426   5.694   6.888   1.025
 1494TIP3    H1 4427   5.741   6.874   1.107
 1494TIP3    H2 4428   5.717   6.813   0.970
 1495TIP3   OH2 4429   7.357   2.291   4.488
 1495TIP3    H1 4430   7.346   2.366   4.429
 1495TIP3    H2 4431   7.409   2.229   4.439
 1496TIP3   OH2 4432   0.323   1.353   3.852
 1496TIP3    H1 4433   0.257   1.338   3.920
 1496TIP3    H2 4434   0.273   1.380   3.775
 1497TIP3   OH2 4435   0.716   0.843   3.130
 1497TIP3    H1 4436   0.738   0.934   3.107
 1497TIP3    H2 4437   0.622   0.845   3.148
 1498TIP3   OH2 4438   4.567   6.435   0.292
 1498TIP3    H1 4439   4.562   6.492   0.215
 1498TIP3    H2 4440   4.539   6.491   0.365
 1499TIP3   OH2 4441   1.309   3.711   3.715
 1499TIP3    H1 4442   1.248   3.781   3.739
 1499TIP3    H2 4443   1.256   3.651   3.662
 1500TIP3   OH2 4444   2.056   4.750   0.721
 1500TIP3    H1 4445   2.057   4.797   0.637
 1500TIP3    H2 4446   2.103   4.807   0.781
 1501TIP3   OH2 4447   7.502   1.357   3.668
 1501TIP3    H1 4448   7.433   1.382   3.730
 1501TIP3    H2 4449   7.554   1.292   3.714
 1502TIP3   OH2 4450   0.277   2.906   4.472
 1502TIP3    H1 4451   0.268   2.847   4.547
 1502TIP3    H2 4452   0.202   2.964   4.478
 1503TIP3   OH2 4453   7.398   0.021   6.643
 1503TIP3    H1 4454   7.348   0.013   6.562
 1503TIP3    H2 4455   7.437   0.109   6.639
 1504TIP3   OH2 4456   2.240   7.045   5.991
 1504TIP3    H1 4457   2.331   7.021   5.975
 1504TIP3    H2 4458   2.203   7.060   5.904
 1505TIP3   OH2 4459   2.139   2.634   5.719
 1505TIP3    H1 4460   2.231   2.615   5.699
 1505TIP3    H2 4461   2.093   2.552   5.701
 1506TIP3   OH2 4462   2.773   4.555   1.335
 1506TIP3    H1 4463   2.745   4.467   1.363
 1506TIP3    H2 4464   2.741   4.562   1.245
 1507TIP3   OH2 4465   1.152   0.828   6.261
 1507TIP3    H1 4466   1.156   0.743   6.303
 1507TIP3    H2 4467   1.100   0.814   6.182
 1508TIP3   OH2 4468   1.155   5.864   2.751
 1508TIP3    H1 4469   1.122   5.834   2.836
 1508TIP3    H2 4470   1.102   5.817   2.687
 1509TIP3   OH2 4471   7.217   0.967   0.575
 1509TIP3    H1 4472   7.311   0.983   0.584
 1509TIP3    H2 4473   7.200   0.977   0.481
 1510TIP3   OH2 4474   8.059   3.416   1.689
 1510TIP3    H1 4475   8.037   3.450   1.776
 1510TIP3    H2 4476   8.024   3.327   1.689
 1511TIP3   OH2 4477   0.629   7.262   2.023
 1511TIP3    H1 4478   0.595   7.304   1.943
 1511TIP3    H2 4479   0.700   7.319   2.051
 1512TIP3   OH2 4480   2.340   0.191   6.537
 1512TIP3    H1 4481   2.363   0.194   6.444
 1512TIP3    H2 4482   2.353   0.280   6.568
 1513TIP3   OH2 4483   7.672   2.501   0.967
 1513TIP3    H1 4484   7.765   2.479   0.958
 1513TIP3    H2 4485   7.670   2.596   0.968
 1514TIP3   OH2 4486   8.049   6.431   0.896
 1514TIP3    H1 4487   8.024   6.430   0.989
 1514TIP3    H2 4488   7.998   6.360   0.857
 1515TIP3   OH2 4489   8.043   4.754   3.730
 1515TIP3    H1 4490   7.977   4.786   3.792
 1515TIP3    H2 4491   8.101   4.699   3.784
 1516TIP3   OH2 4492   0.590   4.256   4.200
 1516TIP3    H1 4493   0.508   4.245   4.247
 1516TIP3    H2 4494   0.567   4.306   4.122
 1517TIP3   OH2 4495   6.223   1.040   2.969
 1517TIP3    H1 4496   6.276   1.110   3.007
 1517TIP3    H2 4497   6.215   0.975   3.040
 1518TIP3   OH2 4498   2.393   7.410   5.470
 1518TIP3    H1 4499   2.401   7.504   5.451
 1518TIP3    H2 4500   2.305   7.401   5.508
 1519TIP3   OH2 4501   2.594   0.330   1.930
 1519TIP3    H1 4502   2.681   0.365   1.910
 1519TIP3    H2 4503   2.576   0.363   2.018
 1520TIP3   OH2 4504   0.744   3.069   4.490
 1520TIP3    H1 4505   0.677   3.074   4.422
 1520TIP3    H2 4506   0.827   3.065   4.442
 1521TIP3   OH2 4507   0.972   2.983   4.832
 1521TIP3    H1 4508   0.989   3.078   4.829
 1521TIP3    H2 4509   0.878   2.976   4.818
 1522TIP3   OH2 4510   6.541   3.123   6.529
 1522TIP3    H1 4511   6.623   3.152   6.569
 1522TIP3    H2 4512   6.532   3.178   6.451
 1523TIP3   OH2 4513   6.535   0.359   5.881
 1523TIP3    H1 4514   6.490   0.443   5.876
 1523TIP3    H2 4515   6.474   0.303   5.929
 1524TIP3   OH2 4516   4.754   3.785   6.513
 1524TIP3    H1 4517   4.754   3.769   6.419
 1524TIP3    H2 4518   4.670   3.753   6.543
 1525TIP3   OH2 4519   4.856   3.685   2.526
 1525TIP3    H1 4520   4.899   3.615   2.575
 1525TIP3    H2 4521   4.763   3.662   2.526
 1526TIP3   OH2 4522   6.021   6.637   5.448
 1526TIP3    H1 4523   6.014   6.665   5.540
 1526TIP3    H2 4524   5.941   6.669   5.407
 1527TIP3   OH2 4525   1.831   5.165   4.753
 1527TIP3    H1 4526   1.828   5.227   4.826
 1527TIP3    H2 4527   1.759   5.191   4.696
 1528TIP3   OH2 4528   2.436   2.234   6.225
 1528TIP3    H1 4529   2.499   2.162   6.221
 1528TIP3    H2 4530   2.396   2.227   6.311
 1529TIP3   OH2 4531   5.741   0.956   5.859
 1529TIP3    H1 4532   5.701   0.875   5.891
 1529TIP3    H2 4533   5.669   1.003   5.817
 1530TIP3   OH2 4534   3.092   3.027   2.192
 1530TIP3    H1 4535   3.117   2.937   2.170
 1530TIP3    H2 4536   3.150   3.051   2.265
 1531TIP3   OH2 4537   6.636   1.444   2.381
 1531TIP3    H1 4538   6.608   1.528   2.418
 1531TIP3    H2 4539   6.722   1.462   2.343
 1532TIP3   OH2 4540   5.606   0.835   0.788
 1532TIP3    H1 4541   5.559   0.916   0.805
 1532TIP3    H2 4542   5.546   0.766   0.815
 1533TIP3   OH2 4543   3.957   0.546   4.867
 1533TIP3    H1 4544   3.888   0.501   4.818
 1533TIP3    H2 4545   3.997   0.606   4.804
 1534TIP3   OH2 4546   6.277   6.013   6.836
 1534TIP3    H1 4547   6.316   5.947   6.893
 1534TIP3    H2 4548   6.348   6.037   6.775
 1535TIP3   OH2 4549   1.762   0.876   2.537
 1535TIP3    H1 4550   1.686   0.887   2.479
 1535TIP3    H2 4551   1.816   0.953   2.520
 1536TIP3   OH2 4552   4.557   6.582   4.034
 1536TIP3    H1 4553   4.536   6.649   3.968
 1536TIP3    H2 4554   4.471   6.551   4.064
 1537TIP3   OH2 4555   4.384   4.284   3.887
 1537TIP3    H1 4556   4.393   4.371   3.849
 1537TIP3    H2 4557   4.414   4.294   3.977
 1538TIP3   OH2 4558   2.241   5.707   5.421
 1538TIP3    H1 4559   2.319   5.715   5.477
 1538TIP3    H2 4560   2.276   5.697   5.333
 1539TIP3   OH2 4561   1.169   2.386   0.340
 1539TIP3    H1 4562   1.256   2.423   0.322
 1539TIP3    H2 4563   1.109   2.460   0.331
 1540TIP3   OH2 4564   5.194   1.391   5.306
 1540TIP3    H1 4565   5.113   1.356   5.268
 1540TIP3    H2 4566   5.200   1.480   5.272
 1541TIP3   OH2 4567   0.839   4.793   1.571
 1541TIP3    H1 4568   0.884   4.826   1.649
 1541TIP3    H2 4569   0.758   4.755   1.605
 1542TIP3   OH2 4570   5.685   5.973   3.136
 1542TIP3    H1 4571   5.762   6.025   3.160
 1542TIP3    H2 4572   5.681   5.979   3.040
 1543TIP3   OH2 4573   3.659   4.965   0.962
 1543TIP3    H1 4574   3.717   5.002   1.029
 1543TIP3    H2 4575   3.597   5.035   0.943
 1544TIP3   OH2 4576   7.668   2.655   6.114
 1544TIP3    H1 4577   7.664   2.751   6.116
 1544TIP3    H2 4578   7.647   2.628   6.203
 1545TIP3   OH2 4579   1.755   3.393   2.304
 1545TIP3    H1 4580   1.660   3.401   2.312
 1545TIP3    H2 4581   1.789   3.479   2.330
 1546TIP3   OH2 4582   2.313   6.942   0.700
 1546TIP3    H1 4583   2.328   7.037   0.694
 1546TIP3    H2 4584   2.387   6.909   0.750
 1547TIP3   OH2 4585   6.907   7.000   1.602
 1547TIP3    H1 4586   6.876   7.071   1.658
 1547TIP3    H2 4587   6.833   6.939   1.597
 1548TIP3   OH2 4588   0.922   2.409   5.837
 1548TIP3    H1 4589   0.930   2.461   5.917
 1548TIP3    H2 4590   0.991   2.343   5.844
 1549TIP3   OH2 4591   6.207   7.543   2.881
 1549TIP3    H1 4592   6.247   7.607   2.940
 1549TIP3    H2 4593   6.170   7.477   2.940
 1550TIP3   OH2 4594   2.708   6.489   2.070
 1550TIP3    H1 4595   2.690   6.559   2.007
 1550TIP3    H2 4596   2.792   6.513   2.109
 1551TIP3   OH2 4597   2.177   7.443   0.775
 1551TIP3    H1 4598   2.134   7.515   0.821
 1551TIP3    H2 4599   2.211   7.484   0.695
 1552TIP3   OH2 4600   7.051   0.469   3.741
 1552TIP3    H1 4601   6.965   0.486   3.780
 1552TIP3    H2 4602   7.068   0.546   3.686
 1553TIP3   OH2 4603   2.378   1.652   2.167
 1553TIP3    H1 4604   2.432   1.651   2.088
 1553TIP3    H2 4605   2.434   1.616   2.236
 1554TIP3   OH2 4606   3.917   2.649   4.639
 1554TIP3    H1 4607   3.847   2.697   4.593
 1554TIP3    H2 4608   3.938   2.576   4.581
 1555TIP3   OH2 4609   1.485   0.445   3.872
 1555TIP3    H1 4610   1.497   0.529   3.826
 1555TIP3    H2 4611   1.458   0.470   3.960
 1556TIP3   OH2 4612   7.232   4.429   0.865
 1556TIP3    H1 4613   7.141   4.441   0.892
 1556TIP3    H2 4614   7.247   4.501   0.804
 1557TIP3   OH2 4615   7.483   3.806   3.052
 1557TIP3    H1 4616   7.427   3.805   2.974
 1557TIP3    H2 4617   7.525   3.892   3.049
 1558TIP3   OH2 4618   5.921   7.595   2.840
 1558TIP3    H1 4619   5.996   7.542   2.866
 1558TIP3    H2 4620   5.934   7.679   2.884
 1559TIP3   OH2 4621   7.852   4.998   3.199
 1559TIP3    H1 4622   7.901   4.918   3.182
 1559TIP3    H2 4623   7.911   5.069   3.174
 1560TIP3   OH2 4624   6.906   5.931   5.560
 1560TIP3    H1 4625   6.996   5.904   5.544
 1560TIP3    H2 4626   6.870   5.947   5.473
 1561TIP3   OH2 4627   2.421   0.033   2.131
 1561TIP3    H1 4628   2.472   0.029   2.212
 1561TIP3    H2 4629   2.482   0.006   2.063
 1562TIP3   OH2 4630   0.189   2.931   2.137
 1562TIP3    H1 4631   0.131   2.975   2.199
 1562TIP3    H2 4632   0.277   2.949   2.170
 1563TIP3   OH2 4633   2.179   5.734   0.832
 1563TIP3    H1 4634   2.260   5.758   0.787
 1563TIP3    H2 4635   2.134   5.676   0.770
 1564TIP3   OH2 4636   2.740   5.318   3.296
 1564TIP3    H1 4637   2.740   5.361   3.210
 1564TIP3    H2 4638   2.665   5.356   3.341
 1565TIP3   OH2 4639   1.544   2.927   6.397
 1565TIP3    H1 4640   1.561   2.844   6.352
 1565TIP3    H2 4641   1.577   2.994   6.336
 1566TIP3   OH2 4642   7.144   7.113   2.352
 1566TIP3    H1 4643   7.179   7.060   2.424
 1566TIP3    H2 4644   7.130   7.050   2.281
 1567TIP3   OH2 4645   1.733   2.596   0.308
 1567TIP3    H1 4646   1.700   2.589   0.397
 1567TIP3    H2 4647   1.761   2.507   0.286
 1568TIP3   OH2 4648   8.031   6.822   2.608
 1568TIP3    H1 4649   8.064   6.870   2.532
 1568TIP3    H2 4650   8.108   6.805   2.662
 1569TIP3   OH2 4651   6.969   1.820   4.681
 1569TIP3    H1 4652   6.953   1.814   4.776
 1569TIP3    H2 4653   7.051   1.868   4.674
 1570TIP3   OH2 4654   5.766   7.803   6.005
 1570TIP3    H1 4655   5.700   7.862   5.969
 1570TIP3    H2 4656   5.780   7.738   5.936
 1571TIP3   OH2 4657   0.257   1.396   1.705
 1571TIP3    H1 4658   0.212   1.481   1.698
 1571TIP3    H2 4659   0.195   1.340   1.752
 1572TIP3   OH2 4660   3.835   2.519   4.998
 1572TIP3    H1 4661   3.819   2.476   5.081
 1572TIP3    H2 4662   3.914   2.478   4.964
 1573TIP3   OH2 4663   4.917   0.980   3.809
 1573TIP3    H1 4664   4.932   0.964   3.716
 1573TIP3    H2 4665   4.942   0.899   3.852
 1574TIP3   OH2 4666   3.326   7.167   1.971
 1574TIP3    H1 4667   3.304   7.186   2.062
 1574TIP3    H2 4668   3.422   7.162   1.969
 1575TIP3   OH2 4669   5.060   4.337   0.505
 1575TIP3    H1 4670   5.091   4.415   0.552
 1575TIP3    H2 4671   5.134   4.277   0.506
 1576TIP3   OH2 4672   0.311   5.577   0.772
 1576TIP3    H1 4673   0.384   5.597   0.713
 1576TIP3    H2 4674   0.295   5.658   0.820
 1577TIP3   OH2 4675   7.655   2.361   6.047
 1577TIP3    H1 4676   7.733   2.326   6.004
 1577TIP3    H2 4677   7.686   2.440   6.093
 1578TIP3   OH2 4678   1.773   2.727   1.706
 1578TIP3    H1 4679   1.749   2.718   1.614
 1578TIP3    H2 4680   1.719   2.800   1.738
 1579TIP3   OH2 4681   4.508   7.845   5.462
 1579TIP3    H1 4682   4.473   7.776   5.517
 1579TIP3    H2 4683   4.536   7.800   5.382
 1580TIP3   OH2 4684   2.673   6.455   3.632
 1580TIP3    H1 4685   2.691   6.366   3.662
 1580TIP3    H2 4686   2.734   6.509   3.681
 1581TIP3   OH2 4687   3.309   7.667   6.440
 1581TIP3    H1 4688   3.263   7.588   6.413
 1581TIP3    H2 4689   3.342   7.705   6.359
 1582TIP3   OH2 4690   0.566   0.672   1.080
 1582TIP3    H1 4691   0.550   0.743   1.142
 1582TIP3    H2 4692   0.560   0.593   1.134
 1583TIP3   OH2 4693   6.968   4.034   2.792
 1583TIP3    H1 4694   6.968   4.080   2.708
 1583TIP3    H2 4695   6.928   3.949   2.772
 1584TIP3   OH2 4696   6.241   1.414   3.488
 1584TIP3    H1 4697   6.247   1.339   3.547
 1584TIP3    H2 4698   6.306   1.476   3.520
 1585TIP3   OH2 4699   1.171   1.791   0.678
 1585TIP3    H1 4700   1.144   1.755   0.593
 1585TIP3    H2 4701   1.099   1.768   0.737
 1586TIP3   OH2 4702   3.147   6.170   0.176
 1586TIP3    H1 4703   3.239   6.167   0.152
 1586TIP3    H2 4704   3.135   6.096   0.235
 1587TIP3   OH2 4705   0.186   5.207   0.124
 1587TIP3    H1 4706   0.277   5.179   0.120
 1587TIP3    H2 4707   0.146   5.173   0.044
 1588TIP3   OH2 4708   2.564   4.744   6.426
 1588TIP3    H1 4709   2.633   4.758   6.491
 1588TIP3    H2 4710   2.608   4.699   6.354
 1589TIP3   OH2 4711   7.728   1.648   2.510
 1589TIP3    H1 4712   7.769   1.732   2.490
 1589TIP3    H2 4713   7.783   1.610   2.578
 1590TIP3   OH2 4714   5.958   4.886   3.712
 1590TIP3    H1 4715   5.998   4.968   3.685
 1590TIP3    H2 4716   6.000   4.864   3.795
 1591TIP3   OH2 4717   2.810   7.313   1.664
 1591TIP3    H1 4718   2.896   7.345   1.637
 1591TIP3    H2 4719   2.827   7.225   1.697
 1592TIP3   OH2 4720   2.915   2.304   1.346
 1592TIP3    H1 4721   2.939   2.388   1.385
 1592TIP3    H2 4722   2.932   2.239   1.414
 1593TIP3   OH2 4723   2.553   3.061   0.118
 1593TIP3    H1 4724   2.579   3.150   0.096
 1593TIP3    H2 4725   2.462   3.055   0.088
 1594TIP3   OH2 4726   6.310   1.023   2.301
 1594TIP3    H1 4727   6.370   0.951   2.284
 1594TIP3    H2 4728   6.358   1.101   2.274
 1595TIP3   OH2 4729   6.664   3.508   1.622
 1595TIP3    H1 4730   6.706   3.437   1.574
 1595TIP3    H2 4731   6.721   3.523   1.698
 1596TIP3   OH2 4732   0.872   2.896   5.946
 1596TIP3    H1 4733   0.801   2.855   5.897
 1596TIP3    H2 4734   0.945   2.899   5.885
 1597TIP3   OH2 4735   2.157   6.401   2.842
 1597TIP3    H1 4736   2.195   6.482   2.808
 1597TIP3    H2 4737   2.232   6.346   2.862
 1598TIP3   OH2 4738   5.595   5.235   3.100
 1598TIP3    H1 4739   5.635   5.322   3.100
 1598TIP3    H2 4740   5.661   5.178   3.061
 1599TIP3   OH2 4741   7.712   6.142   4.115
 1599TIP3    H1 4742   7.776   6.085   4.072
 1599TIP3    H2 4743   7.760   6.182   4.187
 1600TIP3   OH2 4744   5.245   6.329   1.631
 1600TIP3    H1 4745   5.222   6.293   1.546
 1600TIP3    H2 4746   5.272   6.419   1.613
 1601TIP3   OH2 4747   3.813   6.195   5.179
 1601TIP3    H1 4748   3.763   6.198   5.260
 1601TIP3    H2 4749   3.831   6.287   5.158
 1602TIP3   OH2 4750   6.723   2.576   4.575
 1602TIP3    H1 4751   6.653   2.627   4.615
 1602TIP3    H2 4752   6.789   2.642   4.550
 1603TIP3   OH2 4753   2.048   2.667   4.378
 1603TIP3    H1 4754   2.014   2.578   4.369
 1603TIP3    H2 4755   1.971   2.721   4.394
 1604TIP3   OH2 4756   6.032   5.652   1.693
 1604TIP3    H1 4757   6.066   5.741   1.696
 1604TIP3    H2 4758   5.958   5.656   1.633
 1605TIP3   OH2 4759   3.339  -0.004   2.413
 1605TIP3    H1 4760   3.352   0.085   2.380
 1605TIP3    H2 4761   3.262   0.004   2.470
 1606TIP3   OH2 4762   1.945   6.682   0.532
 1606TIP3    H1 4763   1.976   6.741   0.600
 1606TIP3    H2 4764   1.935   6.597   0.575
 1607TIP3   OH2 4765   6.844   6.655   2.093
 1607TIP3    H1 4766   6.894   6.662   2.012
 1607TIP3    H2 4767   6.856   6.565   2.122
 1608TIP3   OH2 4768   5.019   2.755   3.088
 1608TIP3    H1 4769   4.965   2.798   3.022
 1608TIP3    H2 4770   5.046   2.826   3.146
 1609TIP3   OH2 4771   2.128   2.055   5.714
 1609TIP3    H1 4772   2.137   1.971   5.759
 1609TIP3    H2 4773   2.180   2.045   5.634
 1610TIP3   OH2 4774   1.691   1.640   0.856
 1610TIP3    H1 4775   1.697   1.553   0.817
 1610TIP3    H2 4776   1.697   1.700   0.782
 1611TIP3   OH2 4777   3.031   5.021   1.759
 1611TIP3    H1 4778   3.104   4.982   1.806
 1611TIP3    H2 4779   3.069   5.097   1.714
 1612TIP3   OH2 4780   4.892   7.020   3.988
 1612TIP3    H1 4781   4.814   6.975   4.017
 1612TIP3    H2 4782   4.868   7.113   3.989
 1613TIP3   OH2 4783   3.604   7.582   2.495
 1613TIP3    H1 4784   3.591   7.665   2.542
 1613TIP3    H2 4785   3.634   7.521   2.562
 1614TIP3   OH2 4786   2.316   6.116   1.885
 1614TIP3    H1 4787   2.336   6.147   1.973
 1614TIP3    H2 4788   2.264   6.187   1.846
 1615TIP3   OH2 4789   2.819   1.560   0.516
 1615TIP3    H1 4790   2.744   1.533   0.570
 1615TIP3    H2 4791   2.780   1.610   0.445
 1616TIP3   OH2 4792   6.259   5.233   4.747
 1616TIP3    H1 4793   6.290   5.311   4.702
 1616TIP3    H2 4794   6.221   5.265   4.829
 1617TIP3   OH2 4795   7.907   7.054   3.611
 1617TIP3    H1 4796   7.858   6.976   3.584
 1617TIP3    H2 4797   7.888   7.119   3.543
 1618TIP3   OH2 4798   5.566   0.803   4.169
 1618TIP3    H1 4799   5.632   0.839   4.228
 1618TIP3    H2 4800   5.594   0.713   4.153
 1619TIP3   OH2 4801   0.945   3.907   1.912
 1619TIP3    H1 4802   0.987   3.867   1.836
 1619TIP3    H2 4803   1.019   3.938   1.965
 1620TIP3   OH2 4804   4.708   0.782   0.766
 1620TIP3    H1 4805   4.657   0.718   0.815
 1620TIP3    H2 4806   4.786   0.797   0.820
 1621TIP3   OH2 4807   6.669   4.473   2.839
 1621TIP3    H1 4808   6.733   4.468   2.768
 1621TIP3    H2 4809   6.710   4.426   2.911
 1622TIP3   OH2 4810   2.872   5.808   1.518
 1622TIP3    H1 4811   2.882   5.898   1.549
 1622TIP3    H2 4812   2.783   5.784   1.543
 1623TIP3   OH2 4813   6.102   6.527   1.414
 1623TIP3    H1 4814   6.161   6.580   1.468
 1623TIP3    H2 4815   6.160   6.472   1.362
 1624TIP3   OH2 4816   7.359   3.031   2.746
 1624TIP3    H1 4817   7.307   3.070   2.817
 1624TIP3    H2 4818   7.295   3.015   2.676
 1625TIP3   OH2 4819   7.366   2.702   4.530
 1625TIP3    H1 4820   7.337   2.755   4.605
 1625TIP3    H2 4821   7.418   2.632   4.569
 1626TIP3   OH2 4822   8.195   6.928   0.964
 1626TIP3    H1 4823   8.179   7.023   0.965
 1626TIP3    H2 4824   8.203   6.905   1.057
 1627TIP3   OH2 4825   7.824   4.529   2.574
 1627TIP3    H1 4826   7.761   4.573   2.518
 1627TIP3    H2 4827   7.877   4.600   2.612
 1628TIP3   OH2 4828   4.459   0.582   4.539
 1628TIP3    H1 4829   4.546   0.595   4.576
 1628TIP3    H2 4830   4.437   0.665   4.499
 1629TIP3   OH2 4831   8.100   5.790   6.132
 1629TIP3    H1 4832   8.031   5.750   6.080
 1629TIP3    H2 4833   8.128   5.866   6.082
 1630TIP3   OH2 4834   3.817   0.250   3.148
 1630TIP3    H1 4835   3.852   0.249   3.238
 1630TIP3    H2 4836   3.823   0.160   3.119
 1631TIP3   OH2 4837   1.387   6.354   1.873
 1631TIP3    H1 4838   1.334   6.341   1.952
 1631TIP3    H2 4839   1.429   6.269   1.858
 1632TIP3   OH2 4840   5.302   0.987   0.595
 1632TIP3    H1 4841   5.357   0.911   0.579
 1632TIP3    H2 4842   5.361   1.062   0.589
 1633TIP3   OH2 4843   8.076   6.032   1.607
 1633TIP3    H1 4844   8.025   5.995   1.535
 1633TIP3    H2 4845   8.034   5.997   1.686
 1634TIP3   OH2 4846   8.210   2.234   1.239
 1634TIP3    H1 4847   8.148   2.183   1.292
 1634TIP3    H2 4848   8.176   2.323   1.241
 1635TIP3   OH2 4849   5.291   2.510   0.679
 1635TIP3    H1 4850   5.381   2.484   0.660
 1635TIP3    H2 4851   5.240   2.429   0.672
 1636TIP3   OH2 4852   0.517   1.404   5.603
 1636TIP3    H1 4853   0.481   1.352   5.531
 1636TIP3    H2 4854   0.601   1.436   5.570
 1637TIP3   OH2 4855   5.302   0.563   0.261
 1637TIP3    H1 4856   5.301   0.623   0.336
 1637TIP3    H2 4857   5.233   0.596   0.204
 1638TIP3   OH2 4858   5.214   3.484   1.875
 1638TIP3    H1 4859   5.266   3.547   1.925
 1638TIP3    H2 4860   5.278   3.429   1.830
 1639TIP3   OH2 4861   2.826   4.489   3.795
 1639TIP3    H1 4862   2.744   4.443   3.809
 1639TIP3    H2 4863   2.861   4.503   3.883
 1640TIP3   OH2 4864   7.964   0.054   4.755
 1640TIP3    H1 4865   7.939   0.146   4.755
 1640TIP3    H2 4866   8.043   0.051   4.810
 1641TIP3   OH2 4867   4.178   3.167   1.049
 1641TIP3    H1 4868   4.182   3.176   0.954
 1641TIP3    H2 4869   4.203   3.076   1.066
 1642TIP3   OH2 4870   4.681   0.997   3.118
 1642TIP3    H1 4871   4.663   1.072   3.063
 1642TIP3    H2 4872   4.648   0.922   3.068
 1643TIP3   OH2 4873   1.898   1.939   5.237
 1643TIP3    H1 4874   1.971   1.998   5.254
 1643TIP3    H2 4875   1.893   1.883   5.314
 1644TIP3   OH2 4876   4.341   6.150   5.476
 1644TIP3    H1 4877   4.250   6.176   5.458
 1644TIP3    H2 4878   4.394   6.206   5.419
 1645TIP3   OH2 4879   2.569   6.391   0.136
 1645TIP3    H1 4880   2.554   6.476   0.095
 1645TIP3    H2 4881   2.656   6.398   0.176
 1646TIP3   OH2 4882   0.429   3.271   3.855
 1646TIP3    H1 4883   0.487   3.199   3.828
 1646TIP3    H2 4884   0.379   3.234   3.928
 1647TIP3   OH2 4885   3.605   0.858   5.111
 1647TIP3    H1 4886   3.539   0.810   5.061
 1647TIP3    H2 4887   3.689   0.826   5.077
 1648TIP3   OH2 4888   5.524   3.374   5.961
 1648TIP3    H1 4889   5.490   3.416   6.039
 1648TIP3    H2 4890   5.611   3.413   5.948
 1649TIP3   OH2 4891   6.871   3.798   4.670
 1649TIP3    H1 4892   6.937   3.867   4.668
 1649TIP3    H2 4893   6.822   3.809   4.588
 1650TIP3   OH2 4894   7.058   3.311   0.328
 1650TIP3    H1 4895   7.115   3.240   0.359
 1650TIP3    H2 4896   7.110   3.357   0.263
 1651TIP3   OH2 4897   4.504   1.763   1.624
 1651TIP3    H1 4898   4.515   1.745   1.531
 1651TIP3    H2 4899   4.414   1.738   1.643
 1652TIP3   OH2 4900   2.033   7.637   5.424
 1652TIP3    H1 4901   2.018   7.710   5.364
 1652TIP3    H2 4902   1.950   7.625   5.469
 1653TIP3   OH2 4903   7.108   0.062   0.129
 1653TIP3    H1 4904   7.112   0.158   0.131
 1653TIP3    H2 4905   7.082   0.041   0.040
 1654TIP3   OH2 4906   3.713   7.022   4.557
 1654TIP3    H1 4907   3.803   6.991   4.563
 1654TIP3    H2 4908   3.660   6.950   4.590
 1655TIP3   OH2 4909   6.489   2.004   4.141
 1655TIP3    H1 4910   6.468   2.081   4.089
 1655TIP3    H2 4911   6.516   1.938   4.077
 1656TIP3   OH2 4912   7.008   0.169   1.136
 1656TIP3    H1 4913   7.018   0.151   1.043
 1656TIP3    H2 4914   6.933   0.228   1.141
 1657TIP3   OH2 4915   2.751   4.179   1.580
 1657TIP3    H1 4916   2.837   4.173   1.538
 1657TIP3    H2 4917   2.753   4.113   1.649
 1658TIP3   OH2 4918   6.997   6.191   1.304
 1658TIP3    H1 4919   6.921   6.161   1.353
 1658TIP3    H2 4920   7.035   6.261   1.357
 1659TIP3   OH2 4921   1.357   1.933   4.366
 1659TIP3    H1 4922   1.275   1.982   4.371
 1659TIP3    H2 4923   1.367   1.896   4.454
 1660TIP3   OH2 4924   7.441   5.601   4.730
 1660TIP3    H1 4925   7.460   5.508   4.719
 1660TIP3    H2 4926   7.348   5.604   4.749
 1661TIP3   OH2 4927   7.196   2.056   2.516
 1661TIP3    H1 4928   7.254   2.120   2.474
 1661TIP3    H2 4929   7.184   2.090   2.605
 1662TIP3   OH2 4930   0.943   2.852   4.333
 1662TIP3    H1 4931   1.034   2.842   4.303
 1662TIP3    H2 4932   0.950   2.891   4.420
 1663TIP3   OH2 4933   4.566   7.205   2.407
 1663TIP3    H1 4934   4.541   7.241   2.492
 1663TIP3    H2 4935   4.646   7.253   2.383
 1664TIP3   OH2 4936   7.902   5.679   5.947
 1664TIP3    H1 4937   7.814   5.654   5.919
 1664TIP3    H2 4938   7.954   5.680   5.867
 1665TIP3   OH2 4939   5.411   0.055   5.395
 1665TIP3    H1 4940   5.451  -0.032   5.397
 1665TIP3    H2 4941   5.377   0.064   5.306
 1666TIP3   OH2 4942   6.502   1.330   5.801
 1666TIP3    H1 4943   6.475   1.313   5.891
 1666TIP3    H2 4944   6.569   1.263   5.782
 1667TIP3   OH2 4945   6.871   2.158   6.386
 1667TIP3    H1 4946   6.849   2.248   6.363
 1667TIP3    H2 4947   6.788   2.111   6.376
 1668TIP3   OH2 4948   6.750   6.536   6.462
 1668TIP3    H1 4949   6.830   6.580   6.434
 1668TIP3    H2 4950   6.679   6.594   6.435
 1669TIP3   OH2 4951   0.348   4.753   6.768
 1669TIP3    H1 4952   0.321   4.822   6.709
 1669TIP3    H2 4953   0.267   4.708   6.793
 1670TIP3   OH2 4954   4.571   3.851   3.439
 1670TIP3    H1 4955   4.657   3.894   3.433
 1670TIP3    H2 4956   4.568   3.793   3.362
 1671TIP3   OH2 4957   0.045   3.561   2.183
 1671TIP3    H1 4958  -0.042   3.587   2.153
 1671TIP3    H2 4959   0.093   3.540   2.103
 1672TIP3   OH2 4960   1.534   5.451   0.852
 1672TIP3    H1 4961   1.629   5.456   0.843
 1672TIP3    H2 4962   1.521   5.415   0.940
 1673TIP3   OH2 4963   1.434   2.435   2.474
 1673TIP3    H1 4964   1.528   2.449   2.466
 1673TIP3    H2 4965   1.414   2.452   2.566
 1674TIP3   OH2 4966   6.810   3.793   2.785
 1674TIP3    H1 4967   6.882   3.730   2.777
 1674TIP3    H2 4968   6.745   3.763   2.720
 1675TIP3   OH2 4969   0.775   6.067   4.817
 1675TIP3    H1 4970   0.748   6.153   4.784
 1675TIP3    H2 4971   0.811   6.085   4.904
 1676TIP3   OH2 4972   3.038   6.924   5.248
 1676TIP3    H1 4973   3.053   6.838   5.209
 1676TIP3    H2 4974   2.965   6.960   5.197
 1677TIP3   OH2 4975   3.875   2.583   1.245
 1677TIP3    H1 4976   3.946   2.616   1.190
 1677TIP3    H2 4977   3.910   2.503   1.284
 1678TIP3   OH2 4978   6.245   0.655   2.359
 1678TIP3    H1 4979   6.171   0.695   2.313
 1678TIP3    H2 4980   6.303   0.623   2.290
 1679TIP3   OH2 4981   3.523   1.823   1.522
 1679TIP3    H1 4982   3.452   1.762   1.543
 1679TIP3    H2 4983   3.597   1.791   1.573
 1680TIP3   OH2 4984   6.856   6.832   3.868
 1680TIP3    H1 4985   6.800   6.852   3.793
 1680TIP3    H2 4986   6.943   6.820   3.831
 1681TIP3   OH2 4987   5.671   5.573   5.324
 1681TIP3    H1 4988   5.609   5.638   5.356
 1681TIP3    H2 4989   5.669   5.582   5.229
 1682TIP3   OH2 4990   5.988   1.073   0.598
 1682TIP3    H1 4991   6.024   1.130   0.530
 1682TIP3    H2 4992   5.930   1.013   0.551
 1683TIP3   OH2 4993   6.132   4.760   4.199
 1683TIP3    H1 4994   6.155   4.780   4.290
 1683TIP3    H2 4995   6.172   4.675   4.182
 1684TIP3   OH2 4996   5.547   4.233   2.603
 1684TIP3    H1 4997   5.508   4.188   2.678
 1684TIP3    H2 4998   5.567   4.321   2.635
 1685TIP3   OH2 4999   1.010   0.532   1.085
 1685TIP3    H1 5000   0.991   0.530   0.991
 1685TIP3    H2 5001   1.087   0.477   1.095
 1686TIP3   OH2 5002   6.659   6.471   3.159
 1686TIP3    H1 5003   6.736   6.526   3.144
 1686TIP3    H2 5004   6.683   6.387   3.121
 1687TIP3   OH2 5005   0.494   3.128   0.552
 1687TIP3    H1 5006   0.560   3.059   0.555
 1687TIP3    H2 5007   0.545   3.208   0.540
 1688TIP3   OH2 5008   4.010   2.886   1.223
 1688TIP3    H1 5009   4.023   2.818   1.157
 1688TIP3    H2 5010   3.972   2.959   1.174
 1689TIP3   OH2 5011   2.959   0.721   5.813
 1689TIP3    H1 5012   2.967   0.640   5.863
 1689TIP3    H2 5013   2.887   0.768   5.855
 1690TIP3   OH2 5014   7.512   0.046   3.796
 1690TIP3    H1 5015   7.444  -0.015   3.767
 1690TIP3    H2 5016   7.475   0.087   3.874
 1691TIP3   OH2 5017   1.074   7.226   5.623
 1691TIP3    H1 5018   1.019   7.235   5.701
 1691TIP3    H2 5019   1.142   7.292   5.634
 1692TIP3   OH2 5020   7.491   6.523   2.411
 1692TIP3    H1 5021   7.570   6.507   2.359
 1692TIP3    H2 5022   7.445   6.593   2.364
 1693TIP3   OH2 5023   1.794   1.804   0.646
 1693TIP3    H1 5024   1.820   1.845   0.564
 1693TIP3    H2 5025   1.855   1.841   0.711
 1694TIP3   OH2 5026   4.554   2.838   1.812
 1694TIP3    H1 5027   4.471   2.872   1.778
 1694TIP3    H2 5028   4.613   2.838   1.736
 1695TIP3   OH2 5029   0.545   6.527   2.343
 1695TIP3    H1 5030   0.504   6.609   2.313
 1695TIP3    H2 5031   0.516   6.461   2.280
 1696TIP3   OH2 5032   4.642   1.193   2.932
 1696TIP3    H1 5033   4.698   1.165   2.860
 1696TIP3    H2 5034   4.570   1.240   2.890
 1697TIP3   OH2 5035   6.156   0.208   6.647
 1697TIP3    H1 5036   6.152   0.198   6.742
 1697TIP3    H2 5037   6.221   0.144   6.619
 1698TIP3   OH2 5038   7.530   2.998   5.081
 1698TIP3    H1 5039   7.443   2.962   5.066
 1698TIP3    H2 5040   7.586   2.921   5.089
 1699TIP3   OH2 5041   2.558   6.331   5.843
 1699TIP3    H1 5042   2.514   6.260   5.797
 1699TIP3    H2 5043   2.610   6.375   5.776
 1700TIP3   OH2 5044   1.592   4.521   6.625
 1700TIP3    H1 5045   1.518   4.499   6.682
 1700TIP3    H2 5046   1.552   4.540   6.540
 1701TIP3   OH2 5047   0.044   1.974   2.415
 1701TIP3    H1 5048  -0.013   2.017   2.351
 1701TIP3    H2 5049   0.091   1.908   2.364
 1702TIP3   OH2 5050   0.783   3.718  -0.015
 1702TIP3    H1 5051   0.800   3.639   0.036
 1702TIP3    H2 5052   0.834   3.786   0.028
 1703TIP3   OH2 5053   3.529   4.258   1.191
 1703TIP3    H1 5054   3.596   4.190   1.196
 1703TIP3    H2 5055   3.510   4.267   1.098
 1704TIP3   OH2 5056   7.131   6.489   4.454
 1704TIP3    H1 5057   7.221   6.511   4.478
 1704TIP3    H2 5058   7.114   6.539   4.374
 1705TIP3   OH2 5059   4.797   4.295   5.771
 1705TIP3    H1 5060   4.788   4.335   5.685
 1705TIP3    H2 5061   4.885   4.320   5.799
 1706TIP3   OH2 5062   3.034   7.434   1.666
 1706TIP3    H1 5063   3.077   7.471   1.743
 1706TIP3    H2 5064   3.105   7.396   1.615
 1707TIP3   OH2 5065   5.447   3.402   2.134
 1707TIP3    H1 5066   5.385   3.363   2.194
 1707TIP3    H2 5067   5.533   3.384   2.173
 1708TIP3   OH2 5068   3.987   4.602   0.840
 1708TIP3    H1 5069   3.975   4.627   0.749
 1708TIP3    H2 5070   3.904   4.562   0.866
 1709TIP3   OH2 5071   1.693   3.406   0.851
 1709TIP3    H1 5072   1.699   3.368   0.939
 1709TIP3    H2 5073   1.718   3.335   0.792
 1710TIP3   OH2 5074   0.621   7.427   6.154
 1710TIP3    H1 5075   0.558   7.359   6.179
 1710TIP3    H2 5076   0.618   7.490   6.227
 1711TIP3   OH2 5077   8.134   2.700   3.583
 1711TIP3    H1 5078   8.209   2.757   3.600
 1711TIP3    H2 5079   8.102   2.728   3.497
 1712TIP3   OH2 5080   2.215   2.591   4.025
 1712TIP3    H1 5081   2.120   2.602   4.033
 1712TIP3    H2 5082   2.236   2.522   4.087
 1713TIP3   OH2 5083   2.671   0.494   1.557
 1713TIP3    H1 5084   2.609   0.481   1.486
 1713TIP3    H2 5085   2.645   0.577   1.597
 1714TIP3   OH2 5086   7.720   0.784   5.324
 1714TIP3    H1 5087   7.751   0.863   5.281
 1714TIP3    H2 5088   7.686   0.729   5.253
 1715TIP3   OH2 5089   7.174   0.387   6.450
 1715TIP3    H1 5090   7.166   0.325   6.522
 1715TIP3    H2 5091   7.180   0.332   6.371
 1716TIP3   OH2 5092   7.710   2.415   2.559
 1716TIP3    H1 5093   7.716   2.332   2.607
 1716TIP3    H2 5094   7.773   2.473   2.601
 1717TIP3   OH2 5095   3.245   5.854   2.451
 1717TIP3    H1 5096   3.158   5.887   2.474
 1717TIP3    H2 5097   3.289   5.844   2.535
 1718TIP3   OH2 5098   2.706   6.919   2.990
 1718TIP3    H1 5099   2.687   7.001   3.035
 1718TIP3    H2 5100   2.730   6.858   3.060
 1719TIP3   OH2 5101   1.269   2.037   0.614
 1719TIP3    H1 5102   1.191   2.086   0.585
 1719TIP3    H2 5103   1.234   1.954   0.646
 1720TIP3   OH2 5104   1.233   2.402   4.551
 1720TIP3    H1 5105   1.159   2.404   4.611
 1720TIP3    H2 5106   1.291   2.334   4.586
 1721TIP3   OH2 5107   5.137   3.500   0.670
 1721TIP3    H1 5108   5.155   3.475   0.760
 1721TIP3    H2 5109   5.224   3.507   0.629
 1722TIP3   OH2 5110   1.346   4.855   6.181
 1722TIP3    H1 5111   1.345   4.817   6.269
 1722TIP3    H2 5112   1.298   4.938   6.191
 1723TIP3   OH2 5113   1.640   3.029   4.368
 1723TIP3    H1 5114   1.604   3.084   4.298
 1723TIP3    H2 5115   1.583   2.952   4.370
 1724TIP3   OH2 5116   6.007   6.659   3.334
 1724TIP3    H1 5117   6.043   6.676   3.421
 1724TIP3    H2 5118   6.066   6.704   3.274
 1725TIP3   OH2 5119   8.373   4.047   2.059
 1725TIP3    H1 5120   8.381   4.090   2.144
 1725TIP3    H2 5121   8.279   4.034   2.047
 1726TIP3   OH2 5122   1.174   6.437   5.683
 1726TIP3    H1 5123   1.126   6.356   5.704
 1726TIP3    H2 5124   1.139   6.464   5.598
 1727TIP3   OH2 5125   6.073   2.066   3.922
 1727TIP3    H1 5126   6.159   2.106   3.931
 1727TIP3    H2 5127   6.081   1.981   3.966
 1728TIP3   OH2 5128   6.015   2.778   6.597
 1728TIP3    H1 5129   5.926   2.766   6.563
 1728TIP3    H2 5130   6.022   2.717   6.670
 1729TIP3   OH2 5131   7.475   5.611   1.233
 1729TIP3    H1 5132   7.480   5.603   1.328
 1729TIP3    H2 5133   7.418   5.540   1.205
 1730TIP3   OH2 5134   3.484   7.716   0.451
 1730TIP3    H1 5135   3.546   7.702   0.523
 1730TIP3    H2 5136   3.428   7.638   0.452
 1731TIP3   OH2 5137   6.804   2.275   3.794
 1731TIP3    H1 5138   6.785   2.361   3.757
 1731TIP3    H2 5139   6.827   2.294   3.886
 1732TIP3   OH2 5140   7.293   2.205   3.253
 1732TIP3    H1 5141   7.316   2.290   3.218
 1732TIP3    H2 5142   7.323   2.208   3.344
 1733TIP3   OH2 5143   2.969   6.424   2.600
 1733TIP3    H1 5144   2.907   6.407   2.670
 1733TIP3    H2 5145   3.038   6.477   2.640
 1734TIP3   OH2 5146   3.243   3.425   5.727
 1734TIP3    H1 5147   3.181   3.424   5.655
 1734TIP3    H2 5148   3.329   3.427   5.686
 1735TIP3   OH2 5149   7.787   2.367   3.995
 1735TIP3    H1 5150   7.835   2.387   4.076
 1735TIP3    H2 5151   7.696   2.389   4.016
 1736TIP3   OH2 5152   3.708   4.178   6.354
 1736TIP3    H1 5153   3.626   4.218   6.325
 1736TIP3    H2 5154   3.682   4.117   6.423
 1737TIP3   OH2 5155   6.856   4.862   2.471
 1737TIP3    H1 5156   6.944   4.894   2.451
 1737TIP3    H2 5157   6.858   4.845   2.565
 1738TIP3   OH2 5158  -0.086   4.012   5.825
 1738TIP3    H1 5159  -0.144   3.954   5.875
 1738TIP3    H2 5160  -0.001   4.004   5.868
 1739TIP3   OH2 5161   1.100   0.747   4.446
 1739TIP3    H1 5162   1.020   0.761   4.498
 1739TIP3    H2 5163   1.118   0.653   4.456
 1740TIP3   OH2 5164   7.504   0.245   6.766
 1740TIP3    H1 5165   7.512   0.341   6.761
 1740TIP3    H2 5166   7.436   0.231   6.831
 1741TIP3   OH2 5167   6.468   4.958   0.881
 1741TIP3    H1 5168   6.411   4.887   0.852
 1741TIP3    H2 5169   6.552   4.916   0.898
 1742TIP3   OH2 5170   1.142   3.694   1.131
 1742TIP3    H1 5171   1.225   3.666   1.091
 1742TIP3    H2 5172   1.104   3.755   1.068
 1743TIP3   OH2 5173   4.515   4.782   2.946
 1743TIP3    H1 5174   4.460   4.732   2.886
 1743TIP3    H2 5175   4.516   4.731   3.027
 1744TIP3   OH2 5176   0.897   6.261   1.669
 1744TIP3    H1 5177   0.906   6.177   1.623
 1744TIP3    H2 5178   0.926   6.326   1.605
 1745TIP3   OH2 5179   5.207   6.777   5.208
 1745TIP3    H1 5180   5.214   6.701   5.151
 1745TIP3    H2 5181   5.121   6.769   5.249
 1746TIP3   OH2 5182   2.673   1.080   6.130
 1746TIP3    H1 5183   2.585   1.109   6.103
 1746TIP3    H2 5184   2.658   0.998   6.177
 1747TIP3   OH2 5185   4.616   3.658   3.224
 1747TIP3    H1 5186   4.648   3.601   3.294
 1747TIP3    H2 5187   4.532   3.621   3.199
 1748TIP3   OH2 5188   3.963   7.762   2.893
 1748TIP3    H1 5189   4.018   7.737   2.967
 1748TIP3    H2 5190   3.982   7.697   2.826
 1749TIP3   OH2 5191   4.890   1.909   3.470
 1749TIP3    H1 5192   4.893   1.814   3.461
 1749TIP3    H2 5193   4.980   1.938   3.455
 1750TIP3   OH2 5194   1.359   7.158   5.296
 1750TIP3    H1 5195   1.451   7.158   5.268
 1750TIP3    H2 5196   1.311   7.125   5.220
 1751TIP3   OH2 5197   4.538   6.480   2.243
 1751TIP3    H1 5198   4.543   6.413   2.311
 1751TIP3    H2 5199   4.559   6.434   2.162
 1752TIP3   OH2 5200   1.581   1.395   2.009
 1752TIP3    H1 5201   1.492   1.397   1.975
 1752TIP3    H2 5202   1.582   1.321   2.070
 1753TIP3   OH2 5203   7.378   0.420   2.165
 1753TIP3    H1 5204   7.447   0.354   2.161
 1753TIP3    H2 5205   7.296   0.371   2.160
 1754TIP3   OH2 5206   3.128   0.831   1.816
 1754TIP3    H1 5207   3.165   0.913   1.850
 1754TIP3    H2 5208   3.203   0.773   1.806
 1755TIP3   OH2 5209   0.547   5.476   5.178
 1755TIP3    H1 5210   0.608   5.441   5.113
 1755TIP3    H2 5211   0.490   5.402   5.198
 1756TIP3   OH2 5212   4.368   2.181   1.723
 1756TIP3    H1 5213   4.329   2.268   1.732
 1756TIP3    H2 5214   4.460   2.199   1.703
 1757TIP3   OH2 5215   4.400   4.631   0.550
 1757TIP3    H1 5216   4.352   4.713   0.536
 1757TIP3    H2 5217   4.468   4.632   0.482
 1758TIP3   OH2 5218   7.586   4.806   1.908
 1758TIP3    H1 5219   7.646   4.773   1.975
 1758TIP3    H2 5220   7.584   4.736   1.842
 1759TIP3   OH2 5221   5.872   1.957   4.903
 1759TIP3    H1 5222   5.836   1.873   4.930
 1759TIP3    H2 5223   5.964   1.939   4.883
 1760TIP3   OH2 5224   0.297   7.476   3.376
 1760TIP3    H1 5225   0.343   7.522   3.446
 1760TIP3    H2 5226   0.237   7.541   3.339
 1761TIP3   OH2 5227   2.989   3.375   1.574
 1761TIP3    H1 5228   3.066   3.318   1.583
 1761TIP3    H2 5229   3.018   3.459   1.611
 1762TIP3   OH2 5230   7.477   5.729   5.239
 1762TIP3    H1 5231   7.549   5.733   5.176
 1762TIP3    H2 5232   7.450   5.820   5.251
 1763TIP3   OH2 5233   5.789   0.099   3.620
 1763TIP3    H1 5234   5.829   0.012   3.618
 1763TIP3    H2 5235   5.819   0.140   3.539
 1764TIP3   OH2 5236   0.114   7.445   4.924
 1764TIP3    H1 5237   0.181   7.409   4.865
 1764TIP3    H2 5238   0.052   7.373   4.936
 1765TIP3   OH2 5239   0.660   4.666   4.468
 1765TIP3    H1 5240   0.684   4.641   4.379
 1765TIP3    H2 5241   0.566   4.646   4.474
 1766TIP3   OH2 5242   5.006   2.451   2.477
 1766TIP3    H1 5243   4.929   2.506   2.460
 1766TIP3    H2 5244   5.002   2.432   2.570
 1767TIP3   OH2 5245   5.590   4.225   2.328
 1767TIP3    H1 5246   5.580   4.230   2.423
 1767TIP3    H2 5247   5.567   4.135   2.306
 1768TIP3   OH2 5248   0.788   6.669   4.234
 1768TIP3    H1 5249   0.838   6.624   4.165
 1768TIP3    H2 5250   0.713   6.611   4.249
 1769TIP3   OH2 5251   5.614   3.718   0.449
 1769TIP3    H1 5252   5.606   3.763   0.533
 1769TIP3    H2 5253   5.704   3.685   0.448
 1770TIP3   OH2 5254   0.683   7.012   6.063
 1770TIP3    H1 5255   0.598   7.056   6.062
 1770TIP3    H2 5256   0.747   7.083   6.058
 1771TIP3   OH2 5257   6.494   3.938   1.321
 1771TIP3    H1 5258   6.542   3.866   1.362
 1771TIP3    H2 5259   6.403   3.925   1.349
 1772TIP3   OH2 5260   3.883   0.039   2.153
 1772TIP3    H1 5261   3.964   0.075   2.117
 1772TIP3    H2 5262   3.850   0.108   2.211
 1773TIP3   OH2 5263   1.098   4.325   6.149
 1773TIP3    H1 5264   1.104   4.393   6.216
 1773TIP3    H2 5265   1.156   4.256   6.180
 1774TIP3   OH2 5266   1.617   7.210   1.285
 1774TIP3    H1 5267   1.657   7.203   1.372
 1774TIP3    H2 5268   1.648   7.294   1.251
 1775TIP3   OH2 5269   6.176   6.492   2.548
 1775TIP3    H1 5270   6.154   6.569   2.495
 1775TIP3    H2 5271   6.105   6.486   2.611
 1776TIP3   OH2 5272   3.149   0.767   2.699
 1776TIP3    H1 5273   3.096   0.823   2.756
 1776TIP3    H2 5274   3.128   0.796   2.610
 1777TIP3   OH2 5275   6.252   1.494   1.048
 1777TIP3    H1 5276   6.205   1.420   1.087
 1777TIP3    H2 5277   6.186   1.542   0.999
 1778TIP3   OH2 5278   2.040   7.537   6.572
 1778TIP3    H1 5279   2.016   7.514   6.662
 1778TIP3    H2 5280   2.115   7.480   6.552
 1779TIP3   OH2 5281   5.590   4.657   4.976
 1779TIP3    H1 5282   5.505   4.656   4.931
 1779TIP3    H2 5283   5.568   4.652   5.069
 1780TIP3   OH2 5284   7.597   5.487   4.072
 1780TIP3    H1 5285   7.657   5.479   3.998
 1780TIP3    H2 5286   7.604   5.403   4.118
 1781TIP3   OH2 5287   3.650   5.281   0.915
 1781TIP3    H1 5288   3.744   5.287   0.931
 1781TIP3    H2 5289   3.637   5.327   0.831
 1782TIP3   OH2 5290   3.902   7.033   0.181
 1782TIP3    H1 5291   3.817   6.993   0.161
 1782TIP3    H2 5292   3.942   7.048   0.095
 1783TIP3   OH2 5293   3.599   4.063   6.586
 1783TIP3    H1 5294   3.604   4.097   6.675
 1783TIP3    H2 5295   3.515   4.017   6.583
 1784TIP3   OH2 5296   6.004   4.157   0.725
 1784TIP3    H1 5297   5.977   4.101   0.798
 1784TIP3    H2 5298   6.010   4.097   0.650
 1785TIP3   OH2 5299   3.716   1.143   0.461
 1785TIP3    H1 5300   3.654   1.097   0.518
 1785TIP3    H2 5301   3.750   1.075   0.403
 1786TIP3   OH2 5302   7.556   1.997   2.451
 1786TIP3    H1 5303   7.638   2.037   2.480
 1786TIP3    H2 5304   7.487   2.053   2.487
 1787TIP3   OH2 5305   6.766   2.040   5.167
 1787TIP3    H1 5306   6.727   1.953   5.164
 1787TIP3    H2 5307   6.776   2.059   5.260
 1788TIP3   OH2 5308   0.676   4.762   5.188
 1788TIP3    H1 5309   0.720   4.798   5.111
 1788TIP3    H2 5310   0.731   4.788   5.262
 1789TIP3   OH2 5311   6.070   2.881   1.655
 1789TIP3    H1 5312   6.073   2.960   1.710
 1789TIP3    H2 5313   6.072   2.915   1.565
 1790TIP3   OH2 5314   1.560   3.933   5.675
 1790TIP3    H1 5315   1.522   4.014   5.710
 1790TIP3    H2 5316   1.581   3.955   5.584
 1791TIP3   OH2 5317   3.227   5.965   0.389
 1791TIP3    H1 5318   3.224   5.934   0.480
 1791TIP3    H2 5319   3.299   6.027   0.387
 1792TIP3   OH2 5320   3.655   1.569   6.258
 1792TIP3    H1 5321   3.615   1.655   6.241
 1792TIP3    H2 5322   3.580   1.509   6.265
 1793TIP3   OH2 5323   2.947   1.810   0.618
 1793TIP3    H1 5324   2.899   1.732   0.590
 1793TIP3    H2 5325   2.881   1.879   0.625
 1794TIP3   OH2 5326   2.347   4.082   3.241
 1794TIP3    H1 5327   2.286   4.155   3.242
 1794TIP3    H2 5328   2.299   4.011   3.198
 1795TIP3   OH2 5329   0.454   5.159   0.107
 1795TIP3    H1 5330   0.490   5.195   0.026
 1795TIP3    H2 5331   0.526   5.109   0.146
 1796TIP3   OH2 5332   3.829   3.343   2.100
 1796TIP3    H1 5333   3.819   3.404   2.173
 1796TIP3    H2 5334   3.817   3.257   2.139
 1797TIP3   OH2 5335   3.642   0.964   1.843
 1797TIP3    H1 5336   3.636   1.046   1.793
 1797TIP3    H2 5337   3.685   0.903   1.785
 1798TIP3   OH2 5338   2.422   0.998   2.523
 1798TIP3    H1 5339   2.337   0.954   2.516
 1798TIP3    H2 5340   2.401   1.087   2.550
 1799TIP3   OH2 5341   5.895   0.371   5.233
 1799TIP3    H1 5342   5.979   0.350   5.193
 1799TIP3    H2 5343   5.893   0.318   5.313
 1800TIP3   OH2 5344   4.332   7.352   1.506
 1800TIP3    H1 5345   4.309   7.300   1.429
 1800TIP3    H2 5346   4.354   7.287   1.573
 1801TIP3   OH2 5347   0.326   4.283   0.647
 1801TIP3    H1 5348   0.325   4.362   0.593
 1801TIP3    H2 5349   0.344   4.315   0.736
 1802TIP3   OH2 5350   6.943   1.144   2.369
 1802TIP3    H1 5351   6.849   1.157   2.359
 1802TIP3    H2 5352   6.965   1.077   2.304
 1803TIP3   OH2 5353   3.212   3.774   0.845
 1803TIP3    H1 5354   3.180   3.838   0.909
 1803TIP3    H2 5355   3.223   3.823   0.764
 1804TIP3   OH2 5356   1.324   1.201   6.443
 1804TIP3    H1 5357   1.347   1.240   6.358
 1804TIP3    H2 5358   1.356   1.264   6.508
 1805TIP3   OH2 5359   0.286   5.380   3.491
 1805TIP3    H1 5360   0.299   5.379   3.396
 1805TIP3    H2 5361   0.191   5.386   3.502
 1806TIP3   OH2 5362   1.384   4.372   1.013
 1806TIP3    H1 5363   1.369   4.384   0.919
 1806TIP3    H2 5364   1.477   4.351   1.020
 1807TIP3   OH2 5365   3.107   0.194   0.486
 1807TIP3    H1 5366   3.079   0.204   0.395
 1807TIP3    H2 5367   3.194   0.156   0.480
 1808TIP3   OH2 5368   6.777   3.167   6.747
 1808TIP3    H1 5369   6.795   3.073   6.744
 1808TIP3    H2 5370   6.857   3.208   6.714
 1809TIP3   OH2 5371   0.851   0.504   2.396
 1809TIP3    H1 5372   0.837   0.589   2.438
 1809TIP3    H2 5373   0.820   0.440   2.460
 1810TIP3   OH2 5374   0.802   3.101   1.006
 1810TIP3    H1 5375   0.720   3.128   1.048
 1810TIP3    H2 5376   0.792   3.128   0.915
 1811TIP3   OH2 5377   4.118   3.569   5.236
 1811TIP3    H1 5378   4.064   3.616   5.172
 1811TIP3    H2 5379   4.106   3.477   5.213
 1812TIP3   OH2 5380   2.258   1.281   3.652
 1812TIP3    H1 5381   2.300   1.277   3.737
 1812TIP3    H2 5382   2.186   1.342   3.663
 1813TIP3   OH2 5383   0.126   3.477   4.129
 1813TIP3    H1 5384   0.093   3.566   4.133
 1813TIP3    H2 5385   0.221   3.486   4.121
 1814TIP3   OH2 5386   6.126   6.014   5.247
 1814TIP3    H1 5387   6.152   5.938   5.194
 1814TIP3    H2 5388   6.201   6.030   5.304
 1815TIP3   OH2 5389   4.750   7.833   5.594
 1815TIP3    H1 5390   4.665   7.864   5.562
 1815TIP3    H2 5391   4.765   7.752   5.545
 1816TIP3   OH2 5392   2.510   6.826   2.065
 1816TIP3    H1 5393   2.560   6.774   2.127
 1816TIP3    H2 5394   2.522   6.782   1.981
 1817TIP3   OH2 5395   0.530   5.774   2.394
 1817TIP3    H1 5396   0.487   5.756   2.310
 1817TIP3    H2 5397   0.506   5.865   2.414
 1818TIP3   OH2 5398   0.203   5.802   6.799
 1818TIP3    H1 5399   0.267   5.775   6.733
 1818TIP3    H2 5400   0.194   5.897   6.786
 1819TIP3   OH2 5401   7.406   5.925   4.648
 1819TIP3    H1 5402   7.407   5.831   4.634
 1819TIP3    H2 5403   7.403   5.963   4.561
 1820TIP3   OH2 5404   2.897   5.688   4.913
 1820TIP3    H1 5405   2.924   5.635   4.988
 1820TIP3    H2 5406   2.873   5.625   4.845
 1821TIP3   OH2 5407   0.170   4.659   1.013
 1821TIP3    H1 5408   0.115   4.631   0.940
 1821TIP3    H2 5409   0.149   4.598   1.084
 1822TIP3   OH2 5410   6.639   6.093   5.955
 1822TIP3    H1 5411   6.594   6.172   5.987
 1822TIP3    H2 5412   6.681   6.121   5.874
 1823TIP3   OH2 5413   5.735   2.281   4.091
 1823TIP3    H1 5414   5.694   2.234   4.019
 1823TIP3    H2 5415   5.784   2.352   4.049
 1824TIP3   OH2 5416   7.917   6.960   2.334
 1824TIP3    H1 5417   7.894   7.047   2.365
 1824TIP3    H2 5418   7.993   6.974   2.277
 1825TIP3   OH2 5419   3.896   6.558   6.037
 1825TIP3    H1 5420   3.970   6.506   6.068
 1825TIP3    H2 5421   3.920   6.583   5.947
 1826TIP3   OH2 5422   1.430   2.228   1.599
 1826TIP3    H1 5423   1.419   2.164   1.529
 1826TIP3    H2 5424   1.348   2.278   1.599
 1827TIP3   OH2 5425   3.357   0.525   1.379
 1827TIP3    H1 5426   3.287   0.528   1.313
 1827TIP3    H2 5427   3.365   0.616   1.408
 1828TIP3   OH2 5428   6.756   3.801   4.952
 1828TIP3    H1 5429   6.716   3.886   4.940
 1828TIP3    H2 5430   6.809   3.788   4.873
 1829TIP3   OH2 5431   6.617   5.791   3.413
 1829TIP3    H1 5432   6.563   5.717   3.383
 1829TIP3    H2 5433   6.591   5.803   3.504
 1830TIP3   OH2 5434   2.452   1.997   5.957
 1830TIP3    H1 5435   2.471   1.940   5.882
 1830TIP3    H2 5436   2.377   1.957   6.000
 1831TIP3   OH2 5437   3.881   3.792   0.011
 1831TIP3    H1 5438   3.786   3.801   0.023
 1831TIP3    H2 5439   3.897   3.698   0.019
 1832TIP3   OH2 5440   0.116   1.938   2.672
 1832TIP3    H1 5441   0.108   1.969   2.582
 1832TIP3    H2 5442   0.032   1.897   2.691
 1833TIP3   OH2 5443   7.625   3.583   3.003
 1833TIP3    H1 5444   7.671   3.571   3.086
 1833TIP3    H2 5445   7.564   3.655   3.020
 1834TIP3   OH2 5446   1.328   3.704   2.730
 1834TIP3    H1 5447   1.389   3.650   2.781
 1834TIP3    H2 5448   1.274   3.641   2.683
 1835TIP3   OH2 5449   7.607   1.859   0.255
 1835TIP3    H1 5450   7.606   1.942   0.206
 1835TIP3    H2 5451   7.664   1.877   0.330
 1836TIP3   OH2 5452   7.035   6.612   1.904
 1836TIP3    H1 5453   7.038   6.636   1.812
 1836TIP3    H2 5454   7.027   6.517   1.904
 1837TIP3   OH2 5455   0.745   7.794   6.551
 1837TIP3    H1 5456   0.740   7.818   6.643
 1837TIP3    H2 5457   0.828   7.829   6.521
 1838TIP3   OH2 5458   3.874   6.716   2.755
 1838TIP3    H1 5459   3.817   6.668   2.695
 1838TIP3    H2 5460   3.935   6.651   2.789
 1839TIP3   OH2 5461   0.410   0.802   3.168
 1839TIP3    H1 5462   0.382   0.860   3.097
 1839TIP3    H2 5463   0.394   0.852   3.248
 1840TIP3   OH2 5464   4.144   5.845   2.750
 1840TIP3    H1 5465   4.123   5.846   2.844
 1840TIP3    H2 5466   4.176   5.934   2.732
 1841TIP3   OH2 5467   0.486   3.514   1.324
 1841TIP3    H1 5468   0.557   3.453   1.345
 1841TIP3    H2 5469   0.435   3.469   1.257
 1842TIP3   OH2 5470   1.955   6.173   4.308
 1842TIP3    H1 5471   1.914   6.227   4.376
 1842TIP3    H2 5472   1.882   6.138   4.258
 1843TIP3   OH2 5473   6.795   2.986   0.631
 1843TIP3    H1 5474   6.771   2.896   0.606
 1843TIP3    H2 5475   6.891   2.987   0.626
 1844TIP3   OH2 5476   7.271   3.857   1.723
 1844TIP3    H1 5477   7.341   3.899   1.774
 1844TIP3    H2 5478   7.304   3.769   1.705
 1845TIP3   OH2 5479   1.867   0.542   1.706
 1845TIP3    H1 5480   1.912   0.464   1.738
 1845TIP3    H2 5481   1.774   0.524   1.719
 1846TIP3   OH2 5482   6.078   3.656   5.172
 1846TIP3    H1 5483   6.126   3.614   5.243
 1846TIP3    H2 5484   5.986   3.638   5.191
 1847TIP3   OH2 5485   3.433   3.291   2.898
 1847TIP3    H1 5486   3.408   3.208   2.941
 1847TIP3    H2 5487   3.528   3.293   2.903
 1848TIP3   OH2 5488   5.844   4.479   4.700
 1848TIP3    H1 5489   5.883   4.440   4.778
 1848TIP3    H2 5490   5.911   4.538   4.666
 1849TIP3   OH2 5491   4.585   2.423   3.932
 1849TIP3    H1 5492   4.518   2.438   3.865
 1849TIP3    H2 5493   4.538   2.380   4.004
 1850TIP3   OH2 5494   6.638   6.920   5.796
 1850TIP3    H1 5495   6.675   6.977   5.729
 1850TIP3    H2 5496   6.622   6.978   5.871
 1851TIP3   OH2 5497   1.561   2.800   4.798
 1851TIP3    H1 5498   1.503   2.869   4.831
 1851TIP3    H2 5499   1.649   2.835   4.812
 1852TIP3   OH2 5500   4.324   3.973   0.277
 1852TIP3    H1 5501   4.327   3.886   0.315
 1852TIP3    H2 5502   4.230   3.990   0.263
 1853TIP3   OH2 5503   0.227   6.247   2.241
 1853TIP3    H1 5504   0.268   6.321   2.286
 1853TIP3    H2 5505   0.249   6.261   2.148
 1854TIP3   OH2 5506   0.565   5.170   2.162
 1854TIP3    H1 5507   0.606   5.141   2.244
 1854TIP3    H2 5508   0.478   5.199   2.188
 1855TIP3   OH2 5509   6.500   6.505   4.855
 1855TIP3    H1 5510   6.405   6.493   4.860
 1855TIP3    H2 5511   6.522   6.484   4.765
 1856TIP3   OH2 5512   7.875   4.256   2.716
 1856TIP3    H1 5513   7.891   4.348   2.694
 1856TIP3    H2 5514   7.938   4.207   2.664
 1857TIP3   OH2 5515   0.515   1.198   0.611
 1857TIP3    H1 5516   0.530   1.179   0.703
 1857TIP3    H2 5517   0.495   1.113   0.572
 1858TIP3   OH2 5518   4.178   2.742   5.548
 1858TIP3    H1 5519   4.174   2.836   5.568
 1858TIP3    H2 5520   4.088   2.720   5.521
 1859TIP3   OH2 5521   2.667   0.939   5.249
 1859TIP3    H1 5522   2.589   0.886   5.267
 1859TIP3    H2 5523   2.637   1.029   5.259
 1860TIP3   OH2 5524   6.388   0.191   5.428
 1860TIP3    H1 5525   6.426   0.178   5.341
 1860TIP3    H2 5526   6.294   0.202   5.413
 1861TIP3   OH2 5527   3.688   2.837   5.507
 1861TIP3    H1 5528   3.735   2.920   5.503
 1861TIP3    H2 5529   3.718   2.797   5.589
 1862TIP3   OH2 5530   2.912   5.653   6.082
 1862TIP3    H1 5531   2.901   5.569   6.037
 1862TIP3    H2 5532   2.979   5.699   6.030
 1863TIP3   OH2 5533   3.035   7.439   6.152
 1863TIP3    H1 5534   3.074   7.440   6.240
 1863TIP3    H2 5535   2.943   7.462   6.167
 1864TIP3   OH2 5536   6.416   6.134   4.628
 1864TIP3    H1 5537   6.379   6.219   4.602
 1864TIP3    H2 5538   6.394   6.075   4.556
 1865TIP3   OH2 5539   1.689   6.543   2.264
 1865TIP3    H1 5540   1.785   6.543   2.269
 1865TIP3    H2 5541   1.665   6.451   2.278
 1866TIP3   OH2 5542   1.532   6.493   1.065
 1866TIP3    H1 5543   1.557   6.585   1.060
 1866TIP3    H2 5544   1.451   6.488   1.014
 1867TIP3   OH2 5545   6.623   0.179   3.703
 1867TIP3    H1 5546   6.569   0.188   3.781
 1867TIP3    H2 5547   6.570   0.214   3.632
 1868TIP3   OH2 5548   0.469   3.407   2.550
 1868TIP3    H1 5549   0.528   3.380   2.480
 1868TIP3    H2 5550   0.440   3.325   2.591
 1869TIP3   OH2 5551   3.098   0.388   0.026
 1869TIP3    H1 5552   3.004   0.399   0.044
 1869TIP3    H2 5553   3.136   0.474   0.045
 1870TIP3   OH2 5554   6.631   1.293   2.034
 1870TIP3    H1 5555   6.599   1.366   1.981
 1870TIP3    H2 5556   6.726   1.295   2.022
 1871TIP3   OH2 5557   4.888   7.478   1.867
 1871TIP3    H1 5558   4.815   7.469   1.805
 1871TIP3    H2 5559   4.914   7.388   1.886
 1872TIP3   OH2 5560   1.146   7.371   2.579
 1872TIP3    H1 5561   1.241   7.384   2.583
 1872TIP3    H2 5562   1.136   7.276   2.576
 1873TIP3   OH2 5563   8.056   4.136   0.481
 1873TIP3    H1 5564   8.090   4.225   0.484
 1873TIP3    H2 5565   8.061   4.105   0.572
 1874TIP3   OH2 5566   6.104   0.131   0.697
 1874TIP3    H1 5567   6.191   0.117   0.733
 1874TIP3    H2 5568   6.104   0.222   0.667
 1875TIP3   OH2 5569   7.881   7.051   4.627
 1875TIP3    H1 5570   7.841   7.123   4.676
 1875TIP3    H2 5571   7.819   6.979   4.635
 1876TIP3   OH2 5572   1.574   4.371   0.244
 1876TIP3    H1 5573   1.524   4.453   0.245
 1876TIP3    H2 5574   1.655   4.394   0.197
 1877TIP3   OH2 5575   7.970   1.761   0.700
 1877TIP3    H1 5576   8.043   1.726   0.751
 1877TIP3    H2 5577   7.902   1.694   0.707
 1878TIP3   OH2 5578   7.816   1.029   2.209
 1878TIP3    H1 5579   7.899   1.013   2.164
 1878TIP3    H2 5580   7.829   0.994   2.297
 1879TIP3   OH2 5581   6.000   5.983   6.331
 1879TIP3    H1 5582   6.017   6.074   6.307
 1879TIP3    H2 5583   6.085   5.940   6.319
 1880TIP3   OH2 5584   0.037   2.662   1.003
 1880TIP3    H1 5585   0.100   2.598   1.036
 1880TIP3    H2 5586  -0.048   2.619   1.009
 1881TIP3   OH2 5587   0.203   0.743   2.562
 1881TIP3    H1 5588   0.207   0.650   2.584
 1881TIP3    H2 5589   0.292   0.767   2.538
 1882TIP3   OH2 5590   4.491   2.037   5.107
 1882TIP3    H1 5591   4.541   2.071   5.181
 1882TIP3    H2 5592   4.521   1.947   5.097
 1883TIP3   OH2 5593   2.222   7.095   0.369
 1883TIP3    H1 5594   2.226   7.008   0.408
 1883TIP3    H2 5595   2.283   7.091   0.295
 1884TIP3   OH2 5596   6.362   0.720   2.109
 1884TIP3    H1 5597   6.401   0.807   2.113
 1884TIP3    H2 5598   6.403   0.679   2.032
 1885TIP3   OH2 5599   5.362   1.634   1.404
 1885TIP3    H1 5600   5.303   1.703   1.435
 1885TIP3    H2 5601   5.346   1.630   1.310
 1886TIP3   OH2 5602   4.808   1.724   3.837
 1886TIP3    H1 5603   4.891   1.734   3.791
 1886TIP3    H2 5604   4.771   1.812   3.839
 1887TIP3   OH2 5605   4.277   3.498   2.225
 1887TIP3    H1 5606   4.325   3.416   2.214
 1887TIP3    H2 5607   4.202   3.489   2.166
 1888TIP3   OH2 5608   7.557   3.418   3.860
 1888TIP3    H1 5609   7.542   3.495   3.806
 1888TIP3    H2 5610   7.521   3.345   3.809
 1889TIP3   OH2 5611   4.224   4.751   6.438
 1889TIP3    H1 5612   4.174   4.766   6.358
 1889TIP3    H2 5613   4.158   4.728   6.504
 1890TIP3   OH2 5614   5.283   6.083   6.401
 1890TIP3    H1 5615   5.251   5.995   6.421
 1890TIP3    H2 5616   5.238   6.140   6.463
 1891TIP3   OH2 5617   4.202   5.218   3.393
 1891TIP3    H1 5618   4.148   5.295   3.376
 1891TIP3    H2 5619   4.277   5.227   3.334
 1892TIP3   OH2 5620   4.806   7.038   0.099
 1892TIP3    H1 5621   4.864   7.110   0.124
 1892TIP3    H2 5622   4.862   6.980   0.046
 1893TIP3   OH2 5623   6.280   7.562   6.779
 1893TIP3    H1 5624   6.328   7.570   6.861
 1893TIP3    H2 5625   6.302   7.475   6.746
 1894TIP3   OH2 5626   7.522   1.704   4.314
 1894TIP3    H1 5627   7.526   1.682   4.221
 1894TIP3    H2 5628   7.576   1.637   4.357
 1895TIP3   OH2 5629   6.857   3.181   5.593
 1895TIP3    H1 5630   6.882   3.266   5.558
 1895TIP3    H2 5631   6.856   3.193   5.688
 1896TIP3   OH2 5632   6.898   3.048   4.749
 1896TIP3    H1 5633   6.983   3.035   4.790
 1896TIP3    H2 5634   6.913   3.031   4.656
 1897TIP3   OH2 5635   0.421   3.635   6.270
 1897TIP3    H1 5636   0.477   3.590   6.334
 1897TIP3    H2 5637   0.394   3.566   6.209
 1898TIP3   OH2 5638   4.055   3.452   1.633
 1898TIP3    H1 5639   4.038   3.394   1.707
 1898TIP3    H2 5640   4.060   3.540   1.672
 1899TIP3   OH2 5641   6.772   3.521   5.249
 1899TIP3    H1 5642   6.770   3.444   5.192
 1899TIP3    H2 5643   6.700   3.506   5.311
 1900TIP3   OH2 5644   0.169   3.804   2.296
 1900TIP3    H1 5645   0.096   3.816   2.235
 1900TIP3    H2 5646   0.240   3.856   2.258
 1901TIP3   OH2 5647   2.601   4.808   5.167
 1901TIP3    H1 5648   2.686   4.805   5.123
 1901TIP3    H2 5649   2.537   4.801   5.097
 1902TIP3   OH2 5650   2.770   5.668   0.053
 1902TIP3    H1 5651   2.759   5.671  -0.042
 1902TIP3    H2 5652   2.853   5.621   0.066
 1903TIP3   OH2 5653   5.770   1.411   6.587
 1903TIP3    H1 5654   5.765   1.414   6.492
 1903TIP3    H2 5655   5.841   1.471   6.609
 1904TIP3   OH2 5656   2.414   7.685   2.063
 1904TIP3    H1 5657   2.458   7.689   1.977
 1904TIP3    H2 5658   2.436   7.598   2.097
 1905TIP3   OH2 5659   7.581   4.689   0.351
 1905TIP3    H1 5660   7.607   4.766   0.301
 1905TIP3    H2 5661   7.597   4.615   0.292
 1906TIP3   OH2 5662   3.591   7.586   2.226
 1906TIP3    H1 5663   3.617   7.583   2.318
 1906TIP3    H2 5664   3.521   7.521   2.219
 1907TIP3   OH2 5665   5.334   5.233   1.610
 1907TIP3    H1 5666   5.255   5.178   1.606
 1907TIP3    H2 5667   5.367   5.221   1.699
 1908TIP3   OH2 5668   2.006   1.377   5.169
 1908TIP3    H1 5669   1.938   1.421   5.221
 1908TIP3    H2 5670   1.989   1.284   5.181
 1909TIP3   OH2 5671   4.585   6.812   5.610
 1909TIP3    H1 5672   4.562   6.720   5.599
 1909TIP3    H2 5673   4.581   6.827   5.704
 1910TIP3   OH2 5674   0.997   6.327   6.193
 1910TIP3    H1 5675   1.079   6.288   6.224
 1910TIP3    H2 5676   1.012   6.421   6.197
 1911TIP3   OH2 5677   3.408   1.518   2.314
 1911TIP3    H1 5678   3.427   1.610   2.329
 1911TIP3    H2 5679   3.346   1.494   2.384
 1912TIP3   OH2 5680   3.184   0.845   4.907
 1912TIP3    H1 5681   3.266   0.798   4.923
 1912TIP3    H2 5682   3.117   0.777   4.911
 1913TIP3   OH2 5683   4.840   2.099   2.535
 1913TIP3    H1 5684   4.900   2.067   2.467
 1913TIP3    H2 5685   4.890   2.090   2.616
 1914TIP3   OH2 5686   0.414   7.643   3.570
 1914TIP3    H1 5687   0.412   7.734   3.601
 1914TIP3    H2 5688   0.501   7.633   3.532
 1915TIP3   OH2 5689   5.354   7.191   2.402
 1915TIP3    H1 5690   5.365   7.222   2.492
 1915TIP3    H2 5691   5.395   7.259   2.348
 1916TIP3   OH2 5692   6.522   7.154   1.969
 1916TIP3    H1 5693   6.487   7.069   1.942
 1916TIP3    H2 5694   6.556   7.139   2.057
 1917TIP3   OH2 5695   1.405   4.179   5.022
 1917TIP3    H1 5696   1.424   4.251   5.081
 1917TIP3    H2 5697   1.489   4.135   5.009
 1918TIP3   OH2 5698   4.427   0.622   0.070
 1918TIP3    H1 5699   4.467   0.603   0.155
 1918TIP3    H2 5700   4.455   0.551   0.013
 1919TIP3   OH2 5701   2.731   5.749   3.901
 1919TIP3    H1 5702   2.714   5.834   3.940
 1919TIP3    H2 5703   2.654   5.731   3.846
 1920TIP3   OH2 5704   6.158   1.290   2.167
 1920TIP3    H1 5705   6.137   1.378   2.199
 1920TIP3    H2 5706   6.251   1.279   2.188
 1921TIP3   OH2 5707   1.497   0.556   1.207
 1921TIP3    H1 5708   1.430   0.580   1.271
 1921TIP3    H2 5709   1.507   0.634   1.152
 1922TIP3   OH2 5710   7.259   6.952   6.320
 1922TIP3    H1 5711   7.166   6.969   6.307
 1922TIP3    H2 5712   7.265   6.858   6.335
 1923TIP3   OH2 5713   4.337   1.767   3.601
 1923TIP3    H1 5714   4.298   1.743   3.685
 1923TIP3    H2 5715   4.386   1.689   3.574
 1924TIP3   OH2 5716   4.283   6.473   5.534
 1924TIP3    H1 5717   4.303   6.505   5.622
 1924TIP3    H2 5718   4.203   6.422   5.545
 1925TIP3   OH2 5719   5.082   6.263   5.922
 1925TIP3    H1 5720   5.142   6.234   5.991
 1925TIP3    H2 5721   5.138   6.270   5.844
 1926TIP3   OH2 5722   7.732   2.130   5.363
 1926TIP3    H1 5723   7.667   2.182   5.315
 1926TIP3    H2 5724   7.816   2.170   5.340
 1927TIP3   OH2 5725   0.797   0.077   0.801
 1927TIP3    H1 5726   0.825   0.097   0.711
 1927TIP3    H2 5727   0.765  -0.012   0.797
 1928TIP3   OH2 5728   4.719   6.606   3.599
 1928TIP3    H1 5729   4.787   6.672   3.581
 1928TIP3    H2 5730   4.753   6.558   3.675
 1929TIP3   OH2 5731   6.204   6.925   6.167
 1929TIP3    H1 5732   6.149   6.993   6.128
 1929TIP3    H2 5733   6.154   6.844   6.158
 1930TIP3   OH2 5734   4.642   7.151   6.767
 1930TIP3    H1 5735   4.574   7.218   6.776
 1930TIP3    H2 5736   4.685   7.172   6.684
 1931TIP3   OH2 5737   7.019   7.391   3.110
 1931TIP3    H1 5738   7.058   7.436   3.185
 1931TIP3    H2 5739   7.089   7.386   3.046
 1932TIP3   OH2 5740   2.497   5.140   4.569
 1932TIP3    H1 5741   2.500   5.126   4.664
 1932TIP3    H2 5742   2.565   5.082   4.534
 1933TIP3   OH2 5743   1.582   5.059   6.045
 1933TIP3    H1 5744   1.494   5.024   6.053
 1933TIP3    H2 5745   1.575   5.132   5.984
 1934TIP3   OH2 5746   4.802   5.302   1.405
 1934TIP3    H1 5747   4.777   5.370   1.467
 1934TIP3    H2 5748   4.815   5.224   1.459
 1935TIP3   OH2 5749   5.041   4.837   6.048
 1935TIP3    H1 5750   5.011   4.748   6.027
 1935TIP3    H2 5751   5.012   4.890   5.973
 1936TIP3   OH2 5752   7.719   3.030   1.196
 1936TIP3    H1 5753   7.664   2.982   1.258
 1936TIP3    H2 5754   7.677   3.116   1.188
 1937TIP3   OH2 5755   0.691   4.123   3.090
 1937TIP3    H1 5756   0.643   4.189   3.039
 1937TIP3    H2 5757   0.628   4.093   3.155
 1938TIP3   OH2 5758   7.151   2.615   1.567
 1938TIP3    H1 5759   7.059   2.641   1.574
 1938TIP3    H2 5760   7.173   2.582   1.654
 1939TIP3   OH2 5761   8.254   4.905   0.725
 1939TIP3    H1 5762   8.187   4.862   0.672
 1939TIP3    H2 5763   8.250   4.861   0.810
 1940TIP3   OH2 5764   6.568   6.237   5.191
 1940TIP3    H1 5765   6.583   6.262   5.100
 1940TIP3    H2 5766   6.551   6.320   5.237
 1941TIP3   OH2 5767   3.296   4.070   6.733
 1941TIP3    H1 5768   3.354   4.052   6.807
 1941TIP3    H2 5769   3.217   4.020   6.752
 1942TIP3   OH2 5770   6.025   1.795   2.390
 1942TIP3    H1 5771   6.006   1.888   2.379
 1942TIP3    H2 5772   5.974   1.769   2.467
 1943TIP3   OH2 5773   2.654   0.713   5.473
 1943TIP3    H1 5774   2.649   0.741   5.381
 1943TIP3    H2 5775   2.748   0.700   5.489
 1944TIP3   OH2 5776   3.432   1.756   2.447
 1944TIP3    H1 5777   3.499   1.706   2.494
 1944TIP3    H2 5778   3.349   1.721   2.477
 1945TIP3   OH2 5779   2.568   2.748   4.780
 1945TIP3    H1 5780   2.528   2.680   4.726
 1945TIP3    H2 5781   2.568   2.712   4.869
 1946TIP3   OH2 5782   4.878   6.815   3.535
 1946TIP3    H1 5783   4.972   6.809   3.514
 1946TIP3    H2 5784   4.859   6.909   3.532
 1947TIP3   OH2 5785   2.399   7.201   1.407
 1947TIP3    H1 5786   2.338   7.238   1.343
 1947TIP3    H2 5787   2.424   7.275   1.462
 1948TIP3   OH2 5788   5.880   4.525   1.296
 1948TIP3    H1 5789   5.800   4.486   1.332
 1948TIP3    H2 5790   5.850   4.599   1.244
 1949TIP3   OH2 5791   4.008   0.553   2.391
 1949TIP3    H1 5792   3.940   0.487   2.373
 1949TIP3    H2 5793   3.987   0.626   2.333
 1950TIP3   OH2 5794   3.102   4.592   4.618
 1950TIP3    H1 5795   3.128   4.627   4.703
 1950TIP3    H2 5796   3.144   4.649   4.554
 1951TIP3   OH2 5797   3.831   6.823   5.548
 1951TIP3    H1 5798   3.924   6.804   5.561
 1951TIP3    H2 5799   3.829   6.889   5.479
 1952TIP3   OH2 5800   4.382   0.670   3.534
 1952TIP3    H1 5801   4.409   0.582   3.508
 1952TIP3    H2 5802   4.287   0.665   3.538
 1953TIP3   OH2 5803   4.367   7.581   6.570
 1953TIP3    H1 5804   4.278   7.576   6.604
 1953TIP3    H2 5805   4.420   7.612   6.644
 1954TIP3   OH2 5806   5.961   0.668   6.061
 1954TIP3    H1 5807   5.922   0.584   6.037
 1954TIP3    H2 5808   5.948   0.673   6.156
 1955TIP3   OH2 5809   3.618   1.461   5.684
 1955TIP3    H1 5810   3.619   1.492   5.774
 1955TIP3    H2 5811   3.562   1.383   5.686
 1956TIP3   OH2 5812   7.803   3.902   0.676
 1956TIP3    H1 5813   7.730   3.901   0.738
 1956TIP3    H2 5814   7.796   3.987   0.633
 1957TIP3   OH2 5815   5.009   2.845   5.188
 1957TIP3    H1 5816   5.015   2.752   5.170
 1957TIP3    H2 5817   5.077   2.885   5.133
 1958TIP3   OH2 5818   7.843   2.370   3.713
 1958TIP3    H1 5819   7.849   2.343   3.804
 1958TIP3    H2 5820   7.932   2.360   3.679
 1959TIP3   OH2 5821   4.303   3.225   1.917
 1959TIP3    H1 5822   4.335   3.174   1.843
 1959TIP3    H2 5823   4.370   3.293   1.930
 1960TIP3   OH2 5824   6.375   4.107   0.935
 1960TIP3    H1 5825   6.315   4.065   0.996
 1960TIP3    H2 5826   6.321   4.129   0.859
 1961TIP3   OH2 5827   5.789   1.757   2.800
 1961TIP3    H1 5828   5.786   1.759   2.896
 1961TIP3    H2 5829   5.759   1.844   2.773
 1962TIP3   OH2 5830   1.722   7.046   6.181
 1962TIP3    H1 5831   1.652   7.075   6.123
 1962TIP3    H2 5832   1.791   7.016   6.123
 1963TIP3   OH2 5833   2.906   6.618   5.892
 1963TIP3    H1 5834   2.887   6.620   5.986
 1963TIP3    H2 5835   2.826   6.650   5.851
 1964TIP3   OH2 5836   2.686   4.274   6.483
 1964TIP3    H1 5837   2.675   4.306   6.393
 1964TIP3    H2 5838   2.713   4.352   6.532
 1965TIP3   OH2 5839   0.325   0.683   1.767
 1965TIP3    H1 5840   0.350   0.772   1.792
 1965TIP3    H2 5841   0.249   0.663   1.823
 1966TIP3   OH2 5842   7.444   5.611   1.517
 1966TIP3    H1 5843   7.449   5.578   1.606
 1966TIP3    H2 5844   7.415   5.702   1.527
 1967TIP3   OH2 5845   0.552   1.750   4.067
 1967TIP3    H1 5846   0.465   1.778   4.038
 1967TIP3    H2 5847   0.597   1.724   3.987
 1968TIP3   OH2 5848   5.097   0.548   0.596
 1968TIP3    H1 5849   5.012   0.544   0.552
 1968TIP3    H2 5850   5.083   0.503   0.679
 1969TIP3   OH2 5851   0.160   4.143   2.753
 1969TIP3    H1 5852   0.072   4.123   2.721
 1969TIP3    H2 5853   0.171   4.236   2.733
 1970TIP3   OH2 5854   7.655   1.932   2.975
 1970TIP3    H1 5855   7.591   1.994   3.010
 1970TIP3    H2 5856   7.688   1.885   3.051
 1971TIP3   OH2 5857   2.813   1.516   4.355
 1971TIP3    H1 5858   2.725   1.488   4.328
 1971TIP3    H2 5859   2.872   1.456   4.309
 1972TIP3   OH2 5860   4.516   3.487   1.294
 1972TIP3    H1 5861   4.453   3.451   1.231
 1972TIP3    H2 5862   4.467   3.492   1.376
 1973TIP3   OH2 5863   5.403   6.283   3.553
 1973TIP3    H1 5864   5.438   6.274   3.464
 1973TIP3    H2 5865   5.350   6.204   3.565
 1974TIP3   OH2 5866   3.955   1.015   6.110
 1974TIP3    H1 5867   4.013   0.964   6.166
 1974TIP3    H2 5868   3.875   1.025   6.161
 1975TIP3   OH2 5869   0.428   4.429   4.860
 1975TIP3    H1 5870   0.471   4.397   4.939
 1975TIP3    H2 5871   0.379   4.507   4.888
 1976TIP3   OH2 5872   7.158   3.058   4.880
 1976TIP3    H1 5873   7.148   3.089   4.970
 1976TIP3    H2 5874   7.159   3.138   4.827
 1977TIP3   OH2 5875   3.543   3.176   4.120
 1977TIP3    H1 5876   3.532   3.132   4.036
 1977TIP3    H2 5877   3.633   3.210   4.118
 1978TIP3   OH2 5878   0.577   1.704   1.144
 1978TIP3    H1 5879   0.551   1.774   1.204
 1978TIP3    H2 5880   0.509   1.705   1.077
 1979TIP3   OH2 5881   1.523   1.972   5.886
 1979TIP3    H1 5882   1.512   1.882   5.855
 1979TIP3    H2 5883   1.475   1.974   5.969
 1980TIP3   OH2 5884   1.848   4.846   4.497
 1980TIP3    H1 5885   1.824   4.787   4.569
 1980TIP3    H2 5886   1.792   4.818   4.424
 1981TIP3   OH2 5887   3.289   1.419   5.555
 1981TIP3    H1 5888   3.216   1.362   5.578
 1981TIP3    H2 5889   3.366   1.362   5.556
 1982TIP3   OH2 5890   3.416   6.471   1.610
 1982TIP3    H1 5891   3.368   6.389   1.596
 1982TIP3    H2 5892   3.473   6.453   1.684
 1983TIP3   OH2 5893   1.622   5.400   1.472
 1983TIP3    H1 5894   1.630   5.455   1.394
 1983TIP3    H2 5895   1.544   5.347   1.457
 1984TIP3   OH2 5896   5.910   1.876   4.105
 1984TIP3    H1 5897   5.891   1.961   4.144
 1984TIP3    H2 5898   5.903   1.890   4.011
 1985TIP3   OH2 5899   6.025   0.031   1.445
 1985TIP3    H1 5900   6.020   0.012   1.539
 1985TIP3    H2 5901   6.112   0.068   1.433
 1986TIP3   OH2 5902   5.977   7.198   4.451
 1986TIP3    H1 5903   6.026   7.177   4.372
 1986TIP3    H2 5904   6.035   7.255   4.501
 1987TIP3   OH2 5905   1.822   7.233   2.226
 1987TIP3    H1 5906   1.801   7.320   2.191
 1987TIP3    H2 5907   1.917   7.227   2.218
 1988TIP3   OH2 5908   1.701   7.076   4.686
 1988TIP3    H1 5909   1.786   7.067   4.730
 1988TIP3    H2 5910   1.644   7.112   4.754
 1989TIP3   OH2 5911   0.157   1.987   5.367
 1989TIP3    H1 5912   0.139   2.071   5.326
 1989TIP3    H2 5913   0.152   2.004   5.461
 1990TIP3   OH2 5914   7.637   7.562   0.503
 1990TIP3    H1 5915   7.683   7.594   0.426
 1990TIP3    H2 5916   7.602   7.641   0.544
 1991TIP3   OH2 5917   5.833   0.285   6.253
 1991TIP3    H1 5918   5.859   0.210   6.201
 1991TIP3    H2 5919   5.746   0.262   6.287
 1992TIP3   OH2 5920   3.457   6.598   2.334
 1992TIP3    H1 5921   3.364   6.617   2.340
 1992TIP3    H2 5922   3.472   6.529   2.399
 1993TIP3   OH2 5923   8.291   4.224   1.461
 1993TIP3    H1 5924   8.347   4.179   1.525
 1993TIP3    H2 5925   8.279   4.312   1.498
 1994TIP3   OH2 5926   8.115   1.075   6.384
 1994TIP3    H1 5927   8.051   1.063   6.313
 1994TIP3    H2 5928   8.138   1.167   6.380
 1995TIP3   OH2 5929   5.071   3.748   1.021
 1995TIP3    H1 5930   5.020   3.670   1.042
 1995TIP3    H2 5931   5.023   3.820   1.063
 1996TIP3   OH2 5932   5.542   5.292   2.133
 1996TIP3    H1 5933   5.583   5.293   2.220
 1996TIP3    H2 5934   5.448   5.287   2.151
 1997TIP3   OH2 5935   2.183   5.137   0.184
 1997TIP3    H1 5936   2.213   5.046   0.185
 1997TIP3    H2 5937   2.262   5.189   0.202
 1998TIP3   OH2 5938   3.705   7.475   6.594
 1998TIP3    H1 5939   3.779   7.448   6.648
 1998TIP3    H2 5940   3.660   7.541   6.647
 1999TIP3   OH2 5941   5.511   4.623   2.690
 1999TIP3    H1 5942   5.589   4.570   2.705
 1999TIP3    H2 5943   5.460   4.574   2.626
 2000TIP3   OH2 5944   7.187   7.525   1.580
 2000TIP3    H1 5945   7.167   7.494   1.492
 2000TIP3    H2 5946   7.189   7.445   1.633
 2001TIP3   OH2 5947   8.064   0.256   2.860
 2001TIP3    H1 5948   8.077   0.337   2.908
 2001TIP3    H2 5949   7.970   0.239   2.866
 2002TIP3   OH2 5950   2.897   3.827   0.508
 2002TIP3    H1 5951   2.880   3.751   0.452
 2002TIP3    H2 5952   2.916   3.898   0.447
 2003TIP3   OH2 5953   4.306   6.898   5.494
 2003TIP3    H1 5954   4.393   6.884   5.530
 2003TIP3    H2 5955   4.305   6.847   5.413
 2004TIP3   OH2 5956   6.776   5.001   1.129
 2004TIP3    H1 5957   6.712   5.028   1.194
 2004TIP3    H2 5958   6.861   5.011   1.173
 2005TIP3   OH2 5959   3.134   2.770   0.346
 2005TIP3    H1 5960   3.210   2.777   0.404
 2005TIP3    H2 5961   3.117   2.859   0.318
 2006TIP3   OH2 5962   2.854   3.869   2.144
 2006TIP3    H1 5963   2.818   3.843   2.059
 2006TIP3    H2 5964   2.809   3.812   2.207
 2007TIP3   OH2 5965   7.821   4.257   5.364
 2007TIP3    H1 5966   7.896   4.316   5.375
 2007TIP3    H2 5967   7.745   4.313   5.380
 2008TIP3   OH2 5968   6.497   4.045   6.153
 2008TIP3    H1 5969   6.456   4.120   6.195
 2008TIP3    H2 5970   6.435   3.973   6.166
 2009TIP3   OH2 5971   5.487   1.002   1.217
 2009TIP3    H1 5972   5.578   0.978   1.204
 2009TIP3    H2 5973   5.490   1.088   1.258
 2010TIP3   OH2 5974   6.456   5.908   0.600
 2010TIP3    H1 5975   6.490   5.981   0.651
 2010TIP3    H2 5976   6.418   5.948   0.522
 2011TIP3   OH2 5977   1.210   5.064   5.913
 2011TIP3    H1 5978   1.216   5.099   5.824
 2011TIP3    H2 5979   1.199   4.970   5.902
 2012TIP3   OH2 5980   6.213   3.348   3.486
 2012TIP3    H1 5981   6.290   3.406   3.491
 2012TIP3    H2 5982   6.248   3.261   3.504
 2013TIP3   OH2 5983   6.120   5.897   5.641
 2013TIP3    H1 5984   6.075   5.843   5.705
 2013TIP3    H2 5985   6.197   5.846   5.616
 2014TIP3   OH2 5986   4.496   1.137   5.262
 2014TIP3    H1 5987   4.459   1.078   5.328
 2014TIP3    H2 5988   4.566   1.086   5.221
 2015TIP3   OH2 5989   6.573   0.773   4.635
 2015TIP3    H1 5990   6.591   0.693   4.584
 2015TIP3    H2 5991   6.539   0.741   4.718
 2016TIP3   OH2 5992   2.627   5.600   0.974
 2016TIP3    H1 5993   2.635   5.694   0.990
 2016TIP3    H2 5994   2.690   5.560   1.034
 2017TIP3   OH2 5995   6.906   7.405   1.153
 2017TIP3    H1 5996   6.835   7.435   1.210
 2017TIP3    H2 5997   6.878   7.429   1.065
 2018TIP3   OH2 5998   5.353   5.839   2.079
 2018TIP3    H1 5999   5.318   5.767   2.026
 2018TIP3    H2 6000   5.424   5.800   2.129
 2019TIP3   OH2 6001   3.028   6.231   2.418
 2019TIP3    H1 6002   3.016   6.286   2.495
 2019TIP3    H2 6003   3.004   6.143   2.448
 2020TIP3   OH2 6004   0.799   5.931   3.893
 2020TIP3    H1 6005   0.834   5.845   3.918
 2020TIP3    H2 6006   0.810   5.934   3.797
 2021TIP3   OH2 6007   5.014   0.169   1.778
 2021TIP3    H1 6008   5.104   0.156   1.807
 2021TIP3    H2 6009   5.022   0.222   1.698
 2022TIP3   OH2 6010   6.688   5.214   3.420
 2022TIP3    H1 6011   6.748   5.161   3.473
 2022TIP3    H2 6012   6.692   5.302   3.459
 2023TIP3   OH2 6013   2.537   0.082   1.028
 2023TIP3    H1 6014   2.488   0.087   0.945
 2023TIP3    H2 6015   2.485   0.135   1.089
 2024TIP3   OH2 6016   4.532   1.565   4.181
 2024TIP3    H1 6017   4.575   1.576   4.096
 2024TIP3    H2 6018   4.587   1.612   4.243
 2025TIP3   OH2 6019   7.723   2.631   0.017
 2025TIP3    H1 6020   7.817   2.649   0.020
 2025TIP3    H2 6021   7.698   2.646  -0.075
 2026TIP3   OH2 6022   1.065   4.696   4.441
 2026TIP3    H1 6023   1.037   4.608   4.417
 2026TIP3    H2 6024   0.999   4.753   4.404
 2027TIP3   OH2 6025   7.773   0.599   3.786
 2027TIP3    H1 6026   7.855   0.584   3.738
 2027TIP3    H2 6027   7.800   0.610   3.877
 2028TIP3   OH2 6028   7.859   7.257   0.444
 2028TIP3    H1 6029   7.889   7.243   0.534
 2028TIP3    H2 6030   7.859   7.352   0.433
 2029TIP3   OH2 6031   0.137   7.461   1.548
 2029TIP3    H1 6032   0.116   7.553   1.532
 2029TIP3    H2 6033   0.085   7.413   1.483
 2030TIP3   OH2 6034   6.943   2.363   2.568
 2030TIP3    H1 6035   6.886   2.439   2.584
 2030TIP3    H2 6036   7.015   2.373   2.630
 2031TIP3   OH2 6037   1.363   6.501   4.390
 2031TIP3    H1 6038   1.399   6.422   4.350
 2031TIP3    H2 6039   1.385   6.571   4.328
 2032TIP3   OH2 6040   4.073   7.054   3.722
 2032TIP3    H1 6041   3.979   7.040   3.717
 2032TIP3    H2 6042   4.095   7.101   3.642
 2033TIP3   OH2 6043   2.124   2.116   5.356
 2033TIP3    H1 6044   2.204   2.152   5.393
 2033TIP3    H2 6045   2.059   2.125   5.427
 2034TIP3   OH2 6046   8.139   5.516   2.025
 2034TIP3    H1 6047   8.100   5.478   1.946
 2034TIP3    H2 6048   8.118   5.609   2.021
 2035TIP3   OH2 6049   7.399   3.651   3.739
 2035TIP3    H1 6050   7.437   3.703   3.810
 2035TIP3    H2 6051   7.305   3.670   3.744
 2036TIP3   OH2 6052   5.169   4.135   5.295
 2036TIP3    H1 6053   5.246   4.160   5.346
 2036TIP3    H2 6054   5.205   4.105   5.211
 2037TIP3   OH2 6055   4.631   6.869   2.038
 2037TIP3    H1 6056   4.722   6.849   2.013
 2037TIP3    H2 6057   4.620   6.829   2.124
 2038TIP3   OH2 6058   3.293   3.414   2.003
 2038TIP3    H1 6059   3.360   3.402   2.070
 2038TIP3    H2 6060   3.227   3.348   2.023
 2039TIP3   OH2 6061   4.750   0.446   2.394
 2039TIP3    H1 6062   4.707   0.360   2.401
 2039TIP3    H2 6063   4.755   0.463   2.300
 2040TIP3   OH2 6064   5.511   3.540   3.928
 2040TIP3    H1 6065   5.440   3.496   3.976
 2040TIP3    H2 6066   5.591   3.511   3.971
 2041TIP3   OH2 6067   4.221   0.039   6.796
 2041TIP3    H1 6068   4.267   0.079   6.723
 2041TIP3    H2 6069   4.147  -0.007   6.755
 2042TIP3   OH2 6070   3.481   2.278   0.855
 2042TIP3    H1 6071   3.504   2.261   0.764
 2042TIP3    H2 6072   3.519   2.364   0.874
 2043TIP3   OH2 6073   2.896   2.984   4.963
 2043TIP3    H1 6074   2.971   2.969   4.906
 2043TIP3    H2 6075   2.920   3.061   5.015
 2044TIP3   OH2 6076   5.590   3.382   2.594
 2044TIP3    H1 6077   5.632   3.426   2.520
 2044TIP3    H2 6078   5.632   3.296   2.597
 2045TIP3   OH2 6079   0.041   4.308   0.194
 2045TIP3    H1 6080  -0.021   4.327   0.264
 2045TIP3    H2 6081   0.070   4.394   0.164
 2046TIP3   OH2 6082   7.109   0.364   0.351
 2046TIP3    H1 6083   7.030   0.378   0.299
 2046TIP3    H2 6084   7.176   0.338   0.287
 2047TIP3   OH2 6085   5.763   4.237   4.302
 2047TIP3    H1 6086   5.829   4.196   4.246
 2047TIP3    H2 6087   5.698   4.168   4.317
 2048TIP3   OH2 6088   1.762   6.918   5.264
 2048TIP3    H1 6089   1.846   6.921   5.310
 2048TIP3    H2 6090   1.697   6.940   5.331
 2049TIP3   OH2 6091   3.442   3.628   6.066
 2049TIP3    H1 6092   3.448   3.594   6.156
 2049TIP3    H2 6093   3.509   3.581   6.018
 2050TIP3   OH2 6094   7.627   0.829   1.096
 2050TIP3    H1 6095   7.619   0.760   1.162
 2050TIP3    H2 6096   7.720   0.853   1.098
 2051TIP3   OH2 6097   3.170   7.786   4.366
 2051TIP3    H1 6098   3.138   7.802   4.455
 2051TIP3    H2 6099   3.240   7.723   4.377
 2052TIP3   OH2 6100   7.095   6.113   5.330
 2052TIP3    H1 6101   7.067   6.183   5.271
 2052TIP3    H2 6102   7.144   6.157   5.399
 2053TIP3   OH2 6103   1.197   7.461   5.765
 2053TIP3    H1 6104   1.199   7.556   5.752
 2053TIP3    H2 6105   1.276   7.430   5.721
 2054TIP3   OH2 6106   6.020   2.626   4.520
 2054TIP3    H1 6107   6.039   2.624   4.427
 2054TIP3    H2 6108   5.987   2.715   4.536
 2055TIP3   OH2 6109   4.871   2.345   0.532
 2055TIP3    H1 6110   4.889   2.438   0.520
 2055TIP3    H2 6111   4.808   2.341   0.604
 2056TIP3   OH2 6112   7.940   0.071   3.202
 2056TIP3    H1 6113   8.004   0.130   3.241
 2056TIP3    H2 6114   7.864   0.076   3.260
 2057TIP3   OH2 6115   2.920   5.548   3.847
 2057TIP3    H1 6116   2.865   5.625   3.855
 2057TIP3    H2 6117   2.963   5.540   3.933
 2058TIP3   OH2 6118   8.022   6.066   2.600
 2058TIP3    H1 6119   8.021   6.131   2.529
 2058TIP3    H2 6120   7.952   6.094   2.659
 2059TIP3   OH2 6121   0.673   4.718   6.349
 2059TIP3    H1 6122   0.649   4.626   6.362
 2059TIP3    H2 6123   0.726   4.740   6.425
 2060TIP3   OH2 6124   5.232   7.114   4.570
 2060TIP3    H1 6125   5.280   7.094   4.650
 2060TIP3    H2 6126   5.147   7.146   4.600
 2061TIP3   OH2 6127   0.087   1.385   3.990
 2061TIP3    H1 6128   0.066   1.469   3.949
 2061TIP3    H2 6129   0.045   1.388   4.076
 2062TIP3   OH2 6130   1.018   2.125   4.192
 2062TIP3    H1 6131   1.079   2.051   4.201
 2062TIP3    H2 6132   1.006   2.156   4.282
 2063TIP3   OH2 6133   0.617   2.928   2.990
 2063TIP3    H1 6134   0.567   3.009   2.978
 2063TIP3    H2 6135   0.705   2.958   3.012
 2064TIP3   OH2 6136   2.855   2.859   0.879
 2064TIP3    H1 6137   2.792   2.909   0.931
 2064TIP3    H2 6138   2.934   2.856   0.934
 2065TIP3   OH2 6139   2.637   1.757   0.335
 2065TIP3    H1 6140   2.662   1.668   0.309
 2065TIP3    H2 6141   2.622   1.803   0.253
 2066TIP3   OH2 6142   3.782   3.510   4.945
 2066TIP3    H1 6143   3.771   3.415   4.934
 2066TIP3    H2 6144   3.741   3.548   4.867
 2067TIP3   OH2 6145   4.245   1.462   6.363
 2067TIP3    H1 6146   4.264   1.537   6.307
 2067TIP3    H2 6147   4.169   1.420   6.322
 2068TIP3   OH2 6148   7.130   2.544   5.805
 2068TIP3    H1 6149   7.150   2.453   5.784
 2068TIP3    H2 6150   7.142   2.550   5.899
 2069TIP3   OH2 6151   2.597   3.053   6.276
 2069TIP3    H1 6152   2.584   3.127   6.217
 2069TIP3    H2 6153   2.540   2.984   6.242
 2070TIP3   OH2 6154   2.410   0.227   6.257
 2070TIP3    H1 6155   2.454   0.146   6.283
 2070TIP3    H2 6156   2.471   0.268   6.195
 2071TIP3   OH2 6157   1.168   4.174   1.572
 2071TIP3    H1 6158   1.152   4.149   1.663
 2071TIP3    H2 6159   1.261   4.157   1.558
 2072TIP3   OH2 6160   3.580   1.549   1.846
 2072TIP3    H1 6161   3.641   1.531   1.917
 2072TIP3    H2 6162   3.627   1.525   1.766
 2073TIP3   OH2 6163   5.140   4.719   4.955
 2073TIP3    H1 6164   5.204   4.662   4.912
 2073TIP3    H2 6165   5.061   4.712   4.900
 2074TIP3   OH2 6166   3.088   4.593   2.862
 2074TIP3    H1 6167   3.050   4.505   2.863
 2074TIP3    H2 6168   3.169   4.584   2.812
 2075TIP3   OH2 6169   0.696   5.898   5.778
 2075TIP3    H1 6170   0.663   5.979   5.816
 2075TIP3    H2 6171   0.788   5.896   5.801
 2076TIP3   OH2 6172   1.861   2.722   1.057
 2076TIP3    H1 6173   1.833   2.682   1.140
 2076TIP3    H2 6174   1.794   2.788   1.038
 2077TIP3   OH2 6175   3.792   7.292   3.612
 2077TIP3    H1 6176   3.795   7.204   3.650
 2077TIP3    H2 6177   3.769   7.278   3.520
 2078TIP3   OH2 6178   2.681   5.966   6.687
 2078TIP3    H1 6179   2.702   5.873   6.677
 2078TIP3    H2 6180   2.607   5.981   6.628
 2079TIP3   OH2 6181   6.002   5.253   1.322
 2079TIP3    H1 6182   5.993   5.281   1.413
 2079TIP3    H2 6183   6.006   5.334   1.272
 2080TIP3   OH2 6184   6.719   3.215   3.974
 2080TIP3    H1 6185   6.637   3.194   4.019
 2080TIP3    H2 6186   6.700   3.295   3.926
 2081TIP3   OH2 6187   5.908   3.464   4.901
 2081TIP3    H1 6188   5.813   3.461   4.910
 2081TIP3    H2 6189   5.940   3.401   4.965
 2082TIP3   OH2 6190   7.882   3.225   2.221
 2082TIP3    H1 6191   7.923   3.142   2.242
 2082TIP3    H2 6192   7.933   3.290   2.270
 2083TIP3   OH2 6193   1.626   0.850   5.893
 2083TIP3    H1 6194   1.687   0.790   5.851
 2083TIP3    H2 6195   1.553   0.795   5.921
 2084TIP3   OH2 6196   2.615   0.747   5.752
 2084TIP3    H1 6197   2.621   0.704   5.667
 2084TIP3    H2 6198   2.664   0.829   5.741
 2085TIP3   OH2 6199   1.778   4.040   4.117
 2085TIP3    H1 6200   1.737   4.096   4.050
 2085TIP3    H2 6201   1.863   4.082   4.133
 2086TIP3   OH2 6202   5.438   3.786   1.763
 2086TIP3    H1 6203   5.403   3.871   1.736
 2086TIP3    H2 6204   5.404   3.773   1.852
 2087TIP3   OH2 6205   6.982   4.784   0.090
 2087TIP3    H1 6206   6.902   4.733   0.107
 2087TIP3    H2 6207   6.965   4.869   0.131
 2088TIP3   OH2 6208   2.181   1.723   0.856
 2088TIP3    H1 6209   2.251   1.748   0.915
 2088TIP3    H2 6210   2.223   1.669   0.789
 2089TIP3   OH2 6211   0.028   5.154   0.779
 2089TIP3    H1 6212   0.009   5.065   0.751
 2089TIP3    H2 6213   0.085   5.189   0.711
 2090TIP3   OH2 6214   4.103   4.142   5.940
 2090TIP3    H1 6215   4.115   4.237   5.938
 2090TIP3    H2 6216   4.149   4.110   5.862
 2091TIP3   OH2 6217   5.205   6.527   3.539
 2091TIP3    H1 6218   5.137   6.565   3.595
 2091TIP3    H2 6219   5.209   6.435   3.565
 2092TIP3   OH2 6220   4.295   6.129   3.706
 2092TIP3    H1 6221   4.290   6.053   3.764
 2092TIP3    H2 6222   4.205   6.159   3.697
 2093TIP3   OH2 6223   6.096   7.576   5.652
 2093TIP3    H1 6224   6.155   7.649   5.670
 2093TIP3    H2 6225   6.063   7.593   5.564
 2094TIP3   OH2 6226   3.465   4.198   5.677
 2094TIP3    H1 6227   3.372   4.203   5.702
 2094TIP3    H2 6228   3.474   4.111   5.639
 2095TIP3   OH2 6229   2.263   2.374   3.796
 2095TIP3    H1 6230   2.256   2.466   3.769
 2095TIP3    H2 6231   2.185   2.359   3.849
 2096TIP3   OH2 6232   1.026   5.094   4.425
 2096TIP3    H1 6233   1.006   5.179   4.386
 2096TIP3    H2 6234   0.967   5.033   4.380
 2097TIP3   OH2 6235   6.533   6.659   5.654
 2097TIP3    H1 6236   6.457   6.688   5.603
 2097TIP3    H2 6237   6.570   6.741   5.688
 2098TIP3   OH2 6238   1.270   5.534   5.562
 2098TIP3    H1 6239   1.330   5.608   5.556
 2098TIP3    H2 6240   1.198   5.566   5.616
 2099TIP3   OH2 6241   1.676   4.904   4.789
 2099TIP3    H1 6242   1.746   4.965   4.764
 2099TIP3    H2 6243   1.617   4.957   4.843
 2100TIP3   OH2 6244   6.497   5.181   5.574
 2100TIP3    H1 6245   6.528   5.259   5.528
 2100TIP3    H2 6246   6.443   5.135   5.510
 2101TIP3   OH2 6247   5.112   0.172   5.539
 2101TIP3    H1 6248   5.161   0.100   5.498
 2101TIP3    H2 6249   5.088   0.229   5.466
 2102TIP3   OH2 6250   6.069   6.949   5.331
 2102TIP3    H1 6251   6.026   6.864   5.327
 2102TIP3    H2 6252   6.034   6.990   5.411
 2103TIP3   OH2 6253   5.017   2.876   0.649
 2103TIP3    H1 6254   5.009   2.922   0.733
 2103TIP3    H2 6255   4.927   2.868   0.617
 2104TIP3   OH2 6256   6.125   3.466   1.430
 2104TIP3    H1 6257   6.126   3.486   1.524
 2104TIP3    H2 6258   6.086   3.379   1.425
 2105TIP3   OH2 6259   3.923   3.708   0.353
 2105TIP3    H1 6260   3.961   3.712   0.441
 2105TIP3    H2 6261   3.999   3.702   0.295
 2106TIP3   OH2 6262   3.396   4.416   3.043
 2106TIP3    H1 6263   3.359   4.401   2.956
 2106TIP3    H2 6264   3.491   4.416   3.028
 2107TIP3   OH2 6265   3.732   0.935   2.572
 2107TIP3    H1 6266   3.708   0.863   2.515
 2107TIP3    H2 6267   3.658   0.944   2.632
 2108TIP3   OH2 6268   1.042   5.180   2.146
 2108TIP3    H1 6269   0.973   5.159   2.083
 2108TIP3    H2 6270   1.009   5.257   2.193
 2109TIP3   OH2 6271   4.092   3.491   2.046
 2109TIP3    H1 6272   4.030   3.419   2.033
 2109TIP3    H2 6273   4.041   3.557   2.094
 2110TIP3   OH2 6274   2.775   4.739   4.091
 2110TIP3    H1 6275   2.699   4.717   4.036
 2110TIP3    H2 6276   2.840   4.771   4.029
 2111TIP3   OH2 6277   5.908   3.721   3.749
 2111TIP3    H1 6278   5.857   3.641   3.760
 2111TIP3    H2 6279   5.915   3.733   3.655
 2112TIP3   OH2 6280   3.080   4.353   4.496
 2112TIP3    H1 6281   3.079   4.282   4.560
 2112TIP3    H2 6282   3.114   4.429   4.545
 2113TIP3   OH2 6283   7.952   3.966   5.990
 2113TIP3    H1 6284   7.913   3.996   5.909
 2113TIP3    H2 6285   7.982   4.046   6.034
 2114TIP3   OH2 6286   4.872   2.468   0.084
 2114TIP3    H1 6287   4.907   2.387   0.123
 2114TIP3    H2 6288   4.902   2.537   0.143
 2115TIP3   OH2 6289   3.210   4.141   6.484
 2115TIP3    H1 6290   3.219   4.151   6.579
 2115TIP3    H2 6291   3.148   4.209   6.459
 2116TIP3   OH2 6292   7.810   6.252   3.271
 2116TIP3    H1 6293   7.868   6.301   3.213
 2116TIP3    H2 6294   7.723   6.264   3.233
 2117TIP3   OH2 6295   2.423   2.962   0.746
 2117TIP3    H1 6296   2.476   2.926   0.675
 2117TIP3    H2 6297   2.423   3.057   0.730
 2118TIP3   OH2 6298   0.081   1.284   4.677
 2118TIP3    H1 6299   0.022   1.280   4.601
 2118TIP3    H2 6300   0.155   1.336   4.647
 2119TIP3   OH2 6301   3.820   5.077   0.668
 2119TIP3    H1 6302   3.889   5.042   0.725
 2119TIP3    H2 6303   3.823   5.021   0.590
 2120TIP3   OH2 6304   6.018   5.817   3.345
 2120TIP3    H1 6305   6.086   5.826   3.412
 2120TIP3    H2 6306   5.936   5.824   3.394
 2121TIP3   OH2 6307   6.665   5.763   4.137
 2121TIP3    H1 6308   6.677   5.720   4.222
 2121TIP3    H2 6309   6.580   5.733   4.106
 2122TIP3   OH2 6310   6.267   3.206   6.323
 2122TIP3    H1 6311   6.193   3.166   6.369
 2122TIP3    H2 6312   6.298   3.275   6.381
 2123TIP3   OH2 6313   4.268   5.237   5.148
 2123TIP3    H1 6314   4.342   5.192   5.107
 2123TIP3    H2 6315   4.225   5.282   5.076
 2124TIP3   OH2 6316   5.402   5.693   6.436
 2124TIP3    H1 6317   5.458   5.726   6.365
 2124TIP3    H2 6318   5.318   5.737   6.423
 2125TIP3   OH2 6319   6.396   7.301   0.641
 2125TIP3    H1 6320   6.437   7.249   0.710
 2125TIP3    H2 6321   6.305   7.312   0.670
 2126TIP3   OH2 6322   5.743   6.279   4.622
 2126TIP3    H1 6323   5.838   6.280   4.632
 2126TIP3    H2 6324   5.712   6.229   4.698
 2127TIP3   OH2 6325   7.914   4.376   4.981
 2127TIP3    H1 6326   7.972   4.332   5.042
 2127TIP3    H2 6327   7.972   4.409   4.912
 2128TIP3   OH2 6328   3.708   2.827   5.807
 2128TIP3    H1 6329   3.656   2.907   5.816
 2128TIP3    H2 6330   3.791   2.847   5.849
 2129TIP3   OH2 6331   5.836   2.050   0.254
 2129TIP3    H1 6332   5.866   1.960   0.267
 2129TIP3    H2 6333   5.774   2.045   0.181
 2130TIP3   OH2 6334   5.930   7.868   2.574
 2130TIP3    H1 6335   5.996   7.817   2.621
 2130TIP3    H2 6336   5.970   7.886   2.489
 2131TIP3   OH2 6337   3.955   3.761   3.036
 2131TIP3    H1 6338   3.904   3.828   2.990
 2131TIP3    H2 6339   3.973   3.799   3.122
 2132TIP3   OH2 6340   5.668   5.723   4.439
 2132TIP3    H1 6341   5.585   5.722   4.392
 2132TIP3    H2 6342   5.668   5.643   4.491
 2133TIP3   OH2 6343   3.648   7.135   1.303
 2133TIP3    H1 6344   3.639   7.187   1.383
 2133TIP3    H2 6345   3.708   7.185   1.248
 2134TIP3   OH2 6346   5.189   4.461   1.468
 2134TIP3    H1 6347   5.186   4.497   1.557
 2134TIP3    H2 6348   5.232   4.529   1.417
 2135TIP3   OH2 6349   8.201   3.943   2.356
 2135TIP3    H1 6350   8.139   4.007   2.322
 2135TIP3    H2 6351   8.280   3.994   2.374
 2136TIP3   OH2 6352   1.086   4.418   1.076
 2136TIP3    H1 6353   1.064   4.336   1.121
 2136TIP3    H2 6354   1.178   4.432   1.096
 2137TIP3   OH2 6355   5.479   0.854   2.834
 2137TIP3    H1 6356   5.498   0.821   2.746
 2137TIP3    H2 6357   5.388   0.829   2.850
 2138TIP3   OH2 6358   1.140   2.583   3.944
 2138TIP3    H1 6359   1.045   2.589   3.935
 2138TIP3    H2 6360   1.153   2.515   4.010
 2139TIP3   OH2 6361   4.456   7.084   0.782
 2139TIP3    H1 6362   4.419   7.082   0.694
 2139TIP3    H2 6363   4.538   7.132   0.773
 2140TIP3   OH2 6364   3.748   3.882   0.587
 2140TIP3    H1 6365   3.795   3.922   0.515
 2140TIP3    H2 6366   3.671   3.842   0.547
 2141TIP3   OH2 6367   3.215   0.519   1.789
 2141TIP3    H1 6368   3.230   0.472   1.707
 2141TIP3    H2 6369   3.149   0.466   1.835
 2142TIP3   OH2 6370   6.406   4.605   1.731
 2142TIP3    H1 6371   6.341   4.646   1.788
 2142TIP3    H2 6372   6.408   4.660   1.653
 2143TIP3   OH2 6373   1.680   3.502   4.878
 2143TIP3    H1 6374   1.674   3.587   4.835
 2143TIP3    H2 6375   1.603   3.453   4.847
 2144TIP3   OH2 6376   0.896   2.688   3.843
 2144TIP3    H1 6377   0.832   2.725   3.903
 2144TIP3    H2 6378   0.847   2.622   3.794
 2145TIP3   OH2 6379   2.509   4.598   5.624
 2145TIP3    H1 6380   2.557   4.638   5.551
 2145TIP3    H2 6381   2.571   4.602   5.698
 2146TIP3   OH2 6382   5.298   6.851   5.517
 2146TIP3    H1 6383   5.328   6.791   5.585
 2146TIP3    H2 6384   5.207   6.824   5.500
 2147TIP3   OH2 6385   7.535   4.783   1.278
 2147TIP3    H1 6386   7.620   4.770   1.318
 2147TIP3    H2 6387   7.545   4.750   1.189
 2148TIP3   OH2 6388   4.440   7.018   2.236
 2148TIP3    H1 6389   4.469   7.009   2.145
 2148TIP3    H2 6390   4.520   7.041   2.284
 2149TIP3   OH2 6391   1.026   3.140   3.896
 2149TIP3    H1 6392   0.956   3.113   3.956
 2149TIP3    H2 6393   1.031   3.235   3.906
 2150TIP3   OH2 6394   8.014   1.283   0.571
 2150TIP3    H1 6395   8.048   1.270   0.483
 2150TIP3    H2 6396   7.998   1.195   0.604
 2151TIP3   OH2 6397   6.895   5.728   3.571
 2151TIP3    H1 6398   6.806   5.734   3.607
 2151TIP3    H2 6399   6.882   5.698   3.481
 2152TIP3   OH2 6400   4.490   5.266   1.647
 2152TIP3    H1 6401   4.563   5.323   1.670
 2152TIP3    H2 6402   4.481   5.273   1.552
 2153TIP3   OH2 6403   2.172   4.311   5.868
 2153TIP3    H1 6404   2.246   4.252   5.854
 2153TIP3    H2 6405   2.180   4.376   5.798
 2154TIP3   OH2 6406   4.093   7.774   0.535
 2154TIP3    H1 6407   4.165   7.743   0.481
 2154TIP3    H2 6408   4.078   7.864   0.506
 2155TIP3   OH2 6409   1.704   0.979   5.577
 2155TIP3    H1 6410   1.706   0.993   5.483
 2155TIP3    H2 6411   1.613   0.991   5.602
 2156TIP3   OH2 6412   1.095   5.649   6.513
 2156TIP3    H1 6413   1.108   5.625   6.605
 2156TIP3    H2 6414   1.024   5.714   6.516
 2157TIP3   OH2 6415   4.384   0.629   5.291
 2157TIP3    H1 6416   4.299   0.620   5.249
 2157TIP3    H2 6417   4.408   0.540   5.316
 2158TIP3   OH2 6418   5.864   6.842   0.419
 2158TIP3    H1 6419   5.931   6.876   0.478
 2158TIP3    H2 6420   5.809   6.787   0.476
 2159TIP3   OH2 6421   3.423   7.499   5.937
 2159TIP3    H1 6422   3.501   7.457   5.975
 2159TIP3    H2 6423   3.386   7.432   5.880
 2160TIP3   OH2 6424   0.761   0.660   5.969
 2160TIP3    H1 6425   0.702   0.729   5.938
 2160TIP3    H2 6426   0.704   0.601   6.017
 2161TIP3   OH2 6427   5.096   2.239   2.338
 2161TIP3    H1 6428   5.058   2.313   2.384
 2161TIP3    H2 6429   5.097   2.168   2.402
 2162TIP3   OH2 6430   7.405   1.549   2.656
 2162TIP3    H1 6431   7.315   1.522   2.636
 2162TIP3    H2 6432   7.402   1.645   2.654
 2163TIP3   OH2 6433   6.152   3.821   5.481
 2163TIP3    H1 6434   6.229   3.859   5.523
 2163TIP3    H2 6435   6.153   3.860   5.393
 2164TIP3   OH2 6436   2.218   1.830   1.953
 2164TIP3    H1 6437   2.310   1.856   1.962
 2164TIP3    H2 6438   2.208   1.811   1.860
 2165TIP3   OH2 6439   6.895   0.785   0.216
 2165TIP3    H1 6440   6.982   0.817   0.237
 2165TIP3    H2 6441   6.836   0.839   0.269
 2166TIP3   OH2 6442   3.496   6.434   3.161
 2166TIP3    H1 6443   3.452   6.420   3.244
 2166TIP3    H2 6444   3.469   6.522   3.134
 2167TIP3   OH2 6445   3.737   6.477   4.067
 2167TIP3    H1 6446   3.774   6.389   4.074
 2167TIP3    H2 6447   3.662   6.477   4.127
 2168TIP3   OH2 6448   2.241   3.536   2.674
 2168TIP3    H1 6449   2.164   3.480   2.672
 2168TIP3    H2 6450   2.207   3.623   2.697
 2169TIP3   OH2 6451   3.991   7.114   4.753
 2169TIP3    H1 6452   4.083   7.106   4.729
 2169TIP3    H2 6453   3.944   7.069   4.683
 2170TIP3   OH2 6454   5.076   7.447   3.234
 2170TIP3    H1 6455   4.995   7.398   3.218
 2170TIP3    H2 6456   5.105   7.475   3.148
 2171TIP3   OH2 6457   8.208   7.024   5.714
 2171TIP3    H1 6458   8.246   7.062   5.635
 2171TIP3    H2 6459   8.121   7.065   5.721
 2172TIP3   OH2 6460   6.696   6.271   4.575
 2172TIP3    H1 6461   6.725   6.261   4.484
 2172TIP3    H2 6462   6.632   6.200   4.587
 2173TIP3   OH2 6463   7.907   1.087   6.199
 2173TIP3    H1 6464   7.852   1.047   6.132
 2173TIP3    H2 6465   7.848   1.145   6.247
 2174TIP3   OH2 6466   4.957   2.060   0.706
 2174TIP3    H1 6467   4.969   1.984   0.764
 2174TIP3    H2 6468   4.947   2.022   0.619
 2175TIP3   OH2 6469   3.881   4.654   3.039
 2175TIP3    H1 6470   3.787   4.662   3.050
 2175TIP3    H2 6471   3.893   4.645   2.944
 2176TIP3   OH2 6472   7.371   7.793   5.354
 2176TIP3    H1 6473   7.411   7.790   5.267
 2176TIP3    H2 6474   7.331   7.706   5.365
 2177TIP3   OH2 6475   2.440   5.380   4.691
 2177TIP3    H1 6476   2.465   5.325   4.616
 2177TIP3    H2 6477   2.414   5.463   4.652
 2178TIP3   OH2 6478   1.684   5.616   3.572
 2178TIP3    H1 6479   1.653   5.691   3.623
 2178TIP3    H2 6480   1.625   5.545   3.596
 2179TIP3   OH2 6481   5.996   0.263   3.529
 2179TIP3    H1 6482   6.003   0.277   3.435
 2179TIP3    H2 6483   6.073   0.210   3.551
 2180TIP3   OH2 6484   8.265   0.186   5.475
 2180TIP3    H1 6485   8.250   0.142   5.559
 2180TIP3    H2 6486   8.337   0.247   5.493
 2181TIP3   OH2 6487   2.219   2.544   4.824
 2181TIP3    H1 6488   2.200   2.636   4.803
 2181TIP3    H2 6489   2.135   2.499   4.814
 2182TIP3   OH2 6490   7.778   5.801   2.075
 2182TIP3    H1 6491   7.843   5.740   2.110
 2182TIP3    H2 6492   7.821   5.842   2.001
 2183TIP3   OH2 6493   0.862   0.067   5.305
 2183TIP3    H1 6494   0.905   0.146   5.338
 2183TIP3    H2 6495   0.927   0.027   5.247
 2184TIP3   OH2 6496   8.145   7.025   3.024
 2184TIP3    H1 6497   8.118   7.116   3.021
 2184TIP3    H2 6498   8.235   7.027   3.057
 2185TIP3   OH2 6499   3.189   4.502   6.235
 2185TIP3    H1 6500   3.249   4.523   6.163
 2185TIP3    H2 6501   3.213   4.413   6.261
 2186TIP3   OH2 6502   5.810   1.193   4.776
 2186TIP3    H1 6503   5.809   1.119   4.714
 2186TIP3    H2 6504   5.738   1.249   4.747
 2187TIP3   OH2 6505   2.034   3.925   4.264
 2187TIP3    H1 6506   2.000   3.860   4.325
 2187TIP3    H2 6507   2.017   3.887   4.177
 2188TIP3   OH2 6508   6.612   6.966   1.365
 2188TIP3    H1 6509   6.586   7.057   1.382
 2188TIP3    H2 6510   6.677   6.974   1.295
 2189TIP3   OH2 6511   2.441   7.289   3.237
 2189TIP3    H1 6512   2.357   7.308   3.280
 2189TIP3    H2 6513   2.451   7.194   3.244
 2190TIP3   OH2 6514   2.194   6.966   0.001
 2190TIP3    H1 6515   2.257   7.006   0.060
 2190TIP3    H2 6516   2.123   6.935   0.058
 2191TIP3   OH2 6517   4.136   2.175   2.863
 2191TIP3    H1 6518   4.229   2.195   2.847
 2191TIP3    H2 6519   4.088   2.246   2.821
 2192TIP3   OH2 6520   3.774   5.598   4.426
 2192TIP3    H1 6521   3.844   5.621   4.487
 2192TIP3    H2 6522   3.816   5.539   4.363
 2193TIP3   OH2 6523   6.738   6.493   5.739
 2193TIP3    H1 6524   6.783   6.487   5.655
 2193TIP3    H2 6525   6.660   6.545   5.721
 2194TIP3   OH2 6526   3.244   5.204   3.715
 2194TIP3    H1 6527   3.171   5.266   3.710
 2194TIP3    H2 6528   3.251   5.168   3.627
 2195TIP3   OH2 6529   0.801   2.818   5.603
 2195TIP3    H1 6530   0.738   2.779   5.664
 2195TIP3    H2 6531   0.885   2.780   5.627
 2196TIP3   OH2 6532   3.844   0.568   3.384
 2196TIP3    H1 6533   3.818   0.556   3.292
 2196TIP3    H2 6534   3.785   0.636   3.417
 2197TIP3   OH2 6535   2.621   4.642   2.668
 2197TIP3    H1 6536   2.571   4.587   2.608
 2197TIP3    H2 6537   2.661   4.581   2.730
 2198TIP3   OH2 6538   6.665   7.257   6.399
 2198TIP3    H1 6539   6.706   7.339   6.371
 2198TIP3    H2 6540   6.730   7.215   6.455
 2199TIP3   OH2 6541   2.319   0.098   5.197
 2199TIP3    H1 6542   2.244   0.148   5.165
 2199TIP3    H2 6543   2.390   0.119   5.137
 2200TIP3   OH2 6544   2.826   5.720   4.297
 2200TIP3    H1 6545   2.760   5.787   4.280
 2200TIP3    H2 6546   2.808   5.651   4.232
 2201TIP3   OH2 6547   4.208   7.275   0.238
 2201TIP3    H1 6548   4.258   7.352   0.214
 2201TIP3    H2 6549   4.270   7.202   0.232
 2202TIP3   OH2 6550   6.054   3.259   5.666
 2202TIP3    H1 6551   6.112   3.324   5.706
 2202TIP3    H2 6552   6.111   3.185   5.647
 2203TIP3   OH2 6553   5.755   0.921   2.873
 2203TIP3    H1 6554   5.664   0.896   2.855
 2203TIP3    H2 6555   5.807   0.851   2.833
 2204TIP3   OH2 6556   5.512   6.919   0.295
 2204TIP3    H1 6557   5.429   6.928   0.248
 2204TIP3    H2 6558   5.577   6.900   0.227
 2205TIP3   OH2 6559   5.194   7.557   1.075
 2205TIP3    H1 6560   5.239   7.491   1.129
 2205TIP3    H2 6561   5.101   7.540   1.088
 2206TIP3   OH2 6562   0.842   5.751   6.651
 2206TIP3    H1 6563   0.756   5.792   6.662
 2206TIP3    H2 6564   0.879   5.748   6.739
 2207TIP3   OH2 6565   2.583   5.090   6.159
 2207TIP3    H1 6566   2.569   5.171   6.207
 2207TIP3    H2 6567   2.496   5.050   6.154
 2208TIP3   OH2 6568   2.257   3.690   0.567
 2208TIP3    H1 6569   2.222   3.601   0.578
 2208TIP3    H2 6570   2.247   3.729   0.654
 2209TIP3   OH2 6571   7.952   6.010   3.242
 2209TIP3    H1 6572   7.973   6.035   3.152
 2209TIP3    H2 6573   7.903   6.084   3.277
 2210TIP3   OH2 6574   4.511   2.057   1.395
 2210TIP3    H1 6575   4.459   1.984   1.360
 2210TIP3    H2 6576   4.494   2.056   1.489
 2211TIP3   OH2 6577   6.868   7.381   3.539
 2211TIP3    H1 6578   6.948   7.409   3.585
 2211TIP3    H2 6579   6.894   7.300   3.495
 2212TIP3   OH2 6580   7.177   7.473   2.854
 2212TIP3    H1 6581   7.169   7.424   2.772
 2212TIP3    H2 6582   7.153   7.563   2.831
 2213TIP3   OH2 6583   2.922   2.758   3.103
 2213TIP3    H1 6584   2.930   2.851   3.124
 2213TIP3    H2 6585   3.011   2.724   3.111
 2214TIP3   OH2 6586   7.838   6.672   2.392
 2214TIP3    H1 6587   7.843   6.605   2.460
 2214TIP3    H2 6588   7.900   6.739   2.420
 2215TIP3   OH2 6589   2.024   6.879   3.871
 2215TIP3    H1 6590   2.102   6.906   3.822
 2215TIP3    H2 6591   2.042   6.905   3.961
 2216TIP3   OH2 6592   4.572   3.420   3.617
 2216TIP3    H1 6593   4.655   3.465   3.603
 2216TIP3    H2 6594   4.515   3.485   3.657
 2217TIP3   OH2 6595   4.027   7.393   3.772
 2217TIP3    H1 6596   3.975   7.355   3.700
 2217TIP3    H2 6597   3.979   7.367   3.851
 2218TIP3   OH2 6598   4.808   7.248   5.447
 2218TIP3    H1 6599   4.889   7.214   5.485
 2218TIP3    H2 6600   4.749   7.172   5.446
 2219TIP3   OH2 6601   4.035   6.673   1.742
 2219TIP3    H1 6602   4.120   6.667   1.698
 2219TIP3    H2 6603   4.039   6.605   1.810
 2220TIP3   OH2 6604   6.439   6.893   4.426
 2220TIP3    H1 6605   6.524   6.934   4.441
 2220TIP3    H2 6606   6.424   6.840   4.504
 2221TIP3   OH2 6607   0.032   7.359   1.317
 2221TIP3    H1 6608  -0.058   7.347   1.349
 2221TIP3    H2 6609   0.032   7.446   1.278
 2222TIP3   OH2 6610   3.918   3.454   0.168
 2222TIP3    H1 6611   3.875   3.416   0.245
 2222TIP3    H2 6612   3.982   3.515   0.204
 2223TIP3   OH2 6613   2.456   4.975   0.151
 2223TIP3    H1 6614   2.435   4.982   0.058
 2223TIP3    H2 6615   2.494   5.060   0.173
 2224TIP3   OH2 6616   0.073   1.696   6.576
 2224TIP3    H1 6617   0.141   1.762   6.562
 2224TIP3    H2 6618   0.105   1.618   6.530
 2225TIP3   OH2 6619   2.162   5.061   5.362
 2225TIP3    H1 6620   2.237   5.003   5.349
 2225TIP3    H2 6621   2.192   5.147   5.333
 2226TIP3   OH2 6622   3.501   7.092   3.224
 2226TIP3    H1 6623   3.452   7.113   3.145
 2226TIP3    H2 6624   3.436   7.098   3.294
 2227TIP3   OH2 6625   7.117   6.129   2.687
 2227TIP3    H1 6626   7.045   6.080   2.727
 2227TIP3    H2 6627   7.078   6.168   2.609
 2228TIP3   OH2 6628   2.484   6.158   1.279
 2228TIP3    H1 6629   2.473   6.212   1.357
 2228TIP3    H2 6630   2.540   6.211   1.221
 2229TIP3   OH2 6631   2.485   0.905   5.930
 2229TIP3    H1 6632   2.547   0.927   5.999
 2229TIP3    H2 6633   2.528   0.835   5.881
 2230TIP3   OH2 6634   5.362   1.924   1.104
 2230TIP3    H1 6635   5.324   1.901   1.020
 2230TIP3    H2 6636   5.455   1.907   1.094
 2231TIP3   OH2 6637   0.431   4.324   5.448
 2231TIP3    H1 6638   0.338   4.341   5.464
 2231TIP3    H2 6639   0.449   4.242   5.494
 2232TIP3   OH2 6640   8.144   5.944   5.210
 2232TIP3    H1 6641   8.199   5.905   5.278
 2232TIP3    H2 6642   8.206   5.975   5.144
 2233TIP3   OH2 6643   3.398   5.525   0.783
 2233TIP3    H1 6644   3.324   5.500   0.839
 2233TIP3    H2 6645   3.402   5.456   0.717
 2234TIP3   OH2 6646   7.717   2.788   0.947
 2234TIP3    H1 6647   7.775   2.841   1.002
 2234TIP3    H2 6648   7.774   2.756   0.877
 2235TIP3   OH2 6649   3.494   4.650   3.949
 2235TIP3    H1 6650   3.431   4.578   3.945
 2235TIP3    H2 6651   3.501   4.672   4.041
 2236TIP3   OH2 6652   6.401   2.973   5.237
 2236TIP3    H1 6653   6.483   3.023   5.232
 2236TIP3    H2 6654   6.428   2.887   5.268
 2237TIP3   OH2 6655   6.982   6.951   1.865
 2237TIP3    H1 6656   7.015   6.935   1.777
 2237TIP3    H2 6657   6.924   7.027   1.855
 2238TIP3   OH2 6658   2.975   2.144   4.566
 2238TIP3    H1 6659   3.026   2.186   4.496
 2238TIP3    H2 6660   2.959   2.056   4.534
 2239TIP3   OH2 6661   2.530   1.452   4.999
 2239TIP3    H1 6662   2.590   1.416   4.933
 2239TIP3    H2 6663   2.457   1.486   4.948
 2240TIP3   OH2 6664   2.275   1.476   2.532
 2240TIP3    H1 6665   2.179   1.480   2.536
 2240TIP3    H2 6666   2.303   1.505   2.619
 2241TIP3   OH2 6667   5.709   5.924   0.613
 2241TIP3    H1 6668   5.737   6.007   0.651
 2241TIP3    H2 6669   5.785   5.894   0.563
 2242TIP3   OH2 6670   1.578   3.688   3.824
 2242TIP3    H1 6671   1.583   3.709   3.917
 2242TIP3    H2 6672   1.485   3.699   3.802
 2243TIP3   OH2 6673   5.851   1.113   1.428
 2243TIP3    H1 6674   5.808   1.184   1.380
 2243TIP3    H2 6675   5.811   1.033   1.393
 2244TIP3   OH2 6676   1.022   7.103   2.588
 2244TIP3    H1 6677   0.995   7.012   2.580
 2244TIP3    H2 6678   0.941   7.152   2.599
 2245TIP3   OH2 6679   6.500   1.351   3.099
 2245TIP3    H1 6680   6.471   1.312   3.017
 2245TIP3    H2 6681   6.474   1.288   3.166
 2246TIP3   OH2 6682   2.863   6.960   4.000
 2246TIP3    H1 6683   2.845   6.926   4.088
 2246TIP3    H2 6684   2.883   7.053   4.014
 2247TIP3   OH2 6685   2.154   5.021   2.114
 2247TIP3    H1 6686   2.109   5.009   2.030
 2247TIP3    H2 6687   2.198   4.937   2.129
 2248TIP3   OH2 6688   7.488   2.449   2.844
 2248TIP3    H1 6689   7.564   2.409   2.886
 2248TIP3    H2 6690   7.525   2.503   2.774
 2249TIP3   OH2 6691   3.429   4.833   5.502
 2249TIP3    H1 6692   3.355   4.820   5.562
 2249TIP3    H2 6693   3.433   4.927   5.489
 2250TIP3   OH2 6694   4.584   2.453   0.244
 2250TIP3    H1 6695   4.621   2.388   0.184
 2250TIP3    H2 6696   4.539   2.401   0.310
 2251TIP3   OH2 6697   1.722   1.621   0.138
 2251TIP3    H1 6698   1.654   1.683   0.109
 2251TIP3    H2 6699   1.674   1.540   0.154
 2252TIP3   OH2 6700   4.471   0.130   6.599
 2252TIP3    H1 6701   4.531   0.165   6.665
 2252TIP3    H2 6702   4.427   0.206   6.563
 2253TIP3   OH2 6703   7.687   7.011   1.397
 2253TIP3    H1 6704   7.600   7.047   1.380
 2253TIP3    H2 6705   7.696   7.014   1.492
 2254TIP3   OH2 6706   1.366   0.513   3.159
 2254TIP3    H1 6707   1.414   0.596   3.151
 2254TIP3    H2 6708   1.291   0.534   3.214
 2255TIP3   OH2 6709   3.460   7.321   6.185
 2255TIP3    H1 6710   3.499   7.388   6.240
 2255TIP3    H2 6711   3.409   7.370   6.120
 2256TIP3   OH2 6712   4.207   5.425   4.946
 2256TIP3    H1 6713   4.193   5.507   4.993
 2256TIP3    H2 6714   4.264   5.448   4.873
 2257TIP3   OH2 6715   7.615   2.114   1.750
 2257TIP3    H1 6716   7.635   2.028   1.788
 2257TIP3    H2 6717   7.529   2.103   1.710
 2258TIP3   OH2 6718   3.996   0.798   4.761
 2258TIP3    H1 6719   4.079   0.790   4.808
 2258TIP3    H2 6720   3.959   0.881   4.791
 2259TIP3   OH2 6721   7.424   7.405   2.949
 2259TIP3    H1 6722   7.395   7.314   2.951
 2259TIP3    H2 6723   7.362   7.448   2.890
 2260TIP3   OH2 6724   4.790   7.599   0.420
 2260TIP3    H1 6725   4.877   7.582   0.457
 2260TIP3    H2 6726   4.754   7.667   0.477
 2261TIP3   OH2 6727   0.521   2.694   6.107
 2261TIP3    H1 6728   0.554   2.632   6.172
 2261TIP3    H2 6729   0.541   2.780   6.143
 2262TIP3   OH2 6730   6.329   4.037   0.308
 2262TIP3    H1 6731   6.332   4.006   0.398
 2262TIP3    H2 6732   6.340   3.959   0.254
 2263TIP3   OH2 6733   1.434   5.709   4.601
 2263TIP3    H1 6734   1.346   5.680   4.577
 2263TIP3    H2 6735   1.454   5.660   4.681
 2264TIP3   OH2 6736   5.110   2.736   1.264
 2264TIP3    H1 6737   5.060   2.811   1.231
 2264TIP3    H2 6738   5.044   2.671   1.286
 2265TIP3   OH2 6739   0.498   4.934   4.078
 2265TIP3    H1 6740   0.476   4.842   4.094
 2265TIP3    H2 6741   0.549   4.932   3.997
 2266TIP3   OH2 6742   5.295   6.373   0.255
 2266TIP3    H1 6743   5.380   6.332   0.249
 2266TIP3    H2 6744   5.255   6.361   0.169
 2267TIP3   OH2 6745   2.271   6.703   3.570
 2267TIP3    H1 6746   2.259   6.798   3.565
 2267TIP3    H2 6747   2.226   6.669   3.494
 2268TIP3   OH2 6748   5.476   1.837   1.755
 2268TIP3    H1 6749   5.472   1.891   1.834
 2268TIP3    H2 6750   5.513   1.754   1.784
 2269TIP3   OH2 6751   6.401   2.889   0.219
 2269TIP3    H1 6752   6.321   2.941   0.232
 2269TIP3    H2 6753   6.472   2.950   0.235
 2270TIP3   OH2 6754   1.484   7.420   2.880
 2270TIP3    H1 6755   1.406   7.437   2.933
 2270TIP3    H2 6756   1.534   7.502   2.885
 2271TIP3   OH2 6757   6.553   3.903   4.229
 2271TIP3    H1 6758   6.643   3.935   4.217
 2271TIP3    H2 6759   6.543   3.894   4.324
 2272TIP3   OH2 6760   0.978   4.177   1.220
 2272TIP3    H1 6761   0.906   4.141   1.272
 2272TIP3    H2 6762   1.051   4.118   1.235
 2273TIP3   OH2 6763   1.871   5.861   3.831
 2273TIP3    H1 6764   1.929   5.860   3.754
 2273TIP3    H2 6765   1.924   5.903   3.899
 2274TIP3   OH2 6766   0.870   5.423   0.989
 2274TIP3    H1 6767   0.803   5.377   1.039
 2274TIP3    H2 6768   0.926   5.463   1.055
 2275TIP3   OH2 6769   6.115   3.331   0.733
 2275TIP3    H1 6770   6.189   3.325   0.673
 2275TIP3    H2 6771   6.135   3.270   0.804
 2276TIP3   OH2 6772   0.506   6.729   6.561
 2276TIP3    H1 6773   0.593   6.755   6.533
 2276TIP3    H2 6774   0.519   6.693   6.649
 2277TIP3   OH2 6775   1.919   6.583   3.212
 2277TIP3    H1 6776   1.892   6.517   3.148
 2277TIP3    H2 6777   1.856   6.654   3.202
 2278TIP3   OH2 6778   5.312   5.546   4.078
 2278TIP3    H1 6779   5.323   5.463   4.124
 2278TIP3    H2 6780   5.265   5.602   4.140
 2279TIP3   OH2 6781   5.055   4.839   0.713
 2279TIP3    H1 6782   4.992   4.834   0.786
 2279TIP3    H2 6783   5.066   4.933   0.697
 2280TIP3   OH2 6784   0.621   5.151   5.792
 2280TIP3    H1 6785   0.685   5.093   5.833
 2280TIP3    H2 6786   0.674   5.212   5.741
 2281TIP3   OH2 6787   5.036   6.898   1.507
 2281TIP3    H1 6788   5.106   6.898   1.442
 2281TIP3    H2 6789   5.077   6.865   1.587
 2282TIP3   OH2 6790   4.346   6.341   2.698
 2282TIP3    H1 6791   4.417   6.291   2.657
 2282TIP3    H2 6792   4.336   6.418   2.642
 2283TIP3   OH2 6793   1.828   3.981   5.922
 2283TIP3    H1 6794   1.793   4.070   5.917
 2283TIP3    H2 6795   1.886   3.974   5.847
 2284TIP3   OH2 6796   6.491   7.594   1.033
 2284TIP3    H1 6797   6.473   7.683   1.065
 2284TIP3    H2 6798   6.494   7.540   1.112
 2285TIP3   OH2 6799   3.514   6.869   1.860
 2285TIP3    H1 6800   3.593   6.826   1.828
 2285TIP3    H2 6801   3.546   6.950   1.900
 2286TIP3   OH2 6802   6.866   0.711   4.544
 2286TIP3    H1 6803   6.944   0.660   4.522
 2286TIP3    H2 6804   6.815   0.711   4.463
 2287TIP3   OH2 6805   7.165   2.065   1.924
 2287TIP3    H1 6806   7.249   2.086   1.965
 2287TIP3    H2 6807   7.130   1.993   1.977
 2288TIP3   OH2 6808   5.833   1.978   6.179
 2288TIP3    H1 6809   5.793   1.968   6.266
 2288TIP3    H2 6810   5.844   2.072   6.169
 2289TIP3   OH2 6811   3.386   6.641   5.243
 2289TIP3    H1 6812   3.386   6.665   5.150
 2289TIP3    H2 6813   3.366   6.547   5.244
 2290TIP3   OH2 6814   4.907   2.453   3.638
 2290TIP3    H1 6815   4.812   2.447   3.630
 2290TIP3    H2 6816   4.939   2.369   3.605
 2291TIP3   OH2 6817   7.712   5.516   1.511
 2291TIP3    H1 6818   7.690   5.449   1.446
 2291TIP3    H2 6819   7.632   5.523   1.564
 2292TIP3   OH2 6820   6.701   2.458   5.124
 2292TIP3    H1 6821   6.721   2.473   5.031
 2292TIP3    H2 6822   6.625   2.399   5.123
 2293TIP3   OH2 6823   1.854   2.984   1.971
 2293TIP3    H1 6824   1.774   2.932   1.977
 2293TIP3    H2 6825   1.827   3.073   1.993
 2294TIP3   OH2 6826   5.508   2.172   3.232
 2294TIP3    H1 6827   5.545   2.205   3.313
 2294TIP3    H2 6828   5.583   2.161   3.174
 2295TIP3   OH2 6829   5.705   4.891   0.309
 2295TIP3    H1 6830   5.768   4.831   0.348
 2295TIP3    H2 6831   5.758   4.958   0.266
 2296TIP3   OH2 6832   1.161   2.712   2.745
 2296TIP3    H1 6833   1.121   2.659   2.675
 2296TIP3    H2 6834   1.091   2.771   2.772
 2297TIP3   OH2 6835   3.441   2.118   6.259
 2297TIP3    H1 6836   3.402   2.193   6.215
 2297TIP3    H2 6837   3.367   2.067   6.292
 2298TIP3   OH2 6838   6.359   6.366   1.182
 2298TIP3    H1 6839   6.379   6.441   1.127
 2298TIP3    H2 6840   6.437   6.311   1.179
 2299TIP3   OH2 6841   3.722   3.802   1.778
 2299TIP3    H1 6842   3.748   3.891   1.752
 2299TIP3    H2 6843   3.766   3.745   1.715
 2300TIP3   OH2 6844   6.473   6.094   1.060
 2300TIP3    H1 6845   6.538   6.129   1.121
 2300TIP3    H2 6846   6.455   6.006   1.094
 2301TIP3   OH2 6847   0.633   2.255   6.371
 2301TIP3    H1 6848   0.705   2.193   6.357
 2301TIP3    H2 6849   0.643   2.285   6.461
 2302TIP3   OH2 6850   7.422   1.152   5.414
 2302TIP3    H1 6851   7.417   1.079   5.354
 2302TIP3    H2 6852   7.514   1.156   5.440
 2303TIP3   OH2 6853   0.652   0.332   4.292
 2303TIP3    H1 6854   0.606   0.284   4.223
 2303TIP3    H2 6855   0.730   0.280   4.311
 2304TIP3   OH2 6856   2.974   0.116   4.693
 2304TIP3    H1 6857   2.986   0.206   4.723
 2304TIP3    H2 6858   3.063   0.085   4.674
 2305TIP3   OH2 6859   2.895   6.589   6.442
 2305TIP3    H1 6860   2.962   6.521   6.439
 2305TIP3    H2 6861   2.941   6.666   6.476
 2306TIP3   OH2 6862   0.227   4.228   6.072
 2306TIP3    H1 6863   0.282   4.306   6.060
 2306TIP3    H2 6864   0.261   4.187   6.151
 2307TIP3   OH2 6865   2.465   3.239   0.670
 2307TIP3    H1 6866   2.445   3.215   0.580
 2307TIP3    H2 6867   2.509   3.324   0.662
 2308TIP3   OH2 6868   3.528   7.439   1.297
 2308TIP3    H1 6869   3.526   7.448   1.201
 2308TIP3    H2 6870   3.608   7.485   1.324
 2309TIP3   OH2 6871   4.635   4.599   3.180
 2309TIP3    H1 6872   4.564   4.592   3.244
 2309TIP3    H2 6873   4.711   4.627   3.231
 2310TIP3   OH2 6874   8.083   4.784   4.308
 2310TIP3    H1 6875   8.033   4.702   4.315
 2310TIP3    H2 6876   8.065   4.816   4.220
 2311TIP3   OH2 6877   0.183   4.790   3.320
 2311TIP3    H1 6878   0.135   4.779   3.402
 2311TIP3    H2 6879   0.128   4.746   3.255
 2312TIP3   OH2 6880   3.876   3.544   2.288
 2312TIP3    H1 6881   3.880   3.555   2.382
 2312TIP3    H2 6882   3.890   3.631   2.252
 2313TIP3   OH2 6883   6.989   0.360   2.331
 2313TIP3    H1 6884   6.952   0.315   2.255
 2313TIP3    H2 6885   6.924   0.349   2.399
 2314TIP3   OH2 6886   5.311   3.177   4.303
 2314TIP3    H1 6887   5.217   3.174   4.287
 2314TIP3    H2 6888   5.320   3.152   4.395
 2315TIP3   OH2 6889   4.437   6.713   1.090
 2315TIP3    H1 6890   4.498   6.787   1.095
 2315TIP3    H2 6891   4.479   6.651   1.031
 2316TIP3   OH2 6892   3.423   1.368   2.946
 2316TIP3    H1 6893   3.513   1.344   2.968
 2316TIP3    H2 6894   3.369   1.320   3.010
 2317TIP3   OH2 6895   4.063   4.380   6.702
 2317TIP3    H1 6896   4.076   4.351   6.611
 2317TIP3    H2 6897   3.971   4.406   6.705
 2318TIP3   OH2 6898   2.905   7.788   0.191
 2318TIP3    H1 6899   2.830   7.821   0.141
 2318TIP3    H2 6900   2.865   7.736   0.261
 2319TIP3   OH2 6901   2.912   5.452   0.889
 2319TIP3    H1 6902   2.973   5.434   0.817
 2319TIP3    H2 6903   2.853   5.377   0.890
 2320TIP3   OH2 6904   1.544   5.476   5.384
 2320TIP3    H1 6905   1.457   5.510   5.406
 2320TIP3    H2 6906   1.587   5.550   5.341
 2321TIP3   OH2 6907   2.828   3.621   6.402
 2321TIP3    H1 6908   2.734   3.632   6.386
 2321TIP3    H2 6909   2.868   3.629   6.316
 2322TIP3   OH2 6910   7.151   0.990   5.107
 2322TIP3    H1 6911   7.242   0.970   5.126
 2322TIP3    H2 6912   7.152   1.021   5.016
 2323TIP3   OH2 6913   5.419   1.929   5.752
 2323TIP3    H1 6914   5.459   2.016   5.748
 2323TIP3    H2 6915   5.374   1.919   5.668
 2324TIP3   OH2 6916   3.094   2.491   0.340
 2324TIP3    H1 6917   3.115   2.583   0.328
 2324TIP3    H2 6918   3.058   2.463   0.255
 2325TIP3   OH2 6919   0.369   7.379   1.238
 2325TIP3    H1 6920   0.416   7.421   1.310
 2325TIP3    H2 6921   0.282   7.362   1.274
 2326TIP3   OH2 6922   7.976   3.655   4.214
 2326TIP3    H1 6923   7.913   3.679   4.146
 2326TIP3    H2 6924   7.966   3.723   4.281
 2327TIP3   OH2 6925   7.620   3.880   4.959
 2327TIP3    H1 6926   7.568   3.958   4.981
 2327TIP3    H2 6927   7.682   3.871   5.031
 2328TIP3   OH2 6928   5.217   7.239   0.225
 2328TIP3    H1 6929   5.262   7.322   0.210
 2328TIP3    H2 6930   5.188   7.243   0.316
 2329TIP3   OH2 6931   2.716   7.112   5.247
 2329TIP3    H1 6932   2.751   7.040   5.301
 2329TIP3    H2 6933   2.624   7.118   5.274
 2330TIP3   OH2 6934   5.626   1.670   0.312
 2330TIP3    H1 6935   5.665   1.754   0.334
 2330TIP3    H2 6936   5.607   1.676   0.218
 2331TIP3   OH2 6937   6.890   1.182   6.471
 2331TIP3    H1 6938   6.859   1.245   6.406
 2331TIP3    H2 6939   6.816   1.171   6.531
 2332TIP3   OH2 6940   7.371   4.048   6.562
 2332TIP3    H1 6941   7.423   4.064   6.483
 2332TIP3    H2 6942   7.434   4.009   6.624
 2333TIP3   OH2 6943   5.951   6.358   3.395
 2333TIP3    H1 6944   6.032   6.408   3.397
 2333TIP3    H2 6945   5.882   6.423   3.383
 2334TIP3   OH2 6946   0.412   0.619   2.101
 2334TIP3    H1 6947   0.354   0.695   2.105
 2334TIP3    H2 6948   0.469   0.628   2.177
 2335TIP3   OH2 6949   1.906   5.022   5.144
 2335TIP3    H1 6950   1.985   4.970   5.158
 2335TIP3    H2 6951   1.908   5.086   5.215
 2336TIP3   OH2 6952   2.368   0.452   0.811
 2336TIP3    H1 6953   2.462   0.460   0.824
 2336TIP3    H2 6954   2.341   0.535   0.772
 2337TIP3   OH2 6955   1.152   7.334   5.268
 2337TIP3    H1 6956   1.066   7.293   5.280
 2337TIP3    H2 6957   1.215   7.262   5.278
 2338TIP3   OH2 6958   7.898   0.977   4.888
 2338TIP3    H1 6959   7.919   0.887   4.865
 2338TIP3    H2 6960   7.864   1.015   4.807
 2339TIP3   OH2 6961   2.999   0.368   1.414
 2339TIP3    H1 6962   2.934   0.349   1.482
 2339TIP3    H2 6963   2.968   0.448   1.373
 2340TIP3   OH2 6964   4.886   5.658   1.099
 2340TIP3    H1 6965   4.952   5.594   1.075
 2340TIP3    H2 6966   4.930   5.743   1.094
 2341TIP3   OH2 6967   4.038   3.292   4.333
 2341TIP3    H1 6968   3.982   3.278   4.257
 2341TIP3    H2 6969   4.043   3.206   4.375
 2342TIP3   OH2 6970   1.569   0.608   5.634
 2342TIP3    H1 6971   1.590   0.526   5.588
 2342TIP3    H2 6972   1.630   0.609   5.708
 2343TIP3   OH2 6973   3.185   1.055   6.039
 2343TIP3    H1 6974   3.097   1.038   6.072
 2343TIP3    H2 6975   3.237   0.979   6.067
 2344TIP3   OH2 6976   8.195   4.383   3.635
 2344TIP3    H1 6977   8.247   4.407   3.712
 2344TIP3    H2 6978   8.259   4.345   3.575
 2345TIP3   OH2 6979   7.283   7.347   4.423
 2345TIP3    H1 6980   7.236   7.347   4.506
 2345TIP3    H2 6981   7.345   7.274   4.430
 2346TIP3   OH2 6982   6.673   2.346   4.402
 2346TIP3    H1 6983   6.721   2.386   4.474
 2346TIP3    H2 6984   6.590   2.319   4.441
 2347TIP3   OH2 6985   1.398   1.865   6.565
 2347TIP3    H1 6986   1.452   1.936   6.600
 2347TIP3    H2 6987   1.410   1.793   6.628
 2348TIP3   OH2 6988   4.725   3.972   4.356
 2348TIP3    H1 6989   4.700   3.921   4.434
 2348TIP3    H2 6990   4.759   3.906   4.295
 2349TIP3   OH2 6991   5.566   2.468   3.885
 2349TIP3    H1 6992   5.661   2.462   3.899
 2349TIP3    H2 6993   5.527   2.433   3.964
 2350TIP3   OH2 6994   3.626   6.387   0.968
 2350TIP3    H1 6995   3.711   6.350   0.948
 2350TIP3    H2 6996   3.644   6.478   0.990
 2351TIP3   OH2 6997   8.126   2.585   0.856
 2351TIP3    H1 6998   8.061   2.653   0.838
 2351TIP3    H2 6999   8.156   2.557   0.769
 2352TIP3   OH2 7000   0.634   3.603   5.395
 2352TIP3    H1 7001   0.620   3.528   5.453
 2352TIP3    H2 7002   0.556   3.657   5.406
 2353TIP3   OH2 7003   5.315   5.658   0.526
 2353TIP3    H1 7004   5.277   5.743   0.505
 2353TIP3    H2 7005   5.293   5.603   0.451
 2354TIP3   OH2 7006   8.301   1.057   4.153
 2354TIP3    H1 7007   8.364   1.034   4.221
 2354TIP3    H2 7008   8.250   0.977   4.139
 2355TIP3   OH2 7009   5.709   2.733   5.974
 2355TIP3    H1 7010   5.711   2.829   5.975
 2355TIP3    H2 7011   5.693   2.710   5.882
 2356TIP3   OH2 7012   6.713   2.619   0.126
 2356TIP3    H1 7013   6.748   2.530   0.129
 2356TIP3    H2 7014   6.717   2.650   0.217
 2357TIP3   OH2 7015   5.318   1.157   2.653
 2357TIP3    H1 7016   5.270   1.075   2.668
 2357TIP3    H2 7017   5.409   1.130   2.644
 2358TIP3   OH2 7018   1.505   7.181   4.199
 2358TIP3    H1 7019   1.489   7.140   4.114
 2358TIP3    H2 7020   1.451   7.131   4.261
 2359TIP3   OH2 7021   1.671   6.036   5.091
 2359TIP3    H1 7022   1.614   6.108   5.117
 2359TIP3    H2 7023   1.654   6.025   4.997
 2360TIP3   OH2 7024   6.637   1.958   6.486
 2360TIP3    H1 7025   6.646   1.940   6.392
 2360TIP3    H2 7026   6.554   2.005   6.493
 2361TIP3   OH2 7027   2.215   2.939   2.823
 2361TIP3    H1 7028   2.297   2.954   2.870
 2361TIP3    H2 7029   2.225   2.986   2.741
 2362TIP3   OH2 7030   7.490   6.931   1.864
 2362TIP3    H1 7031   7.452   6.847   1.839
 2362TIP3    H2 7032   7.435   6.962   1.937
 2363TIP3   OH2 7033   5.080   1.469   6.171
 2363TIP3    H1 7034   5.167   1.485   6.136
 2363TIP3    H2 7035   5.037   1.416   6.103
 2364TIP3   OH2 7036   4.065   5.832   0.727
 2364TIP3    H1 7037   4.002   5.804   0.794
 2364TIP3    H2 7038   4.106   5.910   0.763
 2365TIP3   OH2 7039   5.905   0.081   2.726
 2365TIP3    H1 7040   5.876  -0.007   2.750
 2365TIP3    H2 7041   5.911   0.127   2.810
 2366TIP3   OH2 7042   6.333   4.792   0.600
 2366TIP3    H1 7043   6.250   4.831   0.626
 2366TIP3    H2 7044   6.309   4.724   0.536
 2367TIP3   OH2 7045   1.924   6.932   5.616
 2367TIP3    H1 7046   1.969   6.921   5.533
 2367TIP3    H2 7047   1.877   7.016   5.606
 2368TIP3   OH2 7048   0.559   5.513   1.169
 2368TIP3    H1 7049   0.588   5.555   1.088
 2368TIP3    H2 7050   0.483   5.461   1.143
 2369TIP3   OH2 7051   4.845   0.962   5.668
 2369TIP3    H1 7052   4.906   0.971   5.741
 2369TIP3    H2 7053   4.896   0.988   5.591
 2370TIP3   OH2 7054   5.289   3.268   1.164
 2370TIP3    H1 7055   5.290   3.182   1.120
 2370TIP3    H2 7056   5.361   3.316   1.123
 2371TIP3   OH2 7057   6.124   2.110   1.870
 2371TIP3    H1 7058   6.209   2.067   1.873
 2371TIP3    H2 7059   6.118   2.158   1.953
 2372TIP3   OH2 7060   6.994   0.627   1.580
 2372TIP3    H1 7061   7.004   0.546   1.530
 2372TIP3    H2 7062   7.074   0.676   1.562
 2373TIP3   OH2 7063   7.997   3.374   3.283
 2373TIP3    H1 7064   7.922   3.344   3.335
 2373TIP3    H2 7065   8.044   3.294   3.260
 2374TIP3   OH2 7066   1.429   2.479   6.347
 2374TIP3    H1 7067   1.350   2.425   6.354
 2374TIP3    H2 7068   1.478   2.461   6.428
 2375TIP3   OH2 7069   5.511   2.265   4.630
 2375TIP3    H1 7070   5.459   2.241   4.707
 2375TIP3    H2 7071   5.467   2.343   4.596
 2376TIP3   OH2 7072   3.450   1.991   2.311
 2376TIP3    H1 7073   3.379   2.037   2.355
 2376TIP3    H2 7074   3.454   1.906   2.355
 2377TIP3   OH2 7075   5.405   6.627   2.460
 2377TIP3    H1 7076   5.375   6.718   2.456
 2377TIP3    H2 7077   5.406   6.606   2.553
 2378TIP3   OH2 7078   2.593   6.902   3.932
 2378TIP3    H1 7079   2.634   6.835   3.986
 2378TIP3    H2 7080   2.666   6.958   3.904
 2379TIP3   OH2 7081   5.074   3.440   5.344
 2379TIP3    H1 7082   5.115   3.372   5.397
 2379TIP3    H2 7083   5.041   3.504   5.408
 2380TIP3   OH2 7084   5.527   2.991   5.021
 2380TIP3    H1 7085   5.594   3.046   4.980
 2380TIP3    H2 7086   5.537   3.007   5.114
 2381TIP3   OH2 7087   0.807   4.374   2.726
 2381TIP3    H1 7088   0.740   4.307   2.708
 2381TIP3    H2 7089   0.884   4.324   2.753
 2382TIP3   OH2 7090   5.339   4.853   1.401
 2382TIP3    H1 7091   5.417   4.834   1.454
 2382TIP3    H2 7092   5.304   4.767   1.377
 2383TIP3   OH2 7093   6.922   6.804   0.508
 2383TIP3    H1 7094   6.969   6.769   0.432
 2383TIP3    H2 7095   6.830   6.782   0.491
 2384TIP3   OH2 7096   2.944   4.859   0.970
 2384TIP3    H1 7097   3.014   4.822   0.916
 2384TIP3    H2 7098   2.902   4.923   0.913
 2385TIP3   OH2 7099   6.739   2.857   6.779
 2385TIP3    H1 7100   6.653   2.887   6.808
 2385TIP3    H2 7101   6.727   2.835   6.687
 2386TIP3   OH2 7102   5.640   5.669   1.664
 2386TIP3    H1 7103   5.671   5.623   1.743
 2386TIP3    H2 7104   5.547   5.647   1.658
 2387TIP3   OH2 7105   4.790   0.421   2.104
 2387TIP3    H1 7106   4.807   0.327   2.102
 2387TIP3    H2 7107   4.877   0.462   2.095
 2388TIP3   OH2 7108   4.568   0.963   5.714
 2388TIP3    H1 7109   4.663   0.951   5.708
 2388TIP3    H2 7110   4.535   0.936   5.629
 2389TIP3   OH2 7111   7.049   5.146   5.204
 2389TIP3    H1 7112   7.089   5.232   5.192
 2389TIP3    H2 7113   7.044   5.135   5.300
 2390TIP3   OH2 7114   3.782   0.977   5.312
 2390TIP3    H1 7115   3.840   0.901   5.311
 2390TIP3    H2 7116   3.719   0.961   5.243
 2391TIP3   OH2 7117   5.960   7.147   1.674
 2391TIP3    H1 7118   5.969   7.182   1.586
 2391TIP3    H2 7119   5.970   7.053   1.665
 2392TIP3   OH2 7120   6.956   2.700   4.433
 2392TIP3    H1 7121   6.998   2.618   4.409
 2392TIP3    H2 7122   6.958   2.753   4.354
 2393TIP3   OH2 7123   8.185   3.989   5.273
 2393TIP3    H1 7124   8.145   4.053   5.214
 2393TIP3    H2 7125   8.274   4.022   5.287
 2394TIP3   OH2 7126   2.553   4.057   4.531
 2394TIP3    H1 7127   2.609   4.012   4.468
 2394TIP3    H2 7128   2.611   4.075   4.605
 2395TIP3   OH2 7129   4.846   3.970   1.584
 2395TIP3    H1 7130   4.837   3.897   1.524
 2395TIP3    H2 7131   4.881   3.931   1.664
 2396TIP3   OH2 7132   2.497   6.200   4.202
 2396TIP3    H1 7133   2.406   6.172   4.198
 2396TIP3    H2 7134   2.504   6.249   4.283
 2397TIP3   OH2 7135   6.018   3.262   4.514
 2397TIP3    H1 7136   6.038   3.187   4.570
 2397TIP3    H2 7137   5.969   3.321   4.571
 2398TIP3   OH2 7138   7.832   1.728   4.211
 2398TIP3    H1 7139   7.768   1.768   4.151
 2398TIP3    H2 7140   7.902   1.793   4.218
 2399TIP3   OH2 7141   6.350   1.733   4.694
 2399TIP3    H1 7142   6.379   1.787   4.620
 2399TIP3    H2 7143   6.422   1.671   4.708
 2400TIP3   OH2 7144   7.232   5.971   4.446
 2400TIP3    H1 7145   7.245   5.881   4.417
 2400TIP3    H2 7146   7.219   6.021   4.365
 2401TIP3   OH2 7147   5.475   0.763   4.521
 2401TIP3    H1 7148   5.399   0.707   4.503
 2401TIP3    H2 7149   5.461   0.841   4.467
 2402TIP3   OH2 7150   6.752   5.564   1.749
 2402TIP3    H1 7151   6.715   5.481   1.781
 2402TIP3    H2 7152   6.798   5.601   1.824
 2403TIP3   OH2 7153   2.356   7.666   1.314
 2403TIP3    H1 7154   2.287   7.733   1.316
 2403TIP3    H2 7155   2.433   7.711   1.348
 2404TIP3   OH2 7156   5.782   5.939   5.905
 2404TIP3    H1 7157   5.710   5.922   5.844
 2404TIP3    H2 7158   5.816   6.024   5.877
 2405TIP3   OH2 7159   3.707   1.302   3.022
 2405TIP3    H1 7160   3.673   1.233   3.079
 2405TIP3    H2 7161   3.719   1.259   2.937
 2406TIP3   OH2 7162   1.886   4.698   5.241
 2406TIP3    H1 7163   1.838   4.718   5.161
 2406TIP3    H2 7164   1.966   4.655   5.212
 2407TIP3   OH2 7165   7.407   2.252   2.434
 2407TIP3    H1 7166   7.473   2.290   2.376
 2407TIP3    H2 7167   7.381   2.325   2.491
 2408TIP3   OH2 7168   1.247   0.825   2.934
 2408TIP3    H1 7169   1.300   0.811   2.856
 2408TIP3    H2 7170   1.273   0.911   2.966
 2409TIP3   OH2 7171   5.832   0.561  -0.008
 2409TIP3    H1 7172   5.757   0.616   0.014
 2409TIP3    H2 7173   5.809   0.475   0.028
 2410TIP3   OH2 7174   3.207   0.855   4.153
 2410TIP3    H1 7175   3.143   0.861   4.225
 2410TIP3    H2 7176   3.154   0.864   4.074
 2411TIP3   OH2 7177   8.190   1.642   0.165
 2411TIP3    H1 7178   8.106   1.596   0.162
 2411TIP3    H2 7179   8.255   1.573   0.168
 2412TIP3   OH2 7180   5.782   6.109   6.755
 2412TIP3    H1 7181   5.832   6.032   6.784
 2412TIP3    H2 7182   5.708   6.112   6.816
 2413TIP3   OH2 7183   0.123   4.021   6.316
 2413TIP3    H1 7184   0.120   3.986   6.405
 2413TIP3    H2 7185   0.194   4.086   6.319
 2414TIP3   OH2 7186   8.073   2.790   4.660
 2414TIP3    H1 7187   8.090   2.867   4.715
 2414TIP3    H2 7188   8.069   2.717   4.722
 2415TIP3   OH2 7189   7.583   1.438   1.873
 2415TIP3    H1 7190   7.498   1.400   1.853
 2415TIP3    H2 7191   7.563   1.524   1.911
 2416TIP3   OH2 7192   0.579   2.108   0.025
 2416TIP3    H1 7193   0.578   2.099   0.120
 2416TIP3    H2 7194   0.668   2.137   0.005
 2417TIP3   OH2 7195   4.147   6.573   0.152
 2417TIP3    H1 7196   4.089   6.630   0.203
 2417TIP3    H2 7197   4.232   6.617   0.153
 2418TIP3   OH2 7198   3.869   5.330   6.229
 2418TIP3    H1 7199   3.900   5.395   6.165
 2418TIP3    H2 7200   3.795   5.373   6.272
 2419TIP3   OH2 7201   0.938   0.789   0.634
 2419TIP3    H1 7202   1.001   0.812   0.566
 2419TIP3    H2 7203   0.853   0.817   0.599
 2420TIP3   OH2 7204   5.299   1.495   0.153
 2420TIP3    H1 7205   5.206   1.477   0.168
 2420TIP3    H2 7206   5.301   1.541   0.069
 2421TIP3   OH2 7207   5.334   3.395   4.088
 2421TIP3    H1 7208   5.367   3.310   4.119
 2421TIP3    H2 7209   5.242   3.395   4.113
 2422TIP3   OH2 7210   2.185   5.728   1.495
 2422TIP3    H1 7211   2.144   5.738   1.409
 2422TIP3    H2 7212   2.194   5.633   1.506
 2423TIP3   OH2 7213   7.965   5.437   0.348
 2423TIP3    H1 7214   7.910   5.424   0.270
 2423TIP3    H2 7215   8.053   5.413   0.320
 2424TIP3   OH2 7216   0.344   2.280   5.499
 2424TIP3    H1 7217   0.434   2.266   5.530
 2424TIP3    H2 7218   0.291   2.223   5.555
 2425TIP3   OH2 7219   4.504   0.871   3.768
 2425TIP3    H1 7220   4.470   0.837   3.685
 2425TIP3    H2 7221   4.582   0.818   3.784
 2426TIP3   OH2 7222   0.217   0.810   5.240
 2426TIP3    H1 7223   0.245   0.735   5.292
 2426TIP3    H2 7224   0.184   0.772   5.158
 2427TIP3   OH2 7225   4.532   4.950   3.857
 2427TIP3    H1 7226   4.482   4.953   3.776
 2427TIP3    H2 7227   4.598   5.018   3.847
 2428TIP3   OH2 7228   7.522   0.062   1.062
 2428TIP3    H1 7229   7.490   0.099   1.144
 2428TIP3    H2 7230   7.552   0.137   1.011
 2429TIP3   OH2 7231   3.972   2.791   6.756
 2429TIP3    H1 7232   3.903   2.807   6.821
 2429TIP3    H2 7233   4.054   2.803   6.804
 2430TIP3   OH2 7234   3.048   2.419   5.018
 2430TIP3    H1 7235   3.010   2.505   5.032
 2430TIP3    H2 7236   3.128   2.419   5.070
 2431TIP3   OH2 7237   1.562   0.633   3.661
 2431TIP3    H1 7238   1.654   0.644   3.686
 2431TIP3    H2 7239   1.560   0.654   3.567
 2432TIP3   OH2 7240   3.400   6.990   5.532
 2432TIP3    H1 7241   3.451   6.910   5.517
 2432TIP3    H2 7242   3.450   7.037   5.599
 2433TIP3   OH2 7243   0.231   6.852   6.187
 2433TIP3    H1 7244   0.157   6.897   6.227
 2433TIP3    H2 7245   0.233   6.766   6.229
 2434TIP3   OH2 7246   7.757   6.624   4.507
 2434TIP3    H1 7247   7.736   6.557   4.572
 2434TIP3    H2 7248   7.771   6.703   4.558
 2435TIP3   OH2 7249   7.718   1.418   6.744
 2435TIP3    H1 7250   7.691   1.370   6.822
 2435TIP3    H2 7251   7.695   1.359   6.671
 2436TIP3   OH2 7252   6.167   2.151   6.177
 2436TIP3    H1 7253   6.135   2.216   6.115
 2436TIP3    H2 7254   6.105   2.156   6.251
 2437TIP3   OH2 7255   3.012   7.636   4.887
 2437TIP3    H1 7256   3.028   7.719   4.842
 2437TIP3    H2 7257   3.099   7.601   4.905
 2438TIP3   OH2 7258   5.121   4.471   3.397
 2438TIP3    H1 7259   5.143   4.565   3.398
 2438TIP3    H2 7260   5.148   4.441   3.311
 2439TIP3   OH2 7261   6.591   2.698   5.016
 2439TIP3    H1 7262   6.563   2.653   5.096
 2439TIP3    H2 7263   6.620   2.784   5.045
 2440TIP3   OH2 7264   5.958   0.355   6.513
 2440TIP3    H1 7265   6.026   0.290   6.532
 2440TIP3    H2 7266   5.927   0.333   6.425
 2441TIP3   OH2 7267   3.410   0.801   2.704
 2441TIP3    H1 7268   3.316   0.785   2.712
 2441TIP3    H2 7269   3.431   0.857   2.779
 2442TIP3   OH2 7270   8.238   1.452   2.900
 2442TIP3    H1 7271   8.212   1.393   2.829
 2442TIP3    H2 7272   8.326   1.482   2.874
 2443TIP3   OH2 7273   3.621   3.007   5.116
 2443TIP3    H1 7274   3.547   3.006   5.056
 2443TIP3    H2 7275   3.668   2.926   5.099
 2444TIP3   OH2 7276   7.215   6.916   0.665
 2444TIP3    H1 7277   7.211   6.912   0.761
 2444TIP3    H2 7278   7.147   6.980   0.642
 2445TIP3   OH2 7279   4.627   5.312   3.113
 2445TIP3    H1 7280   4.698   5.316   3.049
 2445TIP3    H2 7281   4.626   5.221   3.142
 2446TIP3   OH2 7282   3.652   2.476   0.503
 2446TIP3    H1 7283   3.694   2.508   0.582
 2446TIP3    H2 7284   3.637   2.555   0.450
 2447TIP3   OH2 7285   0.826   4.452   6.450
 2447TIP3    H1 7286   0.861   4.377   6.402
 2447TIP3    H2 7287   0.880   4.526   6.423
 2448TIP3   OH2 7288   7.839   5.320   6.198
 2448TIP3    H1 7289   7.820   5.363   6.282
 2448TIP3    H2 7290   7.754   5.311   6.156
 2449TIP3   OH2 7291   0.230   4.953   6.625
 2449TIP3    H1 7292   0.154   4.917   6.579
 2449TIP3    H2 7293   0.214   5.048   6.627
 2450TIP3   OH2 7294   5.706   5.617   6.455
 2450TIP3    H1 7295   5.747   5.701   6.473
 2450TIP3    H2 7296   5.646   5.634   6.383
 2451TIP3   OH2 7297   5.134   1.272   2.075
 2451TIP3    H1 7298   5.086   1.331   2.016
 2451TIP3    H2 7299   5.223   1.272   2.041
 2452TIP3   OH2 7300   1.086   6.549   4.650
 2452TIP3    H1 7301   1.180   6.551   4.670
 2452TIP3    H2 7302   1.082   6.549   4.554
 2453TIP3   OH2 7303   6.045   4.187   1.437
 2453TIP3    H1 7304   6.125   4.237   1.452
 2453TIP3    H2 7305   5.982   4.223   1.500
 2454TIP3   OH2 7306   1.643   2.730   5.643
 2454TIP3    H1 7307   1.715   2.699   5.698
 2454TIP3    H2 7308   1.671   2.713   5.554
 2455TIP3   OH2 7309   4.986   1.374   2.422
 2455TIP3    H1 7310   4.891   1.378   2.412
 2455TIP3    H2 7311   5.019   1.444   2.365
 2456TIP3   OH2 7312   2.094   0.810   0.148
 2456TIP3    H1 7313   2.085   0.751   0.073
 2456TIP3    H2 7314   2.057   0.761   0.222
 2457TIP3   OH2 7315   3.788   2.080   1.602
 2457TIP3    H1 7316   3.806   2.039   1.517
 2457TIP3    H2 7317   3.873   2.112   1.631
 2458TIP3   OH2 7318   5.159   6.215   4.835
 2458TIP3    H1 7319   5.206   6.288   4.795
 2458TIP3    H2 7320   5.223   6.175   4.894
 2459TIP3   OH2 7321   7.312   5.236   1.305
 2459TIP3    H1 7322   7.403   5.247   1.277
 2459TIP3    H2 7323   7.300   5.141   1.309
 2460TIP3   OH2 7324   0.228   6.070   1.762
 2460TIP3    H1 7325   0.295   6.018   1.806
 2460TIP3    H2 7326   0.234   6.045   1.670
 2461TIP3   OH2 7327   2.749   3.369   3.399
 2461TIP3    H1 7328   2.685   3.408   3.458
 2461TIP3    H2 7329   2.776   3.288   3.442
 2462TIP3   OH2 7330   3.174   4.651   3.528
 2462TIP3    H1 7331   3.202   4.625   3.440
 2462TIP3    H2 7332   3.088   4.610   3.539
 2463TIP3   OH2 7333   3.092   2.378   2.342
 2463TIP3    H1 7334   3.066   2.305   2.284
 2463TIP3    H2 7335   3.009   2.416   2.370
 2464TIP3   OH2 7336   5.410   5.747   4.336
 2464TIP3    H1 7337   5.322   5.726   4.308
 2464TIP3    H2 7338   5.405   5.838   4.365
 2465TIP3   OH2 7339   5.911   7.500   2.313
 2465TIP3    H1 7340   5.951   7.514   2.399
 2465TIP3    H2 7341   5.876   7.585   2.288
 2466TIP3   OH2 7342   5.431   0.259   3.435
 2466TIP3    H1 7343   5.526   0.263   3.430
 2466TIP3    H2 7344   5.403   0.349   3.452
 2467TIP3   OH2 7345   1.606   3.093   6.134
 2467TIP3    H1 7346   1.684   3.145   6.155
 2467TIP3    H2 7347   1.633   3.039   6.061
 2468TIP3   OH2 7348   7.067   6.971   2.124
 2468TIP3    H1 7349   7.059   6.980   2.029
 2468TIP3    H2 7350   6.981   6.995   2.157
 2469TIP3   OH2 7351   7.696   1.027   5.928
 2469TIP3    H1 7352   7.675   1.119   5.910
 2469TIP3    H2 7353   7.625   0.978   5.886
 2470TIP3   OH2 7354   4.398   7.310  -0.017
 2470TIP3    H1 7355   4.420   7.247   0.051
 2470TIP3    H2 7356   4.402   7.395   0.027
 2471TIP3   OH2 7357   3.763   1.804   6.347
 2471TIP3    H1 7358   3.757   1.709   6.355
 2471TIP3    H2 7359   3.822   1.819   6.273
 2472TIP3   OH2 7360   2.149   7.229   6.185
 2472TIP3    H1 7361   2.217   7.254   6.247
 2472TIP3    H2 7362   2.187   7.159   6.133
 2473TIP3   OH2 7363   1.825   0.193   2.351
 2473TIP3    H1 7364   1.908   0.229   2.319
 2473TIP3    H2 7365   1.806   0.241   2.431
 2474TIP3   OH2 7366   5.129   0.902   5.787
 2474TIP3    H1 7367   5.136   0.989   5.747
 2474TIP3    H2 7368   5.076   0.916   5.865
 2475TIP3   OH2 7369   7.978   3.382   1.965
 2475TIP3    H1 7370   8.044   3.319   1.994
 2475TIP3    H2 7371   7.902   3.366   2.022
 2476TIP3   OH2 7372   1.872   5.177   2.793
 2476TIP3    H1 7373   1.945   5.193   2.852
 2476TIP3    H2 7374   1.886   5.089   2.759
 2477TIP3   OH2 7375   0.708   5.895   4.165
 2477TIP3    H1 7376   0.776   5.832   4.189
 2477TIP3    H2 7377   0.721   5.911   4.072
 2478TIP3   OH2 7378   6.423   2.215   6.677
 2478TIP3    H1 7379   6.330   2.202   6.660
 2478TIP3    H2 7380   6.429   2.307   6.704
 2479TIP3   OH2 7381   4.811   4.112   3.617
 2479TIP3    H1 7382   4.759   4.192   3.631
 2479TIP3    H2 7383   4.758   4.043   3.657
 2480TIP3   OH2 7384   0.551   3.123   6.517
 2480TIP3    H1 7385   0.459   3.097   6.508
 2480TIP3    H2 7386   0.547   3.211   6.553
 2481TIP3   OH2 7387   2.525   2.407   3.462
 2481TIP3    H1 7388   2.474   2.380   3.385
 2481TIP3    H2 7389   2.528   2.328   3.517
 2482TIP3   OH2 7390   1.386   4.197   0.183
 2482TIP3    H1 7391   1.452   4.260   0.212
 2482TIP3    H2 7392   1.424   4.111   0.203
 2483TIP3   OH2 7393   6.115   3.011   1.925
 2483TIP3    H1 7394   6.145   3.024   2.015
 2483TIP3    H2 7395   6.179   3.057   1.871
 2484TIP3   OH2 7396   5.365   0.756   6.315
 2484TIP3    H1 7397   5.406   0.738   6.230
 2484TIP3    H2 7398   5.389   0.682   6.370
 2485TIP3   OH2 7399   5.905   1.489   0.318
 2485TIP3    H1 7400   5.836   1.442   0.273
 2485TIP3    H2 7401   5.859   1.550   0.376
 2486TIP3   OH2 7402   1.479   3.222   6.333
 2486TIP3    H1 7403   1.518   3.175   6.259
 2486TIP3    H2 7404   1.554   3.253   6.384
 2487TIP3   OH2 7405   5.613   1.584   3.934
 2487TIP3    H1 7406   5.522   1.571   3.908
 2487TIP3    H2 7407   5.623   1.679   3.935
 2488TIP3   OH2 7408   0.421   6.145   4.635
 2488TIP3    H1 7409   0.419   6.204   4.710
 2488TIP3    H2 7410   0.352   6.177   4.577
 2489TIP3   OH2 7411   2.506   3.287   5.557
 2489TIP3    H1 7412   2.491   3.273   5.651
 2489TIP3    H2 7413   2.494   3.201   5.518
 2490TIP3   OH2 7414   7.416   0.886   3.078
 2490TIP3    H1 7415   7.407   0.826   3.151
 2490TIP3    H2 7416   7.326   0.910   3.055
 2491TIP3   OH2 7417   2.502   2.070   0.123
 2491TIP3    H1 7418   2.569   2.070   0.054
 2491TIP3    H2 7419   2.467   1.981   0.123
 2492TIP3   OH2 7420   7.508   1.747   0.800
 2492TIP3    H1 7421   7.429   1.775   0.752
 2492TIP3    H2 7422   7.475   1.720   0.886
 2493TIP3   OH2 7423   1.050   1.075   5.714
 2493TIP3    H1 7424   1.027   1.096   5.623
 2493TIP3    H2 7425   1.053   0.980   5.716
 2494TIP3   OH2 7426   6.334   6.940   1.139
 2494TIP3    H1 7427   6.387   7.019   1.150
 2494TIP3    H2 7428   6.277   6.938   1.216
 2495TIP3   OH2 7429   0.544   6.274   2.984
 2495TIP3    H1 7430   0.578   6.206   3.042
 2495TIP3    H2 7431   0.501   6.226   2.914
 2496TIP3   OH2 7432   2.424   2.024   2.187
 2496TIP3    H1 7433   2.451   2.113   2.166
 2496TIP3    H2 7434   2.459   1.970   2.116
 2497TIP3   OH2 7435   7.891   7.511   2.097
 2497TIP3    H1 7436   7.906   7.483   2.187
 2497TIP3    H2 7437   7.814   7.567   2.102
 2498TIP3   OH2 7438   6.812   4.424   5.362
 2498TIP3    H1 7439   6.735   4.455   5.314
 2498TIP3    H2 7440   6.886   4.461   5.313
 2499TIP3   OH2 7441   0.151   0.020   5.679
 2499TIP3    H1 7442   0.079   0.021   5.742
 2499TIP3    H2 7443   0.186  -0.069   5.684
 2500TIP3   OH2 7444   5.630   6.388   3.667
 2500TIP3    H1 7445   5.557   6.336   3.632
 2500TIP3    H2 7446   5.592   6.472   3.689
 2501TIP3   OH2 7447   2.666   0.539   4.505
 2501TIP3    H1 7448   2.593   0.564   4.562
 2501TIP3    H2 7449   2.639   0.565   4.417
 2502TIP3   OH2 7450   2.457   3.562   5.796
 2502TIP3    H1 7451   2.452   3.647   5.752
 2502TIP3    H2 7452   2.377   3.517   5.770
 2503TIP3   OH2 7453   7.117   4.355   2.969
 2503TIP3    H1 7454   7.106   4.359   2.875
 2503TIP3    H2 7455   7.179   4.283   2.983
 2504TIP3   OH2 7456   2.333   4.865   3.897
 2504TIP3    H1 7457   2.409   4.814   3.870
 2504TIP3    H2 7458   2.264   4.838   3.837
 2505TIP3   OH2 7459   0.028   3.469   2.464
 2505TIP3    H1 7460  -0.065   3.473   2.486
 2505TIP3    H2 7461   0.068   3.421   2.536
 2506TIP3   OH2 7462   6.112   7.463   2.547
 2506TIP3    H1 7463   6.158   7.427   2.471
 2506TIP3    H2 7464   6.139   7.407   2.619
 2507TIP3   OH2 7465   2.677   0.987   1.687
 2507TIP3    H1 7466   2.610   1.055   1.694
 2507TIP3    H2 7467   2.656   0.942   1.605
 2508TIP3   OH2 7468   0.619   7.676   1.850
 2508TIP3    H1 7469   0.626   7.688   1.755
 2508TIP3    H2 7470   0.697   7.718   1.886
 2509TIP3   OH2 7471   4.948   6.622   0.347
 2509TIP3    H1 7472   4.938   6.625   0.252
 2509TIP3    H2 7473   5.021   6.680   0.366
 2510TIP3   OH2 7474   1.543   6.674   5.511
 2510TIP3    H1 7475   1.578   6.762   5.528
 2510TIP3    H2 7476   1.570   6.622   5.587
 2511TIP3   OH2 7477   6.267   4.435   1.158
 2511TIP3    H1 7478   6.186   4.410   1.115
 2511TIP3    H2 7479   6.302   4.506   1.105
 2512TIP3   OH2 7480   3.605   4.743   2.198
 2512TIP3    H1 7481   3.578   4.770   2.111
 2512TIP3    H2 7482   3.669   4.809   2.225
 2513TIP3   OH2 7483   1.624   6.828   3.769
 2513TIP3    H1 7484   1.705   6.802   3.727
 2513TIP3    H2 7485   1.557   6.772   3.731
 2514TIP3   OH2 7486   4.659   4.660   1.992
 2514TIP3    H1 7487   4.622   4.674   2.079
 2514TIP3    H2 7488   4.734   4.602   2.008
 2515TIP3   OH2 7489   5.007   4.563   3.847
 2515TIP3    H1 7490   5.020   4.496   3.780
 2515TIP3    H2 7491   5.091   4.566   3.893
 2516TIP3   OH2 7492   5.859   3.152   4.292
 2516TIP3    H1 7493   5.913   3.190   4.361
 2516TIP3    H2 7494   5.769   3.168   4.320
 2517TIP3   OH2 7495   1.480   6.705   3.468
 2517TIP3    H1 7496   1.477   6.635   3.402
 2517TIP3    H2 7497   1.516   6.780   3.421
 2518TIP3   OH2 7498   2.819   4.953   0.497
 2518TIP3    H1 7499   2.733   4.914   0.484
 2518TIP3    H2 7500   2.872   4.921   0.423
 2519TIP3   OH2 7501   5.322   3.982   6.488
 2519TIP3    H1 7502   5.305   3.940   6.572
 2519TIP3    H2 7503   5.236   4.006   6.454
 2520TIP3   OH2 7504   5.479   5.919   3.312
 2520TIP3    H1 7505   5.523   5.896   3.393
 2520TIP3    H2 7506   5.550   5.936   3.250
 2521TIP3   OH2 7507   5.445   2.956   0.645
 2521TIP3    H1 7508   5.473   2.867   0.666
 2521TIP3    H2 7509   5.350   2.950   0.636
 2522TIP3   OH2 7510   8.135   1.330   2.267
 2522TIP3    H1 7511   8.193   1.372   2.204
 2522TIP3    H2 7512   8.070   1.397   2.289
 2523TIP3   OH2 7513   7.007   2.776   5.724
 2523TIP3    H1 7514   7.043   2.692   5.752
 2523TIP3    H2 7515   7.007   2.830   5.803
 2524TIP3   OH2 7516   2.310   0.953   5.032
 2524TIP3    H1 7517   2.301   1.048   5.018
 2524TIP3    H2 7518   2.220   0.920   5.032
 2525TIP3   OH2 7519   5.080   7.321   4.031
 2525TIP3    H1 7520   5.064   7.354   3.942
 2525TIP3    H2 7521   5.120   7.235   4.016
 2526TIP3   OH2 7522   6.520   4.275   1.142
 2526TIP3    H1 7523   6.430   4.307   1.146
 2526TIP3    H2 7524   6.524   4.226   1.060
 2527TIP3   OH2 7525   8.170   2.278   4.287
 2527TIP3    H1 7526   8.185   2.327   4.368
 2527TIP3    H2 7527   8.183   2.186   4.312
 2528TIP3   OH2 7528   0.322   1.747   3.962
 2528TIP3    H1 7529   0.297   1.755   3.870
 2528TIP3    H2 7530   0.242   1.716   4.006
 2529TIP3   OH2 7531   7.583   4.121   5.802
 2529TIP3    H1 7532   7.608   4.043   5.853
 2529TIP3    H2 7533   7.657   4.181   5.813
 2530TIP3   OH2 7534   1.239   7.520   1.944
 2530TIP3    H1 7535   1.329   7.513   1.912
 2530TIP3    H2 7536   1.247   7.518   2.040
 2531TIP3   OH2 7537   5.298   0.299   0.063
 2531TIP3    H1 7538   5.233   0.352   0.016
 2531TIP3    H2 7539   5.371   0.359   0.079
 2532TIP3   OH2 7540   5.705   6.899   0.105
 2532TIP3    H1 7541   5.729   6.813   0.070
 2532TIP3    H2 7542   5.786   6.950   0.097
 2533TIP3   OH2 7543   4.100   4.895   0.198
 2533TIP3    H1 7544   4.110   4.839   0.276
 2533TIP3    H2 7545   4.189   4.905   0.165
 2534TIP3   OH2 7546   5.159   0.101   0.183
 2534TIP3    H1 7547   5.220   0.157   0.134
 2534TIP3    H2 7548   5.162   0.134   0.273
 2535TIP3   OH2 7549   0.832   5.372   0.451
 2535TIP3    H1 7550   0.764   5.321   0.495
 2535TIP3    H2 7551   0.785   5.443   0.408
 2536TIP3   OH2 7552   0.857   1.657   2.737
 2536TIP3    H1 7553   0.889   1.745   2.754
 2536TIP3    H2 7554   0.762   1.665   2.737
 2537TIP3   OH2 7555   6.983   2.902   5.949
 2537TIP3    H1 7556   7.009   2.851   6.026
 2537TIP3    H2 7557   7.037   2.981   5.952
 2538TIP3   OH2 7558   1.183   2.958   2.927
 2538TIP3    H1 7559   1.187   2.990   3.017
 2538TIP3    H2 7560   1.155   2.867   2.935
 2539TIP3   OH2 7561   1.592   6.199   0.690
 2539TIP3    H1 7562   1.512   6.233   0.651
 2539TIP3    H2 7563   1.568   6.178   0.780
 2540TIP3   OH2 7564   4.631   6.601   0.742
 2540TIP3    H1 7565   4.585   6.588   0.824
 2540TIP3    H2 7566   4.704   6.539   0.744
 2541TIP3   OH2 7567   1.080   6.718   0.673
 2541TIP3    H1 7568   1.012   6.654   0.691
 2541TIP3    H2 7569   1.037   6.784   0.618
 2542TIP3   OH2 7570   1.832   4.401   0.240
 2542TIP3    H1 7571   1.838   4.415   0.145
 2542TIP3    H2 7572   1.916   4.431   0.274
 2543TIP3   OH2 7573   5.560   0.585   1.393
 2543TIP3    H1 7574   5.531   0.637   1.318
 2543TIP3    H2 7575   5.482   0.574   1.446
 2544TIP3   OH2 7576   7.811   3.071   3.352
 2544TIP3    H1 7577   7.783   3.080   3.261
 2544TIP3    H2 7578   7.800   3.158   3.389
 2545TIP3   OH2 7579   3.015   6.580   2.953
 2545TIP3    H1 7580   3.023   6.487   2.974
 2545TIP3    H2 7581   3.024   6.624   3.037
 2546TIP3   OH2 7582   6.899   2.685   1.625
 2546TIP3    H1 7583   6.895   2.770   1.582
 2546TIP3    H2 7584   6.852   2.697   1.708
 2547TIP3   OH2 7585   5.744   2.333   1.333
 2547TIP3    H1 7586   5.694   2.311   1.411
 2547TIP3    H2 7587   5.816   2.271   1.332
 2548TIP3   OH2 7588   5.488   5.765   5.080
 2548TIP3    H1 7589   5.519   5.833   5.140
 2548TIP3    H2 7590   5.568   5.728   5.043
 2549TIP3   OH2 7591   3.203   5.368   2.660
 2549TIP3    H1 7592   3.176   5.278   2.679
 2549TIP3    H2 7593   3.295   5.371   2.688
 2550TIP3   OH2 7594   6.947   1.670   6.730
 2550TIP3    H1 7595   7.023   1.621   6.762
 2550TIP3    H2 7596   6.964   1.761   6.756
 2551TIP3   OH2 7597   4.253   5.543   5.508
 2551TIP3    H1 7598   4.314   5.511   5.442
 2551TIP3    H2 7599   4.255   5.638   5.498
 2552TIP3   OH2 7600   7.029   0.941   1.353
 2552TIP3    H1 7601   7.062   0.920   1.266
 2552TIP3    H2 7602   7.000   1.032   1.347
 2553TIP3   OH2 7603   6.890   1.498   4.162
 2553TIP3    H1 7604   6.918   1.576   4.210
 2553TIP3    H2 7605   6.898   1.426   4.225
 2554TIP3   OH2 7606   0.220   7.762   4.037
 2554TIP3    H1 7607   0.162   7.834   4.061
 2554TIP3    H2 7608   0.299   7.806   4.004
 2555TIP3   OH2 7609   7.167   1.791   5.628
 2555TIP3    H1 7610   7.217   1.834   5.698
 2555TIP3    H2 7611   7.228   1.729   5.589
 2556TIP3   OH2 7612   7.506   1.895   5.367
 2556TIP3    H1 7613   7.490   1.910   5.273
 2556TIP3    H2 7614   7.581   1.836   5.369
 2557TIP3   OH2 7615   0.864   1.551   2.473
 2557TIP3    H1 7616   0.956   1.547   2.448
 2557TIP3    H2 7617   0.865   1.586   2.563
 2558TIP3   OH2 7618   2.394   5.469   0.911
 2558TIP3    H1 7619   2.414   5.471   0.818
 2558TIP3    H2 7620   2.465   5.519   0.952
 2559TIP3   OH2 7621   7.142   1.305   4.263
 2559TIP3    H1 7622   7.192   1.386   4.251
 2559TIP3    H2 7623   7.080   1.305   4.190
 2560TIP3   OH2 7624   2.211   3.914   1.299
 2560TIP3    H1 7625   2.303   3.929   1.320
 2560TIP3    H2 7626   2.208   3.916   1.203
 2561TIP3   OH2 7627   5.504   4.710   2.342
 2561TIP3    H1 7628   5.561   4.640   2.310
 2561TIP3    H2 7629   5.493   4.691   2.435
 2562TIP3   OH2 7630   5.261   7.359   6.275
 2562TIP3    H1 7631   5.290   7.275   6.240
 2562TIP3    H2 7632   5.341   7.411   6.283
 2563TIP3   OH2 7633   2.002   4.695   5.954
 2563TIP3    H1 7634   1.963   4.765   6.007
 2563TIP3    H2 7635   1.934   4.670   5.892
 2564TIP3   OH2 7636   1.692   3.930   4.357
 2564TIP3    H1 7637   1.755   3.876   4.404
 2564TIP3    H2 7638   1.734   3.950   4.274
 2565TIP3   OH2 7639   3.831   4.020   2.346
 2565TIP3    H1 7640   3.911   4.017   2.398
 2565TIP3    H2 7641   3.778   4.088   2.388
 2566TIP3   OH2 7642   3.062   2.243   1.758
 2566TIP3    H1 7643   3.027   2.225   1.671
 2566TIP3    H2 7644   3.105   2.162   1.784
 2567TIP3   OH2 7645   6.838   6.815   4.421
 2567TIP3    H1 7646   6.769   6.882   4.420
 2567TIP3    H2 7647   6.825   6.766   4.340
 2568TIP3   OH2 7648   3.768   7.533   0.935
 2568TIP3    H1 7649   3.812   7.614   0.960
 2568TIP3    H2 7650   3.679   7.561   0.911
 2569TIP3   OH2 7651   0.756   6.829   5.882
 2569TIP3    H1 7652   0.662   6.849   5.875
 2569TIP3    H2 7653   0.785   6.878   5.959
 2570TIP3   OH2 7654   6.502   1.339   6.752
 2570TIP3    H1 7655   6.461   1.405   6.806
 2570TIP3    H2 7656   6.585   1.377   6.725
 2571TIP3   OH2 7657   0.489   4.873   5.931
 2571TIP3    H1 7658   0.583   4.875   5.915
 2571TIP3    H2 7659   0.477   4.931   6.007
 2572TIP3   OH2 7660   3.011   1.410   0.182
 2572TIP3    H1 7661   3.087   1.418   0.240
 2572TIP3    H2 7662   2.935   1.419   0.240
 2573TIP3   OH2 7663   3.910   5.275   1.244
 2573TIP3    H1 7664   3.830   5.324   1.261
 2573TIP3    H2 7665   3.893   5.188   1.280
 2574TIP3   OH2 7666   3.838   4.915   0.444
 2574TIP3    H1 7667   3.788   4.839   0.470
 2574TIP3    H2 7668   3.801   4.941   0.360
 2575TIP3   OH2 7669   6.190   1.662   1.300
 2575TIP3    H1 7670   6.263   1.685   1.242
 2575TIP3    H2 7671   6.113   1.665   1.244
 2576TIP3   OH2 7672   1.421   3.508   6.338
 2576TIP3    H1 7673   1.499   3.552   6.370
 2576TIP3    H2 7674   1.451   3.420   6.314
 2577TIP3   OH2 7675   7.158   7.088   1.281
 2577TIP3    H1 7676   7.150   7.183   1.294
 2577TIP3    H2 7677   7.111   7.071   1.200
 2578TIP3   OH2 7678   5.645   4.392   6.556
 2578TIP3    H1 7679   5.737   4.398   6.584
 2578TIP3    H2 7680   5.605   4.474   6.587
 2579TIP3   OH2 7681   0.583   3.338   0.193
 2579TIP3    H1 7682   0.507   3.349   0.250
 2579TIP3    H2 7683   0.579   3.247   0.165
 2580TIP3   OH2 7684   5.350   6.714   4.638
 2580TIP3    H1 7685   5.323   6.784   4.578
 2580TIP3    H2 7686   5.279   6.649   4.632
 2581TIP3   OH2 7687   4.785   5.713   3.122
 2581TIP3    H1 7688   4.830   5.797   3.131
 2581TIP3    H2 7689   4.856   5.648   3.119
 2582TIP3   OH2 7690   0.652   5.611   0.939
 2582TIP3    H1 7691   0.649   5.552   0.864
 2582TIP3    H2 7692   0.689   5.692   0.905
 2583TIP3   OH2 7693   6.240   2.247   0.472
 2583TIP3    H1 7694   6.284   2.234   0.388
 2583TIP3    H2 7695   6.261   2.170   0.523
 2584TIP3   OH2 7696   4.981   4.964   5.824
 2584TIP3    H1 7697   4.974   5.057   5.841
 2584TIP3    H2 7698   4.915   4.947   5.756
 2585TIP3   OH2 7699   1.343   7.422   3.320
 2585TIP3    H1 7700   1.416   7.466   3.275
 2585TIP3    H2 7701   1.321   7.349   3.262
 2586TIP3   OH2 7702   2.856   2.518   2.754
 2586TIP3    H1 7703   2.814   2.599   2.781
 2586TIP3    H2 7704   2.871   2.470   2.835
 2587TIP3   OH2 7705   0.590   5.816   0.399
 2587TIP3    H1 7706   0.529   5.889   0.387
 2587TIP3    H2 7707   0.652   5.825   0.326
 2588TIP3   OH2 7708   4.399   6.664   0.177
 2588TIP3    H1 7709   4.412   6.697   0.266
 2588TIP3    H2 7710   4.481   6.684   0.132
 2589TIP3   OH2 7711   0.107   5.953   5.327
 2589TIP3    H1 7712   0.164   6.000   5.387
 2589TIP3    H2 7713   0.132   5.861   5.335
 2590TIP3   OH2 7714   2.586   4.025   3.406
 2590TIP3    H1 7715   2.602   4.058   3.494
 2590TIP3    H2 7716   2.493   4.044   3.390
 2591TIP3   OH2 7717   2.681   3.344   2.195
 2591TIP3    H1 7718   2.705   3.258   2.228
 2591TIP3    H2 7719   2.763   3.383   2.165
 2592TIP3   OH2 7720   4.365   4.198   2.427
 2592TIP3    H1 7721   4.337   4.110   2.403
 2592TIP3    H2 7722   4.323   4.255   2.362
 2593TIP3   OH2 7723   5.668   4.064   1.925
 2593TIP3    H1 7724   5.742   4.085   1.868
 2593TIP3    H2 7725   5.616   4.000   1.876
 2594TIP3   OH2 7726   1.806   0.208   3.914
 2594TIP3    H1 7727   1.755   0.241   3.988
 2594TIP3    H2 7728   1.760   0.127   3.888
 2595TIP3   OH2 7729   3.526   6.755   5.469
 2595TIP3    H1 7730   3.480   6.723   5.392
 2595TIP3    H2 7731   3.619   6.752   5.445
 2596TIP3   OH2 7732   7.216   6.725   0.450
 2596TIP3    H1 7733   7.279   6.666   0.493
 2596TIP3    H2 7734   7.185   6.782   0.520
 2597TIP3   OH2 7735   6.580   7.237   1.641
 2597TIP3    H1 7736   6.488   7.216   1.627
 2597TIP3    H2 7737   6.582   7.332   1.651
 2598TIP3   OH2 7738   0.607   3.987   4.161
 2598TIP3    H1 7739   0.547   3.992   4.235
 2598TIP3    H2 7740   0.633   4.078   4.146
 2599TIP3   OH2 7741   2.224   7.112   4.231
 2599TIP3    H1 7742   2.262   7.026   4.214
 2599TIP3    H2 7743   2.265   7.141   4.312
 2600TIP3   OH2 7744   7.884   6.576   3.986
 2600TIP3    H1 7745   7.898   6.645   4.052
 2600TIP3    H2 7746   7.808   6.528   4.017
 2601TIP3   OH2 7747   4.391   0.865   5.990
 2601TIP3    H1 7748   4.472   0.915   5.980
 2601TIP3    H2 7749   4.322   0.924   5.959
 2602TIP3   OH2 7750   6.685   3.030   4.939
 2602TIP3    H1 7751   6.753   3.062   4.881
 2602TIP3    H2 7752   6.732   2.985   5.009
 2603TIP3   OH2 7753   3.993   5.801   2.473
 2603TIP3    H1 7754   4.029   5.809   2.561
 2603TIP3    H2 7755   4.045   5.731   2.433
 2604TIP3   OH2 7756   0.263   6.593   6.315
 2604TIP3    H1 7757   0.354   6.572   6.291
 2604TIP3    H2 7758   0.216   6.511   6.304
 2605TIP3   OH2 7759   4.798   7.563   5.471
 2605TIP3    H1 7760   4.781   7.469   5.472
 2605TIP3    H2 7761   4.830   7.581   5.382
 2606TIP3   OH2 7762   1.656   5.209   2.977
 2606TIP3    H1 7763   1.737   5.210   2.926
 2606TIP3    H2 7764   1.616   5.294   2.959
 2607TIP3   OH2 7765   0.638   3.336   1.478
 2607TIP3    H1 7766   0.572   3.365   1.540
 2607TIP3    H2 7767   0.709   3.302   1.533
 2608TIP3   OH2 7768   5.638   2.933   4.495
 2608TIP3    H1 7769   5.611   3.008   4.442
 2608TIP3    H2 7770   5.558   2.905   4.540
 2609TIP3   OH2 7771   5.075   6.913   1.976
 2609TIP3    H1 7772   5.122   6.971   1.917
 2609TIP3    H2 7773   4.996   6.888   1.928
 2610TIP3   OH2 7774   4.552   5.770   0.666
 2610TIP3    H1 7775   4.517   5.721   0.592
 2610TIP3    H2 7776   4.509   5.733   0.743
 2611TIP3   OH2 7777   0.239   2.038   6.237
 2611TIP3    H1 7778   0.236   1.944   6.254
 2611TIP3    H2 7779   0.148   2.064   6.224
 2612TIP3   OH2 7780   0.154   7.315   1.792
 2612TIP3    H1 7781   0.071   7.341   1.831
 2612TIP3    H2 7782   0.164   7.372   1.717
 2613TIP3   OH2 7783   1.848   4.937   2.667
 2613TIP3    H1 7784   1.842   4.897   2.754
 2613TIP3    H2 7785   1.770   4.907   2.621
 2614TIP3   OH2 7786   6.780   1.217   4.832
 2614TIP3    H1 7787   6.773   1.215   4.736
 2614TIP3    H2 7788   6.832   1.295   4.850
 2615TIP3   OH2 7789   1.475   5.502   4.191
 2615TIP3    H1 7790   1.434   5.455   4.263
 2615TIP3    H2 7791   1.541   5.442   4.157
 2616TIP3   OH2 7792   2.873   5.895   4.608
 2616TIP3    H1 7793   2.812   5.923   4.540
 2616TIP3    H2 7794   2.820   5.887   4.687
 2617TIP3   OH2 7795   3.226   4.510   0.888
 2617TIP3    H1 7796   3.130   4.514   0.880
 2617TIP3    H2 7797   3.257   4.546   0.805
 2618TIP3   OH2 7798   1.791   5.396   6.551
 2618TIP3    H1 7799   1.774   5.336   6.623
 2618TIP3    H2 7800   1.848   5.463   6.588
 2619TIP3   OH2 7801   0.435   6.868   0.809
 2619TIP3    H1 7802   0.374   6.899   0.876
 2619TIP3    H2 7803   0.438   6.940   0.745
 2620TIP3   OH2 7804   4.651   1.018   6.442
 2620TIP3    H1 7805   4.603   0.936   6.454
 2620TIP3    H2 7806   4.596   1.084   6.485
 2621TIP3   OH2 7807   7.300   6.268   4.994
 2621TIP3    H1 7808   7.283   6.303   4.907
 2621TIP3    H2 7809   7.379   6.216   4.984
 2622TIP3   OH2 7810   7.934   3.887   0.946
 2622TIP3    H1 7811   7.934   3.950   0.874
 2622TIP3    H2 7812   7.852   3.903   0.992
 2623TIP3   OH2 7813   1.478   4.394   5.819
 2623TIP3    H1 7814   1.412   4.380   5.751
 2623TIP3    H2 7815   1.483   4.489   5.829
 2624TIP3   OH2 7816   8.214   4.754   6.733
 2624TIP3    H1 7817   8.249   4.675   6.775
 2624TIP3    H2 7818   8.242   4.826   6.789
 2625TIP3   OH2 7819   1.032   5.028   3.330
 2625TIP3    H1 7820   1.050   4.947   3.283
 2625TIP3    H2 7821   1.003   5.000   3.417
 2626TIP3   OH2 7822   7.805   4.073   4.471
 2626TIP3    H1 7823   7.734   4.123   4.430
 2626TIP3    H2 7824   7.764   4.034   4.548
 2627TIP3   OH2 7825   4.562   6.190   2.558
 2627TIP3    H1 7826   4.559   6.141   2.475
 2627TIP3    H2 7827   4.634   6.252   2.546
 2628TIP3   OH2 7828   5.235   3.446   3.657
 2628TIP3    H1 7829   5.292   3.425   3.583
 2628TIP3    H2 7830   5.187   3.524   3.629
 2629TIP3   OH2 7831   0.908   2.156   6.426
 2629TIP3    H1 7832   0.960   2.077   6.439
 2629TIP3    H2 7833   0.873   2.176   6.513
 2630TIP3   OH2 7834   2.977   4.154   4.724
 2630TIP3    H1 7835   3.005   4.189   4.809
 2630TIP3    H2 7836   3.036   4.080   4.709
 2631TIP3   OH2 7837   1.289   3.919   1.742
 2631TIP3    H1 7838   1.364   3.869   1.712
 2631TIP3    H2 7839   1.216   3.857   1.738
 2632TIP3   OH2 7840   6.803   2.898   5.162
 2632TIP3    H1 7841   6.817   2.949   5.241
 2632TIP3    H2 7842   6.891   2.873   5.133
 2633TIP3   OH2 7843   5.795   7.496   6.525
 2633TIP3    H1 7844   5.871   7.477   6.580
 2633TIP3    H2 7845   5.817   7.579   6.482
 2634TIP3   OH2 7846   3.350   0.652   0.238
 2634TIP3    H1 7847   3.348   0.577   0.298
 2634TIP3    H2 7848   3.352   0.729   0.295
 2635TIP3   OH2 7849   3.479   6.470   2.607
 2635TIP3    H1 7850   3.440   6.517   2.680
 2635TIP3    H2 7851   3.405   6.431   2.561
 2636TIP3   OH2 7852   6.859   4.400   4.816
 2636TIP3    H1 7853   6.951   4.412   4.795
 2636TIP3    H2 7854   6.814   4.401   4.731
 2637TIP3   OH2 7855   1.578   0.266   1.993
 2637TIP3    H1 7856   1.500   0.311   2.026
 2637TIP3    H2 7857   1.551   0.229   1.910
 2638TIP3   OH2 7858   3.795   0.510   5.277
 2638TIP3    H1 7859   3.701   0.492   5.273
 2638TIP3    H2 7860   3.836   0.426   5.257
 2639TIP3   OH2 7861   8.147   0.327   0.320
 2639TIP3    H1 7862   8.240   0.345   0.331
 2639TIP3    H2 7863   8.140   0.293   0.231
 2640TIP3   OH2 7864   6.921   2.586   0.413
 2640TIP3    H1 7865   6.914   2.506   0.466
 2640TIP3    H2 7866   7.012   2.588   0.385
 2641TIP3   OH2 7867   0.533   7.302   1.034
 2641TIP3    H1 7868   0.497   7.344   1.112
 2641TIP3    H2 7869   0.476   7.331   0.962
 2642TIP3   OH2 7870   6.556   3.928   1.936
 2642TIP3    H1 7871   6.646   3.937   1.906
 2642TIP3    H2 7872   6.504   3.981   1.876
 2643TIP3   OH2 7873   0.731   7.010   0.948
 2643TIP3    H1 7874   0.685   7.089   0.919
 2643TIP3    H2 7875   0.694   6.992   1.035
 2644TIP3   OH2 7876   2.539   5.458   4.290
 2644TIP3    H1 7877   2.474   5.479   4.357
 2644TIP3    H2 7878   2.567   5.543   4.256
 2645TIP3   OH2 7879   5.245   4.539   4.014
 2645TIP3    H1 7880   5.199   4.561   4.095
 2645TIP3    H2 7881   5.278   4.623   3.982
 2646TIP3   OH2 7882   4.170   4.587   2.073
 2646TIP3    H1 7883   4.089   4.595   2.024
 2646TIP3    H2 7884   4.229   4.537   2.017
 2647TIP3   OH2 7885   0.248   6.391   5.036
 2647TIP3    H1 7886   0.171   6.377   5.090
 2647TIP3    H2 7887   0.232   6.475   4.992
 2648TIP3   OH2 7888   7.443   3.117   0.485
 2648TIP3    H1 7889   7.412   3.203   0.458
 2648TIP3    H2 7890   7.538   3.124   0.486
 2649TIP3   OH2 7891   7.583   6.413   6.391
 2649TIP3    H1 7892   7.554   6.448   6.475
 2649TIP3    H2 7893   7.678   6.424   6.392
 2650TIP3   OH2 7894   3.459   6.190   5.604
 2650TIP3    H1 7895   3.539   6.215   5.650
 2650TIP3    H2 7896   3.398   6.165   5.674
 2651TIP3   OH2 7897   0.888   2.803   3.361
 2651TIP3    H1 7898   0.849   2.723   3.325
 2651TIP3    H2 7899   0.814   2.856   3.389
 2652TIP3   OH2 7900   8.143   7.309   5.856
 2652TIP3    H1 7901   8.196   7.378   5.896
 2652TIP3    H2 7902   8.196   7.278   5.782
 2653TIP3   OH2 7903   2.970   5.014   5.842
 2653TIP3    H1 7904   2.921   4.939   5.877
 2653TIP3    H2 7905   3.004   5.058   5.919
 2654TIP3   OH2 7906   4.385   3.782   5.973
 2654TIP3    H1 7907   4.452   3.829   6.022
 2654TIP3    H2 7908   4.306   3.790   6.027
 2655TIP3   OH2 7909   6.017   0.714   5.474
 2655TIP3    H1 7910   5.947   0.682   5.531
 2655TIP3    H2 7911   5.986   0.801   5.445
 2656TIP3   OH2 7912   0.708   7.138   3.613
 2656TIP3    H1 7913   0.722   7.059   3.666
 2656TIP3    H2 7914   0.632   7.180   3.652
 2657TIP3   OH2 7915   4.419   0.112   1.449
 2657TIP3    H1 7916   4.390   0.166   1.523
 2657TIP3    H2 7917   4.506   0.146   1.427
 2658TIP3   OH2 7918   1.052   5.155   5.470
 2658TIP3    H1 7919   1.109   5.113   5.406
 2658TIP3    H2 7920   0.971   5.104   5.467
 2659TIP3   OH2 7921   4.736   7.459   3.186
 2659TIP3    H1 7922   4.779   7.383   3.225
 2659TIP3    H2 7923   4.674   7.422   3.123
 2660TIP3   OH2 7924   2.957   5.807   1.080
 2660TIP3    H1 7925   3.020   5.795   1.151
 2660TIP3    H2 7926   2.920   5.894   1.095
 2661TIP3   OH2 7927   4.523   5.311   4.930
 2661TIP3    H1 7928   4.506   5.376   4.862
 2661TIP3    H2 7929   4.476   5.233   4.900
 2662TIP3   OH2 7930   1.627   0.456   1.402
 2662TIP3    H1 7931   1.647   0.364   1.382
 2662TIP3    H2 7932   1.582   0.488   1.324
 2663TIP3   OH2 7933   1.080   3.763   1.697
 2663TIP3    H1 7934   1.051   3.787   1.609
 2663TIP3    H2 7935   1.033   3.682   1.717
 2664TIP3   OH2 7936   4.617   7.291   5.702
 2664TIP3    H1 7937   4.656   7.274   5.616
 2664TIP3    H2 7938   4.634   7.212   5.752
 2665TIP3   OH2 7939   4.205   1.750   4.799
 2665TIP3    H1 7940   4.292   1.709   4.797
 2665TIP3    H2 7941   4.221   1.841   4.776
 2666TIP3   OH2 7942   6.361   2.259   2.499
 2666TIP3    H1 7943   6.437   2.288   2.549
 2666TIP3    H2 7944   6.303   2.221   2.564
 2667TIP3   OH2 7945   5.287   1.609   6.047
 2667TIP3    H1 7946   5.363   1.665   6.030
 2667TIP3    H2 7947   5.226   1.631   5.977
 2668TIP3   OH2 7948   4.645   0.963   5.101
 2668TIP3    H1 7949   4.606   0.960   5.014
 2668TIP3    H2 7950   4.739   0.953   5.086
 2669TIP3   OH2 7951   5.155   3.155   3.493
 2669TIP3    H1 7952   5.226   3.217   3.476
 2669TIP3    H2 7953   5.147   3.152   3.588
 2670TIP3   OH2 7954   4.862   7.685   2.625
 2670TIP3    H1 7955   4.911   7.755   2.583
 2670TIP3    H2 7956   4.792   7.729   2.674
 2671TIP3   OH2 7957   1.484   0.794   1.054
 2671TIP3    H1 7958   1.390   0.811   1.050
 2671TIP3    H2 7959   1.519   0.861   1.113
 2672TIP3   OH2 7960   1.141   1.258   4.898
 2672TIP3    H1 7961   1.236   1.248   4.897
 2672TIP3    H2 7962   1.121   1.288   4.987
 2673TIP3   OH2 7963   2.407   5.962   0.282
 2673TIP3    H1 7964   2.418   5.877   0.326
 2673TIP3    H2 7965   2.366   5.940   0.198
 2674TIP3   OH2 7966   8.086   5.859   3.424
 2674TIP3    H1 7967   8.025   5.798   3.465
 2674TIP3    H2 7968   8.038   5.893   3.348
 2675TIP3   OH2 7969   5.341   2.299   4.867
 2675TIP3    H1 7970   5.372   2.308   4.957
 2675TIP3    H2 7971   5.247   2.287   4.874
 2676TIP3   OH2 7972   7.468   1.093   1.078
 2676TIP3    H1 7973   7.519   1.015   1.101
 2676TIP3    H2 7974   7.402   1.060   1.017
 2677TIP3   OH2 7975   7.211   0.649   3.008
 2677TIP3    H1 7976   7.204   0.678   3.099
 2677TIP3    H2 7977   7.273   0.576   3.012
 2678TIP3   OH2 7978   4.375   3.155   0.382
 2678TIP3    H1 7979   4.338   3.243   0.387
 2678TIP3    H2 7980   4.432   3.157   0.305
 2679TIP3   OH2 7981   7.289   7.559   1.098
 2679TIP3    H1 7982   7.282   7.643   1.052
 2679TIP3    H2 7983   7.257   7.494   1.035
 2680TIP3   OH2 7984   6.856   0.935   4.807
 2680TIP3    H1 7985   6.799   0.914   4.733
 2680TIP3    H2 7986   6.858   1.030   4.809
 2681TIP3   OH2 7987   1.942   1.537   6.516
 2681TIP3    H1 7988   1.865   1.525   6.460
 2681TIP3    H2 7989   1.953   1.631   6.523
 2682TIP3   OH2 7990   4.052   6.704   0.828
 2682TIP3    H1 7991   4.031   6.765   0.757
 2682TIP3    H2 7992   3.970   6.659   0.847
 2683TIP3   OH2 7993   2.800   1.098   0.069
 2683TIP3    H1 7994   2.762   1.158   0.005
 2683TIP3    H2 7995   2.731   1.035   0.087
 2684TIP3   OH2 7996   6.589   4.232   5.916
 2684TIP3    H1 7997   6.594   4.215   6.010
 2684TIP3    H2 7998   6.665   4.287   5.899
 2685TIP3   OH2 7999   5.550   5.511   3.839
 2685TIP3    H1 8000   5.494   5.560   3.899
 2685TIP3    H2 8001   5.538   5.554   3.754
 2686TIP3   OH2 8002   1.664   5.567   2.301
 2686TIP3    H1 8003   1.576   5.578   2.265
 2686TIP3    H2 8004   1.715   5.529   2.229
 2687TIP3   OH2 8005   1.779   3.589   4.245
 2687TIP3    H1 8006   1.751   3.591   4.337
 2687TIP3    H2 8007   1.874   3.584   4.248
 2688TIP3   OH2 8008   1.832   6.413   1.902
 2688TIP3    H1 8009   1.745   6.378   1.919
 2688TIP3    H2 8010   1.890   6.362   1.958
 2689TIP3   OH2 8011   7.096   2.216   0.211
 2689TIP3    H1 8012   7.157   2.144   0.229
 2689TIP3    H2 8013   7.151   2.294   0.208
 2690TIP3   OH2 8014   5.737   0.749   1.824
 2690TIP3    H1 8015   5.768   0.685   1.760
 2690TIP3    H2 8016   5.767   0.833   1.790
 2691TIP3   OH2 8017   4.464   1.635   2.763
 2691TIP3    H1 8018   4.453   1.718   2.809
 2691TIP3    H2 8019   4.381   1.620   2.719
 2692TIP3   OH2 8020   1.891   5.992   5.260
 2692TIP3    H1 8021   1.826   6.022   5.197
 2692TIP3    H2 8022   1.970   6.041   5.239
 2693TIP3   OH2 8023   7.769   7.282   4.760
 2693TIP3    H1 8024   7.790   7.342   4.688
 2693TIP3    H2 8025   7.789   7.331   4.839
 2694TIP3   OH2 8026   3.607   2.680   3.595
 2694TIP3    H1 8027   3.517   2.651   3.582
 2694TIP3    H2 8028   3.650   2.666   3.511
 2695TIP3   OH2 8029   6.897   0.798   6.470
 2695TIP3    H1 8030   6.896   0.872   6.530
 2695TIP3    H2 8031   6.806   0.768   6.468
 2696TIP3   OH2 8032   7.003   1.699   5.261
 2696TIP3    H1 8033   6.952   1.628   5.220
 2696TIP3    H2 8034   7.094   1.675   5.245
 2697TIP3   OH2 8035   4.806   7.150   1.025
 2697TIP3    H1 8036   4.812   7.181   1.115
 2697TIP3    H2 8037   4.784   7.057   1.034
 2698TIP3   OH2 8038   0.383   7.682   5.251
 2698TIP3    H1 8039   0.455   7.622   5.269
 2698TIP3    H2 8040   0.326   7.635   5.191
 2699TIP3   OH2 8041   6.844   3.126   0.304
 2699TIP3    H1 8042   6.908   3.055   0.312
 2699TIP3    H2 8043   6.896   3.206   0.309
 2700TIP3   OH2 8044   0.109   3.208   1.397
 2700TIP3    H1 8045   0.143   3.280   1.451
 2700TIP3    H2 8046   0.147   3.130   1.436
 2701TIP3   OH2 8047   2.628   1.727   6.344
 2701TIP3    H1 8048   2.539   1.749   6.371
 2701TIP3    H2 8049   2.684   1.773   6.407
 2702TIP3   OH2 8050   5.913   7.191   0.760
 2702TIP3    H1 8051   5.840   7.144   0.719
 2702TIP3    H2 8052   5.870   7.252   0.821
 2703TIP3   OH2 8053   2.662   3.557   2.641
 2703TIP3    H1 8054   2.602   3.491   2.674
 2703TIP3    H2 8055   2.748   3.529   2.674
 2704TIP3   OH2 8056   2.319   1.326   3.954
 2704TIP3    H1 8057   2.285   1.329   4.044
 2704TIP3    H2 8058   2.414   1.325   3.965
 2705TIP3   OH2 8059   3.390   0.878   0.380
 2705TIP3    H1 8060   3.383   0.958   0.328
 2705TIP3    H2 8061   3.322   0.886   0.446
 2706TIP3   OH2 8062   7.879   2.453   4.690
 2706TIP3    H1 8063   7.790   2.461   4.722
 2706TIP3    H2 8064   7.933   2.447   4.769
 2707TIP3   OH2 8065   6.864   4.067   6.652
 2707TIP3    H1 8066   6.916   4.116   6.588
 2707TIP3    H2 8067   6.775   4.100   6.640
 2708TIP3   OH2 8068   4.309   1.431   1.879
 2708TIP3    H1 8069   4.286   1.367   1.946
 2708TIP3    H2 8070   4.392   1.469   1.910
 2709TIP3   OH2 8071   7.176   5.318   5.473
 2709TIP3    H1 8072   7.152   5.382   5.540
 2709TIP3    H2 8073   7.158   5.363   5.390
 2710TIP3   OH2 8074   7.572   2.926   4.467
 2710TIP3    H1 8075   7.608   2.931   4.378
 2710TIP3    H2 8076   7.500   2.863   4.460
 2711TIP3   OH2 8077   2.994   1.349   2.957
 2711TIP3    H1 8078   2.998   1.424   3.016
 2711TIP3    H2 8079   2.966   1.276   3.013
 2712TIP3   OH2 8080   5.681   3.427   4.455
 2712TIP3    H1 8081   5.749   3.414   4.521
 2712TIP3    H2 8082   5.729   3.451   4.376
 2713TIP3   OH2 8083   5.497   3.838   3.148
 2713TIP3    H1 8084   5.431   3.892   3.192
 2713TIP3    H2 8085   5.581   3.876   3.174
 2714TIP3   OH2 8086   3.781   3.326   4.100
 2714TIP3    H1 8087   3.855   3.266   4.089
 2714TIP3    H2 8088   3.814   3.411   4.071
 2715TIP3   OH2 8089   4.259   5.049   5.899
 2715TIP3    H1 8090   4.238   4.999   5.820
 2715TIP3    H2 8091   4.175   5.072   5.937
 2716TIP3   OH2 8092   1.857   1.833   1.267
 2716TIP3    H1 8093   1.811   1.913   1.289
 2716TIP3    H2 8094   1.790   1.776   1.230
 2717TIP3   OH2 8095   2.939   7.343   0.305
 2717TIP3    H1 8096   2.853   7.381   0.285
 2717TIP3    H2 8097   2.920   7.253   0.331
 2718TIP3   OH2 8098   2.920   4.045   6.443
 2718TIP3    H1 8099   2.970   3.965   6.432
 2718TIP3    H2 8100   2.982   4.107   6.482
 2719TIP3   OH2 8101   3.196   3.145   3.617
 2719TIP3    H1 8102   3.271   3.090   3.640
 2719TIP3    H2 8103   3.120   3.098   3.651
 2720TIP3   OH2 8104   8.192   6.081   3.558
 2720TIP3    H1 8105   8.170   6.066   3.649
 2720TIP3    H2 8106   8.136   6.021   3.509
 2721TIP3   OH2 8107   0.020   3.028   4.247
 2721TIP3    H1 8108   0.031   2.985   4.332
 2721TIP3    H2 8109  -0.040   3.101   4.266
 2722TIP3   OH2 8110   7.302   4.546   1.147
 2722TIP3    H1 8111   7.351   4.503   1.218
 2722TIP3    H2 8112   7.259   4.474   1.101
 2723TIP3   OH2 8113   7.039   5.084   0.119
 2723TIP3    H1 8114   7.099   5.050   0.185
 2723TIP3    H2 8115   7.068   5.044   0.037
 2724TIP3   OH2 8116   4.238   4.251   0.891
 2724TIP3    H1 8117   4.227   4.341   0.922
 2724TIP3    H2 8118   4.329   4.229   0.911
 2725TIP3   OH2 8119   6.224   1.888   4.068
 2725TIP3    H1 8120   6.242   1.829   4.141
 2725TIP3    H2 8121   6.308   1.896   4.024
 2726TIP3   OH2 8122   3.982   6.748   3.397
 2726TIP3    H1 8123   3.935   6.723   3.476
 2726TIP3    H2 8124   3.913   6.778   3.337
 2727TIP3   OH2 8125   5.131   5.064   5.531
 2727TIP3    H1 8126   5.160   5.020   5.610
 2727TIP3    H2 8127   5.055   5.013   5.501
 2728TIP3   OH2 8128   2.413   2.656   0.815
 2728TIP3    H1 8129   2.500   2.655   0.776
 2728TIP3    H2 8130   2.424   2.706   0.896
 2729TIP3   OH2 8131   5.052   3.382   4.106
 2729TIP3    H1 8132   5.043   3.455   4.044
 2729TIP3    H2 8133   4.973   3.329   4.091
 2730TIP3   OH2 8134   1.109   6.321   4.926
 2730TIP3    H1 8135   1.085   6.294   4.837
 2730TIP3    H2 8136   1.040   6.285   4.981
 2731TIP3   OH2 8137   1.440   3.142   0.448
 2731TIP3    H1 8138   1.509   3.076   0.448
 2731TIP3    H2 8139   1.486   3.225   0.460
 2732TIP3   OH2 8140   3.022   3.862   5.858
 2732TIP3    H1 8141   3.076   3.791   5.893
 2732TIP3    H2 8142   2.946   3.818   5.821
 2733TIP3   OH2 8143   4.389   1.749   3.234
 2733TIP3    H1 8144   4.483   1.744   3.251
 2733TIP3    H2 8145   4.360   1.658   3.226
 2734TIP3   OH2 8146   1.802   5.483   5.997
 2734TIP3    H1 8147   1.820   5.438   6.079
 2734TIP3    H2 8148   1.827   5.421   5.928
 2735TIP3   OH2 8149   4.671   0.952   2.039
 2735TIP3    H1 8150   4.654   1.043   2.013
 2735TIP3    H2 8151   4.728   0.960   2.115
 2736TIP3   OH2 8152   3.292   6.783   4.736
 2736TIP3    H1 8153   3.248   6.710   4.695
 2736TIP3    H2 8154   3.236   6.858   4.720
 2737TIP3   OH2 8155   4.994   5.234   5.885
 2737TIP3    H1 8156   4.996   5.270   5.796
 2737TIP3    H2 8157   4.981   5.310   5.942
 2738TIP3   OH2 8158   3.006   1.232   2.693
 2738TIP3    H1 8159   2.926   1.182   2.711
 2738TIP3    H2 8160   3.014   1.292   2.767
 2739TIP3   OH2 8161   6.412   1.575   3.156
 2739TIP3    H1 8162   6.446   1.486   3.160
 2739TIP3    H2 8163   6.459   1.616   3.083
 2740TIP3   OH2 8164   4.365   0.649   2.163
 2740TIP3    H1 8165   4.332   0.600   2.238
 2740TIP3    H2 8166   4.389   0.582   2.098
 2741TIP3   OH2 8167   8.272   6.319   6.203
 2741TIP3    H1 8168   8.243   6.347   6.116
 2741TIP3    H2 8169   8.270   6.224   6.199
 2742TIP3   OH2 8170   5.778   4.994   2.327
 2742TIP3    H1 8171   5.788   5.044   2.246
 2742TIP3    H2 8172   5.684   4.997   2.345
 2743TIP3   OH2 8173   4.587   7.579   0.016
 2743TIP3    H1 8174   4.552   7.632   0.087
 2743TIP3    H2 8175   4.679   7.605   0.010
 2744TIP3   OH2 8176   2.321   1.973   4.456
 2744TIP3    H1 8177   2.377   1.973   4.378
 2744TIP3    H2 8178   2.248   2.031   4.433
 2745TIP3   OH2 8179   8.158   7.536   2.164
 2745TIP3    H1 8180   8.192   7.625   2.175
 2745TIP3    H2 8181   8.066   7.548   2.140
 2746TIP3   OH2 8182   4.927   5.583   4.979
 2746TIP3    H1 8183   4.843   5.619   4.951
 2746TIP3    H2 8184   4.913   5.556   5.070
 2747TIP3   OH2 8185   1.959   5.897   6.678
 2747TIP3    H1 8186   2.012   5.943   6.743
 2747TIP3    H2 8187   1.878   5.875   6.723
 2748TIP3   OH2 8188   8.226   1.357   0.291
 2748TIP3    H1 8189   8.270   1.291   0.344
 2748TIP3    H2 8190   8.220   1.318   0.204
 2749TIP3   OH2 8191   1.530   2.858   0.112
 2749TIP3    H1 8192   1.446   2.862   0.157
 2749TIP3    H2 8193   1.588   2.812   0.173
 2750TIP3   OH2 8194   4.507   7.515   0.437
 2750TIP3    H1 8195   4.549   7.584   0.386
 2750TIP3    H2 8196   4.517   7.543   0.528
 2751TIP3   OH2 8197   5.674   7.320   1.396
 2751TIP3    H1 8198   5.698   7.383   1.465
 2751TIP3    H2 8199   5.627   7.251   1.442
 2752TIP3   OH2 8200   6.845   0.356   0.541
 2752TIP3    H1 8201   6.852   0.441   0.497
 2752TIP3    H2 8202   6.935   0.335   0.566
 2753TIP3   OH2 8203   1.380   3.056   2.553
 2753TIP3    H1 8204   1.439   3.122   2.518
 2753TIP3    H2 8205   1.347   3.009   2.476
 2754TIP3   OH2 8206   2.333   4.605   0.455
 2754TIP3    H1 8207   2.348   4.656   0.535
 2754TIP3    H2 8208   2.384   4.651   0.388
 2755TIP3   OH2 8209   4.031   6.770   4.849
 2755TIP3    H1 8210   3.983   6.791   4.769
 2755TIP3    H2 8211   4.122   6.793   4.829
 2756TIP3   OH2 8212   2.522   3.852   5.666
 2756TIP3    H1 8213   2.472   3.834   5.586
 2756TIP3    H2 8214   2.607   3.883   5.635
 2757TIP3   OH2 8215   0.876   7.845   1.697
 2757TIP3    H1 8216   0.835   7.775   1.646
 2757TIP3    H2 8217   0.970   7.826   1.691
 2758TIP3   OH2 8218   8.037   4.989   1.583
 2758TIP3    H1 8219   8.123   4.991   1.626
 2758TIP3    H2 8220   7.981   4.941   1.644
 2759TIP3   OH2 8221   3.847   6.489   3.807
 2759TIP3    H1 8222   3.804   6.404   3.804
 2759TIP3    H2 8223   3.849   6.511   3.900
 2760TIP3   OH2 8224   5.532   4.799   0.860
 2760TIP3    H1 8225   5.437   4.791   0.869
 2760TIP3    H2 8226   5.546   4.832   0.771
 2761TIP3   OH2 8227   2.950   7.347   2.163
 2761TIP3    H1 8228   3.013   7.414   2.190
 2761TIP3    H2 8229   2.997   7.264   2.174
 2762TIP3   OH2 8230   1.219   1.762   0.060
 2762TIP3    H1 8231   1.226   1.671   0.089
 2762TIP3    H2 8232   1.242   1.814   0.137
 2763TIP3   OH2 8233   3.845   2.299   0.412
 2763TIP3    H1 8234   3.832   2.297   0.317
 2763TIP3    H2 8235   3.781   2.362   0.443
 2764TIP3   OH2 8236   1.107   4.717   2.416
 2764TIP3    H1 8237   1.178   4.736   2.355
 2764TIP3    H2 8238   1.028   4.723   2.363
 2765TIP3   OH2 8239   8.125   5.920   1.319
 2765TIP3    H1 8240   8.136   6.014   1.312
 2765TIP3    H2 8241   8.033   5.909   1.344
 2766TIP3   OH2 8242   3.986   1.836   1.057
 2766TIP3    H1 8243   3.906   1.887   1.068
 2766TIP3    H2 8244   4.033   1.847   1.140
 2767TIP3   OH2 8245   4.556   2.979   2.420
 2767TIP3    H1 8246   4.624   2.965   2.486
 2767TIP3    H2 8247   4.581   3.060   2.377
 2768TIP3   OH2 8248   1.523   0.966   4.310
 2768TIP3    H1 8249   1.536   0.904   4.381
 2768TIP3    H2 8250   1.592   0.945   4.247
 2769TIP3   OH2 8251   1.955   4.605   3.533
 2769TIP3    H1 8252   1.885   4.567   3.585
 2769TIP3    H2 8253   2.021   4.631   3.597
 2770TIP3   OH2 8254   4.791   4.675   1.299
 2770TIP3    H1 8255   4.803   4.669   1.204
 2770TIP3    H2 8256   4.696   4.670   1.312
 2771TIP3   OH2 8257   7.985   3.664   1.085
 2771TIP3    H1 8258   7.921   3.617   1.031
 2771TIP3    H2 8259   7.971   3.757   1.063
 2772TIP3   OH2 8260   1.260   6.846   3.563
 2772TIP3    H1 8261   1.350   6.824   3.537
 2772TIP3    H2 8262   1.242   6.930   3.520
 2773TIP3   OH2 8263   3.720   0.384   0.761
 2773TIP3    H1 8264   3.699   0.434   0.682
 2773TIP3    H2 8265   3.797   0.427   0.797
 2774TIP3   OH2 8266   1.596   5.353   3.904
 2774TIP3    H1 8267   1.524   5.293   3.924
 2774TIP3    H2 8268   1.552   5.430   3.867
 2775TIP3   OH2 8269   6.706   4.534   2.062
 2775TIP3    H1 8270   6.758   4.513   1.984
 2775TIP3    H2 8271   6.765   4.585   2.117
 2776TIP3   OH2 8272   6.408   3.600   0.378
 2776TIP3    H1 8273   6.400   3.547   0.457
 2776TIP3    H2 8274   6.466   3.549   0.321
 2777TIP3   OH2 8275   3.871   6.077   4.589
 2777TIP3    H1 8276   3.881   6.160   4.635
 2777TIP3    H2 8277   3.959   6.041   4.586
 2778TIP3   OH2 8278   0.514   5.875   4.544
 2778TIP3    H1 8279   0.492   5.864   4.452
 2778TIP3    H2 8280   0.479   5.962   4.567
 2779TIP3   OH2 8281   1.414   5.343   3.302
 2779TIP3    H1 8282   1.361   5.403   3.355
 2779TIP3    H2 8283   1.428   5.267   3.358
 2780TIP3   OH2 8284   7.084   0.741   0.631
 2780TIP3    H1 8285   7.127   0.698   0.705
 2780TIP3    H2 8286   7.106   0.833   0.641
 2781TIP3   OH2 8287   4.134   3.003   5.642
 2781TIP3    H1 8288   4.045   3.034   5.625
 2781TIP3    H2 8289   4.170   3.066   5.704
 2782TIP3   OH2 8290   3.209   0.956   5.239
 2782TIP3    H1 8291   3.241   1.035   5.281
 2782TIP3    H2 8292   3.272   0.888   5.264
 2783TIP3   OH2 8293   3.697   5.145   1.537
 2783TIP3    H1 8294   3.630   5.171   1.601
 2783TIP3    H2 8295   3.649   5.092   1.473
 2784TIP3   OH2 8296   1.534   7.249   2.253
 2784TIP3    H1 8297   1.494   7.184   2.196
 2784TIP3    H2 8298   1.623   7.217   2.268
 2785TIP3   OH2 8299   0.851   6.364   2.333
 2785TIP3    H1 8300   0.826   6.452   2.304
 2785TIP3    H2 8301   0.823   6.360   2.424
 2786TIP3   OH2 8302   5.584   0.437   6.215
 2786TIP3    H1 8303   5.505   0.434   6.159
 2786TIP3    H2 8304   5.576   0.360   6.270
 2787TIP3   OH2 8305   6.154   2.556   0.975
 2787TIP3    H1 8306   6.210   2.621   0.932
 2787TIP3    H2 8307   6.095   2.608   1.029
 2788TIP3   OH2 8308   6.304   4.207   5.221
 2788TIP3    H1 8309   6.352   4.215   5.303
 2788TIP3    H2 8310   6.330   4.122   5.186
 2789TIP3   OH2 8311   4.694   4.789   5.330
 2789TIP3    H1 8312   4.684   4.713   5.274
 2789TIP3    H2 8313   4.661   4.761   5.415
 2790TIP3   OH2 8314   2.089   0.228   1.312
 2790TIP3    H1 8315   2.112   0.259   1.400
 2790TIP3    H2 8316   2.058   0.306   1.266
 2791TIP3   OH2 8317   4.187   2.435   4.844
 2791TIP3    H1 8318   4.217   2.445   4.754
 2791TIP3    H2 8319   4.118   2.369   4.839
 2792TIP3   OH2 8320   1.822   0.604   2.621
 2792TIP3    H1 8321   1.802   0.619   2.714
 2792TIP3    H2 8322   1.786   0.681   2.577
 2793TIP3   OH2 8323   3.845   2.133   3.561
 2793TIP3    H1 8324   3.854   2.038   3.550
 2793TIP3    H2 8325   3.761   2.154   3.519
 2794TIP3   OH2 8326   7.102   0.974   5.375
 2794TIP3    H1 8327   7.058   1.031   5.438
 2794TIP3    H2 8328   7.085   1.015   5.290
 2795TIP3   OH2 8329   4.307   5.315   1.863
 2795TIP3    H1 8330   4.392   5.275   1.844
 2795TIP3    H2 8331   4.259   5.309   1.780
 2796TIP3   OH2 8332   3.927   7.609   0.667
 2796TIP3    H1 8333   3.991   7.556   0.716
 2796TIP3    H2 8334   3.974   7.689   0.645
 2797TIP3   OH2 8335   1.010   5.725   6.055
 2797TIP3    H1 8336   1.017   5.793   5.987
 2797TIP3    H2 8337   0.916   5.707   6.061
 2798TIP3   OH2 8338   5.937   0.784   0.283
 2798TIP3    H1 8339   6.026   0.784   0.317
 2798TIP3    H2 8340   5.935   0.857   0.221
 2799TIP3   OH2 8341   7.720   3.129   0.380
 2799TIP3    H1 8342   7.755   3.097   0.464
 2799TIP3    H2 8343   7.722   3.053   0.323
 2800TIP3   OH2 8344   4.446   0.375   3.459
 2800TIP3    H1 8345   4.462   0.309   3.391
 2800TIP3    H2 8346   4.368   0.345   3.504
 2801TIP3   OH2 8347   3.977   1.328   0.210
 2801TIP3    H1 8348   4.011   1.251   0.165
 2801TIP3    H2 8349   3.998   1.401   0.153
 2802TIP3   OH2 8350   2.365   2.509   2.680
 2802TIP3    H1 8351   2.359   2.604   2.674
 2802TIP3    H2 8352   2.432   2.494   2.748
 2803TIP3   OH2 8353   1.599   2.015   3.229
 2803TIP3    H1 8354   1.551   2.004   3.311
 2803TIP3    H2 8355   1.593   1.930   3.186
 2804TIP3   OH2 8356   1.151   3.271   5.509
 2804TIP3    H1 8357   1.143   3.347   5.567
 2804TIP3    H2 8358   1.201   3.207   5.560
 2805TIP3   OH2 8359   7.175   6.300   0.852
 2805TIP3    H1 8360   7.104   6.262   0.904
 2805TIP3    H2 8361   7.216   6.225   0.809
 2806TIP3   OH2 8362   7.090   3.929   5.697
 2806TIP3    H1 8363   7.102   3.860   5.633
 2806TIP3    H2 8364   7.146   3.904   5.771
 2807TIP3   OH2 8365   2.753   5.023   4.519
 2807TIP3    H1 8366   2.742   4.948   4.577
 2807TIP3    H2 8367   2.814   4.994   4.452
 2808TIP3   OH2 8368   3.345   7.060   0.201
 2808TIP3    H1 8369   3.440   7.074   0.204
 2808TIP3    H2 8370   3.310   7.148   0.186
 2809TIP3   OH2 8371   1.653   3.006   3.947
 2809TIP3    H1 8372   1.628   3.098   3.953
 2809TIP3    H2 8373   1.590   2.969   3.885
 2810TIP3   OH2 8374   5.480   2.417   6.365
 2810TIP3    H1 8375   5.516   2.456   6.286
 2810TIP3    H2 8376   5.386   2.413   6.349
 2811TIP3   OH2 8377   2.793   1.833   3.799
 2811TIP3    H1 8378   2.882   1.798   3.806
 2811TIP3    H2 8379   2.765   1.809   3.711
 2812TIP3   OH2 8380   7.676   3.293   4.195
 2812TIP3    H1 8381   7.693   3.234   4.269
 2812TIP3    H2 8382   7.742   3.362   4.204
 2813TIP3   OH2 8383   3.177   6.998   1.179
 2813TIP3    H1 8384   3.259   7.004   1.130
 2813TIP3    H2 8385   3.180   7.072   1.240
 2814TIP3   OH2 8386   6.294   6.391   6.802
 2814TIP3    H1 8387   6.242   6.312   6.791
 2814TIP3    H2 8388   6.284   6.439   6.719
 2815TIP3   OH2 8389   4.647   1.395   5.186
 2815TIP3    H1 8390   4.574   1.338   5.212
 2815TIP3    H2 8391   4.703   1.398   5.264
 2816TIP3   OH2 8392   8.085   4.579   6.069
 2816TIP3    H1 8393   8.087   4.650   6.132
 2816TIP3    H2 8394   8.151   4.602   6.003
 2817TIP3   OH2 8395   2.885   6.302   2.889
 2817TIP3    H1 8396   2.853   6.388   2.863
 2817TIP3    H2 8397   2.815   6.267   2.944
 2818TIP3   OH2 8398   3.496   3.570   4.430
 2818TIP3    H1 8399   3.481   3.512   4.505
 2818TIP3    H2 8400   3.581   3.609   4.447
 2819TIP3   OH2 8401   0.628   5.077   2.543
 2819TIP3    H1 8402   0.564   5.062   2.613
 2819TIP3    H2 8403   0.691   5.005   2.553
 2820TIP3   OH2 8404   5.312   2.919   1.473
 2820TIP3    H1 8405   5.324   2.834   1.431
 2820TIP3    H2 8406   5.240   2.905   1.535
 2821TIP3   OH2 8407   1.825   3.841   1.215
 2821TIP3    H1 8408   1.868   3.769   1.260
 2821TIP3    H2 8409   1.871   3.848   1.131
 2822TIP3   OH2 8410   7.931   0.565   0.994
 2822TIP3    H1 8411   7.999   0.576   0.927
 2822TIP3    H2 8412   7.851   0.594   0.951
 2823TIP3   OH2 8413   6.816   1.312   4.372
 2823TIP3    H1 8414   6.733   1.309   4.419
 2823TIP3    H2 8415   6.880   1.279   4.435
 2824TIP3   OH2 8416   4.666   6.085   2.272
 2824TIP3    H1 8417   4.721   6.089   2.350
 2824TIP3    H2 8418   4.699   6.008   2.224
 2825TIP3   OH2 8419   8.031   7.036   6.396
 2825TIP3    H1 8420   8.006   6.972   6.329
 2825TIP3    H2 8421   8.045   6.984   6.475
 2826TIP3   OH2 8422   2.662   2.209   6.547
 2826TIP3    H1 8423   2.676   2.170   6.633
 2826TIP3    H2 8424   2.567   2.218   6.540
 2827TIP3   OH2 8425   7.481   4.948   5.192
 2827TIP3    H1 8426   7.463   4.997   5.272
 2827TIP3    H2 8427   7.414   4.976   5.130
 2828TIP3   OH2 8428   0.728   0.852   1.716
 2828TIP3    H1 8429   0.672   0.779   1.690
 2828TIP3    H2 8430   0.668   0.911   1.762
 2829TIP3   OH2 8431   1.628   3.940   5.118
 2829TIP3    H1 8432   1.675   3.884   5.057
 2829TIP3    H2 8433   1.683   4.017   5.128
 2830TIP3   OH2 8434   2.019   3.287   3.945
 2830TIP3    H1 8435   2.015   3.213   3.884
 2830TIP3    H2 8436   1.959   3.263   4.015
 2831TIP3   OH2 8437   5.416   1.460   1.692
 2831TIP3    H1 8438   5.345   1.427   1.637
 2831TIP3    H2 8439   5.495   1.442   1.642
 2832TIP3   OH2 8440   1.725   4.217   5.219
 2832TIP3    H1 8441   1.684   4.299   5.248
 2832TIP3    H2 8442   1.812   4.243   5.188
 2833TIP3   OH2 8443   3.657   3.114   3.285
 2833TIP3    H1 8444   3.690   3.198   3.253
 2833TIP3    H2 8445   3.587   3.091   3.224
 2834TIP3   OH2 8446   3.781   4.164   0.660
 2834TIP3    H1 8447   3.714   4.197   0.720
 2834TIP3    H2 8448   3.856   4.144   0.716
 2835TIP3   OH2 8449   3.509   7.728   1.131
 2835TIP3    H1 8450   3.557   7.789   1.074
 2835TIP3    H2 8451   3.531   7.756   1.220
 2836TIP3   OH2 8452   3.659   0.287   5.041
 2836TIP3    H1 8453   3.733   0.274   4.982
 2836TIP3    H2 8454   3.611   0.205   5.038
 2837TIP3   OH2 8455   1.101   1.601   4.631
 2837TIP3    H1 8456   1.066   1.644   4.709
 2837TIP3    H2 8457   1.024   1.575   4.581
 2838TIP3   OH2 8458   2.160   0.720   6.755
 2838TIP3    H1 8459   2.189   0.806   6.723
 2838TIP3    H2 8460   2.228   0.692   6.816
 2839TIP3   OH2 8461   1.235   0.059   0.176
 2839TIP3    H1 8462   1.201  -0.019   0.220
 2839TIP3    H2 8463   1.206   0.132   0.231
 2840TIP3   OH2 8464   7.893   0.177   5.229
 2840TIP3    H1 8465   7.816   0.224   5.199
 2840TIP3    H2 8466   7.858   0.097   5.269
 2841TIP3   OH2 8467   2.960   1.442   5.897
 2841TIP3    H1 8468   2.983   1.448   5.990
 2841TIP3    H2 8469   2.915   1.357   5.890
 2842TIP3   OH2 8470   0.265   5.054   5.455
 2842TIP3    H1 8471   0.330   4.984   5.449
 2842TIP3    H2 8472   0.228   5.045   5.543
 2843TIP3   OH2 8473   0.407   5.428   0.160
 2843TIP3    H1 8474   0.423   5.338   0.130
 2843TIP3    H2 8475   0.397   5.479   0.080
 2844TIP3   OH2 8476   5.325   4.103   5.835
 2844TIP3    H1 8477   5.343   4.161   5.761
 2844TIP3    H2 8478   5.411   4.082   5.871
 2845TIP3   OH2 8479   7.136   3.942   6.467
 2845TIP3    H1 8480   7.143   3.978   6.379
 2845TIP3    H2 8481   7.207   3.983   6.516
 2846TIP3   OH2 8482   7.546   0.399   3.783
 2846TIP3    H1 8483   7.455   0.370   3.793
 2846TIP3    H2 8484   7.541   0.494   3.778
 2847TIP3   OH2 8485   4.899   5.508   5.248
 2847TIP3    H1 8486   4.832   5.576   5.248
 2847TIP3    H2 8487   4.862   5.438   5.302
 2848TIP3   OH2 8488   3.301   1.394   1.268
 2848TIP3    H1 8489   3.368   1.424   1.329
 2848TIP3    H2 8490   3.222   1.441   1.293
 2849TIP3   OH2 8491   2.393   1.415   5.287
 2849TIP3    H1 8492   2.337   1.356   5.236
 2849TIP3    H2 8493   2.340   1.440   5.362
 2850TIP3   OH2 8494   1.822   3.849   2.228
 2850TIP3    H1 8495   1.843   3.942   2.227
 2850TIP3    H2 8496   1.893   3.808   2.179
 2851TIP3   OH2 8497   5.195   4.377   4.275
 2851TIP3    H1 8498   5.224   4.459   4.315
 2851TIP3    H2 8499   5.198   4.312   4.345
 2852TIP3   OH2 8500   4.166   7.748   3.529
 2852TIP3    H1 8501   4.141   7.822   3.473
 2852TIP3    H2 8502   4.221   7.788   3.597
 2853TIP3   OH2 8503   2.835   3.503   3.984
 2853TIP3    H1 8504   2.822   3.534   4.074
 2853TIP3    H2 8505   2.754   3.456   3.964
 2854TIP3   OH2 8506   7.113   2.189   3.974
 2854TIP3    H1 8507   7.123   2.204   4.068
 2854TIP3    H2 8508   7.193   2.225   3.935
 2855TIP3   OH2 8509   3.393   5.320   6.349
 2855TIP3    H1 8510   3.411   5.408   6.381
 2855TIP3    H2 8511   3.346   5.277   6.420
 2856TIP3   OH2 8512   7.893   7.206   2.610
 2856TIP3    H1 8513   7.952   7.158   2.552
 2856TIP3    H2 8514   7.948   7.233   2.683
 2857TIP3   OH2 8515   1.077   5.111   2.849
 2857TIP3    H1 8516   1.134   5.035   2.836
 2857TIP3    H2 8517   1.136   5.179   2.882
 2858TIP3   OH2 8518   4.294   1.297   5.432
 2858TIP3    H1 8519   4.336   1.311   5.517
 2858TIP3    H2 8520   4.280   1.203   5.427
 2859TIP3   OH2 8521   3.202   4.812   5.651
 2859TIP3    H1 8522   3.124   4.858   5.619
 2859TIP3    H2 8523   3.191   4.809   5.746
 2860TIP3   OH2 8524   2.231   3.420   5.738
 2860TIP3    H1 8525   2.193   3.466   5.664
 2860TIP3    H2 8526   2.222   3.327   5.716
 2861TIP3   OH2 8527   3.491   1.468   3.358
 2861TIP3    H1 8528   3.512   1.534   3.424
 2861TIP3    H2 8529   3.557   1.400   3.371
 2862TIP3   OH2 8530   3.857   6.472   5.606
 2862TIP3    H1 8531   3.802   6.466   5.684
 2862TIP3    H2 8532   3.928   6.531   5.631
 2863TIP3   OH2 8533   0.075   6.796   5.245
 2863TIP3    H1 8534   0.108   6.884   5.263
 2863TIP3    H2 8535   0.155   6.743   5.237
 2864TIP3   OH2 8536   4.675   5.953   1.674
 2864TIP3    H1 8537   4.634   6.039   1.677
 2864TIP3    H2 8538   4.606   5.893   1.701
 2865TIP3   OH2 8539   8.172   1.802   1.405
 2865TIP3    H1 8540   8.239   1.750   1.450
 2865TIP3    H2 8541   8.089   1.765   1.435
 2866TIP3   OH2 8542   5.216   5.796   1.125
 2866TIP3    H1 8543   5.170   5.846   1.192
 2866TIP3    H2 8544   5.246   5.861   1.062
 2867TIP3   OH2 8545   7.452   3.741   4.159
 2867TIP3    H1 8546   7.369   3.694   4.165
 2867TIP3    H2 8547   7.508   3.699   4.225
 2868TIP3   OH2 8548   1.171   0.356   2.489
 2868TIP3    H1 8549   1.110   0.399   2.550
 2868TIP3    H2 8550   1.250   0.341   2.541
 2869TIP3   OH2 8551   4.438   5.472   3.251
 2869TIP3    H1 8552   4.470   5.394   3.206
 2869TIP3    H2 8553   4.517   5.518   3.279
 2870TIP3   OH2 8554   2.965   2.556   3.326
 2870TIP3    H1 8555   2.870   2.549   3.328
 2870TIP3    H2 8556   2.991   2.504   3.249
 2871TIP3   OH2 8557   1.956   3.845   0.566
 2871TIP3    H1 8558   2.037   3.867   0.521
 2871TIP3    H2 8559   1.982   3.833   0.657
 2872TIP3   OH2 8560   8.202   0.759   0.603
 2872TIP3    H1 8561   8.167   0.693   0.663
 2872TIP3    H2 8562   8.225   0.833   0.660
 2873TIP3   OH2 8563   1.722   1.525   0.452
 2873TIP3    H1 8564   1.648   1.586   0.455
 2873TIP3    H2 8565   1.741   1.515   0.359
 2874TIP3   OH2 8566   3.423   6.501   3.865
 2874TIP3    H1 8567   3.356   6.522   3.929
 2874TIP3    H2 8568   3.498   6.471   3.917
 2875TIP3   OH2 8569   7.323   5.784   2.854
 2875TIP3    H1 8570   7.339   5.692   2.834
 2875TIP3    H2 8571   7.358   5.796   2.942
 2876TIP3   OH2 8572   7.868   7.713   4.886
 2876TIP3    H1 8573   7.809   7.785   4.867
 2876TIP3    H2 8574   7.936   7.752   4.941
 2877TIP3   OH2 8575   4.777   3.501   3.449
 2877TIP3    H1 8576   4.799   3.433   3.513
 2877TIP3    H2 8577   4.862   3.533   3.419
 2878TIP3   OH2 8578   5.817   6.981   5.044
 2878TIP3    H1 8579   5.825   6.943   4.957
 2878TIP3    H2 8580   5.727   7.015   5.046
 2879TIP3   OH2 8581   1.704   3.305   1.749
 2879TIP3    H1 8582   1.695   3.383   1.695
 2879TIP3    H2 8583   1.615   3.282   1.773
 2880TIP3   OH2 8584   2.802   3.469   5.764
 2880TIP3    H1 8585   2.888   3.429   5.777
 2880TIP3    H2 8586   2.762   3.418   5.693
 2881TIP3   OH2 8587   4.697   2.687   3.135
 2881TIP3    H1 8588   4.725   2.608   3.088
 2881TIP3    H2 8589   4.728   2.760   3.081
 2882TIP3   OH2 8590   0.149   4.558   3.510
 2882TIP3    H1 8591   0.118   4.637   3.554
 2882TIP3    H2 8592   0.077   4.532   3.453
 2883TIP3   OH2 8593   3.951   7.141   3.122
 2883TIP3    H1 8594   4.035   7.152   3.166
 2883TIP3    H2 8595   3.962   7.186   3.038
 2884TIP3   OH2 8596   4.323   4.553   2.859
 2884TIP3    H1 8597   4.300   4.558   2.766
 2884TIP3    H2 8598   4.294   4.467   2.886
 2885TIP3   OH2 8599   2.054   3.466   4.193
 2885TIP3    H1 8600   2.110   3.440   4.120
 2885TIP3    H2 8601   1.984   3.400   4.193
 2886TIP3   OH2 8602   2.933   3.847   1.598
 2886TIP3    H1 8603   3.011   3.889   1.563
 2886TIP3    H2 8604   2.890   3.914   1.651
 2887TIP3   OH2 8605   4.047   6.576   5.796
 2887TIP3    H1 8606   4.138   6.548   5.805
 2887TIP3    H2 8607   4.053   6.659   5.749
 2888TIP3   OH2 8608   1.484   0.283   2.419
 2888TIP3    H1 8609   1.565   0.232   2.425
 2888TIP3    H2 8610   1.513   0.372   2.400
 2889TIP3   OH2 8611   1.808   2.439   1.604
 2889TIP3    H1 8612   1.849   2.524   1.618
 2889TIP3    H2 8613   1.853   2.403   1.527
 2890TIP3   OH2 8614   5.056   0.640   5.681
 2890TIP3    H1 8615   5.083   0.729   5.704
 2890TIP3    H2 8616   5.122   0.611   5.618
 2891TIP3   OH2 8617   7.144   6.579   0.091
 2891TIP3    H1 8618   7.192   6.657   0.062
 2891TIP3    H2 8619   7.134   6.527   0.012
 2892TIP3   OH2 8620   3.416   0.851   0.949
 2892TIP3    H1 8621   3.490   0.791   0.934
 2892TIP3    H2 8622   3.454   0.938   0.941
 2893TIP3   OH2 8623   2.489   3.235   2.964
 2893TIP3    H1 8624   2.544   3.279   3.029
 2893TIP3    H2 8625   2.427   3.184   3.015
 2894TIP3   OH2 8626   5.503   5.162   0.959
 2894TIP3    H1 8627   5.432   5.098   0.968
 2894TIP3    H2 8628   5.472   5.239   1.007
 2895TIP3   OH2 8629   2.943   0.681   4.915
 2895TIP3    H1 8630   2.910   0.682   5.005
 2895TIP3    H2 8631   2.894   0.750   4.871
 2896TIP3   OH2 8632   8.183   5.815   5.512
 2896TIP3    H1 8633   8.261   5.773   5.475
 2896TIP3    H2 8634   8.216   5.886   5.567
 2897TIP3   OH2 8635   1.251   0.009   5.511
 2897TIP3    H1 8636   1.200   0.032   5.588
 2897TIP3    H2 8637   1.304  -0.066   5.538
 2898TIP3   OH2 8638   7.687   2.337   2.977
 2898TIP3    H1 8639   7.705   2.362   3.068
 2898TIP3    H2 8640   7.759   2.278   2.954
 2899TIP3   OH2 8641   0.078   7.030   3.190
 2899TIP3    H1 8642   0.145   7.068   3.248
 2899TIP3    H2 8643   0.039   6.960   3.242
 2900TIP3   OH2 8644   2.711   7.422   4.661
 2900TIP3    H1 8645   2.736   7.338   4.623
 2900TIP3    H2 8646   2.760   7.486   4.609
 2901TIP3   OH2 8647   7.288   4.313   6.691
 2901TIP3    H1 8648   7.326   4.274   6.612
 2901TIP3    H2 8649   7.339   4.275   6.763
 2902TIP3   OH2 8650   5.807   1.613   3.749
 2902TIP3    H1 8651   5.747   1.600   3.822
 2902TIP3    H2 8652   5.840   1.526   3.728
 2903TIP3   OH2 8653   2.877   0.976   0.982
 2903TIP3    H1 8654   2.842   1.019   0.903
 2903TIP3    H2 8655   2.889   1.048   1.044
 2904TIP3   OH2 8656   1.415   6.749   4.207
 2904TIP3    H1 8657   1.374   6.829   4.175
 2904TIP3    H2 8658   1.509   6.767   4.203
 2905TIP3   OH2 8659   1.618   2.493   4.331
 2905TIP3    H1 8660   1.569   2.561   4.377
 2905TIP3    H2 8661   1.557   2.420   4.324
 2906TIP3   OH2 8662   6.085   6.150   2.272
 2906TIP3    H1 8663   6.080   6.055   2.272
 2906TIP3    H2 8664   6.125   6.172   2.356
 2907TIP3   OH2 8665   0.710   4.403   0.433
 2907TIP3    H1 8666   0.680   4.402   0.525
 2907TIP3    H2 8667   0.703   4.312   0.405
 2908TIP3   OH2 8668   3.146   4.748   2.542
 2908TIP3    H1 8669   3.172   4.721   2.454
 2908TIP3    H2 8670   3.202   4.698   2.601
 2909TIP3   OH2 8671   2.501   0.430   5.423
 2909TIP3    H1 8672   2.486   0.361   5.488
 2909TIP3    H2 8673   2.474   0.510   5.468
 2910TIP3   OH2 8674   3.631   5.668   3.184
 2910TIP3    H1 8675   3.612   5.679   3.277
 2910TIP3    H2 8676   3.705   5.726   3.168
 2911TIP3   OH2 8677   4.631   2.157   6.485
 2911TIP3    H1 8678   4.619   2.126   6.575
 2911TIP3    H2 8679   4.660   2.248   6.495
 2912TIP3   OH2 8680   7.946   4.041   4.030
 2912TIP3    H1 8681   7.993   3.981   3.972
 2912TIP3    H2 8682   7.857   4.006   4.035
 2913TIP3   OH2 8683   0.166   7.442   4.098
 2913TIP3    H1 8684   0.148   7.352   4.073
 2913TIP3    H2 8685   0.153   7.444   4.193
 2914TIP3   OH2 8686   6.394   4.549   2.437
 2914TIP3    H1 8687   6.369   4.549   2.530
 2914TIP3    H2 8688   6.448   4.627   2.427
 2915TIP3   OH2 8689   1.155   4.666   1.543
 2915TIP3    H1 8690   1.174   4.654   1.450
 2915TIP3    H2 8691   1.060   4.662   1.549
 2916TIP3   OH2 8692   0.710   5.199   1.125
 2916TIP3    H1 8693   0.747   5.131   1.069
 2916TIP3    H2 8694   0.615   5.192   1.112
 2917TIP3   OH2 8695   4.000   4.623   5.392
 2917TIP3    H1 8696   3.940   4.685   5.350
 2917TIP3    H2 8697   4.038   4.574   5.320
 2918TIP3   OH2 8698   3.507   5.114   4.800
 2918TIP3    H1 8699   3.435   5.176   4.812
 2918TIP3    H2 8700   3.581   5.154   4.846
 2919TIP3   OH2 8701   1.932   1.038   6.619
 2919TIP3    H1 8702   1.946   1.073   6.531
 2919TIP3    H2 8703   1.954   0.946   6.612
 2920TIP3   OH2 8704   7.707   4.644   2.352
 2920TIP3    H1 8705   7.696   4.739   2.344
 2920TIP3    H2 8706   7.648   4.608   2.286
 2921TIP3   OH2 8707   4.359   2.412   2.938
 2921TIP3    H1 8708   4.435   2.470   2.928
 2921TIP3    H2 8709   4.330   2.395   2.848
 2922TIP3   OH2 8710   1.881   2.570   4.958
 2922TIP3    H1 8711   1.923   2.512   5.021
 2922TIP3    H2 8712   1.787   2.562   4.976
 2923TIP3   OH2 8713   0.347   2.769   0.082
 2923TIP3    H1 8714   0.305   2.788  -0.002
 2923TIP3    H2 8715   0.432   2.731   0.058
 2924TIP3   OH2 8716   3.348   6.640   0.358
 2924TIP3    H1 8717   3.302   6.688   0.289
 2924TIP3    H2 8718   3.431   6.685   0.368
 2925TIP3   OH2 8719   1.798   6.095   5.488
 2925TIP3    H1 8720   1.846   6.069   5.409
 2925TIP3    H2 8721   1.850   6.059   5.560
 2926TIP3   OH2 8722   1.952   1.237   3.319
 2926TIP3    H1 8723   1.945   1.280   3.404
 2926TIP3    H2 8724   2.041   1.256   3.289
 2927TIP3   OH2 8725   4.674   0.492   2.941
 2927TIP3    H1 8726   4.719   0.409   2.957
 2927TIP3    H2 8727   4.677   0.538   3.025
 2928TIP3   OH2 8728   3.635   5.463   6.094
 2928TIP3    H1 8729   3.548   5.503   6.098
 2928TIP3    H2 8730   3.657   5.463   6.001
 2929TIP3   OH2 8731   2.115   2.035   4.127
 2929TIP3    H1 8732   2.134   2.044   4.034
 2929TIP3    H2 8733   2.199   2.011   4.166
 2930TIP3   OH2 8734   5.520   4.761   4.233
 2930TIP3    H1 8735   5.560   4.692   4.181
 2930TIP3    H2 8736   5.552   4.842   4.194
 2931TIP3   OH2 8737   1.112   3.803   0.842
 2931TIP3    H1 8738   1.124   3.893   0.870
 2931TIP3    H2 8739   1.185   3.755   0.881
 2932TIP3   OH2 8740   0.027   1.348   1.473
 2932TIP3    H1 8741  -0.044   1.287   1.455
 2932TIP3    H2 8742   0.052   1.382   1.388
 2933TIP3   OH2 8743   7.683   4.424   0.192
 2933TIP3    H1 8744   7.770   4.450   0.160
 2933TIP3    H2 8745   7.672   4.334   0.159
 2934TIP3   OH2 8746   7.538   5.864   1.919
 2934TIP3    H1 8747   7.573   5.928   1.858
 2934TIP3    H2 8748   7.610   5.846   1.979
 2935TIP3   OH2 8749   1.126   7.411   4.997
 2935TIP3    H1 8750   1.083   7.333   4.961
 2935TIP3    H2 8751   1.109   7.405   5.091
 2936TIP3   OH2 8752   5.132   6.534   4.639
 2936TIP3    H1 8753   5.093   6.578   4.563
 2936TIP3    H2 8754   5.064   6.541   4.707
 2937TIP3   OH2 8755   2.115   5.307   5.231
 2937TIP3    H1 8756   2.098   5.396   5.264
 2937TIP3    H2 8757   2.030   5.265   5.233
 2938TIP3   OH2 8758   0.463   0.881   4.028
 2938TIP3    H1 8759   0.467   0.977   4.033
 2938TIP3    H2 8760   0.478   0.861   3.936
 2939TIP3   OH2 8761   0.054   4.397   4.940
 2939TIP3    H1 8762   0.131   4.409   4.996
 2939TIP3    H2 8763   0.004   4.477   4.951
 2940TIP3   OH2 8764   1.515   1.295   6.238
 2940TIP3    H1 8765   1.541   1.285   6.147
 2940TIP3    H2 8766   1.520   1.206   6.274
 2941TIP3   OH2 8767   1.217   6.152   2.995
 2941TIP3    H1 8768   1.271   6.075   2.977
 2941TIP3    H2 8769   1.164   6.127   3.071
 2942TIP3   OH2 8770   8.266   4.380   2.559
 2942TIP3    H1 8771   8.359   4.394   2.542
 2942TIP3    H2 8772   8.225   4.465   2.542
 2943TIP3   OH2 8773   7.314   6.591   1.429
 2943TIP3    H1 8774   7.266   6.673   1.442
 2943TIP3    H2 8775   7.359   6.602   1.345
 2944TIP3   OH2 8776   2.367   6.078   3.294
 2944TIP3    H1 8777   2.318   6.055   3.373
 2944TIP3    H2 8778   2.370   5.997   3.242
 2945TIP3   OH2 8779   4.759   1.589   0.640
 2945TIP3    H1 8780   4.714   1.671   0.624
 2945TIP3    H2 8781   4.841   1.596   0.590
 2946TIP3   OH2 8782   0.914   2.552   4.423
 2946TIP3    H1 8783   0.900   2.636   4.379
 2946TIP3    H2 8784   0.991   2.515   4.379
 2947TIP3   OH2 8785   1.616   3.172   3.230
 2947TIP3    H1 8786   1.634   3.079   3.245
 2947TIP3    H2 8787   1.523   3.182   3.253
 2948TIP3   OH2 8788   3.825   2.005   1.319
 2948TIP3    H1 8789   3.768   2.080   1.300
 2948TIP3    H2 8790   3.809   1.944   1.246
 2949TIP3   OH2 8791   3.980   6.317   4.427
 2949TIP3    H1 8792   4.036   6.270   4.366
 2949TIP3    H2 8793   4.027   6.399   4.445
 2950TIP3   OH2 8794   2.610   4.348   3.948
 2950TIP3    H1 8795   2.555   4.316   3.877
 2950TIP3    H2 8796   2.613   4.276   4.011
 2951TIP3   OH2 8797   2.521   1.057   6.774
 2951TIP3    H1 8798   2.558   1.010   6.849
 2951TIP3    H2 8799   2.570   1.140   6.772
 2952TIP3   OH2 8800   2.502   7.745   6.399
 2952TIP3    H1 8801   2.435   7.691   6.356
 2952TIP3    H2 8802   2.468   7.759   6.487
 2953TIP3   OH2 8803   2.482   6.078   1.668
 2953TIP3    H1 8804   2.441   6.107   1.749
 2953TIP3    H2 8805   2.420   6.101   1.599
 2954TIP3   OH2 8806   3.497   1.029   4.106
 2954TIP3    H1 8807   3.434   1.075   4.163
 2954TIP3    H2 8808   3.567   1.092   4.093
 2955TIP3   OH2 8809   5.860   0.897   0.909
 2955TIP3    H1 8810   5.926   0.828   0.915
 2955TIP3    H2 8811   5.790   0.859   0.857
 2956TIP3   OH2 8812   7.973   4.063   2.533
 2956TIP3    H1 8813   7.973   4.091   2.441
 2956TIP3    H2 8814   7.909   3.992   2.536
 2957TIP3   OH2 8815   5.555   0.262   5.518
 2957TIP3    H1 8816   5.569   0.231   5.607
 2957TIP3    H2 8817   5.507   0.191   5.475
 2958TIP3   OH2 8818   8.155   3.546   1.269
 2958TIP3    H1 8819   8.080   3.571   1.216
 2958TIP3    H2 8820   8.231   3.584   1.225
 2959TIP3   OH2 8821   5.018   0.562   2.791
 2959TIP3    H1 8822   5.062   0.584   2.709
 2959TIP3    H2 8823   4.952   0.631   2.802
 2960TIP3   OH2 8824   4.922   2.256   0.242
 2960TIP3    H1 8825   4.996   2.200   0.268
 2960TIP3    H2 8826   4.901   2.306   0.320
 2961TIP3   OH2 8827   3.175   5.094   3.413
 2961TIP3    H1 8828   3.212   5.162   3.356
 2961TIP3    H2 8829   3.251   5.042   3.440
 2962TIP3   OH2 8830   7.179   2.316   2.204
 2962TIP3    H1 8831   7.179   2.221   2.188
 2962TIP3    H2 8832   7.269   2.342   2.190
 2963TIP3   OH2 8833   5.101   7.051   4.202
 2963TIP3    H1 8834   5.183   7.049   4.152
 2963TIP3    H2 8835   5.033   7.058   4.135
 2964TIP3   OH2 8836   4.540   6.865   6.227
 2964TIP3    H1 8837   4.634   6.879   6.220
 2964TIP3    H2 8838   4.516   6.900   6.312
 2965TIP3   OH2 8839   4.695   6.252  -0.031
 2965TIP3    H1 8840   4.685   6.229  -0.123
 2965TIP3    H2 8841   4.629   6.199   0.014
 2966TIP3   OH2 8842   1.334   0.748   5.687
 2966TIP3    H1 8843   1.365   0.839   5.683
 2966TIP3    H2 8844   1.401   0.697   5.642
 2967TIP3   OH2 8845   0.303   6.155   2.836
 2967TIP3    H1 8846   0.313   6.226   2.773
 2967TIP3    H2 8847   0.290   6.198   2.920
 2968TIP3   OH2 8848   2.970   3.379   0.427
 2968TIP3    H1 8849   2.930   3.293   0.419
 2968TIP3    H2 8850   3.064   3.362   0.423
 2969TIP3   OH2 8851   6.455   0.330   6.289
 2969TIP3    H1 8852   6.367   0.342   6.325
 2969TIP3    H2 8853   6.473   0.236   6.302
 2970TIP3   OH2 8854   3.277   5.735   5.140
 2970TIP3    H1 8855   3.231   5.705   5.218
 2970TIP3    H2 8856   3.365   5.756   5.171
 2971TIP3   OH2 8857   3.795   0.160   1.396
 2971TIP3    H1 8858   3.857   0.158   1.469
 2971TIP3    H2 8859   3.770   0.069   1.382
 2972TIP3   OH2 8860   7.010   2.108   3.743
 2972TIP3    H1 8861   7.067   2.113   3.820
 2972TIP3    H2 8862   6.943   2.175   3.757
 2973TIP3   OH2 8863   6.329   5.793   0.363
 2973TIP3    H1 8864   6.401   5.734   0.384
 2973TIP3    H2 8865   6.263   5.738   0.321
 2974TIP3   OH2 8866   1.626   4.740   5.523
 2974TIP3    H1 8867   1.628   4.809   5.589
 2974TIP3    H2 8868   1.712   4.698   5.528
 2975TIP3   OH2 8869   3.559   0.338   1.839
 2975TIP3    H1 8870   3.586   0.308   1.752
 2975TIP3    H2 8871   3.559   0.433   1.833
 2976TIP3   OH2 8872   2.935   5.282   6.153
 2976TIP3    H1 8873   2.957   5.189   6.143
 2976TIP3    H2 8874   2.879   5.301   6.078
 2977TIP3   OH2 8875   6.420   5.807   2.748
 2977TIP3    H1 8876   6.372   5.726   2.765
 2977TIP3    H2 8877   6.408   5.823   2.654
 2978TIP3   OH2 8878   8.075   0.871   4.095
 2978TIP3    H1 8879   8.098   0.807   4.162
 2978TIP3    H2 8880   7.995   0.912   4.129
 2979TIP3   OH2 8881   4.576   4.646   2.245
 2979TIP3    H1 8882   4.480   4.641   2.245
 2979TIP3    H2 8883   4.604   4.557   2.265
 2980TIP3   OH2 8884   7.325   2.737   6.520
 2980TIP3    H1 8885   7.370   2.657   6.494
 2980TIP3    H2 8886   7.235   2.727   6.488
 2981TIP3   OH2 8887   2.552   0.434   6.681
 2981TIP3    H1 8888   2.606   0.376   6.734
 2981TIP3    H2 8889   2.586   0.522   6.699
 2982TIP3   OH2 8890   5.430   1.793   2.734
 2982TIP3    H1 8891   5.476   1.720   2.692
 2982TIP3    H2 8892   5.403   1.758   2.819
 2983TIP3   OH2 8893   5.869   2.488   3.965
 2983TIP3    H1 8894   5.897   2.562   3.911
 2983TIP3    H2 8895   5.941   2.474   4.027
 2984TIP3   OH2 8896   7.584   5.461   3.716
 2984TIP3    H1 8897   7.569   5.370   3.739
 2984TIP3    H2 8898   7.645   5.457   3.642
 2985TIP3   OH2 8899   7.992   2.659   3.920
 2985TIP3    H1 8900   7.989   2.682   4.013
 2985TIP3    H2 8901   8.052   2.585   3.915
 2986TIP3   OH2 8902   7.774   4.148   6.198
 2986TIP3    H1 8903   7.853   4.201   6.184
 2986TIP3    H2 8904   7.737   4.137   6.110
 2987TIP3   OH2 8905   2.780   3.739   5.814
 2987TIP3    H1 8906   2.756   3.650   5.789
 2987TIP3    H2 8907   2.697   3.787   5.814
 2988TIP3   OH2 8908   7.347   4.778   0.455
 2988TIP3    H1 8909   7.432   4.754   0.418
 2988TIP3    H2 8910   7.363   4.787   0.549
 2989TIP3   OH2 8911   4.808   7.291   1.286
 2989TIP3    H1 8912   4.821   7.200   1.314
 2989TIP3    H2 8913   4.780   7.336   1.366
 2990TIP3   OH2 8914   5.320   2.142   2.195
 2990TIP3    H1 8915   5.388   2.178   2.251
 2990TIP3    H2 8916   5.240   2.189   2.220
 2991TIP3   OH2 8917   6.137   6.189   1.584
 2991TIP3    H1 8918   6.061   6.244   1.603
 2991TIP3    H2 8919   6.131   6.172   1.490
 2992TIP3   OH2 8920   2.651   3.475   0.698
 2992TIP3    H1 8921   2.633   3.546   0.636
 2992TIP3    H2 8922   2.704   3.515   0.766
 2993TIP3   OH2 8923   5.640   4.900   6.158
 2993TIP3    H1 8924   5.601   4.888   6.071
 2993TIP3    H2 8925   5.720   4.951   6.141
 2994TIP3   OH2 8926   2.051   1.054   1.404
 2994TIP3    H1 8927   1.975   1.041   1.461
 2994TIP3    H2 8928   2.014   1.070   1.317
 2995TIP3   OH2 8929   1.359   0.276   2.675
 2995TIP3    H1 8930   1.374   0.211   2.744
 2995TIP3    H2 8931   1.414   0.246   2.602
 2996TIP3   OH2 8932   1.504   1.764   0.075
 2996TIP3    H1 8933   1.460   1.810   0.146
 2996TIP3    H2 8934   1.451   1.784  -0.003
 2997TIP3   OH2 8935   5.353   0.374   4.462
 2997TIP3    H1 8936   5.420   0.393   4.527
 2997TIP3    H2 8937   5.311   0.459   4.445
 2998TIP3   OH2 8938   2.045   1.188   2.913
 2998TIP3    H1 8939   2.076   1.128   2.845
 2998TIP3    H2 8940   2.096   1.164   2.990
 2999TIP3   OH2 8941   0.206   6.139   3.799
 2999TIP3    H1 8942   0.196   6.045   3.812
 2999TIP3    H2 8943   0.276   6.147   3.734
 3000TIP3   OH2 8944   2.655   2.030   0.834
 3000TIP3    H1 8945   2.708   2.088   0.780
 3000TIP3    H2 8946   2.636   1.955   0.777
 3001TIP3   OH2 8947   1.443   3.740   4.272
 3001TIP3    H1 8948   1.412   3.830   4.283
 3001TIP3    H2 8949   1.514   3.746   4.208
 3002TIP3   OH2 8950   1.859   5.639   0.896
 3002TIP3    H1 8951   1.828   5.570   0.838
 3002TIP3    H2 8952   1.932   5.600   0.944
 3003TIP3   OH2 8953   2.413   5.227   1.815
 3003TIP3    H1 8954   2.407   5.183   1.900
 3003TIP3    H2 8955   2.496   5.196   1.778
 3004TIP3   OH2 8956   3.988   4.994   6.230
 3004TIP3    H1 8957   3.941   5.058   6.284
 3004TIP3    H2 8958   3.920   4.934   6.201
 3005TIP3   OH2 8959   1.112   1.739   1.560
 3005TIP3    H1 8960   1.187   1.735   1.500
 3005TIP3    H2 8961   1.043   1.691   1.516
 3006TIP3   OH2 8962   5.186   5.794   4.174
 3006TIP3    H1 8963   5.163   5.834   4.090
 3006TIP3    H2 8964   5.157   5.858   4.239
 3007TIP3   OH2 8965   7.746   0.022   0.343
 3007TIP3    H1 8966   7.822   0.079   0.351
 3007TIP3    H2 8967   7.775  -0.062   0.378
 3008TIP3   OH2 8968   1.593   4.314   2.393
 3008TIP3    H1 8969   1.663   4.349   2.338
 3008TIP3    H2 8970   1.572   4.229   2.353
 3009TIP3   OH2 8971   2.751   4.888   6.066
 3009TIP3    H1 8972   2.695   4.948   6.115
 3009TIP3    H2 8973   2.691   4.822   6.031
 3010TIP3   OH2 8974   8.169   3.137   6.091
 3010TIP3    H1 8975   8.144   3.191   6.016
 3010TIP3    H2 8976   8.139   3.049   6.068
 3011TIP3   OH2 8977   1.065   0.567   4.792
 3011TIP3    H1 8978   0.971   0.583   4.805
 3011TIP3    H2 8979   1.090   0.511   4.865
 3012TIP3   OH2 8980   4.390   7.087   6.110
 3012TIP3    H1 8981   4.380   7.042   6.194
 3012TIP3    H2 8982   4.482   7.076   6.087
 3013TIP3   OH2 8983   1.195   4.685   1.082
 3013TIP3    H1 8984   1.165   4.655   0.996
 3013TIP3    H2 8985   1.149   4.628   1.144
 3014TIP3   OH2 8986   5.642   7.539   3.557
 3014TIP3    H1 8987   5.568   7.570   3.609
 3014TIP3    H2 8988   5.669   7.615   3.506
 3015TIP3   OH2 8989   3.948   2.045   3.044
 3015TIP3    H1 8990   3.963   2.042   3.138
 3015TIP3    H2 8991   4.005   2.115   3.013
 3016TIP3   OH2 8992   3.957   1.106   4.542
 3016TIP3    H1 8993   3.960   1.161   4.621
 3016TIP3    H2 8994   4.038   1.055   4.545
 3017TIP3   OH2 8995   3.019   5.240   4.030
 3017TIP3    H1 8996   3.088   5.178   4.052
 3017TIP3    H2 8997   3.020   5.243   3.934
 3018TIP3   OH2 8998   5.045   2.893   1.914
 3018TIP3    H1 8999   5.135   2.879   1.884
 3018TIP3    H2 9000   5.005   2.806   1.911
 3019TIP3   OH2 9001   3.898   2.472   6.676
 3019TIP3    H1 9002   3.978   2.419   6.681
 3019TIP3    H2 9003   3.890   2.510   6.764
 3020TIP3   OH2 9004   2.554   4.888   0.499
 3020TIP3    H1 9005   2.553   4.812   0.442
 3020TIP3    H2 9006   2.518   4.857   0.582
 3021TIP3   OH2 9007   7.108   7.481   5.222
 3021TIP3    H1 9008   7.143   7.394   5.204
 3021TIP3    H2 9009   7.144   7.536   5.152
 3022TIP3   OH2 9010   7.301   6.449   2.705
 3022TIP3    H1 9011   7.215   6.489   2.693
 3022TIP3    H2 9012   7.298   6.411   2.792
 3023TIP3   OH2 9013   7.976   6.507   1.230
 3023TIP3    H1 9014   7.926   6.532   1.308
 3023TIP3    H2 9015   7.966   6.580   1.170
 3024TIP3   OH2 9016   4.941   7.513   2.801
 3024TIP3    H1 9017   4.962   7.425   2.770
 3024TIP3    H2 9018   4.901   7.556   2.726
 3025TIP3   OH2 9019   1.819   4.799   5.000
 3025TIP3    H1 9020   1.839   4.846   4.920
 3025TIP3    H2 9021   1.831   4.864   5.070
 3026TIP3   OH2 9022   7.484   5.864   0.161
 3026TIP3    H1 9023   7.414   5.804   0.187
 3026TIP3    H2 9024   7.456   5.900   0.078
 3027TIP3   OH2 9025   7.720   3.241   1.669
 3027TIP3    H1 9026   7.791   3.181   1.644
 3027TIP3    H2 9027   7.672   3.193   1.736
 3028TIP3   OH2 9028   3.183   4.174   5.585
 3028TIP3    H1 9029   3.111   4.110   5.584
 3028TIP3    H2 9030   3.218   4.171   5.496
 3029TIP3   OH2 9031   0.869   5.015   0.428
 3029TIP3    H1 9032   0.838   4.940   0.479
 3029TIP3    H2 9033   0.964   5.002   0.421
 3030TIP3   OH2 9034   5.977   5.875   1.419
 3030TIP3    H1 9035   5.903   5.867   1.359
 3030TIP3    H2 9036   5.944   5.927   1.492
 3031TIP3   OH2 9037   6.537   3.848   2.210
 3031TIP3    H1 9038   6.548   3.884   2.122
 3031TIP3    H2 9039   6.463   3.788   2.202
 3032TIP3   OH2 9040   0.497   4.729   3.249
 3032TIP3    H1 9041   0.405   4.702   3.249
 3032TIP3    H2 9042   0.498   4.810   3.199
 3033TIP3   OH2 9043   6.102   3.825   4.084
 3033TIP3    H1 9044   6.176   3.816   4.023
 3033TIP3    H2 9045   6.024   3.815   4.028
 3034TIP3   OH2 9046   1.948   5.687   6.137
 3034TIP3    H1 9047   1.907   5.622   6.080
 3034TIP3    H2 9048   2.033   5.649   6.160
 3035TIP3   OH2 9049   3.421   2.877   4.386
 3035TIP3    H1 9050   3.410   2.783   4.394
 3035TIP3    H2 9051   3.475   2.888   4.308
 3036TIP3   OH2 9052   6.978   1.968   4.422
 3036TIP3    H1 9053   6.933   1.906   4.479
 3036TIP3    H2 9054   7.034   2.018   4.482
 3037TIP3   OH2 9055   7.561   2.377   1.479
 3037TIP3    H1 9056   7.624   2.395   1.549
 3037TIP3    H2 9057   7.476   2.394   1.519
 3038TIP3   OH2 9058   1.288   1.011   1.071
 3038TIP3    H1 9059   1.236   0.931   1.078
 3038TIP3    H2 9060   1.302   1.038   1.161
 3039TIP3   OH2 9061   7.088   7.632   2.075
 3039TIP3    H1 9062   7.001   7.655   2.108
 3039TIP3    H2 9063   7.140   7.711   2.088
 3040TIP3   OH2 9064   6.116   0.036   5.812
 3040TIP3    H1 9065   6.176  -0.017   5.865
 3040TIP3    H2 9066   6.045  -0.023   5.790
 3041TIP3   OH2 9067   3.446   3.122   0.232
 3041TIP3    H1 9068   3.524   3.143   0.181
 3041TIP3    H2 9069   3.434   3.196   0.290
 3042TIP3   OH2 9070   2.117   3.311   1.273
 3042TIP3    H1 9071   2.169   3.286   1.196
 3042TIP3    H2 9072   2.118   3.233   1.328
 3043TIP3   OH2 9073   7.969   5.655   1.808
 3043TIP3    H1 9074   8.040   5.630   1.750
 3043TIP3    H2 9075   7.974   5.751   1.814
 3044TIP3   OH2 9076   4.291   4.052   4.171
 3044TIP3    H1 9077   4.262   3.981   4.115
 3044TIP3    H2 9078   4.236   4.126   4.147
 3045TIP3   OH2 9079   1.006   7.102   0.926
 3045TIP3    H1 9080   0.914   7.101   0.950
 3045TIP3    H2 9081   1.046   7.168   0.983
 3046TIP3   OH2 9082   0.573   5.001   1.923
 3046TIP3    H1 9083   0.590   4.918   1.967
 3046TIP3    H2 9084   0.564   5.065   1.993
 3047TIP3   OH2 9085   6.344   2.947   5.937
 3047TIP3    H1 9086   6.286   2.998   5.994
 3047TIP3    H2 9087   6.393   3.012   5.888
 3048TIP3   OH2 9088   1.821   3.964   3.411
 3048TIP3    H1 9089   1.855   4.053   3.412
 3048TIP3    H2 9090   1.812   3.942   3.318
 3049TIP3   OH2 9091   2.365   0.783   4.258
 3049TIP3    H1 9092   2.449   0.739   4.250
 3049TIP3    H2 9093   2.381   0.872   4.227
 3050TIP3   OH2 9094   0.961   5.838   4.457
 3050TIP3    H1 9095   0.906   5.830   4.535
 3050TIP3    H2 9096   1.008   5.921   4.469
 3051TIP3   OH2 9097   2.910   5.572   3.301
 3051TIP3    H1 9098   2.991   5.546   3.346
 3051TIP3    H2 9099   2.869   5.489   3.276
 3052TIP3   OH2 9100   3.092   3.303   3.321
 3052TIP3    H1 9101   3.164   3.341   3.270
 3052TIP3    H2 9102   3.136   3.266   3.398
 3053TIP3   OH2 9103   6.782   0.748   3.758
 3053TIP3    H1 9104   6.819   0.708   3.680
 3053TIP3    H2 9105   6.772   0.676   3.820
 3054TIP3   OH2 9106   6.925   5.814   4.524
 3054TIP3    H1 9107   6.924   5.896   4.476
 3054TIP3    H2 9108   6.988   5.827   4.594
 3055TIP3   OH2 9109   5.018   1.679   3.082
 3055TIP3    H1 9110   5.033   1.586   3.094
 3055TIP3    H2 9111   5.083   1.706   3.017
 3056TIP3   OH2 9112   7.430   5.127   6.333
 3056TIP3    H1 9113   7.334   5.131   6.332
 3056TIP3    H2 9114   7.454   5.104   6.243
 3057TIP3   OH2 9115   5.801   4.254   3.139
 3057TIP3    H1 9116   5.762   4.333   3.177
 3057TIP3    H2 9117   5.893   4.278   3.123
 3058TIP3   OH2 9118   0.594   5.091   3.297
 3058TIP3    H1 9119   0.679   5.134   3.283
 3058TIP3    H2 9120   0.609   5.035   3.374
 3059TIP3   OH2 9121   4.703   4.939   4.949
 3059TIP3    H1 9122   4.788   4.905   4.921
 3059TIP3    H2 9123   4.722   5.024   4.987
 3060TIP3   OH2 9124   4.928   4.930   3.474
 3060TIP3    H1 9125   4.930   4.867   3.545
 3060TIP3    H2 9126   4.992   4.897   3.411
 3061TIP3   OH2 9127   1.843   2.351   5.646
 3061TIP3    H1 9128   1.938   2.362   5.642
 3061TIP3    H2 9129   1.813   2.365   5.557
 3062TIP3   OH2 9130   7.005   0.320   5.972
 3062TIP3    H1 9131   7.038   0.243   6.019
 3062TIP3    H2 9132   7.012   0.296   5.880
 3063TIP3   OH2 9133   0.256   2.536   4.148
 3063TIP3    H1 9134   0.280   2.491   4.068
 3063TIP3    H2 9135   0.319   2.608   4.155
 3064TIP3   OH2 9136   5.678   6.610   0.471
 3064TIP3    H1 9137   5.588   6.631   0.449
 3064TIP3    H2 9138   5.723   6.601   0.387
 3065TIP3   OH2 9139   2.743   3.964   5.492
 3065TIP3    H1 9140   2.762   4.051   5.458
 3065TIP3    H2 9141   2.823   3.914   5.476
 3066TIP3   OH2 9142   6.315   1.374   3.780
 3066TIP3    H1 9143   6.258   1.304   3.812
 3066TIP3    H2 9144   6.308   1.443   3.847
 3067TIP3   OH2 9145   2.146   1.614   1.743
 3067TIP3    H1 9146   2.057   1.649   1.736
 3067TIP3    H2 9147   2.187   1.638   1.660
 3068TIP3   OH2 9148   4.004   5.822   5.600
 3068TIP3    H1 9149   4.097   5.809   5.580
 3068TIP3    H2 9150   4.003   5.900   5.656
 3069TIP3   OH2 9151   6.559   0.696   0.185
 3069TIP3    H1 9152   6.477   0.664   0.148
 3069TIP3    H2 9153   6.623   0.680   0.115
 3070TIP3   OH2 9154   4.769   0.523   4.377
 3070TIP3    H1 9155   4.736   0.450   4.430
 3070TIP3    H2 9156   4.809   0.582   4.441
 3071TIP3   OH2 9157   1.218   1.085   1.963
 3071TIP3    H1 9158   1.193   0.995   1.944
 3071TIP3    H2 9159   1.173   1.137   1.896
 3072TIP3   OH2 9160   3.743   4.308   1.970
 3072TIP3    H1 9161   3.738   4.303   1.874
 3072TIP3    H2 9162   3.690   4.235   2.001
 3073TIP3   OH2 9163   6.285   1.902   1.583
 3073TIP3    H1 9164   6.193   1.919   1.603
 3073TIP3    H2 9165   6.284   1.829   1.521
 3074TIP3   OH2 9166   4.703   3.264   5.574
 3074TIP3    H1 9167   4.779   3.234   5.524
 3074TIP3    H2 9168   4.639   3.193   5.565
 3075TIP3   OH2 9169   3.656   6.457   5.162
 3075TIP3    H1 9170   3.615   6.384   5.208
 3075TIP3    H2 9171   3.732   6.479   5.215
 3076TIP3   OH2 9172   6.623   4.239   6.639
 3076TIP3    H1 9173   6.655   4.316   6.687
 3076TIP3    H2 9174   6.632   4.264   6.547
 3077TIP3   OH2 9175   6.436   3.002   2.858
 3077TIP3    H1 9176   6.486   3.035   2.933
 3077TIP3    H2 9177   6.345   3.016   2.881
 3078TIP3   OH2 9178   2.567   2.201   4.402
 3078TIP3    H1 9179   2.633   2.255   4.446
 3078TIP3    H2 9180   2.489   2.257   4.398
 3079TIP3   OH2 9181   2.332   0.288   3.976
 3079TIP3    H1 9182   2.342   0.280   3.881
 3079TIP3    H2 9183   2.241   0.315   3.988
 3080TIP3   OH2 9184   2.890   1.758   5.317
 3080TIP3    H1 9185   2.836   1.820   5.268
 3080TIP3    H2 9186   2.944   1.813   5.374
 3081TIP3   OH2 9187   5.132   4.687   5.639
 3081TIP3    H1 9188   5.145   4.754   5.706
 3081TIP3    H2 9189   5.187   4.715   5.566
 3082TIP3   OH2 9190   0.287   7.658   1.751
 3082TIP3    H1 9191   0.312   7.737   1.798
 3082TIP3    H2 9192   0.262   7.689   1.664
 3083TIP3   OH2 9193   7.602   0.536   4.124
 3083TIP3    H1 9194   7.568   0.448   4.109
 3083TIP3    H2 9195   7.673   0.546   4.060
 3084TIP3   OH2 9196   4.061   0.207   1.158
 3084TIP3    H1 9197   4.026   0.286   1.201
 3084TIP3    H2 9198   3.985   0.149   1.149
 3085TIP3   OH2 9199   5.842   1.892   3.529
 3085TIP3    H1 9200   5.828   1.811   3.480
 3085TIP3    H2 9201   5.796   1.959   3.477
 3086TIP3   OH2 9202   1.054   3.322   6.170
 3086TIP3    H1 9203   0.985   3.260   6.145
 3086TIP3    H2 9204   1.117   3.269   6.220
 3087TIP3   OH2 9205   4.536   0.017   4.145
 3087TIP3    H1 9206   4.604   0.022   4.212
 3087TIP3    H2 9207   4.480   0.093   4.162
 3088TIP3   OH2 9208   0.849   4.119   0.911
 3088TIP3    H1 9209   0.777   4.061   0.936
 3088TIP3    H2 9210   0.865   4.172   0.990
 3089TIP3   OH2 9211   0.038   6.943   0.746
 3089TIP3    H1 9212  -0.004   6.918   0.829
 3089TIP3    H2 9213   0.081   7.026   0.765
 3090TIP3   OH2 9214   2.636   2.097   4.832
 3090TIP3    H1 9215   2.672   2.011   4.855
 3090TIP3    H2 9216   2.566   2.077   4.770
 3091TIP3   OH2 9217   2.975   6.009   5.927
 3091TIP3    H1 9218   2.952   6.050   5.844
 3091TIP3    H2 9219   2.892   5.972   5.959
 3092TIP3   OH2 9220   1.922   1.976   3.191
 3092TIP3    H1 9221   1.856   1.973   3.261
 3092TIP3    H2 9222   2.002   1.943   3.231
 3093TIP3   OH2 9223   3.994   2.027   3.322
 3093TIP3    H1 9224   4.088   2.032   3.307
 3093TIP3    H2 9225   3.973   2.107   3.370
 3094TIP3   OH2 9226   7.791   0.170   3.636
 3094TIP3    H1 9227   7.819   0.219   3.713
 3094TIP3    H2 9228   7.762   0.085   3.671
 3095TIP3   OH2 9229   0.463   2.529   1.689
 3095TIP3    H1 9230   0.494   2.476   1.616
 3095TIP3    H2 9231   0.535   2.527   1.752
 3096TIP3   OH2 9232   7.724   7.610   1.062
 3096TIP3    H1 9233   7.692   7.620   0.972
 3096TIP3    H2 9234   7.698   7.521   1.087
 3097TIP3   OH2 9235   0.603   2.873   3.827
 3097TIP3    H1 9236   0.568   2.809   3.889
 3097TIP3    H2 9237   0.562   2.851   3.744
 3098TIP3   OH2 9238   2.058   7.176   2.114
 3098TIP3    H1 9239   2.137   7.209   2.072
 3098TIP3    H2 9240   2.029   7.103   2.059
 3099TIP3   OH2 9241   6.054   2.107   6.521
 3099TIP3    H1 9242   6.022   2.175   6.462
 3099TIP3    H2 9243   6.014   2.127   6.605
 3100TIP3   OH2 9244   3.479   1.730   3.831
 3100TIP3    H1 9245   3.544   1.786   3.874
 3100TIP3    H2 9246   3.420   1.703   3.901
 3101TIP3   OH2 9247   6.366   4.916   6.540
 3101TIP3    H1 9248   6.273   4.921   6.562
 3101TIP3    H2 9249   6.386   4.823   6.545
 3102TIP3   OH2 9250   6.845   5.481   3.006
 3102TIP3    H1 9251   6.941   5.472   3.007
 3102TIP3    H2 9252   6.813   5.391   3.010
 3103TIP3   OH2 9253   1.918   2.053   5.552
 3103TIP3    H1 9254   1.843   2.102   5.586
 3103TIP3    H2 9255   1.981   2.051   5.623
 3104TIP3   OH2 9256   7.096   2.998   3.252
 3104TIP3    H1 9257   7.188   3.014   3.272
 3104TIP3    H2 9258   7.048   3.027   3.329
 3105TIP3   OH2 9259   7.744   6.165   6.236
 3105TIP3    H1 9260   7.761   6.139   6.326
 3105TIP3    H2 9261   7.652   6.140   6.221
 3106TIP3   OH2 9262   0.301   0.033   0.929
 3106TIP3    H1 9263   0.353   0.055   1.006
 3106TIP3    H2 9264   0.312   0.107   0.869
 3107TIP3   OH2 9265   6.922   1.126   0.554
 3107TIP3    H1 9266   6.928   1.053   0.492
 3107TIP3    H2 9267   6.871   1.091   0.628
 3108TIP3   OH2 9268   5.993   6.119   0.742
 3108TIP3    H1 9269   5.906   6.149   0.769
 3108TIP3    H2 9270   6.051   6.192   0.762
 3109TIP3   OH2 9271   0.702   0.965   0.893
 3109TIP3    H1 9272   0.691   0.999   0.981
 3109TIP3    H2 9273   0.743   1.036   0.844
 3110TIP3   OH2 9274   5.304   5.429   2.191
 3110TIP3    H1 9275   5.281   5.435   2.098
 3110TIP3    H2 9276   5.263   5.506   2.230
 3111TIP3   OH2 9277   3.237   2.067   2.481
 3111TIP3    H1 9278   3.149   2.052   2.447
 3111TIP3    H2 9279   3.229   2.055   2.575
 3112TIP3   OH2 9280   5.794   1.972   1.297
 3112TIP3    H1 9281   5.722   1.953   1.356
 3112TIP3    H2 9282   5.850   2.033   1.345
 3113TIP3   OH2 9283   6.248   0.635   5.103
 3113TIP3    H1 9284   6.220   0.630   5.011
 3113TIP3    H2 9285   6.324   0.578   5.107
 3114TIP3   OH2 9286   4.964   1.876   4.011
 3114TIP3    H1 9287   4.885   1.838   3.972
 3114TIP3    H2 9288   4.964   1.967   3.982
 3115TIP3   OH2 9289   2.063   4.415   6.133
 3115TIP3    H1 9290   2.114   4.496   6.125
 3115TIP3    H2 9291   1.987   4.441   6.186
 3116TIP3   OH2 9292   7.737   4.311   4.741
 3116TIP3    H1 9293   7.765   4.334   4.829
 3116TIP3    H2 9294   7.812   4.332   4.685
 3117TIP3   OH2 9295   4.230   5.851   0.511
 3117TIP3    H1 9296   4.222   5.929   0.566
 3117TIP3    H2 9297   4.166   5.789   0.547
 3118TIP3   OH2 9298   2.741   0.649   0.088
 3118TIP3    H1 9299   2.649   0.658   0.061
 3118TIP3    H2 9300   2.791   0.679   0.012
 3119TIP3   OH2 9301   6.861   5.208   3.150
 3119TIP3    H1 9302   6.876   5.114   3.144
 3119TIP3    H2 9303   6.919   5.237   3.220
 3120TIP3   OH2 9304   5.884   2.654   1.697
 3120TIP3    H1 9305   5.876   2.677   1.604
 3120TIP3    H2 9306   5.968   2.692   1.723
 3121TIP3   OH2 9307   6.410   4.070   3.212
 3121TIP3    H1 9308   6.487   4.062   3.267
 3121TIP3    H2 9309   6.375   4.158   3.231
 3122TIP3   OH2 9310   0.512   6.162   0.928
 3122TIP3    H1 9311   0.496   6.165   1.022
 3122TIP3    H2 9312   0.607   6.148   0.920
 3123TIP3   OH2 9313   1.760   0.695   1.489
 3123TIP3    H1 9314   1.826   0.643   1.536
 3123TIP3    H2 9315   1.700   0.629   1.453
 3124TIP3   OH2 9316   1.034   1.935   5.834
 3124TIP3    H1 9317   1.056   1.890   5.915
 3124TIP3    H2 9318   0.972   1.877   5.790
 3125TIP3   OH2 9319   2.948   5.783   2.721
 3125TIP3    H1 9320   3.024   5.771   2.777
 3125TIP3    H2 9321   2.891   5.843   2.770
 3126TIP3   OH2 9322   5.998   1.458   4.999
 3126TIP3    H1 9323   5.926   1.495   4.948
 3126TIP3    H2 9324   6.073   1.458   4.939
 3127TIP3   OH2 9325   6.621   6.909   2.974
 3127TIP3    H1 9326   6.550   6.941   3.030
 3127TIP3    H2 9327   6.697   6.905   3.032
 3128TIP3   OH2 9328   0.093   1.724   5.058
 3128TIP3    H1 9329   0.116   1.699   4.968
 3128TIP3    H2 9330   0.175   1.719   5.106
 3129TIP3   OH2 9331   0.038   4.618   5.948
 3129TIP3    H1 9332   0.075   4.675   6.015
 3129TIP3    H2 9333   0.101   4.621   5.876
 3130TIP3   OH2 9334   5.820   3.939   4.477
 3130TIP3    H1 9335   5.846   4.031   4.487
 3130TIP3    H2 9336   5.825   3.923   4.382
 3131TIP3   OH2 9337   1.438   2.877   5.772
 3131TIP3    H1 9338   1.421   2.847   5.861
 3131TIP3    H2 9339   1.522   2.837   5.748
 3132TIP3   OH2 9340   1.162   7.555   0.139
 3132TIP3    H1 9341   1.164   7.500   0.061
 3132TIP3    H2 9342   1.224   7.625   0.120
 3133TIP3   OH2 9343   0.624   4.419   0.705
 3133TIP3    H1 9344   0.559   4.388   0.767
 3133TIP3    H2 9345   0.638   4.511   0.729
 3134TIP3   OH2 9346   4.066   6.185   3.319
 3134TIP3    H1 9347   4.035   6.189   3.229
 3134TIP3    H2 9348   3.994   6.143   3.367
 3135TIP3   OH2 9349   0.727   7.570   6.389
 3135TIP3    H1 9350   0.801   7.576   6.329
 3135TIP3    H2 9351   0.719   7.659   6.425
 3136TIP3   OH2 9352   3.457   7.465   3.073
 3136TIP3    H1 9353   3.487   7.382   3.035
 3136TIP3    H2 9354   3.497   7.467   3.160
 3137TIP3   OH2 9355   3.525   1.958   5.594
 3137TIP3    H1 9356   3.610   1.998   5.615
 3137TIP3    H2 9357   3.469   1.980   5.669
 3138TIP3   OH2 9358   3.625   0.332   1.564
 3138TIP3    H1 9359   3.713   0.352   1.593
 3138TIP3    H2 9360   3.637   0.275   1.488
 3139TIP3   OH2 9361   7.359   2.234   2.721
 3139TIP3    H1 9362   7.429   2.171   2.732
 3139TIP3    H2 9363   7.393   2.315   2.759
 3140TIP3   OH2 9364   2.731   0.358   1.280
 3140TIP3    H1 9365   2.770   0.445   1.269
 3140TIP3    H2 9366   2.657   0.371   1.339
 3141TIP3   OH2 9367   7.220   7.512   3.221
 3141TIP3    H1 9368   7.190   7.602   3.209
 3141TIP3    H2 9369   7.313   7.515   3.196
 3142TIP3   OH2 9370   3.814   5.127   4.302
 3142TIP3    H1 9371   3.815   5.156   4.393
 3142TIP3    H2 9372   3.831   5.206   4.252
 3143TIP3   OH2 9373   7.587   1.107   0.328
 3143TIP3    H1 9374   7.527   1.092   0.401
 3143TIP3    H2 9375   7.530   1.116   0.252
 3144TIP3   OH2 9376   5.555   0.124   3.208
 3144TIP3    H1 9377   5.528   0.195   3.150
 3144TIP3    H2 9378   5.592   0.169   3.284
 3145TIP3   OH2 9379   3.985   3.905   4.464
 3145TIP3    H1 9380   3.947   3.973   4.519
 3145TIP3    H2 9381   4.070   3.941   4.436
 3146TIP3   OH2 9382   7.609   1.972   2.152
 3146TIP3    H1 9383   7.591   1.963   2.245
 3146TIP3    H2 9384   7.593   1.885   2.115
 3147TIP3   OH2 9385   3.646   5.175   3.208
 3147TIP3    H1 9386   3.725   5.180   3.155
 3147TIP3    H2 9387   3.628   5.266   3.232
 3148TIP3   OH2 9388   7.994   6.851   6.196
 3148TIP3    H1 9389   8.049   6.872   6.120
 3148TIP3    H2 9390   7.907   6.839   6.159
 3149TIP3   OH2 9391   2.369   7.285   4.414
 3149TIP3    H1 9392   2.301   7.352   4.416
 3149TIP3    H2 9393   2.451   7.334   4.405
 3150TIP3   OH2 9394   5.968   7.314   2.836
 3150TIP3    H1 9395   6.030   7.290   2.767
 3150TIP3    H2 9396   6.009   7.282   2.916
 3151TIP3   OH2 9397   6.845   1.178   1.129
 3151TIP3    H1 9398   6.820   1.250   1.071
 3151TIP3    H2 9399   6.854   1.103   1.071
 3152TIP3   OH2 9400   0.740   4.888   4.940
 3152TIP3    H1 9401   0.679   4.956   4.912
 3152TIP3    H2 9402   0.747   4.829   4.865
 3153TIP3   OH2 9403   6.331   7.354   5.268
 3153TIP3    H1 9404   6.347   7.446   5.289
 3153TIP3    H2 9405   6.267   7.326   5.333
 3154TIP3   OH2 9406   2.967   3.478   4.442
 3154TIP3    H1 9407   2.886   3.431   4.427
 3154TIP3    H2 9408   3.024   3.451   4.370
 3155TIP3   OH2 9409   8.083   6.900   6.621
 3155TIP3    H1 9410   8.129   6.824   6.585
 3155TIP3    H2 9411   8.130   6.921   6.701
 3156TIP3   OH2 9412   4.422   3.282   0.760
 3156TIP3    H1 9413   4.381   3.367   0.742
 3156TIP3    H2 9414   4.510   3.303   0.791
 3157TIP3   OH2 9415   0.310   4.046   3.457
 3157TIP3    H1 9416   0.363   3.984   3.506
 3157TIP3    H2 9417   0.330   4.028   3.365
 3158TIP3   OH2 9418   2.131   1.849   3.304
 3158TIP3    H1 9419   2.051   1.810   3.342
 3158TIP3    H2 9420   2.176   1.775   3.263
 3159TIP3   OH2 9421   2.979   7.033   1.876
 3159TIP3    H1 9422   3.049   6.986   1.831
 3159TIP3    H2 9423   2.937   6.968   1.932
 3160TIP3   OH2 9424   4.711   4.871   0.631
 3160TIP3    H1 9425   4.687   4.906   0.545
 3160TIP3    H2 9426   4.686   4.939   0.693
 3161TIP3   OH2 9427   6.351   2.849   0.619
 3161TIP3    H1 9428   6.284   2.850   0.551
 3161TIP3    H2 9429   6.424   2.898   0.580
 3162TIP3   OH2 9430   8.054   3.623   3.280
 3162TIP3    H1 9431   8.141   3.640   3.242
 3162TIP3    H2 9432   8.045   3.528   3.277
 3163TIP3   OH2 9433   7.525   7.584   2.301
 3163TIP3    H1 9434   7.596   7.646   2.284
 3163TIP3    H2 9435   7.491   7.561   2.214
 3164TIP3   OH2 9436   4.997   5.161   2.202
 3164TIP3    H1 9437   4.907   5.186   2.185
 3164TIP3    H2 9438   4.995   5.065   2.210
 3165TIP3   OH2 9439   3.795   1.308   6.094
 3165TIP3    H1 9440   3.710   1.350   6.106
 3165TIP3    H2 9441   3.781   1.247   6.021
 3166TIP3   OH2 9442   7.985   5.426   2.281
 3166TIP3    H1 9443   8.040   5.470   2.345
 3166TIP3    H2 9444   8.030   5.441   2.197
 3167TIP3   OH2 9445   6.820   4.651   0.752
 3167TIP3    H1 9446   6.766   4.693   0.819
 3167TIP3    H2 9447   6.762   4.638   0.678
 3168TIP3   OH2 9448   8.220   6.414   2.017
 3168TIP3    H1 9449   8.148   6.466   2.053
 3168TIP3    H2 9450   8.207   6.327   2.054
 3169TIP3   OH2 9451   4.341   2.169   0.242
 3169TIP3    H1 9452   4.299   2.230   0.182
 3169TIP3    H2 9453   4.374   2.099   0.186
 3170TIP3   OH2 9454   7.662   0.700   1.341
 3170TIP3    H1 9455   7.713   0.645   1.401
 3170TIP3    H2 9456   7.684   0.790   1.366
 3171TIP3   OH2 9457   7.367   4.094   2.717
 3171TIP3    H1 9458   7.352   4.065   2.627
 3171TIP3    H2 9459   7.361   4.190   2.713
 3172TIP3   OH2 9460   4.448   1.113   0.046
 3172TIP3    H1 9461   4.397   1.139  -0.032
 3172TIP3    H2 9462   4.447   1.191   0.101
 3173TIP3   OH2 9463   7.889   1.057   1.650
 3173TIP3    H1 9464   7.972   1.080   1.608
 3173TIP3    H2 9465   7.912   1.038   1.741
 3174TIP3   OH2 9466   1.105   2.381   0.039
 3174TIP3    H1 9467   1.198   2.362   0.029
 3174TIP3    H2 9468   1.089   2.375   0.133
 3175TIP3   OH2 9469   1.607   6.382   1.366
 3175TIP3    H1 9470   1.650   6.314   1.417
 3175TIP3    H2 9471   1.564   6.437   1.431
 3176TIP3   OH2 9472   1.116   1.032   2.216
 3176TIP3    H1 9473   1.146   1.048   2.126
 3176TIP3    H2 9474   1.143   1.110   2.264
 3177TIP3   OH2 9475   5.680   7.036   0.786
 3177TIP3    H1 9476   5.646   6.974   0.721
 3177TIP3    H2 9477   5.670   6.991   0.870
 3178TIP3   OH2 9478   3.778   6.252   1.340
 3178TIP3    H1 9479   3.810   6.323   1.396
 3178TIP3    H2 9480   3.818   6.269   1.255
 3179TIP3   OH2 9481   4.829   7.329   4.830
 3179TIP3    H1 9482   4.744   7.371   4.845
 3179TIP3    H2 9483   4.806   7.242   4.798
 3180TIP3   OH2 9484   7.705   3.742   3.503
 3180TIP3    H1 9485   7.745   3.709   3.422
 3180TIP3    H2 9486   7.657   3.668   3.538
 3181TIP3   OH2 9487   6.598   1.049   3.788
 3181TIP3    H1 9488   6.563   0.968   3.750
 3181TIP3    H2 9489   6.536   1.116   3.761
 3182TIP3   OH2 9490   4.077   1.056   0.936
 3182TIP3    H1 9491   4.169   1.060   0.960
 3182TIP3    H2 9492   4.078   1.033   0.843
 3183TIP3   OH2 9493   1.425   0.102   4.987
 3183TIP3    H1 9494   1.470   0.083   5.070
 3183TIP3    H2 9495   1.488   0.076   4.920
 3184TIP3   OH2 9496   6.816   2.072   1.595
 3184TIP3    H1 9497   6.797   2.028   1.512
 3184TIP3    H2 9498   6.909   2.096   1.589
 3185TIP3   OH2 9499   5.976   3.935   3.585
 3185TIP3    H1 9500   6.063   3.970   3.608
 3185TIP3    H2 9501   5.953   3.980   3.504
 3186TIP3   OH2 9502   7.010   0.358   4.500
 3186TIP3    H1 9503   6.967   0.357   4.414
 3186TIP3    H2 9504   7.000   0.269   4.532
 3187TIP3   OH2 9505   0.798   5.593   1.871
 3187TIP3    H1 9506   0.849   5.531   1.923
 3187TIP3    H2 9507   0.737   5.632   1.932
 3188TIP3   OH2 9508   4.449   1.864   2.937
 3188TIP3    H1 9509   4.508   1.926   2.979
 3188TIP3    H2 9510   4.384   1.844   3.005
 3189TIP3   OH2 9511   3.028   2.149   2.205
 3189TIP3    H1 9512   3.077   2.073   2.173
 3189TIP3    H2 9513   2.995   2.121   2.291
 3190TIP3   OH2 9514   6.675   6.875   3.663
 3190TIP3    H1 9515   6.640   6.965   3.661
 3190TIP3    H2 9516   6.605   6.822   3.627
 3191TIP3   OH2 9517   4.884   3.430   4.639
 3191TIP3    H1 9518   4.912   3.425   4.730
 3191TIP3    H2 9519   4.788   3.434   4.643
 3192TIP3   OH2 9520   1.348   0.770   2.688
 3192TIP3    H1 9521   1.416   0.835   2.668
 3192TIP3    H2 9522   1.397   0.690   2.709
 3193TIP3   OH2 9523   5.400   3.094   0.088
 3193TIP3    H1 9524   5.443   3.169   0.130
 3193TIP3    H2 9525   5.378   3.036   0.161
 3194TIP3   OH2 9526   3.078   2.325   5.555
 3194TIP3    H1 9527   3.006   2.274   5.517
 3194TIP3    H2 9528   3.103   2.276   5.634
 3195TIP3   OH2 9529   1.465   6.249   5.087
 3195TIP3    H1 9530   1.418   6.333   5.088
 3195TIP3    H2 9531   1.477   6.227   5.179
 3196TIP3   OH2 9532   7.986   4.586   0.716
 3196TIP3    H1 9533   8.012   4.639   0.791
 3196TIP3    H2 9534   8.013   4.638   0.640
 3197TIP3   OH2 9535   4.891   3.096   1.990
 3197TIP3    H1 9536   4.926   3.185   1.988
 3197TIP3    H2 9537   4.967   3.041   1.970
 3198TIP3   OH2 9538   7.074   5.299   1.146
 3198TIP3    H1 9539   7.116   5.344   1.072
 3198TIP3    H2 9540   7.143   5.291   1.211
 3199TIP3   OH2 9541   2.115   4.008   1.754
 3199TIP3    H1 9542   2.197   3.979   1.715
 3199TIP3    H2 9543   2.070   3.926   1.777
 3200TIP3   OH2 9544   7.880   4.078   5.097
 3200TIP3    H1 9545   7.824   4.148   5.066
 3200TIP3    H2 9546   7.934   4.119   5.165
 3201TIP3   OH2 9547   2.565   1.415   2.448
 3201TIP3    H1 9548   2.470   1.422   2.448
 3201TIP3    H2 9549   2.595   1.485   2.389
 3202TIP3   OH2 9550   1.182   5.958   3.716
 3202TIP3    H1 9551   1.157   5.876   3.759
 3202TIP3    H2 9552   1.150   5.948   3.626
 3203TIP3   OH2 9553   7.024   0.787   3.205
 3203TIP3    H1 9554   7.001   0.852   3.272
 3203TIP3    H2 9555   7.059   0.713   3.255
 3204TIP3   OH2 9556   2.305   7.701   0.366
 3204TIP3    H1 9557   2.346   7.771   0.418
 3204TIP3    H2 9558   2.248   7.748   0.304
 3205TIP3   OH2 9559   1.619   5.211   0.012
 3205TIP3    H1 9560   1.561   5.201   0.087
 3205TIP3    H2 9561   1.638   5.304   0.008
 3206TIP3   OH2 9562   0.763   1.558   6.504
 3206TIP3    H1 9563   0.747   1.522   6.417
 3206TIP3    H2 9564   0.799   1.645   6.487
 3207TIP3   OH2 9565   6.561   2.002   2.056
 3207TIP3    H1 9566   6.596   2.091   2.047
 3207TIP3    H2 9567   6.626   1.947   2.011
 3208TIP3   OH2 9568   3.284   2.189   3.044
 3208TIP3    H1 9569   3.239   2.107   3.062
 3208TIP3    H2 9570   3.258   2.213   2.956
 3209TIP3   OH2 9571   0.400   3.309   5.090
 3209TIP3    H1 9572   0.359   3.237   5.138
 3209TIP3    H2 9573   0.331   3.375   5.083
 3210TIP3   OH2 9574   3.036   6.837   4.486
 3210TIP3    H1 9575   3.054   6.749   4.518
 3210TIP3    H2 9576   3.021   6.889   4.565
 3211TIP3   OH2 9577   5.282   1.636   0.403
 3211TIP3    H1 9578   5.313   1.580   0.332
 3211TIP3    H2 9579   5.289   1.725   0.368
 3212TIP3   OH2 9580   2.138   7.720   2.047
 3212TIP3    H1 9581   2.104   7.634   2.023
 3212TIP3    H2 9582   2.233   7.708   2.052
 3213TIP3   OH2 9583   0.245   4.199   1.840
 3213TIP3    H1 9584   0.314   4.155   1.791
 3213TIP3    H2 9585   0.194   4.127   1.879
 3214TIP3   OH2 9586   1.895   5.453   1.111
 3214TIP3    H1 9587   1.978   5.407   1.124
 3214TIP3    H2 9588   1.865   5.473   1.200
 3215TIP3   OH2 9589   8.293   7.045   1.672
 3215TIP3    H1 9590   8.218   7.095   1.706
 3215TIP3    H2 9591   8.267   7.019   1.584
 3216TIP3   OH2 9592   4.273   6.062   1.787
 3216TIP3    H1 9593   4.287   6.090   1.877
 3216TIP3    H2 9594   4.247   5.970   1.794
 3217TIP3   OH2 9595   5.339   4.604   1.250
 3217TIP3    H1 9596   5.400   4.547   1.204
 3217TIP3    H2 9597   5.261   4.607   1.194
 3218TIP3   OH2 9598   0.927   3.891   0.346
 3218TIP3    H1 9599   1.003   3.934   0.385
 3218TIP3    H2 9600   0.954   3.868   0.257
 3219TIP3   OH2 9601   4.913   0.784   2.194
 3219TIP3    H1 9602   4.835   0.730   2.209
 3219TIP3    H2 9603   4.949   0.751   2.112
 3220TIP3   OH2 9604   4.589   1.220   2.589
 3220TIP3    H1 9605   4.639   1.263   2.521
 3220TIP3    H2 9606   4.655   1.185   2.649
 3221TIP3   OH2 9607   6.141   6.091   2.847
 3221TIP3    H1 9608   6.176   6.052   2.927
 3221TIP3    H2 9609   6.076   6.028   2.816
 3222TIP3   OH2 9610   0.427   6.310   4.857
 3222TIP3    H1 9611   0.515   6.329   4.891
 3222TIP3    H2 9612   0.370   6.320   4.933
 3223TIP3   OH2 9613   0.517   0.550   5.203
 3223TIP3    H1 9614   0.457   0.476   5.201
 3223TIP3    H2 9615   0.595   0.519   5.157
 3224TIP3   OH2 9616   6.607   5.492   0.837
 3224TIP3    H1 9617   6.675   5.441   0.794
 3224TIP3    H2 9618   6.584   5.441   0.915
 3225TIP3   OH2 9619   4.106   4.437   5.899
 3225TIP3    H1 9620   4.066   4.464   5.982
 3225TIP3    H2 9621   4.068   4.495   5.834
 3226TIP3   OH2 9622   4.814   5.195   3.715
 3226TIP3    H1 9623   4.887   5.223   3.661
 3226TIP3    H2 9624   4.807   5.262   3.783
 3227TIP3   OH2 9625   6.824   0.681   3.052
 3227TIP3    H1 9626   6.850   0.740   2.981
 3227TIP3    H2 9627   6.888   0.697   3.121
 3228TIP3   OH2 9628   0.990   3.706   0.621
 3228TIP3    H1 9629   1.038   3.754   0.688
 3228TIP3    H2 9630   1.049   3.636   0.593
 3229TIP3   OH2 9631   1.095   6.123   0.758
 3229TIP3    H1 9632   1.070   6.149   0.847
 3229TIP3    H2 9633   1.154   6.049   0.771
 3230TIP3   OH2 9634   4.156   1.285   4.077
 3230TIP3    H1 9635   4.238   1.243   4.053
 3230TIP3    H2 9636   4.145   1.355   4.013
 3231TIP3   OH2 9637   0.760   7.214   4.234
 3231TIP3    H1 9638   0.835   7.155   4.228
 3231TIP3    H2 9639   0.771   7.258   4.318
 3232TIP3   OH2 9640   4.337   4.799   4.452
 3232TIP3    H1 9641   4.425   4.794   4.489
 3232TIP3    H2 9642   4.280   4.771   4.523
 3233TIP3   OH2 9643   7.159   6.561   5.330
 3233TIP3    H1 9644   7.193   6.634   5.381
 3233TIP3    H2 9645   7.204   6.568   5.246
 3234TIP3   OH2 9646   6.703   3.444   0.014
 3234TIP3    H1 9647   6.612   3.441  -0.015
 3234TIP3    H2 9648   6.713   3.531   0.052
 3235TIP3   OH2 9649   1.236   5.339   3.691
 3235TIP3    H1 9650   1.202   5.326   3.603
 3235TIP3    H2 9651   1.261   5.251   3.721
 3236TIP3   OH2 9652   0.393   2.978   4.066
 3236TIP3    H1 9653   0.367   3.066   4.093
 3236TIP3    H2 9654   0.487   2.974   4.083
 3237TIP3   OH2 9655   6.569   4.764   6.171
 3237TIP3    H1 9656   6.588   4.741   6.262
 3237TIP3    H2 9657   6.514   4.842   6.177
 3238TIP3   OH2 9658   4.879   4.560   6.196
 3238TIP3    H1 9659   4.838   4.635   6.153
 3238TIP3    H2 9660   4.973   4.580   6.195
 3239TIP3   OH2 9661   7.054   3.714   2.156
 3239TIP3    H1 9662   7.074   3.795   2.203
 3239TIP3    H2 9663   7.140   3.678   2.134
 3240TIP3   OH2 9664   1.854   3.888   6.210
 3240TIP3    H1 9665   1.846   3.900   6.115
 3240TIP3    H2 9666   1.904   3.807   6.220
 3241TIP3   OH2 9667   2.187   4.396   2.848
 3241TIP3    H1 9668   2.116   4.461   2.847
 3241TIP3    H2 9669   2.264   4.445   2.874
 3242TIP3   OH2 9670   1.082   3.561   2.086
 3242TIP3    H1 9671   1.005   3.618   2.081
 3242TIP3    H2 9672   1.142   3.596   2.021
 3243TIP3   OH2 9673   2.673   5.180   5.708
 3243TIP3    H1 9674   2.589   5.225   5.716
 3243TIP3    H2 9675   2.680   5.158   5.615
 3244TIP3   OH2 9676   0.945   0.660   4.120
 3244TIP3    H1 9677   0.943   0.570   4.152
 3244TIP3    H2 9678   1.012   0.703   4.175
 3245TIP3   OH2 9679   3.045   6.632   3.501
 3245TIP3    H1 9680   3.008   6.719   3.489
 3245TIP3    H2 9681   2.992   6.576   3.444
 3246TIP3   OH2 9682   0.218   1.580   2.896
 3246TIP3    H1 9683   0.177   1.607   2.978
 3246TIP3    H2 9684   0.297   1.533   2.922
 3247TIP3   OH2 9685   0.366   2.197   1.808
 3247TIP3    H1 9686   0.394   2.107   1.827
 3247TIP3    H2 9687   0.294   2.213   1.868
 3248TIP3   OH2 9688   1.388   5.933   3.258
 3248TIP3    H1 9689   1.443   5.867   3.214
 3248TIP3    H2 9690   1.444   6.011   3.262
 3249TIP3   OH2 9691   6.754   0.284   4.690
 3249TIP3    H1 9692   6.816   0.220   4.655
 3249TIP3    H2 9693   6.798   0.369   4.679
 3250TIP3   OH2 9694   3.056   0.963   2.867
 3250TIP3    H1 9695   2.993   1.035   2.861
 3250TIP3    H2 9696   3.141   1.005   2.856
 3251TIP3   OH2 9697   0.425   6.319   3.335
 3251TIP3    H1 9698   0.340   6.361   3.322
 3251TIP3    H2 9699   0.475   6.381   3.387
 3252TIP3   OH2 9700   2.628   3.267   1.003
 3252TIP3    H1 9701   2.581   3.336   1.048
 3252TIP3    H2 9702   2.596   3.271   0.912
 3253TIP3   OH2 9703   3.622   1.350   0.250
 3253TIP3    H1 9704   3.632   1.295   0.328
 3253TIP3    H2 9705   3.645   1.293   0.177
 3254TIP3   OH2 9706   5.339   4.818   2.165
 3254TIP3    H1 9707   5.402   4.775   2.223
 3254TIP3    H2 9708   5.347   4.911   2.185
 3255TIP3   OH2 9709   8.097   0.648   4.253
 3255TIP3    H1 9710   8.021   0.590   4.252
 3255TIP3    H2 9711   8.164   0.599   4.299
 3256TIP3   OH2 9712   4.562   7.755   0.238
 3256TIP3    H1 9713   4.640   7.809   0.224
 3256TIP3    H2 9714   4.489   7.812   0.213
 3257TIP3   OH2 9715   0.042   4.788   4.372
 3257TIP3    H1 9716  -0.046   4.786   4.409
 3257TIP3    H2 9717   0.031   4.833   4.288
 3258TIP3   OH2 9718   8.263   6.891   0.393
 3258TIP3    H1 9719   8.240   6.799   0.383
 3258TIP3    H2 9720   8.253   6.928   0.305
 3259TIP3   OH2 9721   4.474   7.392   4.818
 3259TIP3    H1 9722   4.397   7.413   4.871
 3259TIP3    H2 9723   4.490   7.299   4.835
 3260TIP3   OH2 9724   2.628   4.279   3.285
 3260TIP3    H1 9725   2.610   4.197   3.332
 3260TIP3    H2 9726   2.657   4.251   3.198
 3261TIP3   OH2 9727   7.009   7.583   6.746
 3261TIP3    H1 9728   6.957   7.612   6.671
 3261TIP3    H2 9729   7.096   7.567   6.711
 3262TIP3   OH2 9730   7.325   4.954   1.403
 3262TIP3    H1 9731   7.401   4.933   1.348
 3262TIP3    H2 9732   7.341   4.907   1.485
 3263TIP3   OH2 9733   7.671   4.159   1.964
 3263TIP3    H1 9734   7.740   4.198   1.910
 3263TIP3    H2 9735   7.706   4.163   2.053
 3264TIP3   OH2 9736   4.097   6.960   5.207
 3264TIP3    H1 9737   4.058   7.044   5.232
 3264TIP3    H2 9738   4.189   6.981   5.189
 3265TIP3   OH2 9739   8.285   1.964   4.979
 3265TIP3    H1 9740   8.238   1.963   4.895
 3265TIP3    H2 9741   8.311   1.873   4.993
 3266TIP3   OH2 9742   3.218   0.602   0.814
 3266TIP3    H1 9743   3.171   0.560   0.742
 3266TIP3    H2 9744   3.311   0.591   0.792
 3267TIP3   OH2 9745   4.276   0.770   6.640
 3267TIP3    H1 9746   4.278   0.833   6.567
 3267TIP3    H2 9747   4.255   0.823   6.717
 3268TIP3   OH2 9748   5.550   3.650   4.768
 3268TIP3    H1 9749   5.516   3.732   4.805
 3268TIP3    H2 9750   5.528   3.655   4.675
 3269TIP3   OH2 9751   5.786   6.964   3.349
 3269TIP3    H1 9752   5.798   7.026   3.277
 3269TIP3    H2 9753   5.711   6.910   3.323
 3270TIP3   OH2 9754   3.747   5.756   4.157
 3270TIP3    H1 9755   3.794   5.707   4.089
 3270TIP3    H2 9756   3.777   5.717   4.239
 3271TIP3   OH2 9757   8.027   6.634   4.591
 3271TIP3    H1 9758   8.038   6.722   4.555
 3271TIP3    H2 9759   7.955   6.596   4.539
 3272TIP3   OH2 9760   1.870   3.460   5.561
 3272TIP3    H1 9761   1.804   3.409   5.514
 3272TIP3    H2 9762   1.819   3.517   5.619
 3273TIP3   OH2 9763   5.071   4.209   5.666
 3273TIP3    H1 9764   5.076   4.116   5.645
 3273TIP3    H2 9765   5.067   4.212   5.761
 3274TIP3   OH2 9766   7.055   1.568   6.427
 3274TIP3    H1 9767   6.977   1.585   6.480
 3274TIP3    H2 9768   7.084   1.481   6.455
 3275TIP3   OH2 9769   1.370   5.268   0.188
 3275TIP3    H1 9770   1.283   5.228   0.195
 3275TIP3    H2 9771   1.390   5.299   0.276
 3276TIP3   OH2 9772   2.635   1.597   5.321
 3276TIP3    H1 9773   2.672   1.657   5.385
 3276TIP3    H2 9774   2.684   1.516   5.331
 3277TIP3   OH2 9775   4.284   0.987   3.307
 3277TIP3    H1 9776   4.343   0.912   3.314
 3277TIP3    H2 9777   4.300   1.021   3.219
 3278TIP3   OH2 9778   6.361   0.679   2.890
 3278TIP3    H1 9779   6.266   0.672   2.893
 3278TIP3    H2 9780   6.391   0.589   2.877
 3279TIP3   OH2 9781   4.014   3.393   3.879
 3279TIP3    H1 9782   4.064   3.454   3.826
 3279TIP3    H2 9783   3.937   3.442   3.908
 3280TIP3   OH2 9784   7.244   0.170   2.112
 3280TIP3    H1 9785   7.310   0.111   2.076
 3280TIP3    H2 9786   7.165   0.150   2.062
 3281TIP3   OH2 9787   3.248   3.189   4.713
 3281TIP3    H1 9788   3.326   3.178   4.658
 3281TIP3    H2 9789   3.224   3.281   4.702
 3282TIP3   OH2 9790   4.173   3.282   5.027
 3282TIP3    H1 9791   4.091   3.260   5.073
 3282TIP3    H2 9792   4.144   3.331   4.950
 3283TIP3   OH2 9793   1.645   5.318   4.596
 3283TIP3    H1 9794   1.680   5.248   4.541
 3283TIP3    H2 9795   1.550   5.307   4.593
 3284TIP3   OH2 9796   1.000   0.468   2.668
 3284TIP3    H1 9797   0.911   0.443   2.644
 3284TIP3    H2 9798   0.990   0.529   2.740
 3285TIP3   OH2 9799   4.297   4.746   1.396
 3285TIP3    H1 9800   4.286   4.833   1.359
 3285TIP3    H2 9801   4.210   4.721   1.426
 3286TIP3   OH2 9802   4.124   4.223   4.731
 3286TIP3    H1 9803   4.210   4.207   4.691
 3286TIP3    H2 9804   4.061   4.195   4.664
 3287TIP3   OH2 9805   3.624   6.059   0.753
 3287TIP3    H1 9806   3.573   6.099   0.823
 3287TIP3    H2 9807   3.643   5.971   0.784
 3288TIP3   OH2 9808   5.965   1.213   6.455
 3288TIP3    H1 9809   6.051   1.255   6.464
 3288TIP3    H2 9810   5.919   1.235   6.535
 3289TIP3   OH2 9811   7.455   2.272   5.860
 3289TIP3    H1 9812   7.462   2.192   5.807
 3289TIP3    H2 9813   7.544   2.289   5.889
 3290TIP3   OH2 9814   1.951   5.360   2.279
 3290TIP3    H1 9815   1.963   5.360   2.374
 3290TIP3    H2 9816   2.039   5.345   2.244
 3291TIP3   OH2 9817   0.817   1.866   4.460
 3291TIP3    H1 9818   0.777   1.943   4.500
 3291TIP3    H2 9819   0.835   1.807   4.534
 3292TIP3   OH2 9820   4.543   2.603   2.890
 3292TIP3    H1 9821   4.625   2.566   2.858
 3292TIP3    H2 9822   4.550   2.697   2.871
 3293TIP3   OH2 9823   5.646   5.946   2.795
 3293TIP3    H1 9824   5.661   5.919   2.705
 3293TIP3    H2 9825   5.635   6.041   2.790
 3294TIP3   OH2 9826   7.920   2.122   6.074
 3294TIP3    H1 9827   7.997   2.139   6.020
 3294TIP3    H2 9828   7.941   2.163   6.158
 3295TIP3   OH2 9829   0.514   6.109   2.024
 3295TIP3    H1 9830   0.500   6.016   2.005
 3295TIP3    H2 9831   0.574   6.138   1.955
 3296TIP3   OH2 9832   5.269   6.650   6.405
 3296TIP3    H1 9833   5.295   6.564   6.439
 3296TIP3    H2 9834   5.252   6.703   6.483
 3297TIP3   OH2 9835   7.961   5.695   2.214
 3297TIP3    H1 9836   7.939   5.628   2.278
 3297TIP3    H2 9837   7.977   5.774   2.266
 3298TIP3   OH2 9838   2.978  -0.034   4.361
 3298TIP3    H1 9839   2.932   0.006   4.288
 3298TIP3    H2 9840   2.984   0.035   4.427
 3299TIP3   OH2 9841   2.186   3.154   3.605
 3299TIP3    H1 9842   2.272   3.179   3.571
 3299TIP3    H2 9843   2.129   3.227   3.583
 3300TIP3   OH2 9844   4.547   7.730   2.801
 3300TIP3    H1 9845   4.462   7.730   2.844
 3300TIP3    H2 9846   4.558   7.641   2.767
 3301TIP3   OH2 9847   3.134   1.593   3.466
 3301TIP3    H1 9848   3.208   1.545   3.503
 3301TIP3    H2 9849   3.079   1.614   3.542
 3302TIP3   OH2 9850   7.130   0.902   1.082
 3302TIP3    H1 9851   7.143   0.946   0.998
 3302TIP3    H2 9852   7.218   0.888   1.116
 3303TIP3   OH2 9853   6.805   2.136   0.632
 3303TIP3    H1 9854   6.713   2.115   0.614
 3303TIP3    H2 9855   6.853   2.056   0.612
 3304TIP3   OH2 9856   6.271   0.164   2.003
 3304TIP3    H1 9857   6.353   0.193   1.963
 3304TIP3    H2 9858   6.275   0.068   2.001
 3305TIP3   OH2 9859   4.427   2.892   6.706
 3305TIP3    H1 9860   4.378   2.838   6.643
 3305TIP3    H2 9861   4.483   2.947   6.652
 3306TIP3   OH2 9862   5.755   2.495   2.173
 3306TIP3    H1 9863   5.818   2.458   2.111
 3306TIP3    H2 9864   5.734   2.582   2.138
 3307TIP3   OH2 9865   3.848   4.513   1.677
 3307TIP3    H1 9866   3.884   4.534   1.591
 3307TIP3    H2 9867   3.923   4.515   1.736
 3308TIP3   OH2 9868   8.173   0.224   5.140
 3308TIP3    H1 9869   8.218   0.279   5.205
 3308TIP3    H2 9870   8.103   0.181   5.190
 3309TIP3   OH2 9871   6.337   1.136   3.428
 3309TIP3    H1 9872   6.291   1.192   3.366
 3309TIP3    H2 9873   6.406   1.191   3.465
 3310TIP3   OH2 9874   3.005   5.455   2.953
 3310TIP3    H1 9875   3.086   5.452   2.903
 3310TIP3    H2 9876   2.963   5.371   2.935
 3311TIP3   OH2 9877   2.965   2.600   5.956
 3311TIP3    H1 9878   3.037   2.541   5.934
 3311TIP3    H2 9879   2.923   2.619   5.872
 3312TIP3   OH2 9880   2.480   6.717   4.630
 3312TIP3    H1 9881   2.573   6.701   4.639
 3312TIP3    H2 9882   2.466   6.726   4.535
 3313TIP3   OH2 9883   6.002   4.377   1.078
 3313TIP3    H1 9884   5.988   4.428   1.158
 3313TIP3    H2 9885   5.977   4.437   1.007
 3314TIP3   OH2 9886   1.292   0.038   0.769
 3314TIP3    H1 9887   1.236   0.029   0.692
 3314TIP3    H2 9888   1.233   0.070   0.837
 3315TIP3   OH2 9889   6.797   6.106   1.462
 3315TIP3    H1 9890   6.758   6.019   1.469
 3315TIP3    H2 9891   6.723   6.166   1.461
 3316TIP3   OH2 9892   1.510   3.431   4.360
 3316TIP3    H1 9893   1.480   3.340   4.348
 3316TIP3    H2 9894   1.501   3.471   4.274
 3317TIP3   OH2 9895   6.593   3.707   1.417
 3317TIP3    H1 9896   6.513   3.669   1.454
 3317TIP3    H2 9897   6.662   3.680   1.478
 3318TIP3   OH2 9898   0.983   1.553   5.120
 3318TIP3    H1 9899   0.938   1.628   5.159
 3318TIP3    H2 9900   0.914   1.505   5.074
 3319TIP3   OH2 9901   5.017   1.975   3.183
 3319TIP3    H1 9902   5.103   2.015   3.173
 3319TIP3    H2 9903   5.032   1.881   3.172
 3320TIP3   OH2 9904   2.454   1.272   6.527
 3320TIP3    H1 9905   2.493   1.356   6.552
 3320TIP3    H2 9906   2.378   1.263   6.585
 3321TIP3   OH2 9907   5.270   5.860   5.226
 3321TIP3    H1 9908   5.233   5.838   5.311
 3321TIP3    H2 9909   5.319   5.783   5.200
 3322TIP3   OH2 9910   7.626   0.312   1.533
 3322TIP3    H1 9911   7.662   0.392   1.496
 3322TIP3    H2 9912   7.673   0.300   1.616
 3323TIP3   OH2 9913   7.044   1.701   3.428
 3323TIP3    H1 9914   6.978   1.642   3.392
 3323TIP3    H2 9915   7.022   1.786   3.389
 3324TIP3   OH2 9916   1.969   4.657   2.716
 3324TIP3    H1 9917   1.920   4.703   2.784
 3324TIP3    H2 9918   2.060   4.686   2.729
 3325TIP3   OH2 9919   7.799   0.651   6.006
 3325TIP3    H1 9920   7.868   0.715   5.989
 3325TIP3    H2 9921   7.777   0.617   5.919
 3326TIP3   OH2 9922   4.566   3.521   2.919
 3326TIP3    H1 9923   4.503   3.577   2.965
 3326TIP3    H2 9924   4.633   3.581   2.888
 3327TIP3   OH2 9925   0.911   4.559   3.551
 3327TIP3    H1 9926   0.891   4.472   3.516
 3327TIP3    H2 9927   0.881   4.556   3.641
 3328TIP3   OH2 9928   5.126   6.921   0.786
 3328TIP3    H1 9929   5.217   6.941   0.767
 3328TIP3    H2 9930   5.106   6.970   0.866
 3329TIP3   OH2 9931   8.136   7.199   6.203
 3329TIP3    H1 9932   8.115   7.140   6.275
 3329TIP3    H2 9933   8.231   7.198   6.198
 3330TIP3   OH2 9934   7.696   4.602   3.686
 3330TIP3    H1 9935   7.656   4.560   3.610
 3330TIP3    H2 9936   7.783   4.562   3.693
 3331TIP3   OH2 9937   1.644   4.575   2.317
 3331TIP3    H1 9938   1.728   4.571   2.363
 3331TIP3    H2 9939   1.578   4.567   2.386
 3332TIP3   OH2 9940   1.139   1.921   4.792
 3332TIP3    H1 9941   1.212   1.875   4.749
 3332TIP3    H2 9942   1.148   2.012   4.762
 3333TIP3   OH2 9943   4.875   0.229   6.431
 3333TIP3    H1 9944   4.862   0.294   6.500
 3333TIP3    H2 9945   4.832   0.150   6.463
 3334TIP3   OH2 9946   4.154   4.743   3.532
 3334TIP3    H1 9947   4.138   4.766   3.624
 3334TIP3    H2 9948   4.067   4.746   3.491
 3335TIP3   OH2 9949   0.280   6.395   1.224
 3335TIP3    H1 9950   0.186   6.410   1.218
 3335TIP3    H2 9951   0.313   6.465   1.281
 3336TIP3   OH2 9952   2.908   6.701   1.467
 3336TIP3    H1 9953   2.847   6.628   1.474
 3336TIP3    H2 9954   2.993   6.665   1.494
 3337TIP3   OH2 9955   4.279   0.890   4.201
 3337TIP3    H1 9956   4.310   0.947   4.131
 3337TIP3    H2 9957   4.202   0.934   4.236
 3338TIP3   OH2 9958   4.359   2.020   0.887
 3338TIP3    H1 9959   4.454   2.025   0.891
 3338TIP3    H2 9960   4.341   1.945   0.830
 3339TIP3   OH2 9961   6.962   1.277   3.591
 3339TIP3    H1 9962   7.017   1.346   3.627
 3339TIP3    H2 9963   6.926   1.232   3.667
 3340TIP3   OH2 9964   2.314   7.243   4.016
 3340TIP3    H1 9965   2.358   7.208   4.093
 3340TIP3    H2 9966   2.227   7.269   4.047
 3341TIP3   OH2 9967   3.672   2.371   5.728
 3341TIP3    H1 9968   3.618   2.333   5.798
 3341TIP3    H2 9969   3.696   2.296   5.674
 3342TIP3   OH2 9970   4.714   3.260   1.129
 3342TIP3    H1 9971   4.740   3.275   1.220
 3342TIP3    H2 9972   4.625   3.227   1.135
 3343TIP3   OH2 9973   6.682   6.845   6.459
 3343TIP3    H1 9974   6.774   6.871   6.467
 3343TIP3    H2 9975   6.649   6.893   6.383
 3344TIP3   OH2 9976   2.991   0.296   2.338
 3344TIP3    H1 9977   2.942   0.376   2.321
 3344TIP3    H2 9978   3.069   0.304   2.284
 3345TIP3   OH2 9979   7.219   3.749   0.466
 3345TIP3    H1 9980   7.159   3.704   0.406
 3345TIP3    H2 9981   7.179   3.835   0.479
 3346TIP3   OH2 9982   3.926   4.995   4.972
 3346TIP3    H1 9983   3.976   5.076   4.963
 3346TIP3    H2 9984   3.858   5.016   5.036
 3347TIP3   OH2 9985   3.351   5.954   1.657
 3347TIP3    H1 9986   3.264   5.930   1.627
 3347TIP3    H2 9987   3.411   5.903   1.602
 3348TIP3   OH2 9988   3.930   2.772   2.562
 3348TIP3    H1 9989   3.842   2.746   2.532
 3348TIP3    H2 9990   3.986   2.699   2.536
 3349TIP3   OH2 9991   3.833   5.706   0.043
 3349TIP3    H1 9992   3.766   5.730   0.107
 3349TIP3    H2 9993   3.863   5.620   0.071
 3350TIP3   OH2 9994   6.033   6.724   4.093
 3350TIP3    H1 9995   6.106   6.662   4.093
 3350TIP3    H2 9996   6.063   6.796   4.148
 3351TIP3   OH2 9997   2.183   0.414   6.047
 3351TIP3    H1 9998   2.129   0.378   6.118
 3351TIP3    H2 9999   2.242   0.475   6.091
 3352TIP3   OH210000   6.811   2.185   3.048
 3352TIP3    H110001   6.723   2.198   3.083
 3352TIP3    H210002   6.870   2.204   3.121
 3353TIP3   OH210003   6.906   4.614   4.999
 3353TIP3    H110004   6.915   4.546   4.933
 3353TIP3    H210005   6.820   4.652   4.983
 3354TIP3   OH210006   5.819   7.108   0.468
 3354TIP3    H110007   5.878   7.135   0.398
 3354TIP3    H210008   5.785   7.023   0.439
 3355TIP3   OH210009   3.883   4.323   5.052
 3355TIP3    H110010   3.975   4.311   5.026
 3355TIP3    H210011   3.844   4.236   5.043
 3356TIP3   OH210012   1.810   2.584   5.800
 3356TIP3    H110013   1.810   2.503   5.748
 3356TIP3    H210014   1.886   2.576   5.857
 3357TIP3   OH210015   6.800   3.711   2.036
 3357TIP3    H110016   6.875   3.707   2.095
 3357TIP3    H210017   6.821   3.783   1.976
 3358TIP3   OH210018   7.491   5.892   1.238
 3358TIP3    H110019   7.476   5.798   1.231
 3358TIP3    H210020   7.451   5.918   1.321
 3359TIP3   OH210021   3.052   5.877   5.387
 3359TIP3    H110022   2.968   5.900   5.427
 3359TIP3    H210023   3.036   5.882   5.292
 3360TIP3   OH210024   6.710   6.143   3.145
 3360TIP3    H110025   6.757   6.088   3.208
 3360TIP3    H210026   6.753   6.125   3.062
 3361TIP3   OH210027   0.191   7.752   1.514
 3361TIP3    H110028   0.113   7.808   1.517
 3361TIP3    H210029   0.174   7.692   1.440
 3362TIP3   OH210030   7.804   2.656   3.183
 3362TIP3    H110031   7.718   2.687   3.211
 3362TIP3    H210032   7.827   2.589   3.248
 3363TIP3   OH210033   3.060   3.332   0.901
 3363TIP3    H110034   3.114   3.316   0.978
 3363TIP3    H210035   3.112   3.299   0.828
 3364TIP3   OH210036   6.103   4.581   4.546
 3364TIP3    H110037   6.147   4.654   4.502
 3364TIP3    H210038   6.100   4.511   4.481
 3365TIP3   OH210039   4.187   0.232   6.077
 3365TIP3    H110040   4.249   0.304   6.081
 3365TIP3    H210041   4.176   0.204   6.168
 3366TIP3   OH210042   4.279   7.331   6.164
 3366TIP3    H110043   4.286   7.321   6.259
 3366TIP3    H210044   4.302   7.246   6.129
 3367TIP3   OH210045   1.371   6.378   2.308
 3367TIP3    H110046   1.387   6.442   2.239
 3367TIP3    H210047   1.449   6.322   2.307
 3368TIP3   OH210048   5.310   1.199   4.156
 3368TIP3    H110049   5.402   1.198   4.130
 3368TIP3    H210050   5.278   1.286   4.131
 3369TIP3   OH210051   5.800   3.860   4.205
 3369TIP3    H110052   5.760   3.888   4.123
 3369TIP3    H210053   5.894   3.872   4.190
 3370TIP3   OH210054   3.247   6.062   5.759
 3370TIP3    H110055   3.183   6.008   5.807
 3370TIP3    H210056   3.201   6.144   5.742
 3371TIP3   OH210057   3.645   4.055   2.101
 3371TIP3    H110058   3.562   4.013   2.121
 3371TIP3    H210059   3.699   4.041   2.179
 3372TIP3   OH210060   2.172   5.371   6.461
 3372TIP3    H110061   2.237   5.304   6.483
 3372TIP3    H210062   2.103   5.322   6.416
 3373TIP3   OH210063   4.924   3.278   1.625
 3373TIP3    H110064   4.936   3.207   1.562
 3373TIP3    H210065   4.986   3.258   1.695
 3374TIP3   OH210066   0.205   4.355   5.201
 3374TIP3    H110067   0.296   4.357   5.171
 3374TIP3    H210068   0.197   4.433   5.256
 3375TIP3   OH210069   7.089   3.207   5.082
 3375TIP3    H110070   7.058   3.293   5.055
 3375TIP3    H210071   7.021   3.174   5.140
 3376TIP3   OH210072   5.621   1.809   0.735
 3376TIP3    H110073   5.604   1.894   0.776
 3376TIP3    H210074   5.534   1.776   0.713
 3377TIP3   OH210075   2.618   1.097   3.673
 3377TIP3    H110076   2.596   1.178   3.721
 3377TIP3    H210077   2.585   1.027   3.729
 3378TIP3   OH210078   6.108   7.410   1.226
 3378TIP3    H110079   6.039   7.472   1.246
 3378TIP3    H210080   6.155   7.399   1.308
 3379TIP3   OH210081   2.266   0.917   6.115
 3379TIP3    H110082   2.298   0.938   6.203
 3379TIP3    H210083   2.345   0.910   6.062
 3380TIP3   OH210084   5.166   4.572   0.619
 3380TIP3    H110085   5.169   4.666   0.636
 3380TIP3    H210086   5.255   4.548   0.594
 3381TIP3   OH210087   1.704   5.935   1.718
 3381TIP3    H110088   1.752   5.870   1.666
 3381TIP3    H210089   1.675   6.000   1.654
 3382TIP3   OH210090   2.340   0.596   3.575
 3382TIP3    H110091   2.253   0.601   3.614
 3382TIP3    H210092   2.327   0.622   3.483
 3383TIP3   OH210093   6.177   1.636   6.046
 3383TIP3    H110094   6.244   1.579   6.083
 3383TIP3    H210095   6.193   1.636   5.952
 3384TIP3   OH210096   4.302   1.959   4.484
 3384TIP3    H110097   4.240   1.904   4.437
 3384TIP3    H210098   4.255   1.986   4.563
 3385TIP3   OH210099   5.472   0.993   6.161
 3385TIP3    H110100   5.523   0.924   6.120
 3385TIP3    H210101   5.406   1.017   6.096
 3386TIP3   OH210102   6.801   5.482   5.838
 3386TIP3    H110103   6.733   5.453   5.778
 3386TIP3    H210104   6.883   5.457   5.795
 3387TIP3   OH210105   7.500   5.446   0.480
 3387TIP3    H110106   7.572   5.448   0.542
 3387TIP3    H210107   7.536   5.403   0.402
 3388TIP3   OH210108   2.120   4.103   3.981
 3388TIP3    H110109   2.173   4.028   4.005
 3388TIP3    H210110   2.080   4.132   4.063
 3389TIP3   OH210111   2.493   5.600   2.973
 3389TIP3    H110112   2.427   5.536   2.945
 3389TIP3    H210113   2.443   5.665   3.023
 3390TIP3   OH210114   1.125   7.791   1.780
 3390TIP3    H110115   1.191   7.787   1.711
 3390TIP3    H210116   1.159   7.736   1.850
 3391TIP3   OH210117   6.472   0.321  -0.027
 3391TIP3    H110118   6.446   0.260  -0.096
 3391TIP3    H210119   6.447   0.407  -0.061
 3392TIP3   OH210120   1.210   1.289   4.383
 3392TIP3    H110121   1.151   1.321   4.315
 3392TIP3    H210122   1.164   1.215   4.423
 3393TIP3   OH210123   4.658   6.711   0.084
 3393TIP3    H110124   4.646   6.652   0.010
 3393TIP3    H210125   4.753   6.716   0.095
 3394TIP3   OH210126   6.920   3.398   1.372
 3394TIP3    H110127   6.849   3.339   1.396
 3394TIP3    H210128   6.919   3.401   1.276
 3395TIP3   OH210129   2.109   4.345   1.435
 3395TIP3    H110130   2.032   4.352   1.378
 3395TIP3    H210131   2.175   4.303   1.381
 3396TIP3   OH210132   1.846   0.745   4.461
 3396TIP3    H110133   1.827   0.674   4.522
 3396TIP3    H210134   1.900   0.806   4.512
 3397TIP3   OH210135   0.698   5.765   1.391
 3397TIP3    H110136   0.739   5.720   1.465
 3397TIP3    H210137   0.630   5.705   1.361
 3398TIP3   OH210138   3.745   2.237   3.000
 3398TIP3    H110139   3.813   2.188   3.045
 3398TIP3    H210140   3.791   2.288   2.934
 3399TIP3   OH210141   1.278   7.129   3.431
 3399TIP3    H110142   1.257   7.212   3.388
 3399TIP3    H210143   1.272   7.063   3.361
 3400TIP3   OH210144   6.221   4.513   4.239
 3400TIP3    H110145   6.160   4.452   4.279
 3400TIP3    H210146   6.299   4.460   4.221
 3401TIP3   OH210147   5.339   6.350   6.709
 3401TIP3    H110148   5.382   6.270   6.679
 3401TIP3    H210149   5.403   6.419   6.693
 3402TIP3   OH210150   3.483   0.467   4.254
 3402TIP3    H110151   3.390   0.450   4.238
 3402TIP3    H210152   3.503   0.541   4.196
 3403TIP3   OH210153   3.732   0.861   5.891
 3403TIP3    H110154   3.819   0.825   5.874
 3403TIP3    H210155   3.744   0.956   5.887
 3404TIP3   OH210156   8.113   3.479   2.997
 3404TIP3    H110157   8.120   3.417   2.925
 3404TIP3    H210158   8.186   3.540   2.983
 3405TIP3   OH210159   6.372   5.979   2.959
 3405TIP3    H110160   6.373   5.901   3.015
 3405TIP3    H210161   6.394   5.947   2.872
 3406TIP3   OH210162   1.510   2.378   1.252
 3406TIP3    H110163   1.602   2.391   1.271
 3406TIP3    H210164   1.470   2.464   1.262
 3407TIP3   OH210165   0.128   4.959   5.989
 3407TIP3    H110166   0.134   4.903   6.066
 3407TIP3    H210167   0.195   5.026   6.002
 3408TIP3   OH210168   2.580   5.251   1.438
 3408TIP3    H110169   2.528   5.173   1.458
 3408TIP3    H210170   2.613   5.279   1.523
 3409TIP3   OH210171   0.041   5.799   0.621
 3409TIP3    H110172   0.130   5.788   0.654
 3409TIP3    H210173   0.027   5.723   0.565
 3410TIP3   OH210174   3.154   1.091   4.785
 3410TIP3    H110175   3.232   1.100   4.731
 3410TIP3    H210176   3.152   0.999   4.810
 3411TIP3   OH210177   7.094   6.417   1.443
 3411TIP3    H110178   7.039   6.495   1.433
 3411TIP3    H210179   7.184   6.450   1.443
 3412TIP3   OH210180   6.996   4.059   1.104
 3412TIP3    H110181   6.930   4.061   1.173
 3412TIP3    H210182   6.957   4.108   1.031
 3413TIP3   OH210183   0.244   1.907   0.282
 3413TIP3    H110184   0.301   1.838   0.316
 3413TIP3    H210185   0.265   1.984   0.335
 3414TIP3   OH210186   7.197   5.208   2.579
 3414TIP3    H110187   7.159   5.190   2.665
 3414TIP3    H210188   7.290   5.224   2.596
 3415TIP3   OH210189   7.104   4.369   2.681
 3415TIP3    H110190   7.150   4.452   2.670
 3415TIP3    H210191   7.011   4.392   2.672
 3416TIP3   OH210192   8.018   0.949   3.383
 3416TIP3    H110193   7.932   0.965   3.345
 3416TIP3    H210194   8.011   0.977   3.474
 3417TIP3   OH210195   5.407   5.905   5.976
 3417TIP3    H110196   5.444   5.977   5.925
 3417TIP3    H210197   5.366   5.848   5.912
 3418TIP3   OH210198   7.942   2.436   1.865
 3418TIP3    H110199   8.026   2.400   1.837
 3418TIP3    H210200   7.951   2.447   1.959
 3419TIP3   OH210201   0.075   0.721   6.272
 3419TIP3    H110202   0.106   0.767   6.194
 3419TIP3    H210203   0.014   0.782   6.313
 3420TIP3   OH210204   1.755   4.245   6.115
 3420TIP3    H110205   1.668   4.239   6.156
 3420TIP3    H210206   1.800   4.314   6.164
 3421TIP3   OH210207   6.870   0.244   1.799
 3421TIP3    H110208   6.938   0.305   1.772
 3421TIP3    H210209   6.824   0.221   1.718
 3422TIP3   OH210210   6.951   1.672   3.698
 3422TIP3    H110211   6.859   1.664   3.672
 3422TIP3    H210212   6.997   1.686   3.615
 3423TIP3   OH210213   3.999   3.662   5.952
 3423TIP3    H110214   3.907   3.689   5.947
 3423TIP3    H210215   4.040   3.703   5.877
 3424TIP3   OH210216   6.702   2.854   5.515
 3424TIP3    H110217   6.699   2.773   5.466
 3424TIP3    H210218   6.699   2.827   5.607
 3425TIP3   OH210219   2.274   3.548   1.022
 3425TIP3    H110220   2.306   3.636   1.000
 3425TIP3    H210221   2.350   3.504   1.061
 3426TIP3   OH210222   7.272   1.356   0.947
 3426TIP3    H110223   7.277   1.260   0.949
 3426TIP3    H210224   7.359   1.385   0.974
 3427TIP3   OH210225   1.451   7.861   3.554
 3427TIP3    H110226   1.483   7.927   3.616
 3427TIP3    H210227   1.512   7.788   3.562
 3428TIP3   OH210228   6.043   0.303   2.011
 3428TIP3    H110229   5.998   0.275   2.090
 3428TIP3    H210230   6.128   0.257   2.014
 3429TIP3   OH210231   0.489   7.818   4.348
 3429TIP3    H110232   0.413   7.766   4.322
 3429TIP3    H210233   0.506   7.793   4.438
 3430TIP3   OH210234   3.771   2.981   3.946
 3430TIP3    H110235   3.840   3.021   4.000
 3430TIP3    H210236   3.817   2.949   3.868
 3431TIP3   OH210237   4.932   0.923   2.660
 3431TIP3    H110238   4.978   0.926   2.576
 3431TIP3    H210239   4.871   0.850   2.651
 3432TIP3   OH210240   2.067   5.581   5.118
 3432TIP3    H110241   1.985   5.596   5.165
 3432TIP3    H210242   2.045   5.592   5.026
 3433TIP3   OH210243   2.607   7.055   6.067
 3433TIP3    H110244   2.698   7.049   6.039
 3433TIP3    H210245   2.602   7.001   6.146
 3434TIP3   OH210246   8.060   4.174   6.142
 3434TIP3    H110247   8.093   4.177   6.231
 3434TIP3    H210248   8.120   4.229   6.092
 3435TIP3   OH210249   5.577   4.314   5.044
 3435TIP3    H110250   5.655   4.326   4.990
 3435TIP3    H210251   5.604   4.251   5.111
 3436TIP3   OH210252   4.010   2.766   0.188
 3436TIP3    H110253   4.005   2.841   0.129
 3436TIP3    H210254   3.929   2.717   0.171
 3437TIP3   OH210255   5.307   6.027   3.609
 3437TIP3    H110256   5.221   6.010   3.648
 3437TIP3    H210257   5.346   5.940   3.598
 3438TIP3   OH210258   8.173   1.612   5.152
 3438TIP3    H110259   8.198   1.520   5.148
 3438TIP3    H210260   8.253   1.660   5.130
 3439TIP3   OH210261   6.448   2.014   6.078
 3439TIP3    H110262   6.522   1.954   6.088
 3439TIP3    H210263   6.373   1.967   6.115
 3440TIP3   OH210264   6.533   4.464   5.259
 3440TIP3    H110265   6.518   4.380   5.303
 3440TIP3    H210266   6.505   4.449   5.169
 3441TIP3   OH210267   2.549   1.769   6.693
 3441TIP3    H110268   2.621   1.821   6.658
 3441TIP3    H210269   2.579   1.739   6.778
 3442TIP3   OH210270   0.439   7.399   1.544
 3442TIP3    H110271   0.476   7.461   1.607
 3442TIP3    H210272   0.344   7.402   1.561
 3443TIP3   OH210273   5.961   5.127   5.839
 3443TIP3    H110274   6.029   5.193   5.843
 3443TIP3    H210275   6.003   5.047   5.872
 3444TIP3   OH210276   6.008   7.766   2.229
 3444TIP3    H110277   6.042   7.707   2.162
 3444TIP3    H210278   6.075   7.767   2.297
 3445TIP3   OH210279   1.213   7.152   4.136
 3445TIP3    H110280   1.264   7.090   4.084
 3445TIP3    H210281   1.151   7.097   4.184
 3446TIP3   OH210282   6.909   3.593   0.712
 3446TIP3    H110283   6.937   3.681   0.687
 3446TIP3    H210284   6.872   3.602   0.799
 3447TIP3   OH210285   7.240   6.367   4.754
 3447TIP3    H110286   7.150   6.371   4.788
 3447TIP3    H210287   7.230   6.363   4.659
 3448TIP3   OH210288   4.365   2.193   5.696
 3448TIP3    H110289   4.346   2.137   5.621
 3448TIP3    H210290   4.291   2.253   5.701
 3449TIP3   OH210291   4.684   6.166   1.241
 3449TIP3    H110292   4.612   6.222   1.272
 3449TIP3    H210293   4.682   6.090   1.299
 3450TIP3   OH210294   4.215   3.634   1.091
 3450TIP3    H110295   4.209   3.668   1.180
 3450TIP3    H210296   4.216   3.539   1.102
 3451TIP3   OH210297   8.103   7.476   3.276
 3451TIP3    H110298   8.042   7.492   3.349
 3451TIP3    H210299   8.149   7.396   3.302
 3452TIP3   OH210300   4.402   1.337   1.628
 3452TIP3    H110301   4.365   1.382   1.552
 3452TIP3    H210302   4.336   1.348   1.697
 3453TIP3   OH210303   4.579   2.669   0.062
 3453TIP3    H110304   4.577   2.759   0.093
 3453TIP3    H210305   4.614   2.618   0.135
 3454TIP3   OH210306   5.241   6.664   6.155
 3454TIP3    H110307   5.258   6.664   6.249
 3454TIP3    H210308   5.280   6.582   6.124
 3455TIP3   OH210309   6.141   5.903   1.743
 3455TIP3    H110310   6.125   5.977   1.684
 3455TIP3    H210311   6.067   5.905   1.804
 3456TIP3   OH210312   1.157   4.324   4.592
 3456TIP3    H110313   1.249   4.336   4.567
 3456TIP3    H210314   1.159   4.322   4.688
 3457TIP3   OH210315   7.681   6.462   4.707
 3457TIP3    H110316   7.626   6.385   4.700
 3457TIP3    H210317   7.706   6.465   4.800
 3458TIP3   OH210318   3.925   5.181   3.106
 3458TIP3    H110319   3.911   5.097   3.150
 3458TIP3    H210320   3.933   5.159   3.013
 3459TIP3   OH210321   7.273   6.089   0.007
 3459TIP3    H110322   7.181   6.063   0.006
 3459TIP3    H210323   7.273   6.174   0.051
 3460TIP3   OH210324   2.223   7.209   4.871
 3460TIP3    H110325   2.283   7.223   4.798
 3460TIP3    H210326   2.186   7.122   4.854
 3461TIP3   OH210327   5.935   2.299   6.342
 3461TIP3    H110328   5.969   2.388   6.326
 3461TIP3    H210329   5.879   2.282   6.266
 3462TIP3   OH210330   6.613   5.573   4.757
 3462TIP3    H110331   6.535   5.586   4.811
 3462TIP3    H210332   6.618   5.651   4.702
 3463TIP3   OH210333   7.100   2.029   6.265
 3463TIP3    H110334   7.020   2.056   6.310
 3463TIP3    H210335   7.124   2.105   6.213
 3464TIP3   OH210336   2.494   0.747   2.036
 3464TIP3    H110337   2.492   0.770   2.129
 3464TIP3    H210338   2.416   0.692   2.024
 3465TIP3   OH210339   3.271   1.496   1.716
 3465TIP3    H110340   3.307   1.410   1.738
 3465TIP3    H210341   3.326   1.557   1.764
 3466TIP3   OH210342   3.141   5.699   2.202
 3466TIP3    H110343   3.112   5.643   2.273
 3466TIP3    H210344   3.216   5.747   2.238
 3467TIP3   OH210345   7.257   1.966   0.039
 3467TIP3    H110346   7.299   1.973   0.125
 3467TIP3    H210347   7.166   1.992   0.055
 3468TIP3   OH210348   0.309   4.572   6.197
 3468TIP3    H110349   0.355   4.554   6.116
 3468TIP3    H210350   0.365   4.534   6.265
 3469TIP3   OH210351   8.206   0.806   1.021
 3469TIP3    H110352   8.288   0.797   0.972
 3469TIP3    H210353   8.230   0.791   1.112
 3470TIP3   OH210354   7.262   6.277   5.474
 3470TIP3    H110355   7.276   6.296   5.567
 3470TIP3    H210356   7.248   6.363   5.434
 3471TIP3   OH210357   4.669   6.041   5.511
 3471TIP3    H110358   4.744   5.982   5.512
 3471TIP3    H210359   4.623   6.023   5.593
 3472TIP3   OH210360   4.308   0.276   1.233
 3472TIP3    H110361   4.224   0.252   1.193
 3472TIP3    H210362   4.322   0.210   1.300
 3473TIP3   OH210363   6.258   5.423   6.098
 3473TIP3    H110364   6.348   5.451   6.080
 3473TIP3    H210365   6.222   5.491   6.155
 3474TIP3   OH210366   5.619   0.033   4.340
 3474TIP3    H110367   5.701   0.079   4.329
 3474TIP3    H210368   5.557   0.100   4.368
 3475TIP3   OH210369   2.210   6.664   2.734
 3475TIP3    H110370   2.219   6.668   2.829
 3475TIP3    H210371   2.189   6.754   2.708
 3476TIP3   OH210372   6.096   5.691   5.405
 3476TIP3    H110373   6.166   5.752   5.429
 3476TIP3    H210374   6.078   5.642   5.486
 3477TIP3   OH210375   3.105   1.640   0.005
 3477TIP3    H110376   3.180   1.698  -0.008
 3477TIP3    H210377   3.123   1.564  -0.051
 3478TIP3   OH210378   8.161   1.571   0.812
 3478TIP3    H110379   8.115   1.526   0.883
 3478TIP3    H210380   8.233   1.513   0.790
 3479TIP3   OH210381   3.961   4.604   1.177
 3479TIP3    H110382   3.999   4.672   1.121
 3479TIP3    H210383   3.965   4.641   1.265
 3480TIP3   OH210384   1.280   2.035   3.165
 3480TIP3    H110385   1.244   2.106   3.112
 3480TIP3    H210386   1.371   2.061   3.180
 3481TIP3   OH210387   2.045   1.658   2.346
 3481TIP3    H110388   2.108   1.730   2.344
 3481TIP3    H210389   2.043   1.626   2.256
 3482TIP3   OH210390   7.116   1.768   6.227
 3482TIP3    H110391   7.085   1.723   6.305
 3482TIP3    H210392   7.108   1.861   6.247
 3483TIP3   OH210393   0.154   6.692   0.686
 3483TIP3    H110394   0.125   6.777   0.654
 3483TIP3    H210395   0.191   6.710   0.773
 3484TIP3   OH210396   3.403   6.513   1.112
 3484TIP3    H110397   3.444   6.452   1.051
 3484TIP3    H210398   3.462   6.511   1.188
 3485TIP3   OH210399   0.538   6.929   0.182
 3485TIP3    H110400   0.554   7.000   0.244
 3485TIP3    H210401   0.472   6.963   0.123
 3486TIP3   OH210402   7.948   0.867   5.923
 3486TIP3    H110403   7.869   0.921   5.924
 3486TIP3    H210404   8.000   0.903   5.851
 3487TIP3   OH210405   4.791   0.557   4.125
 3487TIP3    H110406   4.767   0.523   4.211
 3487TIP3    H210407   4.708   0.556   4.075
 3488TIP3   OH210408   1.392   7.673   6.113
 3488TIP3    H110409   1.373   7.592   6.160
 3488TIP3    H210410   1.471   7.654   6.062
 3489TIP3   OH210411   2.592   7.007   5.491
 3489TIP3    H110412   2.634   6.940   5.438
 3489TIP3    H210413   2.519   7.038   5.437
 3490TIP3   OH210414   3.903   1.813   6.089
 3490TIP3    H110415   3.903   1.749   6.018
 3490TIP3    H210416   3.984   1.863   6.077
 3491TIP3   OH210417   5.927   5.223   3.213
 3491TIP3    H110418   5.879   5.195   3.136
 3491TIP3    H210419   6.005   5.167   3.214
 3492TIP3   OH210420   0.449   7.172   6.214
 3492TIP3    H110421   0.440   7.124   6.296
 3492TIP3    H210422   0.363   7.164   6.173
 3493TIP3   OH210423   0.394   5.307   3.209
 3493TIP3    H110424   0.449   5.243   3.255
 3493TIP3    H210425   0.444   5.388   3.211
 3494TIP3   OH210426   5.155   0.573   3.842
 3494TIP3    H110427   5.062   0.598   3.842
 3494TIP3    H210428   5.202   0.655   3.859
 3495TIP3   OH210429   5.799   5.951   4.409
 3495TIP3    H110430   5.745   5.874   4.430
 3495TIP3    H210431   5.742   6.025   4.426
 3496TIP3   OH210432   1.805   1.282   1.553
 3496TIP3    H110433   1.855   1.206   1.582
 3496TIP3    H210434   1.820   1.348   1.621
 3497TIP3   OH210435   5.727   0.879   2.567
 3497TIP3    H110436   5.679   0.839   2.495
 3497TIP3    H210437   5.728   0.812   2.635
 3498TIP3   OH210438   4.552   7.648   4.439
 3498TIP3    H110439   4.563   7.583   4.369
 3498TIP3    H210440   4.584   7.730   4.401
 3499TIP3   OH210441   2.881   2.961   0.596
 3499TIP3    H110442   2.887   3.049   0.633
 3499TIP3    H210443   2.887   2.903   0.672
 3500TIP3   OH210444   1.392   7.741   0.308
 3500TIP3    H110445   1.407   7.831   0.335
 3500TIP3    H210446   1.359   7.748   0.218
 3501TIP3   OH210447   5.346   2.176   2.697
 3501TIP3    H110448   5.386   2.263   2.706
 3501TIP3    H210449   5.338   2.144   2.787
 3502TIP3   OH210450   0.120   2.783   0.285
 3502TIP3    H110451   0.171   2.725   0.230
 3502TIP3    H210452   0.179   2.856   0.305
 3503TIP3   OH210453   6.409   0.086   1.294
 3503TIP3    H110454   6.422   0.091   1.200
 3503TIP3    H210455   6.484   0.036   1.326
 3504TIP3   OH210456   3.407   5.722   1.300
 3504TIP3    H110457   3.319   5.754   1.279
 3504TIP3    H210458   3.459   5.740   1.221
 3505TIP3   OH210459   6.194   6.431   3.501
 3505TIP3    H110460   6.184   6.511   3.553
 3505TIP3    H210461   6.270   6.387   3.540
 3506TIP3   OH210462   8.129   3.727   0.802
 3506TIP3    H110463   8.070   3.743   0.875
 3506TIP3    H210464   8.097   3.784   0.732
 3507TIP3   OH210465   7.348   5.202   4.056
 3507TIP3    H110466   7.368   5.295   4.050
 3507TIP3    H210467   7.306   5.191   4.141
 3508TIP3   OH210468   5.479   0.381   2.391
 3508TIP3    H110469   5.550   0.386   2.455
 3508TIP3    H210470   5.521   0.401   2.307
 3509TIP3   OH210471   0.637   6.977   3.195
 3509TIP3    H110472   0.591   6.920   3.133
 3509TIP3    H210473   0.714   7.008   3.147
 3510TIP3   OH210474   3.927   2.894   2.191
 3510TIP3    H110475   4.022   2.882   2.184
 3510TIP3    H210476   3.893   2.861   2.108
 3511TIP3   OH210477   7.524   6.864   0.438
 3511TIP3    H110478   7.617   6.886   0.441
 3511TIP3    H210479   7.480   6.946   0.462
 3512TIP3   OH210480   0.999   4.204   2.798
 3512TIP3    H110481   1.087   4.207   2.837
 3512TIP3    H210482   0.968   4.116   2.817
 3513TIP3   OH210483   7.999   6.864   4.446
 3513TIP3    H110484   7.988   6.927   4.375
 3513TIP3    H210485   7.968   6.910   4.524
 3514TIP3   OH210486   8.038   1.507   4.458
 3514TIP3    H110487   8.041   1.603   4.458
 3514TIP3    H210488   8.059   1.483   4.368
 3515TIP3   OH210489   5.559   3.720   5.796
 3515TIP3    H110490   5.651   3.694   5.796
 3515TIP3    H210491   5.519   3.667   5.727
 3516TIP3   OH210492   4.068   4.749   0.430
 3516TIP3    H110493   4.130   4.787   0.493
 3516TIP3    H210494   3.993   4.807   0.432
 3517TIP3   OH210495   5.106   4.610   1.077
 3517TIP3    H110496   5.098   4.562   0.994
 3517TIP3    H210497   5.028   4.585   1.126
 3518TIP3   OH210498   7.512   2.077   4.422
 3518TIP3    H110499   7.537   2.050   4.333
 3518TIP3    H210500   7.501   1.995   4.470
 3519TIP3   OH210501   7.354   7.682   5.869
 3519TIP3    H110502   7.393   7.675   5.956
 3519TIP3    H210503   7.416   7.639   5.811
 3520TIP3   OH210504   2.755   7.414   2.842
 3520TIP3    H110505   2.846   7.409   2.812
 3520TIP3    H210506   2.747   7.503   2.877
 3521TIP3   OH210507   5.878   0.602   3.068
 3521TIP3    H110508   5.815   0.637   3.130
 3521TIP3    H210509   5.842   0.517   3.042
 3522TIP3   OH210510   1.450   0.265   4.222
 3522TIP3    H110511   1.442   0.234   4.132
 3522TIP3    H210512   1.374   0.227   4.267
 3523TIP3   OH210513   5.615   1.673   5.718
 3523TIP3    H110514   5.582   1.763   5.715
 3523TIP3    H210515   5.568   1.629   5.647
 3524TIP3   OH210516   4.306   5.251   4.114
 3524TIP3    H110517   4.309   5.277   4.207
 3524TIP3    H210518   4.311   5.156   4.116
 3525TIP3   OH210519   1.119   1.816   1.131
 3525TIP3    H110520   1.173   1.748   1.091
 3525TIP3    H210521   1.036   1.773   1.151
 3526TIP3   OH210522   1.040   7.643   2.905
 3526TIP3    H110523   0.961   7.590   2.898
 3526TIP3    H210524   1.088   7.626   2.824
 3527TIP3   OH210525   2.810   7.150   4.566
 3527TIP3    H110526   2.800   7.096   4.644
 3527TIP3    H210527   2.751   7.111   4.501
 3528TIP3   OH210528   1.613   2.341   2.857
 3528TIP3    H110529   1.640   2.429   2.886
 3528TIP3    H210530   1.608   2.290   2.938
 3529TIP3   OH210531   7.789   7.784   6.384
 3529TIP3    H110532   7.820   7.845   6.452
 3529TIP3    H210533   7.837   7.703   6.402
 3530TIP3   OH210534   3.195   5.401   6.075
 3530TIP3    H110535   3.130   5.349   6.122
 3530TIP3    H210536   3.215   5.474   6.134
 3531TIP3   OH210537   4.151   7.036   1.069
 3531TIP3    H110538   4.198   6.963   1.030
 3531TIP3    H210539   4.175   7.111   1.015
 3532TIP3   OH210540   6.445   6.284   3.613
 3532TIP3    H110541   6.479   6.200   3.584
 3532TIP3    H210542   6.486   6.348   3.554
 3533TIP3   OH210543   6.188   6.926   1.867
 3533TIP3    H110544   6.117   6.899   1.926
 3533TIP3    H210545   6.268   6.897   1.911
 3534TIP3   OH210546   5.002   6.636   6.569
 3534TIP3    H110547   4.925   6.678   6.607
 3534TIP3    H210548   5.042   6.589   6.642
 3535TIP3   OH210549   6.214   3.988   5.894
 3535TIP3    H110550   6.132   3.994   5.845
 3535TIP3    H210551   6.227   3.894   5.908
 3536TIP3   OH210552   3.640   3.368   0.088
 3536TIP3    H110553   3.726   3.396   0.117
 3536TIP3    H210554   3.657   3.288   0.038
 3537TIP3   OH210555   0.151   2.574   1.965
 3537TIP3    H110556   0.234   2.597   1.924
 3537TIP3    H210557   0.096   2.546   1.892
 3538TIP3   OH210558   0.224   0.356   5.173
 3538TIP3    H110559   0.161   0.425   5.194
 3538TIP3    H210560   0.263   0.332   5.257
 3539TIP3   OH210561   5.972   5.152   2.479
 3539TIP3    H110562   6.043   5.110   2.528
 3539TIP3    H210563   5.952   5.090   2.409
 3540TIP3   OH210564   4.264   4.359   2.240
 3540TIP3    H110565   4.257   4.337   2.147
 3540TIP3    H210566   4.176   4.347   2.275
 3541TIP3   OH210567   5.171   0.324   5.774
 3541TIP3    H110568   5.240   0.269   5.811
 3541TIP3    H210569   5.147   0.280   5.692
 3542TIP3   OH210570   7.604   3.621   2.177
 3542TIP3    H110571   7.661   3.650   2.106
 3542TIP3    H210572   7.641   3.538   2.205
 3543TIP3   OH210573   5.291   0.758   4.211
 3543TIP3    H110574   5.258   0.823   4.149
 3543TIP3    H210575   5.381   0.742   4.183
 3544TIP3   OH210576   6.089   3.977   4.328
 3544TIP3    H110577   6.106   3.932   4.245
 3544TIP3    H210578   6.160   4.040   4.336
 3545TIP3   OH210579   1.230   4.036   5.597
 3545TIP3    H110580   1.261   3.963   5.543
 3545TIP3    H210581   1.267   4.020   5.684
 3546TIP3   OH210582   3.605   5.642   2.387
 3546TIP3    H110583   3.607   5.730   2.426
 3546TIP3    H210584   3.582   5.656   2.295
 3547TIP3   OH210585   6.091   5.728   3.113
 3547TIP3    H110586   6.055   5.640   3.124
 3547TIP3    H210587   6.061   5.775   3.191
 3548TIP3   OH210588   0.760   2.342   3.896
 3548TIP3    H110589   0.826   2.400   3.858
 3548TIP3    H210590   0.677   2.372   3.859
 3549TIP3   OH210591   6.058   6.130   3.572
 3549TIP3    H110592   6.060   6.203   3.511
 3549TIP3    H210593   5.969   6.095   3.565
 3550TIP3   OH210594   0.595   2.658   0.038
 3550TIP3    H110595   0.613   2.617  -0.046
 3550TIP3    H210596   0.621   2.592   0.103
 3551TIP3   OH210597   5.927   3.472   4.623
 3551TIP3    H110598   5.924   3.496   4.716
 3551TIP3    H210599   5.980   3.541   4.583
 3552TIP3   OH210600   4.667   0.271   1.765
 3552TIP3    H110601   4.594   0.239   1.819
 3552TIP3    H210602   4.725   0.196   1.756
 3553TIP3   OH210603   4.328   3.590   1.933
 3553TIP3    H110604   4.387   3.517   1.954
 3553TIP3    H210605   4.241   3.557   1.955
 3554TIP3   OH210606   7.270   5.694   4.514
 3554TIP3    H110607   7.357   5.662   4.491
 3554TIP3    H210608   7.220   5.615   4.534
 3555TIP3   OH210609   3.695   0.178   0.053
 3555TIP3    H110610   3.622   0.236   0.072
 3555TIP3    H210611   3.747   0.225  -0.012
 3556TIP3   OH210612   7.775   1.024   3.863
 3556TIP3    H110613   7.818   0.941   3.888
 3556TIP3    H210614   7.846   1.088   3.863
 3557TIP3   OH210615   2.190   5.203   1.624
 3557TIP3    H110616   2.168   5.125   1.572
 3557TIP3    H210617   2.258   5.172   1.684
 3558TIP3   OH210618   2.028   6.953   5.348
 3558TIP3    H110619   2.110   6.958   5.396
 3558TIP3    H210620   2.030   7.028   5.289
 3559TIP3   OH210621   4.278   6.784   4.745
 3559TIP3    H110622   4.356   6.780   4.801
 3559TIP3    H210623   4.272   6.876   4.719
 3560TIP3   OH210624   6.703   7.872   4.837
 3560TIP3    H110625   6.781   7.881   4.892
 3560TIP3    H210626   6.736   7.837   4.754
 3561TIP3   OH210627   0.069   1.148   2.149
 3561TIP3    H110628   0.094   1.166   2.239
 3561TIP3    H210629   0.150   1.118   2.107
 3562TIP3   OH210630   0.552   2.833   6.805
 3562TIP3    H110631   0.602   2.878   6.736
 3562TIP3    H210632   0.466   2.875   6.804
 3563TIP3   OH210633   2.452   7.630   2.976
 3563TIP3    H110634   2.381   7.688   2.946
 3563TIP3    H210635   2.478   7.583   2.897
 3564TIP3   OH210636   5.328   5.099   0.431
 3564TIP3    H110637   5.266   5.104   0.359
 3564TIP3    H210638   5.412   5.125   0.393
 3565TIP3   OH210639   2.415   6.665   4.055
 3565TIP3    H110640   2.509   6.662   4.036
 3565TIP3    H210641   2.373   6.637   3.974
 3566TIP3   OH210642   5.850   4.255   2.254
 3566TIP3    H110643   5.756   4.260   2.270
 3566TIP3    H210644   5.890   4.279   2.338
 3567TIP3   OH210645   7.047   6.281   5.726
 3567TIP3    H110646   7.001   6.296   5.643
 3567TIP3    H210647   7.114   6.349   5.729
 3568TIP3   OH210648   6.823   7.559   2.152
 3568TIP3    H110649   6.868   7.514   2.223
 3568TIP3    H210650   6.772   7.490   2.109
 3569TIP3   OH210651   4.754   6.118   5.121
 3569TIP3    H110652   4.825   6.055   5.124
 3569TIP3    H210653   4.680   6.074   5.163
 3570TIP3   OH210654   7.855   2.154   3.137
 3570TIP3    H110655   7.799   2.096   3.189
 3570TIP3    H210656   7.886   2.219   3.200
 3571TIP3   OH210657   7.675   1.464   4.123
 3571TIP3    H110658   7.646   1.414   4.046
 3571TIP3    H210659   7.761   1.497   4.098
 3572TIP3   OH210660   8.281   2.651   6.645
 3572TIP3    H110661   8.251   2.575   6.596
 3572TIP3    H210662   8.202   2.686   6.686
 3573TIP3   OH210663   3.123   7.600   4.144
 3573TIP3    H110664   3.047   7.583   4.089
 3573TIP3    H210665   3.085   7.622   4.230
 3574TIP3   OH210666   3.538   3.768   4.948
 3574TIP3    H110667   3.564   3.847   4.900
 3574TIP3    H210668   3.571   3.695   4.895
 3575TIP3   OH210669   3.595   3.206   6.474
 3575TIP3    H110670   3.584   3.217   6.380
 3575TIP3    H210671   3.509   3.177   6.505
 3576TIP3   OH210672   5.139   2.582   6.484
 3576TIP3    H110673   5.173   2.664   6.448
 3576TIP3    H210674   5.135   2.597   6.579
 3577TIP3   OH210675   7.086   4.836   5.412
 3577TIP3    H110676   7.017   4.806   5.352
 3577TIP3    H210677   7.043   4.903   5.465
 3578TIP3   OH210678   5.964   2.140   1.465
 3578TIP3    H110679   5.986   2.087   1.541
 3578TIP3    H210680   6.016   2.221   1.476
 3579TIP3   OH210681   5.477   5.809   3.791
 3579TIP3    H110682   5.521   5.830   3.873
 3579TIP3    H210683   5.393   5.772   3.819
 3580TIP3   OH210684   7.925   0.476   0.361
 3580TIP3    H110685   7.838   0.438   0.367
 3580TIP3    H210686   7.982   0.403   0.337
 3581TIP3   OH210687   7.194   2.860   5.288
 3581TIP3    H110688   7.115   2.908   5.315
 3581TIP3    H210689   7.206   2.885   5.196
 3582TIP3   OH210690   0.135   2.563   2.444
 3582TIP3    H110691   0.064   2.614   2.404
 3582TIP3    H210692   0.153   2.494   2.381
 3583TIP3   OH210693   7.301   0.850   2.237
 3583TIP3    H110694   7.273   0.900   2.314
 3583TIP3    H210695   7.237   0.779   2.230
 3584TIP3   OH210696   4.842   5.971   4.790
 3584TIP3    H110697   4.811   6.003   4.874
 3584TIP3    H210698   4.873   5.882   4.808
 3585TIP3   OH210699   5.916   3.212   3.991
 3585TIP3    H110700   5.895   3.184   4.080
 3585TIP3    H210701   5.862   3.156   3.935
 3586TIP3   OH210702   2.008   3.357   3.544
 3586TIP3    H110703   1.975   3.278   3.501
 3586TIP3    H210704   1.950   3.371   3.618
 3587TIP3   OH210705   1.216   5.005   4.004
 3587TIP3    H110706   1.182   4.941   4.067
 3587TIP3    H210707   1.141   5.061   3.984
 3588TIP3   OH210708   3.046   3.531   5.276
 3588TIP3    H110709   3.102   3.603   5.247
 3588TIP3    H210710   3.008   3.497   5.195
 3589TIP3   OH210711   5.130   7.403   2.441
 3589TIP3    H110712   5.123   7.383   2.347
 3589TIP3    H210713   5.129   7.498   2.446
 3590TIP3   OH210714   4.655   0.094   5.023
 3590TIP3    H110715   4.594   0.166   5.037
 3590TIP3    H210716   4.700   0.116   4.941
 3591TIP3   OH210717   5.771   6.577   3.995
 3591TIP3    H110718   5.840   6.639   4.017
 3591TIP3    H210719   5.797   6.541   3.910
 3592TIP3   OH210720   2.933   2.688   5.080
 3592TIP3    H110721   2.901   2.778   5.086
 3592TIP3    H210722   3.022   2.692   5.116
 3593TIP3   OH210723   7.932   5.384   4.792
 3593TIP3    H110724   7.965   5.420   4.710
 3593TIP3    H210725   8.010   5.373   4.847
 3594TIP3   OH210726   7.044   7.273   5.534
 3594TIP3    H110727   7.005   7.201   5.485
 3594TIP3    H210728   7.112   7.307   5.475
 3595TIP3   OH210729   5.478   1.390   2.169
 3595TIP3    H110730   5.567   1.355   2.169
 3595TIP3    H210731   5.482   1.465   2.228
 3596TIP3   OH210732   0.935   5.660   0.203
 3596TIP3    H110733   0.905   5.571   0.222
 3596TIP3    H210734   0.992   5.682   0.276
 3597TIP3   OH210735   5.986   4.377   1.805
 3597TIP3    H110736   5.937   4.394   1.724
 3597TIP3    H210737   5.948   4.295   1.838
 3598TIP3   OH210738   3.643   3.700   5.407
 3598TIP3    H110739   3.667   3.677   5.317
 3598TIP3    H210740   3.667   3.793   5.415
 3599TIP3   OH210741   0.737   6.806   3.410
 3599TIP3    H110742   0.739   6.847   3.324
 3599TIP3    H210743   0.786   6.867   3.467
 3600TIP3   OH210744   0.101   2.259   6.033
 3600TIP3    H110745   0.162   2.213   5.975
 3600TIP3    H210746   0.126   2.351   6.026
 3601TIP3   OH210747   6.054   6.994   0.900
 3601TIP3    H110748   6.005   7.025   0.824
 3601TIP3    H210749   6.143   7.027   0.886
 3602TIP3   OH210750   5.398   7.267   5.539
 3602TIP3    H110751   5.306   7.275   5.515
 3602TIP3    H210752   5.399   7.200   5.608
 3603TIP3   OH210753   4.802   2.339   4.936
 3603TIP3    H110754   4.745   2.283   4.885
 3603TIP3    H210755   4.774   2.428   4.915
 3604TIP3   OH210756   7.134   1.495   1.160
 3604TIP3    H110757   7.150   1.446   1.079
 3604TIP3    H210758   7.091   1.575   1.131
 3605TIP3   OH210759   4.687   7.432   4.327
 3605TIP3    H110760   4.632   7.371   4.278
 3605TIP3    H210761   4.777   7.400   4.315
 3606TIP3   OH210762   5.443   4.505   5.474
 3606TIP3    H110763   5.366   4.509   5.530
 3606TIP3    H210764   5.417   4.448   5.401
 3607TIP3   OH210765   2.118   2.118   4.381
 3607TIP3    H110766   2.102   2.111   4.287
 3607TIP3    H210767   2.063   2.190   4.410
 3608TIP3   OH210768   1.447   0.883   0.545
 3608TIP3    H110769   1.454   0.790   0.524
 3608TIP3    H210770   1.383   0.887   0.616
 3609TIP3   OH210771   7.636   5.329   1.330
 3609TIP3    H110772   7.681   5.246   1.317
 3609TIP3    H210773   7.623   5.364   1.242
 3610TIP3   OH210774   7.027   7.092   3.084
 3610TIP3    H110775   7.025   7.182   3.116
 3610TIP3    H210776   7.023   7.100   2.989
 3611TIP3   OH210777   0.540   3.629   4.304
 3611TIP3    H110778   0.445   3.635   4.302
 3611TIP3    H210779   0.561   3.613   4.396
 3612TIP3   OH210780   4.633   3.804   4.593
 3612TIP3    H110781   4.547   3.839   4.615
 3612TIP3    H210782   4.637   3.720   4.639
 3613TIP3   OH210783   1.122   4.197   3.211
 3613TIP3    H110784   1.079   4.282   3.212
 3613TIP3    H210785   1.138   4.176   3.303
 3614TIP3   OH210786   3.769   5.110   6.409
 3614TIP3    H110787   3.739   5.136   6.322
 3614TIP3    H210788   3.706   5.149   6.469
 3615TIP3   OH210789   5.905   2.674   1.436
 3615TIP3    H110790   5.827   2.696   1.386
 3615TIP3    H210791   5.978   2.703   1.380
 3616TIP3   OH210792   1.082   3.113   5.882
 3616TIP3    H110793   1.013   3.142   5.942
 3616TIP3    H210794   1.163   3.133   5.929
 3617TIP3   OH210795   1.558   4.014   2.151
 3617TIP3    H110796   1.624   3.945   2.143
 3617TIP3    H210797   1.505   3.988   2.227
 3618TIP3   OH210798   2.872   3.203   4.722
 3618TIP3    H110799   2.938   3.143   4.688
 3618TIP3    H210800   2.797   3.147   4.744
 3619TIP3   OH210801   6.456   3.709   5.594
 3619TIP3    H110802   6.405   3.788   5.576
 3619TIP3    H210803   6.543   3.741   5.617
 3620TIP3   OH210804   6.260   6.170   6.509
 3620TIP3    H110805   6.217   6.091   6.540
 3620TIP3    H210806   6.289   6.150   6.420
 3621TIP3   OH210807   1.540   6.226   3.554
 3621TIP3    H110808   1.582   6.222   3.640
 3621TIP3    H210809   1.606   6.267   3.498
 3622TIP3   OH210810   0.273   6.653   0.962
 3622TIP3    H110811   0.341   6.589   0.984
 3622TIP3    H210812   0.256   6.698   1.045
 3623TIP3   OH210813   1.996   3.582   1.079
 3623TIP3    H110814   2.090   3.573   1.068
 3623TIP3    H210815   1.971   3.508   1.134
 3624TIP3   OH210816   5.008   2.582   4.095
 3624TIP3    H110817   4.928   2.586   4.041
 3624TIP3    H210818   4.976   2.558   4.182
 3625TIP3   OH210819   2.432   5.128   3.864
 3625TIP3    H110820   2.355   5.185   3.859
 3625TIP3    H210821   2.399   5.043   3.834
 3626TIP3   OH210822   6.224   6.419   5.474
 3626TIP3    H110823   6.166   6.494   5.455
 3626TIP3    H210824   6.166   6.343   5.470
 3627TIP3   OH210825   3.256   2.595   1.475
 3627TIP3    H110826   3.297   2.520   1.518
 3627TIP3    H210827   3.233   2.563   1.388
 3628TIP3   OH210828   4.939   2.416   1.320
 3628TIP3    H110829   4.990   2.452   1.393
 3628TIP3    H210830   4.850   2.411   1.353
 3629TIP3   OH210831   1.835   6.134   3.744
 3629TIP3    H110832   1.872   6.065   3.690
 3629TIP3    H210833   1.871   6.119   3.831
 3630TIP3   OH210834   7.419   5.944   5.966
 3630TIP3    H110835   7.427   5.863   5.915
 3630TIP3    H210836   7.357   5.997   5.916
 3631TIP3   OH210837   7.124   7.473   3.562
 3631TIP3    H110838   7.129   7.554   3.511
 3631TIP3    H210839   7.176   7.491   3.640
 3632TIP3   OH210840   6.697   5.685   0.610
 3632TIP3    H110841   6.710   5.608   0.666
 3632TIP3    H210842   6.702   5.759   0.671
 3633TIP3   OH210843   2.967   2.715   3.556
 3633TIP3    H110844   2.945   2.661   3.480
 3633TIP3    H210845   2.908   2.686   3.625
 3634TIP3   OH210846   5.426   7.445   2.844
 3634TIP3    H110847   5.483   7.448   2.921
 3634TIP3    H210848   5.422   7.535   2.813
 3635TIP3   OH210849   8.218   6.187   5.346
 3635TIP3    H110850   8.183   6.099   5.328
 3635TIP3    H210851   8.144   6.236   5.380
 3636TIP3   OH210852   1.363   1.645   3.815
 3636TIP3    H110853   1.276   1.678   3.796
 3636TIP3    H210854   1.368   1.646   3.911
 3637TIP3   OH210855   3.967   5.969   0.361
 3637TIP3    H110856   4.012   5.948   0.279
 3637TIP3    H210857   4.023   6.033   0.404
 3638TIP3   OH210858   5.289   3.562   0.231
 3638TIP3    H110859   5.236   3.483   0.220
 3638TIP3    H210860   5.227   3.634   0.219
 3639TIP3   OH210861   1.671   5.990   0.528
 3639TIP3    H110862   1.642   5.925   0.593
 3639TIP3    H210863   1.658   6.074   0.572
 3640TIP3   OH210864   0.328   3.862   4.007
 3640TIP3    H110865   0.382   3.883   4.083
 3640TIP3    H210866   0.300   3.947   3.973
 3641TIP3   OH210867   5.182   4.869   5.173
 3641TIP3    H110868   5.157   4.813   5.100
 3641TIP3    H210869   5.112   4.934   5.179
 3642TIP3   OH210870   1.812   6.505   1.169
 3642TIP3    H110871   1.843   6.571   1.107
 3642TIP3    H210872   1.888   6.486   1.224
 3643TIP3   OH210873   0.903   7.272   4.890
 3643TIP3    H110874   0.878   7.357   4.928
 3643TIP3    H210875   0.844   7.209   4.931
 3644TIP3   OH210876   1.880   2.459   4.334
 3644TIP3    H110877   1.790   2.491   4.333
 3644TIP3    H210878   1.873   2.367   4.309
 3645TIP3   OH210879   4.505   5.724   4.690
 3645TIP3    H110880   4.519   5.732   4.595
 3645TIP3    H210881   4.468   5.809   4.715
 3646TIP3   OH210882   8.017   7.716   6.087
 3646TIP3    H110883   7.936   7.765   6.073
 3646TIP3    H210884   7.997   7.627   6.059
 3647TIP3   OH210885   6.280   4.711   2.025
 3647TIP3    H110886   6.196   4.665   2.031
 3647TIP3    H210887   6.346   4.643   2.034
 3648TIP3   OH210888   1.689   3.447  -0.007
 3648TIP3    H110889   1.609   3.498  -0.021
 3648TIP3    H210890   1.757   3.513   0.007
 3649TIP3   OH210891   2.702   7.134   0.113
 3649TIP3    H110892   2.779   7.121   0.169
 3649TIP3    H210893   2.677   7.225   0.128
 3650TIP3   OH210894   0.338   2.164   0.721
 3650TIP3    H110895   0.301   2.252   0.729
 3650TIP3    H210896   0.313   2.135   0.633
 3651TIP3   OH210897   0.108   2.223   6.630
 3651TIP3    H110898   0.122   2.278   6.707
 3651TIP3    H210899   0.187   2.236   6.577
 3652TIP3   OH210900   4.810   6.701   5.039
 3652TIP3    H110901   4.729   6.739   5.005
 3652TIP3    H210902   4.786   6.611   5.062
 3653TIP3   OH210903   7.515   4.385   2.735
 3653TIP3    H110904   7.448   4.388   2.667
 3653TIP3    H210905   7.532   4.477   2.756
 3654TIP3   OH210906   6.016   5.280   6.118
 3654TIP3    H110907   5.933   5.316   6.086
 3654TIP3    H210908   6.082   5.342   6.088
 3655TIP3   OH210909   7.027   6.724   1.639
 3655TIP3    H110910   6.955   6.786   1.625
 3655TIP3    H210911   7.101   6.762   1.591
 3656TIP3   OH210912   6.287   2.418   1.858
 3656TIP3    H110913   6.289   2.465   1.775
 3656TIP3    H210914   6.258   2.484   1.922
 3657TIP3   OH210915   2.863   2.331   3.914
 3657TIP3    H110916   2.816   2.320   3.997
 3657TIP3    H210917   2.933   2.392   3.934
 3658TIP3   OH210918   7.667   2.813   2.812
 3658TIP3    H110919   7.617   2.865   2.875
 3658TIP3    H210920   7.744   2.867   2.792
 3659TIP3   OH210921   0.491   7.755   0.059
 3659TIP3    H110922   0.585   7.743   0.074
 3659TIP3    H210923   0.485   7.841   0.016
 3660TIP3   OH210924   0.671   6.423   4.988
 3660TIP3    H110925   0.722   6.450   4.911
 3660TIP3    H210926   0.606   6.493   4.999
 3661TIP3   OH210927   2.395   3.514   4.428
 3661TIP3    H110928   2.486   3.487   4.416
 3661TIP3    H210929   2.396   3.569   4.506
 3662TIP3   OH210930   0.051   3.183   5.703
 3662TIP3    H110931   0.009   3.125   5.766
 3662TIP3    H210932   0.027   3.148   5.617
 3663TIP3   OH210933   2.368   4.184   3.855
 3663TIP3    H110934   2.371   4.160   3.763
 3663TIP3    H210935   2.277   4.208   3.872
 3664TIP3   OH210936   2.898   6.770   2.803
 3664TIP3    H110937   2.923   6.696   2.859
 3664TIP3    H210938   2.909   6.846   2.860
 3665TIP3   OH210939   5.923   0.284   4.547
 3665TIP3    H110940   5.888   0.209   4.596
 3665TIP3    H210941   6.016   0.265   4.538
 3666TIP3   OH210942   4.839   6.027   5.807
 3666TIP3    H110943   4.928   6.009   5.777
 3666TIP3    H210944   4.844   6.024   5.902
 3667TIP3   OH210945   0.911   1.547   1.405
 3667TIP3    H110946   0.881   1.626   1.360
 3667TIP3    H210947   0.830   1.502   1.431
 3668TIP3   OH210948   8.226   5.379   0.272
 3668TIP3    H110949   8.267   5.303   0.313
 3668TIP3    H210950   8.285   5.402   0.200
 3669TIP3   OH210951   5.372   7.698   5.126
 3669TIP3    H110952   5.322   7.623   5.096
 3669TIP3    H210953   5.388   7.749   5.046
 3670TIP3   OH210954   0.468   0.285   4.062
 3670TIP3    H110955   0.430   0.216   4.117
 3670TIP3    H210956   0.470   0.247   3.974
 3671TIP3   OH210957   6.958   2.797   0.011
 3671TIP3    H110958   7.008   2.718  -0.007
 3671TIP3    H210959   6.874   2.784  -0.033
 3672TIP3   OH210960   1.576   1.253   1.041
 3672TIP3    H110961   1.497   1.257   0.988
 3672TIP3    H210962   1.637   1.313   0.997
 3673TIP3   OH210963   3.209   5.825   4.830
 3673TIP3    H110964   3.156   5.905   4.823
 3673TIP3    H210965   3.257   5.835   4.912
 3674TIP3   OH210966   4.624   3.322   6.091
 3674TIP3    H110967   4.590   3.296   6.005
 3674TIP3    H210968   4.666   3.243   6.125
 3675TIP3   OH210969   2.988   2.016   6.569
 3675TIP3    H110970   3.082   2.031   6.561
 3675TIP3    H210971   2.951   2.057   6.492
 3676TIP3   OH210972   7.015   0.320   0.089
 3676TIP3    H110973   7.012   0.270   0.008
 3676TIP3    H210974   6.978   0.406   0.066
 3677TIP3   OH210975   1.823   5.032   1.086
 3677TIP3    H110976   1.822   4.936   1.086
 3677TIP3    H210977   1.892   5.055   1.148
 3678TIP3   OH210978   5.985   4.085   1.902
 3678TIP3    H110979   5.978   4.068   1.996
 3678TIP3    H210980   5.976   3.998   1.862
 3679TIP3   OH210981   4.980   6.161   2.690
 3679TIP3    H110982   5.032   6.208   2.756
 3679TIP3    H210983   4.941   6.088   2.738
 3680TIP3   OH210984   0.704   1.682   6.127
 3680TIP3    H110985   0.783   1.731   6.148
 3680TIP3    H210986   0.636   1.724   6.180
 3681TIP3   OH210987   0.792   1.563   4.779
 3681TIP3    H110988   0.819   1.510   4.704
 3681TIP3    H210989   0.813   1.508   4.855
 3682TIP3   OH210990   7.010   3.708   5.917
 3682TIP3    H110991   7.061   3.675   5.843
 3682TIP3    H210992   7.074   3.750   5.974
 3683TIP3   OH210993   5.688   2.150   4.843
 3683TIP3    H110994   5.767   2.096   4.853
 3683TIP3    H210995   5.678   2.160   4.749
 3684TIP3   OH210996   3.970   7.222   5.535
 3684TIP3    H110997   3.982   7.287   5.466
 3684TIP3    H210998   3.946   7.141   5.489
 3685TIP3   OH210999   1.149   6.057   2.555
 3685TIP3    H111000   1.171   5.989   2.619
 3685TIP3    H211001   1.192   6.136   2.587
 3686TIP3   OH211002   7.146   1.507   2.243
 3686TIP3    H111003   7.155   1.482   2.151
 3686TIP3    H211004   7.180   1.596   2.248
 3687TIP3   OH211005   2.042   4.684   1.234
 3687TIP3    H111006   1.967   4.743   1.241
 3687TIP3    H211007   2.003   4.599   1.213
 3688TIP3   OH211008   3.877   6.005   1.415
 3688TIP3    H111009   3.965   6.006   1.453
 3688TIP3    H211010   3.858   6.098   1.398
 3689TIP3   OH211011   4.617   5.076   5.337
 3689TIP3    H111012   4.611   4.982   5.349
 3689TIP3    H211013   4.540   5.112   5.381
 3690TIP3   OH211014   5.390   7.762   3.287
 3690TIP3    H111015   5.349   7.801   3.210
 3690TIP3    H211016   5.332   7.785   3.360
 3691TIP3   OH211017   3.419   0.540   2.570
 3691TIP3    H111018   3.428   0.490   2.651
 3691TIP3    H211019   3.414   0.631   2.598
 3692TIP3   OH211020   2.062   6.846   6.710
 3692TIP3    H111021   1.973   6.822   6.686
 3692TIP3    H211022   2.053   6.930   6.755
 3693TIP3   OH211023   7.396   6.541   4.594
 3693TIP3    H111024   7.375   6.491   4.673
 3693TIP3    H211025   7.413   6.630   4.626
 3694TIP3   OH211026   7.484   6.134   3.959
 3694TIP3    H111027   7.570   6.166   3.985
 3694TIP3    H211028   7.464   6.064   4.020
 3695TIP3   OH211029   3.632   2.270   3.737
 3695TIP3    H111030   3.541   2.296   3.751
 3695TIP3    H211031   3.673   2.347   3.698
 3696TIP3   OH211032   5.016   3.038   5.808
 3696TIP3    H111033   5.057   2.956   5.835
 3696TIP3    H211034   4.922   3.023   5.816
 3697TIP3   OH211035   6.777   2.524   6.567
 3697TIP3    H111036   6.714   2.589   6.536
 3697TIP3    H211037   6.762   2.447   6.512
 3698TIP3   OH211038   2.476   7.417   2.773
 3698TIP3    H111039   2.569   7.399   2.784
 3698TIP3    H211040   2.432   7.337   2.802
 3699TIP3   OH211041   6.734   4.244   3.676
 3699TIP3    H111042   6.761   4.263   3.765
 3699TIP3    H211043   6.785   4.303   3.621
 3700TIP3   OH211044   0.854   2.051   6.008
 3700TIP3    H111045   0.889   2.019   5.925
 3700TIP3    H211046   0.773   2.096   5.983
 3701TIP3   OH211047   3.899   0.911   0.562
 3701TIP3    H111048   3.852   0.875   0.487
 3701TIP3    H211049   3.965   0.845   0.583
 3702TIP3   OH211050   5.399   7.472   3.289
 3702TIP3    H111051   5.315   7.438   3.321
 3702TIP3    H211052   5.388   7.567   3.292
 3703TIP3   OH211053   7.091   1.277   5.510
 3703TIP3    H111054   7.065   1.209   5.572
 3703TIP3    H211055   7.037   1.352   5.533
 3704TIP3   OH211056   1.210   1.066   3.202
 3704TIP3    H111057   1.176   0.977   3.202
 3704TIP3    H211058   1.237   1.082   3.112
 3705TIP3   OH211059   5.392   2.641   1.506
 3705TIP3    H111060   5.361   2.609   1.421
 3705TIP3    H211061   5.411   2.562   1.556
 3706TIP3   OH211062   1.137   5.425   0.462
 3706TIP3    H111063   1.080   5.399   0.535
 3706TIP3    H211064   1.112   5.367   0.391
 3707TIP3   OH211065   0.636   3.259   5.365
 3707TIP3    H111066   0.648   3.219   5.279
 3707TIP3    H211067   0.725   3.280   5.395
 3708TIP3   OH211068   4.170   5.683   0.937
 3708TIP3    H111069   4.127   5.748   0.993
 3708TIP3    H211070   4.101   5.651   0.880
 3709TIP3   OH211071   5.864   7.631   0.316
 3709TIP3    H111072   5.943   7.598   0.358
 3709TIP3    H211073   5.810   7.663   0.389
 3710TIP3   OH211074   5.041   3.105   2.845
 3710TIP3    H111075   5.040   3.010   2.842
 3710TIP3    H211076   5.000   3.127   2.929
 3711TIP3   OH211077   7.986   2.422   2.154
 3711TIP3    H111078   7.967   2.472   2.234
 3711TIP3    H211079   8.078   2.399   2.162
 3712TIP3   OH211080   2.157   1.272   1.240
 3712TIP3    H111081   2.166   1.210   1.312
 3712TIP3    H211082   2.122   1.220   1.168
 3713TIP3   OH211083   5.209   1.393   6.420
 3713TIP3    H111084   5.131   1.445   6.434
 3713TIP3    H211085   5.202   1.365   6.328
 3714TIP3   OH211086   4.347   4.965   0.137
 3714TIP3    H111087   4.355   5.057   0.164
 3714TIP3    H211088   4.381   4.963   0.048
 3715TIP3   OH211089   4.315   6.229   3.184
 3715TIP3    H111090   4.273   6.178   3.254
 3715TIP3    H211091   4.318   6.169   3.109
 3716TIP3   OH211092   4.251   3.785   5.425
 3716TIP3    H111093   4.226   3.695   5.406
 3716TIP3    H211094   4.168   3.834   5.420
 3717TIP3   OH211095   3.735   0.655   2.648
 3717TIP3    H111096   3.732   0.739   2.695
 3717TIP3    H211097   3.825   0.626   2.657
 3718TIP3   OH211098   8.178   1.838   3.515
 3718TIP3    H111099   8.135   1.766   3.469
 3718TIP3    H211100   8.107   1.901   3.533
 3719TIP3   OH211101   5.471   2.723   5.026
 3719TIP3    H111102   5.482   2.814   5.000
 3719TIP3    H211103   5.554   2.700   5.068
 3720TIP3   OH211104   7.906   3.668   2.992
 3720TIP3    H111105   7.816   3.645   3.015
 3720TIP3    H211106   7.955   3.586   3.001
 3721TIP3   OH211107   4.653   1.524   2.131
 3721TIP3    H111108   4.611   1.543   2.215
 3721TIP3    H211109   4.746   1.538   2.148
 3722TIP3   OH211110   6.095   2.385   1.510
 3722TIP3    H111111   6.151   2.427   1.445
 3722TIP3    H211112   6.021   2.445   1.521
 3723TIP3   OH211113   2.204   3.995   1.021
 3723TIP3    H111114   2.225   4.086   1.044
 3723TIP3    H211115   2.220   3.991   0.926
 3724TIP3   OH211116   5.553   6.503   5.429
 3724TIP3    H111117   5.579   6.426   5.377
 3724TIP3    H211118   5.459   6.494   5.440
 3725TIP3   OH211119   4.929   2.768   2.650
 3725TIP3    H111120   4.920   2.700   2.716
 3725TIP3    H211121   4.890   2.731   2.571
 3726TIP3   OH211122   1.238   7.727   3.400
 3726TIP3    H111123   1.205   7.647   3.440
 3726TIP3    H211124   1.312   7.752   3.456
 3727TIP3   OH211125   6.271   5.957   6.004
 3727TIP3    H111126   6.208   5.988   5.939
 3727TIP3    H211127   6.309   5.878   5.965
 3728TIP3   OH211128   2.591   6.287   2.982
 3728TIP3    H111129   2.611   6.193   2.989
 3728TIP3    H211130   2.500   6.295   3.011
 3729TIP3   OH211131   2.574   3.100   4.492
 3729TIP3    H111132   2.605   3.188   4.469
 3729TIP3    H211133   2.616   3.082   4.577
 3730TIP3   OH211134   5.213   5.542   0.314
 3730TIP3    H111135   5.132   5.588   0.337
 3730TIP3    H211136   5.184   5.467   0.262
 3731TIP3   OH211137   6.152   2.516   3.301
 3731TIP3    H111138   6.084   2.550   3.243
 3731TIP3    H211139   6.103   2.479   3.375
 3732TIP3   OH211140   5.098   3.370   1.326
 3732TIP3    H111141   5.165   3.352   1.259
 3732TIP3    H211142   5.016   3.345   1.285
 3733TIP3   OH211143   6.517   2.198   3.619
 3733TIP3    H111144   6.497   2.292   3.618
 3733TIP3    H211145   6.608   2.193   3.650
 3734TIP3   OH211146   8.297   4.211   3.937
 3734TIP3    H111147   8.319   4.280   3.875
 3734TIP3    H211148   8.317   4.130   3.889
 3735TIP3   OH211149   7.448   2.665   3.636
 3735TIP3    H111150   7.503   2.600   3.679
 3735TIP3    H211151   7.439   2.633   3.546
 3736TIP3   OH211152   4.646   0.560   3.217
 3736TIP3    H111153   4.692   0.633   3.259
 3736TIP3    H211154   4.573   0.601   3.171
 3737TIP3   OH211155   6.041   2.103   5.422
 3737TIP3    H111156   6.088   2.185   5.442
 3737TIP3    H211157   5.984   2.089   5.497
 3738TIP3   OH211158   2.558   1.128   4.922
 3738TIP3    H111159   2.623   1.184   4.964
 3738TIP3    H211160   2.492   1.113   4.990
 3739TIP3   OH211161   7.272   7.272   1.720
 3739TIP3    H111162   7.357   7.286   1.763
 3739TIP3    H211163   7.208   7.293   1.788
 3740TIP3   OH211164   7.693   5.976   3.453
 3740TIP3    H111165   7.743   5.897   3.435
 3740TIP3    H211166   7.759   6.046   3.453
 3741TIP3   OH211167   1.811   1.707   4.821
 3741TIP3    H111168   1.805   1.787   4.872
 3741TIP3    H211169   1.720   1.684   4.801
 3742TIP3   OH211170   3.622   6.836   2.792
 3742TIP3    H111171   3.657   6.837   2.881
 3742TIP3    H211172   3.530   6.810   2.803
 3743TIP3   OH211173   5.157   1.880   1.790
 3743TIP3    H111174   5.081   1.914   1.742
 3743TIP3    H211175   5.186   1.954   1.843
 3744TIP3   OH211176   6.757   0.162   1.560
 3744TIP3    H111177   6.665   0.181   1.575
 3744TIP3    H211178   6.757   0.092   1.495
 3745TIP3   OH211179   3.823   7.467   1.215
 3745TIP3    H111180   3.819   7.497   1.124
 3745TIP3    H211181   3.885   7.394   1.214
 3746TIP3   OH211182   7.195   2.735   4.066
 3746TIP3    H111183   7.259   2.725   3.996
 3746TIP3    H211184   7.149   2.651   4.069
 3747TIP3   OH211185   5.294   0.309   4.948
 3747TIP3    H111186   5.308   0.403   4.943
 3747TIP3    H211187   5.379   0.273   4.974
 3748TIP3   OH211188   6.427   0.687   2.581
 3748TIP3    H111189   6.384   0.683   2.667
 3748TIP3    H211190   6.355   0.683   2.518
 3749TIP3   OH211191   0.920   4.408   3.197
 3749TIP3    H111192   0.846   4.416   3.257
 3749TIP3    H211193   0.890   4.447   3.115
 3750TIP3   OH211194   8.087   6.343   3.796
 3750TIP3    H111195   8.032   6.314   3.868
 3750TIP3    H211196   8.164   6.286   3.800
 3751TIP3   OH211197   5.206   3.491   4.546
 3751TIP3    H111198   5.164   3.423   4.494
 3751TIP3    H211199   5.189   3.466   4.637
 3752TIP3   OH211200   4.151   2.372   6.693
 3752TIP3    H111201   4.163   2.362   6.598
 3752TIP3    H211202   4.232   2.416   6.722
 3753TIP3   OH211203   4.758   3.667   5.983
 3753TIP3    H111204   4.807   3.657   5.902
 3753TIP3    H211205   4.670   3.637   5.962
 3754TIP3   OH211206   0.191   0.404   1.598
 3754TIP3    H111207   0.270   0.442   1.558
 3754TIP3    H211208   0.144   0.364   1.525
 3755TIP3   OH211209   2.080   2.906   5.643
 3755TIP3    H111210   2.065   2.824   5.690
 3755TIP3    H211211   2.077   2.882   5.551
 3756TIP3   OH211212   6.647   1.347   0.064
 3756TIP3    H111213   6.696   1.349   0.146
 3756TIP3    H211214   6.595   1.428   0.065
 3757TIP3   OH211215   3.339   7.710   5.221
 3757TIP3    H111216   3.296   7.777   5.167
 3757TIP3    H211217   3.344   7.750   5.308
 3758TIP3   OH211218   4.623   5.145   2.525
 3758TIP3    H111219   4.605   5.072   2.467
 3758TIP3    H211220   4.574   5.219   2.488
 3759TIP3   OH211221   4.624   1.006   4.538
 3759TIP3    H111222   4.717   0.984   4.528
 3759TIP3    H211223   4.601   1.050   4.457
 3760TIP3   OH211224   3.234   0.317   2.196
 3760TIP3    H111225   3.300   0.287   2.133
 3760TIP3    H211226   3.279   0.313   2.281
 3761TIP3   OH211227   7.116   7.849   2.536
 3761TIP3    H111228   7.174   7.796   2.482
 3761TIP3    H211229   7.029   7.812   2.522
 3762TIP3   OH211230   6.292   0.654   4.538
 3762TIP3    H111231   6.372   0.619   4.499
 3762TIP3    H211232   6.222   0.617   4.485
 3763TIP3   OH211233   1.217   3.538   4.158
 3763TIP3    H111234   1.289   3.579   4.206
 3763TIP3    H211235   1.143   3.598   4.170
 3764TIP3   OH211236   0.266   0.607   5.415
 3764TIP3    H111237   0.197   0.599   5.481
 3764TIP3    H211238   0.347   0.614   5.466
 3765TIP3   OH211239   4.926   4.210   1.043
 3765TIP3    H111240   4.942   4.292   1.090
 3765TIP3    H211241   5.012   4.170   1.034
 3766TIP3   OH211242   4.371   0.965   1.740
 3766TIP3    H111243   4.389   0.885   1.691
 3766TIP3    H211244   4.432   0.963   1.814
 3767TIP3   OH211245   1.084   0.028   3.900
 3767TIP3    H111246   1.053   0.094   3.962
 3767TIP3    H211247   1.179   0.030   3.908
 3768TIP3   OH211248   0.544   1.047   4.903
 3768TIP3    H111249   0.490   0.985   4.953
 3768TIP3    H211250   0.634   1.025   4.926
 3769TIP3   OH211251   6.209   0.117   3.488
 3769TIP3    H111252   6.179   0.053   3.424
 3769TIP3    H211253   6.227   0.066   3.567
 3770TIP3   OH211254   7.505   0.140   0.364
 3770TIP3    H111255   7.462   0.084   0.428
 3770TIP3    H211256   7.588   0.096   0.346
 3771TIP3   OH211257   5.570   3.359   0.382
 3771TIP3    H111258   5.566   3.266   0.361
 3771TIP3    H211259   5.556   3.363   0.477
 3772TIP3   OH211260   5.074   7.648   4.759
 3772TIP3    H111261   5.004   7.661   4.694
 3772TIP3    H211262   5.121   7.731   4.760
 3773TIP3   OH211263   1.506   6.089   0.931
 3773TIP3    H111264   1.503   6.142   1.011
 3773TIP3    H211265   1.418   6.053   0.923
 3774TIP3   OH211266   1.014   2.708   1.690
 3774TIP3    H111267   1.008   2.626   1.641
 3774TIP3    H211268   1.108   2.726   1.695
 3775TIP3   OH211269   5.848   4.337   1.584
 3775TIP3    H111270   5.806   4.375   1.507
 3775TIP3    H211271   5.796   4.258   1.603
 3776TIP3   OH211272   5.539   2.166   5.758
 3776TIP3    H111273   5.631   2.149   5.738
 3776TIP3    H211274   5.541   2.232   5.827
 3777TIP3   OH211275   2.124   5.512   5.823
 3777TIP3    H111276   2.215   5.539   5.812
 3777TIP3    H211277   2.130   5.422   5.856
 3778TIP3   OH211278   4.977   6.435   1.642
 3778TIP3    H111279   5.011   6.524   1.647
 3778TIP3    H211280   5.044   6.387   1.593
 3779TIP3   OH211281   1.754   7.485   6.536
 3779TIP3    H111282   1.742   7.390   6.538
 3779TIP3    H211283   1.849   7.496   6.541
 3780TIP3   OH211284   4.506   4.599   6.135
 3780TIP3    H111285   4.559   4.678   6.125
 3780TIP3    H211286   4.562   4.529   6.101
 3781TIP3   OH211287   1.598   2.424   4.049
 3781TIP3    H111288   1.514   2.386   4.023
 3781TIP3    H211289   1.592   2.433   4.144
 3782TIP3   OH211290   1.943   2.627   3.969
 3782TIP3    H111291   1.894   2.686   4.027
 3782TIP3    H211292   1.876   2.592   3.910
 3783TIP3   OH211293   3.603   2.573   5.255
 3783TIP3    H111294   3.664   2.503   5.232
 3783TIP3    H211295   3.548   2.583   5.177
 3784TIP3   OH211296   2.785   3.762   3.805
 3784TIP3    H111297   2.741   3.833   3.852
 3784TIP3    H211298   2.757   3.682   3.849
 3785TIP3   OH211299   4.679   6.162   6.115
 3785TIP3    H111300   4.727   6.080   6.127
 3785TIP3    H211301   4.604   6.155   6.174
 3786TIP3   OH211302   5.899   1.323   4.416
 3786TIP3    H111303   5.983   1.363   4.392
 3786TIP3    H211304   5.833   1.376   4.372
 3787TIP3   OH211305   6.438   2.971   2.583
 3787TIP3    H111306   6.520   3.018   2.602
 3787TIP3    H211307   6.402   2.949   2.669
 3788TIP3   OH211308   5.437   1.143   2.330
 3788TIP3    H111309   5.348   1.107   2.336
 3788TIP3    H211310   5.427   1.224   2.279
 3789TIP3   OH211311   7.384   3.756   0.101
 3789TIP3    H111312   7.348   3.839   0.070
 3789TIP3    H211313   7.316   3.692   0.082
 3790TIP3   OH211314   4.579   6.206   1.663
 3790TIP3    H111315   4.508   6.227   1.724
 3790TIP3    H211316   4.657   6.243   1.704
 3791TIP3   OH211317   1.000   5.943   1.769
 3791TIP3    H111318   1.053   6.005   1.720
 3791TIP3    H211319   1.032   5.857   1.742
 3792TIP3   OH211320   5.360   6.459   1.086
 3792TIP3    H111321   5.309   6.523   1.037
 3792TIP3    H211322   5.426   6.510   1.133
 3793TIP3   OH211323   1.833   4.534   5.775
 3793TIP3    H111324   1.833   4.555   5.681
 3793TIP3    H211325   1.857   4.442   5.779
 3794TIP3   OH211326   6.951   3.252   2.914
 3794TIP3    H111327   6.938   3.317   2.982
 3794TIP3    H211328   6.936   3.168   2.958
 3795TIP3   OH211329   5.361   0.227   1.471
 3795TIP3    H111330   5.372   0.189   1.384
 3795TIP3    H211331   5.445   0.214   1.514
 3796TIP3   OH211332   7.830   5.334   1.753
 3796TIP3    H111333   7.775   5.260   1.731
 3796TIP3    H211334   7.817   5.396   1.681
 3797TIP3   OH211335   4.682   6.882   0.839
 3797TIP3    H111336   4.613   6.927   0.791
 3797TIP3    H211337   4.681   6.792   0.804
 3798TIP3   OH211338   4.390   4.696   0.075
 3798TIP3    H111339   4.375   4.790   0.082
 3798TIP3    H211340   4.485   4.686   0.090
 3799TIP3   OH211341   1.895   7.014   1.689
 3799TIP3    H111342   1.956   6.947   1.720
 3799TIP3    H211343   1.940   7.097   1.706
 3800TIP3   OH211344   5.888   2.882   2.014
 3800TIP3    H111345   5.946   2.915   1.946
 3800TIP3    H211346   5.933   2.805   2.049
 3801TIP3   OH211347   3.293   1.099   2.847
 3801TIP3    H111348   3.384   1.081   2.827
 3801TIP3    H211349   3.274   1.181   2.802
 3802TIP3   OH211350   2.796   6.212   4.253
 3802TIP3    H111351   2.757   6.127   4.232
 3802TIP3    H211352   2.722   6.272   4.257
 3803TIP3   OH211353   0.107   4.646   3.108
 3803TIP3    H111354   0.198   4.648   3.079
 3803TIP3    H211355   0.070   4.569   3.066
 3804TIP3   OH211356   1.670   3.339   0.480
 3804TIP3    H111357   1.756   3.319   0.444
 3804TIP3    H211358   1.657   3.274   0.549
 3805TIP3   OH211359   7.468   7.814   4.626
 3805TIP3    H111360   7.460   7.836   4.719
 3805TIP3    H211361   7.519   7.733   4.624
 3806TIP3   OH211362   1.271   4.517   2.890
 3806TIP3    H111363   1.322   4.439   2.911
 3806TIP3    H211364   1.236   4.500   2.803
 3807TIP3   OH211365   4.965   4.758   1.513
 3807TIP3    H111366   4.895   4.708   1.471
 3807TIP3    H211367   4.936   4.849   1.509
 3808TIP3   OH211368   3.649   7.706   0.692
 3808TIP3    H111369   3.734   7.662   0.692
 3808TIP3    H211370   3.670   7.798   0.674
 3809TIP3   OH211371   2.266   6.917   5.108
 3809TIP3    H111372   2.296   6.905   5.198
 3809TIP3    H211373   2.198   6.850   5.096
 3810TIP3   OH211374   2.751   3.331   1.724
 3810TIP3    H111375   2.725   3.339   1.632
 3810TIP3    H211376   2.828   3.387   1.732
 3811TIP3   OH211377   4.280   0.378   3.987
 3811TIP3    H111378   4.296   0.472   3.982
 3811TIP3    H211379   4.189   0.368   3.957
 3812TIP3   OH211380   4.650   0.677   6.172
 3812TIP3    H111381   4.639   0.666   6.077
 3812TIP3    H211382   4.729   0.627   6.192
 3813TIP3   OH211383   4.419   3.259   4.192
 3813TIP3    H111384   4.330   3.266   4.158
 3813TIP3    H211385   4.474   3.253   4.114
 3814TIP3   OH211386   0.754   1.351   3.722
 3814TIP3    H111387   0.843   1.349   3.686
 3814TIP3    H211388   0.739   1.444   3.742
 3815TIP3   OH211389   5.281   7.695   4.545
 3815TIP3    H111390   5.261   7.601   4.541
 3815TIP3    H211391   5.269   7.718   4.637
 3816TIP3   OH211392   3.412   1.773   1.874
 3816TIP3    H111393   3.471   1.698   1.865
 3816TIP3    H211394   3.448   1.840   1.816
 3817TIP3   OH211395   7.813   7.466   5.494
 3817TIP3    H111396   7.906   7.471   5.516
 3817TIP3    H211397   7.802   7.530   5.424
 3818TIP3   OH211398   7.440   2.506   6.433
 3818TIP3    H111399   7.433   2.440   6.364
 3818TIP3    H211400   7.523   2.486   6.476
 3819TIP3   OH211401   5.546   1.611   1.886
 3819TIP3    H111402   5.625   1.562   1.906
 3819TIP3    H211403   5.494   1.552   1.832
 3820TIP3   OH211404   7.641   2.779   1.719
 3820TIP3    H111405   7.723   2.734   1.699
 3820TIP3    H211406   7.614   2.817   1.635
 3821TIP3   OH211407   2.181   4.027   0.466
 3821TIP3    H111408   2.155   4.119   0.468
 3821TIP3    H211409   2.201   4.006   0.557
 3822TIP3   OH211410   6.019   1.513   0.650
 3822TIP3    H111411   6.044   1.552   0.566
 3822TIP3    H211412   6.102   1.489   0.691
 3823TIP3   OH211413   2.008   3.755   1.837
 3823TIP3    H111414   1.949   3.705   1.780
 3823TIP3    H211415   1.989   3.722   1.925
 3824TIP3   OH211416   2.435   7.037   2.270
 3824TIP3    H111417   2.485   6.959   2.245
 3824TIP3    H211418   2.482   7.110   2.230
 3825TIP3   OH211419   4.426   1.988   2.112
 3825TIP3    H111420   4.517   2.015   2.096
 3825TIP3    H211421   4.434   1.908   2.164
 3826TIP3   OH211422   2.791   2.827   2.332
 3826TIP3    H111423   2.703   2.791   2.341
 3826TIP3    H211424   2.777   2.917   2.304
 3827TIP3   OH211425   5.857   5.340   6.399
 3827TIP3    H111426   5.946   5.373   6.414
 3827TIP3    H211427   5.802   5.395   6.455
 3828TIP3   OH211428   4.275   1.101   6.193
 3828TIP3    H111429   4.330   1.178   6.211
 3828TIP3    H211430   4.264   1.101   6.098
 3829TIP3   OH211431   6.561   7.391   5.794
 3829TIP3    H111432   6.556   7.387   5.890
 3829TIP3    H211433   6.587   7.481   5.775
 3830TIP3   OH211434   2.650   7.266   3.591
 3830TIP3    H111435   2.565   7.281   3.633
 3830TIP3    H211436   2.650   7.173   3.569
 3831TIP3   OH211437   4.525   3.068   5.376
 3831TIP3    H111438   4.549   3.059   5.469
 3831TIP3    H211439   4.430   3.062   5.375
 3832TIP3   OH211440   7.129   4.555   5.852
 3832TIP3    H111441   7.106   4.645   5.874
 3832TIP3    H211442   7.137   4.511   5.937
 3833TIP3   OH211443   3.267   6.898   4.268
 3833TIP3    H111444   3.306   6.812   4.283
 3833TIP3    H211445   3.188   6.898   4.323
 3834TIP3   OH211446   6.674   7.156   1.185
 3834TIP3    H111447   6.758   7.111   1.181
 3834TIP3    H211448   6.694   7.247   1.163
 3835TIP3   OH211449   5.893   7.387   2.032
 3835TIP3    H111450   5.912   7.393   2.126
 3835TIP3    H211451   5.865   7.476   2.008
 3836TIP3   OH211452   5.297   2.628   5.647
 3836TIP3    H111453   5.323   2.537   5.657
 3836TIP3    H211454   5.276   2.637   5.554
 3837TIP3   OH211455   1.311   7.278   0.343
 3837TIP3    H111456   1.358   7.346   0.391
 3837TIP3    H211457   1.363   7.265   0.263
 3838TIP3   OH211458   6.649   0.188   1.099
 3838TIP3    H111459   6.682   0.192   1.189
 3838TIP3    H211460   6.666   0.275   1.063
 3839TIP3   OH211461   0.345   4.135   1.100
 3839TIP3    H111462   0.262   4.124   1.054
 3839TIP3    H211463   0.351   4.058   1.157
 3840TIP3   OH211464   7.438   7.130   4.433
 3840TIP3    H111465   7.508   7.193   4.416
 3840TIP3    H211466   7.473   7.046   4.402
 3841TIP3   OH211467   8.003   7.746   1.467
 3841TIP3    H111468   7.933   7.735   1.531
 3841TIP3    H211469   7.958   7.756   1.383
 3842TIP3   OH211470   7.485   4.290   0.458
 3842TIP3    H111471   7.416   4.340   0.502
 3842TIP3    H211472   7.468   4.302   0.365
 3843TIP3   OH211473   1.737   6.807   6.569
 3843TIP3    H111474   1.794   6.867   6.521
 3843TIP3    H211475   1.766   6.720   6.544
 3844TIP3   OH211476   6.040   6.089   4.252
 3844TIP3    H111477   5.972   6.052   4.308
 3844TIP3    H211478   5.998   6.162   4.207
 3845TIP3   OH211479   7.587   6.864   1.005
 3845TIP3    H111480   7.576   6.849   0.911
 3845TIP3    H211481   7.620   6.780   1.038
 3846TIP3   OH211482   4.495   3.262   0.081
 3846TIP3    H111483   4.515   3.251  -0.012
 3846TIP3    H211484   4.425   3.327   0.082
 3847TIP3   OH211485   3.604   5.482   5.422
 3847TIP3    H111486   3.690   5.509   5.452
 3847TIP3    H211487   3.593   5.394   5.457
 3848TIP3   OH211488   4.434   6.695   5.974
 3848TIP3    H111489   4.480   6.771   5.938
 3848TIP3    H211490   4.419   6.718   6.066
 3849TIP3   OH211491   4.044   7.653   5.537
 3849TIP3    H111492   3.961   7.700   5.537
 3849TIP3    H211493   4.066   7.642   5.629
 3850TIP3   OH211494   0.274   3.199   3.283
 3850TIP3    H111495   0.368   3.207   3.301
 3850TIP3    H211496   0.261   3.245   3.201
 3851TIP3   OH211497   4.952   1.261   5.259
 3851TIP3    H111498   4.940   1.199   5.187
 3851TIP3    H211499   4.919   1.214   5.336
 3852TIP3   OH211500   5.421   5.557   3.576
 3852TIP3    H111501   5.369   5.477   3.567
 3852TIP3    H211502   5.364   5.618   3.623
 3853TIP3   OH211503   0.804   2.872   1.174
 3853TIP3    H111504   0.796   2.948   1.116
 3853TIP3    H211505   0.790   2.907   1.262
 3854TIP3   OH211506   3.189   0.933   3.827
 3854TIP3    H111507   3.173   0.869   3.758
 3854TIP3    H211508   3.118   0.918   3.890
 3855TIP3   OH211509   6.220   0.193   2.760
 3855TIP3    H111510   6.224   0.193   2.856
 3855TIP3    H211511   6.216   0.101   2.736
 3856TIP3   OH211512   0.805   2.940   1.643
 3856TIP3    H111513   0.762   2.944   1.728
 3856TIP3    H211514   0.741   2.901   1.585
 3857TIP3   OH211515   8.166   1.799   2.706
 3857TIP3    H111516   8.123   1.714   2.699
 3857TIP3    H211517   8.166   1.818   2.800
 3858TIP3   OH211518   2.323   0.632   6.128
 3858TIP3    H111519   2.296   0.712   6.082
 3858TIP3    H211520   2.409   0.611   6.092
 3859TIP3   OH211521   5.619   3.354   3.606
 3859TIP3    H111522   5.586   3.433   3.650
 3859TIP3    H211523   5.643   3.295   3.678
 3860TIP3   OH211524   5.178   7.740   2.734
 3860TIP3    H111525   5.123   7.733   2.657
 3860TIP3    H211526   5.126   7.791   2.796
 3861TIP3   OH211527   4.457   0.062   6.115
 3861TIP3    H111528   4.528   0.010   6.153
 3861TIP3    H211529   4.381   0.044   6.169
 3862TIP3   OH211530   2.353   6.822   5.672
 3862TIP3    H111531   2.431   6.845   5.724
 3862TIP3    H211532   2.290   6.891   5.693
 3863TIP3   OH211533   0.236   5.014   1.739
 3863TIP3    H111534   0.286   4.941   1.776
 3863TIP3    H211535   0.156   4.974   1.705
 3864TIP3   OH211536   6.943   4.058   3.469
 3864TIP3    H111537   6.962   4.150   3.448
 3864TIP3    H211538   6.965   4.010   3.389
 3865TIP3   OH211539   1.930   2.349   2.951
 3865TIP3    H111540   2.021   2.373   2.929
 3865TIP3    H211541   1.881   2.430   2.939
 3866TIP3   OH211542   7.431   6.549   3.059
 3866TIP3    H111543   7.442   6.580   3.149
 3866TIP3    H211544   7.339   6.523   3.054
 3867TIP3   OH211545   0.298   0.648   5.845
 3867TIP3    H111546   0.300   0.597   5.926
 3867TIP3    H211547   0.268   0.735   5.873
 3868TIP3   OH211548   7.179   5.583   4.813
 3868TIP3    H111549   7.165   5.565   4.906
 3868TIP3    H211550   7.103   5.545   4.769
 3869TIP3   OH211551   7.828   1.322   2.585
 3869TIP3    H111552   7.869   1.380   2.521
 3869TIP3    H211553   7.882   1.242   2.582
 3870TIP3   OH211554   0.941   6.427   3.230
 3870TIP3    H111555   0.853   6.436   3.265
 3870TIP3    H211556   0.997   6.471   3.294
 3871TIP3   OH211557   1.114   3.452   5.708
 3871TIP3    H111558   1.046   3.398   5.747
 3871TIP3    H211559   1.164   3.486   5.782
 3872TIP3   OH211560   6.728   4.078   3.209
 3872TIP3    H111561   6.808   4.026   3.201
 3872TIP3    H211562   6.678   4.059   3.130
 3873TIP3   OH211563   1.686   4.345   0.889
 3873TIP3    H111564   1.713   4.254   0.875
 3873TIP3    H211565   1.753   4.396   0.844
 3874TIP3   OH211566   5.673   4.903   2.012
 3874TIP3    H111567   5.595   4.854   1.985
 3874TIP3    H211568   5.738   4.835   2.032
 3875TIP3   OH211569   4.599   7.125   1.955
 3875TIP3    H111570   4.675   7.154   1.906
 3875TIP3    H211571   4.615   7.032   1.973
 3876TIP3   OH211572   1.765   1.972   3.777
 3876TIP3    H111573   1.682   2.017   3.760
 3876TIP3    H211574   1.832   2.036   3.751
 3877TIP3   OH211575   0.170   5.399   4.529
 3877TIP3    H111576   0.158   5.381   4.436
 3877TIP3    H211577   0.093   5.362   4.572
 3878TIP3   OH211578   6.649   5.509   6.331
 3878TIP3    H111579   6.603   5.574   6.278
 3878TIP3    H211580   6.699   5.457   6.268
 3879TIP3   OH211581   1.890   3.223   4.164
 3879TIP3    H111582   1.798   3.241   4.143
 3879TIP3    H211583   1.895   3.229   4.259
 3880TIP3   OH211584   5.642   4.438   1.455
 3880TIP3    H111585   5.602   4.382   1.522
 3880TIP3    H211586   5.582   4.433   1.380
 3881TIP3   OH211587   3.884   2.437   3.330
 3881TIP3    H111588   3.820   2.367   3.346
 3881TIP3    H211589   3.939   2.403   3.260
 3882TIP3   OH211590   7.057   2.175   0.491
 3882TIP3    H111591   7.008   2.190   0.572
 3882TIP3    H211592   7.057   2.260   0.447
 3883TIP3   OH211593   7.297   0.496   5.826
 3883TIP3    H111594   7.240   0.510   5.751
 3883TIP3    H211595   7.376   0.458   5.789
 3884TIP3   OH211596   8.300   3.963   3.796
 3884TIP3    H111597   8.369   3.903   3.771
 3884TIP3    H211598   8.238   3.910   3.845
 3885TIP3   OH211599   6.311   1.694   1.834
 3885TIP3    H111600   6.285   1.786   1.838
 3885TIP3    H211601   6.229   1.647   1.817
 3886TIP3   OH211602   0.990   2.942   3.697
 3886TIP3    H111603   0.997   3.000   3.773
 3886TIP3    H211604   0.942   2.866   3.730
 3887TIP3   OH211605   3.095   2.411   3.135
 3887TIP3    H111606   3.150   2.488   3.119
 3887TIP3    H211607   3.157   2.344   3.166
 3888TIP3   OH211608   8.145   2.266   0.617
 3888TIP3    H111609   8.051   2.282   0.606
 3888TIP3    H211610   8.152   2.230   0.706
 3889TIP3   OH211611   7.200   2.993   6.236
 3889TIP3    H111612   7.126   3.023   6.288
 3889TIP3    H211613   7.271   2.984   6.299
 3890TIP3   OH211614   7.421   3.949   6.217
 3890TIP3    H111615   7.346   4.007   6.226
 3890TIP3    H211616   7.492   3.993   6.264
 3891TIP3   OH211617   6.761   7.025   5.550
 3891TIP3    H111618   6.835   6.997   5.495
 3891TIP3    H211619   6.693   7.050   5.487
 3892TIP3   OH211620   3.625   5.642   6.713
 3892TIP3    H111621   3.671   5.671   6.792
 3892TIP3    H211622   3.564   5.575   6.744
 3893TIP3   OH211623   5.113   2.025   1.205
 3893TIP3    H111624   5.133   2.114   1.235
 3893TIP3    H211625   5.198   1.986   1.186
 3894TIP3   OH211626   3.418   2.433   5.547
 3894TIP3    H111627   3.427   2.502   5.482
 3894TIP3    H211628   3.468   2.359   5.512
 3895TIP3   OH211629   7.760   6.832   0.242
 3895TIP3    H111630   7.795   6.751   0.277
 3895TIP3    H211631   7.790   6.900   0.302
 3896TIP3   OH211632   7.878   6.525   5.355
 3896TIP3    H111633   7.792   6.506   5.318
 3896TIP3    H211634   7.934   6.545   5.280
 3897TIP3   OH211635   2.344   0.712   0.707
 3897TIP3    H111636   2.307   0.735   0.622
 3897TIP3    H211637   2.405   0.783   0.727
 3898TIP3   OH211638   7.027   4.534   5.212
 3898TIP3    H111639   6.987   4.584   5.141
 3898TIP3    H211640   7.098   4.485   5.170
 3899TIP3   OH211641   4.286   2.553   5.080
 3899TIP3    H111642   4.248   2.508   5.005
 3899TIP3    H211643   4.335   2.626   5.043
 3900TIP3   OH211644   6.268   5.874   2.068
 3900TIP3    H111645   6.308   5.943   2.121
 3900TIP3    H211646   6.292   5.895   1.978
 3901TIP3   OH211647   4.159   7.631   3.945
 3901TIP3    H111648   4.157   7.541   3.914
 3901TIP3    H211649   4.077   7.641   3.994
 3902TIP3   OH211650   1.648   1.738   5.182
 3902TIP3    H111651   1.600   1.816   5.213
 3902TIP3    H211652   1.666   1.756   5.090
 3903TIP3   OH211653   4.157   4.057   1.657
 3903TIP3    H111654   4.160   3.996   1.584
 3903TIP3    H211655   4.178   4.142   1.619
 3904TIP3   OH211656   3.702   7.186   2.210
 3904TIP3    H111657   3.700   7.177   2.305
 3904TIP3    H211658   3.762   7.259   2.194
 3905TIP3   OH211659   2.471   3.376   2.726
 3905TIP3    H111660   2.380   3.408   2.723
 3905TIP3    H211661   2.480   3.340   2.814
 3906TIP3   OH211662   5.233   4.434   5.667
 3906TIP3    H111663   5.178   4.512   5.669
 3906TIP3    H211664   5.171   4.362   5.658
 3907TIP3   OH211665   1.887   1.194   6.369
 3907TIP3    H111666   1.869   1.170   6.278
 3907TIP3    H211667   1.833   1.273   6.384
 3908TIP3   OH211668   1.408   7.294   1.919
 3908TIP3    H111669   1.454   7.262   1.997
 3908TIP3    H211670   1.476   7.338   1.868
 3909TIP3   OH211671   0.910   0.554   5.739
 3909TIP3    H111672   0.969   0.495   5.785
 3909TIP3    H211673   0.844   0.578   5.804
 3910TIP3   OH211674   1.573   4.671   5.253
 3910TIP3    H111675   1.609   4.663   5.341
 3910TIP3    H211676   1.541   4.761   5.247
 3911TIP3   OH211677   5.889   0.964   5.266
 3911TIP3    H111678   5.891   0.972   5.171
 3911TIP3    H211679   5.969   1.007   5.296
 3912TIP3   OH211680   1.899   2.928   4.408
 3912TIP3    H111681   1.814   2.972   4.397
 3912TIP3    H211682   1.941   2.975   4.480
 3913TIP3   OH211683   2.398   3.919   0.212
 3913TIP3    H111684   2.303   3.927   0.205
 3913TIP3    H211685   2.426   3.896   0.123
 3914TIP3   OH211686   6.030   7.481   3.493
 3914TIP3    H111687   6.086   7.412   3.527
 3914TIP3    H211688   5.974   7.506   3.566
 3915TIP3   OH211689   4.082   7.626   3.153
 3915TIP3    H111690   4.034   7.568   3.095
 3915TIP3    H211691   4.094   7.576   3.233
 3916TIP3   OH211692   1.978   7.066   4.105
 3916TIP3    H111693   1.953   7.051   4.196
 3916TIP3    H211694   2.072   7.085   4.109
 3917TIP3   OH211695   4.139   7.399   3.284
 3917TIP3    H111696   4.145   7.399   3.379
 3917TIP3    H211697   4.229   7.386   3.254
 3918TIP3   OH211698   4.166   0.069   2.885
 3918TIP3    H111699   4.232   0.105   2.945
 3918TIP3    H211700   4.169   0.126   2.809
 3919TIP3   OH211701   7.478   6.153   3.545
 3919TIP3    H111702   7.394   6.136   3.587
 3919TIP3    H211703   7.462   6.138   3.452
 3920TIP3   OH211704   1.842   3.281   6.145
 3920TIP3    H111705   1.817   3.371   6.122
 3920TIP3    H211706   1.935   3.275   6.123
 3921TIP3   OH211707   0.024   2.391   1.794
 3921TIP3    H111708  -0.037   2.458   1.762
 3921TIP3    H211709   0.049   2.341   1.717
 3922TIP3   OH211710   7.824   5.732   3.495
 3922TIP3    H111711   7.819   5.751   3.589
 3922TIP3    H211712   7.790   5.642   3.487
 3923TIP3   OH211713   7.428   5.037   0.837
 3923TIP3    H111714   7.441   4.955   0.788
 3923TIP3    H211715   7.380   5.093   0.776
 3924TIP3   OH211716   3.088   1.855   3.418
 3924TIP3    H111717   3.083   1.761   3.398
 3924TIP3    H211718   3.137   1.860   3.500
 3925TIP3   OH211719   5.362   1.835   4.544
 3925TIP3    H111720   5.457   1.827   4.553
 3925TIP3    H211721   5.327   1.803   4.626
 3926TIP3   OH211722   2.060   2.126   2.381
 3926TIP3    H111723   2.082   2.145   2.290
 3926TIP3    H211724   2.079   2.208   2.427
 3927TIP3   OH211725   0.946   3.886   1.483
 3927TIP3    H111726   0.868   3.917   1.528
 3927TIP3    H211727   0.913   3.833   1.410
 3928TIP3   OH211728   0.840   2.254   5.398
 3928TIP3    H111729   0.882   2.216   5.475
 3928TIP3    H211730   0.770   2.309   5.434
 3929TIP3   OH211731   7.671   2.246   3.516
 3929TIP3    H111732   7.697   2.160   3.550
 3929TIP3    H211733   7.714   2.309   3.575
 3930TIP3   OH211734   0.206   2.256   1.583
 3930TIP3    H111735   0.232   2.258   1.675
 3930TIP3    H211736   0.165   2.170   1.572
 3931TIP3   OH211737   2.836   4.183   2.919
 3931TIP3    H111738   2.872   4.099   2.888
 3931TIP3    H211739   2.755   4.160   2.963
 3932TIP3   OH211740   1.789   6.717   2.005
 3932TIP3    H111741   1.755   6.647   1.950
 3932TIP3    H211742   1.740   6.709   2.087
 3933TIP3   OH211743   2.733   5.178   1.969
 3933TIP3    H111744   2.705   5.134   2.049
 3933TIP3    H211745   2.706   5.119   1.898
 3934TIP3   OH211746   2.046   0.674   4.279
 3934TIP3    H111747   1.992   0.692   4.356
 3934TIP3    H211748   1.999   0.604   4.233
 3935TIP3   OH211749   3.866   0.048   2.586
 3935TIP3    H111750   3.827   0.135   2.584
 3935TIP3    H211751   3.792  -0.012   2.574
 3936TIP3   OH211752   0.818   7.198   1.228
 3936TIP3    H111753   0.790   7.107   1.233
 3936TIP3    H211754   0.786   7.229   1.143
 3937TIP3   OH211755   6.530   0.619   3.939
 3937TIP3    H111756   6.591   0.693   3.934
 3937TIP3    H211757   6.450   0.657   3.976
 3938TIP3   OH211758   8.258   5.779   1.768
 3938TIP3    H111759   8.321   5.726   1.817
 3938TIP3    H211760   8.237   5.726   1.691
 3939TIP3   OH211761   0.772   6.738   5.613
 3939TIP3    H111762   0.851   6.780   5.578
 3939TIP3    H211763   0.770   6.764   5.705
 3940TIP3   OH211764   2.763   5.824   5.727
 3940TIP3    H111765   2.758   5.861   5.639
 3940TIP3    H211766   2.691   5.866   5.775
 3941TIP3   OH211767   5.196   2.893   0.907
 3941TIP3    H111768   5.221   2.919   0.995
 3941TIP3    H211769   5.179   2.799   0.914
 3942TIP3   OH211770   3.806   1.747   0.534
 3942TIP3    H111771   3.847   1.695   0.465
 3942TIP3    H211772   3.712   1.742   0.514
 3943TIP3   OH211773   7.698   7.096   4.959
 3943TIP3    H111774   7.717   7.139   4.875
 3943TIP3    H211775   7.612   7.056   4.946
 3944TIP3   OH211776   0.359   5.136   3.615
 3944TIP3    H111777   0.340   5.218   3.570
 3944TIP3    H211778   0.314   5.144   3.699
 3945TIP3   OH211779   1.126   3.745   4.383
 3945TIP3    H111780   1.174   3.816   4.341
 3945TIP3    H211781   1.125   3.768   4.476
 3946TIP3   OH211782   1.509   2.817   5.338
 3946TIP3    H111783   1.449   2.873   5.289
 3946TIP3    H211784   1.459   2.789   5.415
 3947TIP3   OH211785   3.162   2.518   1.218
 3947TIP3    H111786   3.080   2.549   1.256
 3947TIP3    H211787   3.134   2.466   1.142
 3948TIP3   OH211788   3.343   5.026   6.447
 3948TIP3    H111789   3.300   5.003   6.530
 3948TIP3    H211790   3.432   5.053   6.473
 3949TIP3   OH211791   0.967   5.378   1.740
 3949TIP3    H111792   0.996   5.412   1.824
 3949TIP3    H211793   1.034   5.315   1.715
 3950TIP3   OH211794   7.229   5.525   0.558
 3950TIP3    H111795   7.155   5.549   0.502
 3950TIP3    H211796   7.302   5.513   0.497
 3951TIP3   OH211797   7.123   5.686   5.060
 3951TIP3    H111798   7.211   5.716   5.036
 3951TIP3    H211799   7.089   5.755   5.116
 3952TIP3   OH211800   0.474   5.914   3.267
 3952TIP3    H111801   0.424   5.865   3.203
 3952TIP3    H211802   0.419   5.915   3.345
 3953TIP3   OH211803   2.308   0.534   4.416
 3953TIP3    H111804   2.280   0.468   4.480
 3953TIP3    H211805   2.337   0.483   4.341
 3954TIP3   OH211806   8.043   1.143   5.860
 3954TIP3    H111807   8.038   1.235   5.834
 3954TIP3    H211808   8.029   1.144   5.955
 3955TIP3   OH211809   0.566   4.934   2.765
 3955TIP3    H111810   0.661   4.940   2.759
 3955TIP3    H211811   0.545   4.960   2.855
 3956TIP3   OH211812   0.225   0.877   6.065
 3956TIP3    H111813   0.287   0.945   6.041
 3956TIP3    H211814   0.142   0.903   6.024
 3957TIP3   OH211815   0.383   7.317   2.872
 3957TIP3    H111816   0.320   7.254   2.906
 3957TIP3    H211817   0.385   7.387   2.937
 3958TIP3   OH211818   5.036   6.109   4.623
 3958TIP3    H111819   5.082   6.139   4.702
 3958TIP3    H211820   4.961   6.060   4.656
 3959TIP3   OH211821   1.352   4.624   3.942
 3959TIP3    H111822   1.270   4.607   3.988
 3959TIP3    H211823   1.376   4.540   3.905
 3960TIP3   OH211824   3.755   3.949   5.371
 3960TIP3    H111825   3.760   4.016   5.439
 3960TIP3    H211826   3.833   3.963   5.317
 3961TIP3   OH211827   1.295   3.337   1.090
 3961TIP3    H111828   1.204   3.310   1.076
 3961TIP3    H211829   1.309   3.327   1.184
 3962TIP3   OH211830   3.518   4.685   4.223
 3962TIP3    H111831   3.462   4.651   4.293
 3962TIP3    H211832   3.556   4.765   4.261
 3963TIP3   OH211833   0.054   3.745   6.088
 3963TIP3    H111834  -0.038   3.758   6.065
 3963TIP3    H211835   0.082   3.830   6.123
 3964TIP3   OH211836   2.137   0.756   2.722
 3964TIP3    H111837   2.063   0.742   2.782
 3964TIP3    H211838   2.156   0.849   2.729
 3965TIP3   OH211839   8.137   5.374   5.464
 3965TIP3    H111840   8.123   5.342   5.553
 3965TIP3    H211841   8.232   5.384   5.458
 3966TIP3   OH211842   4.246   4.283   1.523
 3966TIP3    H111843   4.321   4.298   1.466
 3966TIP3    H211844   4.240   4.363   1.576
 3967TIP3   OH211845   6.259   4.734   3.602
 3967TIP3    H111846   6.226   4.657   3.649
 3967TIP3    H211847   6.253   4.805   3.666
 3968TIP3   OH211848   3.039   4.057   1.426
 3968TIP3    H111849   3.053   4.117   1.499
 3968TIP3    H211850   3.072   4.104   1.349
 3969TIP3   OH211851   2.706   7.355   4.954
 3969TIP3    H111852   2.692   7.375   4.861
 3969TIP3    H211853   2.707   7.260   4.958
 3970TIP3   OH211854   1.640   1.305   2.942
 3970TIP3    H111855   1.586   1.256   2.881
 3970TIP3    H211856   1.578   1.356   2.994
 3971TIP3   OH211857   2.649   0.936   1.184
 3971TIP3    H111858   2.729   0.912   1.136
 3971TIP3    H211859   2.578   0.912   1.125
 3972TIP3   OH211860   5.095   0.592   6.020
 3972TIP3    H111861   5.078   0.654   5.949
 3972TIP3    H211862   5.017   0.537   6.023
 3973TIP3   OH211863   5.357   0.171   4.674
 3973TIP3    H111864   5.316   0.212   4.598
 3973TIP3    H211865   5.417   0.238   4.708
 3974TIP3   OH211866   3.832   2.071   3.891
 3974TIP3    H111867   3.807   2.127   3.818
 3974TIP3    H211868   3.779   2.101   3.964
 3975TIP3   OH211869   5.894   3.412   2.619
 3975TIP3    H111870   5.917   3.394   2.528
 3975TIP3    H211871   5.882   3.326   2.659
 3976TIP3   OH211872   7.976   4.491   5.420
 3976TIP3    H111873   7.912   4.552   5.382
 3976TIP3    H211874   8.061   4.521   5.388
 3977TIP3   OH211875   3.620   4.138   4.355
 3977TIP3    H111876   3.609   4.149   4.449
 3977TIP3    H211877   3.583   4.052   4.336
 3978TIP3   OH211878   7.947   2.977   1.013
 3978TIP3    H111879   7.958   3.023   0.930
 3978TIP3    H211880   7.858   2.998   1.041
 3979TIP3   OH211881   7.592   2.416   5.022
 3979TIP3    H111882   7.633   2.493   4.982
 3979TIP3    H211883   7.630   2.412   5.110
 3980TIP3   OH211884   4.827   5.342   3.418
 3980TIP3    H111885   4.890   5.312   3.352
 3980TIP3    H211886   4.768   5.268   3.430
 3981TIP3   OH211887   4.988   4.015   4.593
 3981TIP3    H111888   5.036   4.086   4.548
 3981TIP3    H211889   4.958   3.959   4.522
 3982TIP3   OH211890   5.726   2.936   1.429
 3982TIP3    H111891   5.705   2.966   1.341
 3982TIP3    H211892   5.814   2.969   1.445
 3983TIP3   OH211893   0.056   3.149   0.426
 3983TIP3    H111894   0.059   3.132   0.520
 3983TIP3    H211895   0.034   3.242   0.418
 3984TIP3   OH211896   2.305   1.501   4.862
 3984TIP3    H111897   2.270   1.590   4.864
 3984TIP3    H211898   2.231   1.448   4.831
 3985TIP3   OH211899   3.824   5.791   2.936
 3985TIP3    H111900   3.878   5.866   2.910
 3985TIP3    H211901   3.866   5.757   3.015
 3986TIP3   OH211902   4.912   0.978   0.180
 3986TIP3    H111903   4.847   0.967   0.111
 3986TIP3    H211904   4.925   0.890   0.216
 3987TIP3   OH211905   7.036   5.064   1.768
 3987TIP3    H111906   7.021   5.135   1.706
 3987TIP3    H211907   6.991   4.989   1.730
 3988TIP3   OH211908   0.638   5.843   5.262
 3988TIP3    H111909   0.646   5.908   5.331
 3988TIP3    H211910   0.547   5.851   5.232
 3989TIP3   OH211911   4.844   1.845   4.255
 3989TIP3    H111912   4.879   1.919   4.305
 3989TIP3    H211913   4.901   1.837   4.179
 3990TIP3   OH211914   1.370   2.545   2.050
 3990TIP3    H111915   1.319   2.585   1.980
 3990TIP3    H211916   1.396   2.460   2.015
 3991TIP3   OH211917   1.369   4.837   6.693
 3991TIP3    H111918   1.380   4.827   6.787
 3991TIP3    H211919   1.290   4.890   6.684
 3992TIP3   OH211920   1.176   2.409   3.637
 3992TIP3    H111921   1.119   2.435   3.709
 3992TIP3    H211922   1.128   2.434   3.558
 3993TIP3   OH211923   4.995   3.522   6.295
 3993TIP3    H111924   4.953   3.607   6.301
 3993TIP3    H211925   5.044   3.525   6.212
 3994TIP3   OH211926   1.741   4.364   3.336
 3994TIP3    H111927   1.718   4.397   3.423
 3994TIP3    H211928   1.837   4.370   3.333
 3995TIP3   OH211929   6.305   3.803   4.691
 3995TIP3    H111930   6.299   3.795   4.786
 3995TIP3    H211931   6.215   3.809   4.662
 3996TIP3   OH211932   3.803   2.357   0.125
 3996TIP3    H111933   3.759   2.312   0.052
 3996TIP3    H211934   3.745   2.429   0.147
 3997TIP3   OH211935   6.175   0.468   2.681
 3997TIP3    H111936   6.267   0.491   2.670
 3997TIP3    H211937   6.176   0.381   2.720
 3998TIP3   OH211938   7.433   7.627   6.145
 3998TIP3    H111939   7.382   7.569   6.202
 3998TIP3    H211940   7.508   7.574   6.118
 3999TIP3   OH211941   7.796   6.079   3.707
 3999TIP3    H111942   7.790   6.164   3.663
 3999TIP3    H211943   7.736   6.023   3.658
 4000TIP3   OH211944   1.562   1.912   1.016
 4000TIP3    H111945   1.527   1.884   0.931
 4000TIP3    H211946   1.595   1.831   1.056
 4001TIP3   OH211947   0.724   6.359   3.656
 4001TIP3    H111948   0.748   6.277   3.613
 4001TIP3    H211949   0.739   6.426   3.590
 4002TIP3   OH211950   3.813   5.449   3.893
 4002TIP3    H111951   3.722   5.451   3.862
 4002TIP3    H211952   3.860   5.401   3.825
 4003TIP3   OH211953   1.469   1.415   2.504
 4003TIP3    H111954   1.512   1.330   2.491
 4003TIP3    H211955   1.528   1.478   2.463
 4004TIP3   OH211956   0.028   2.683   4.169
 4004TIP3    H111957   0.115   2.643   4.165
 4004TIP3    H211958  -0.009   2.654   4.252
 4005TIP3   OH211959   2.603   2.330   0.589
 4005TIP3    H111960   2.526   2.273   0.598
 4005TIP3    H211961   2.577   2.394   0.523
 4006TIP3   OH211962   0.087   0.197   6.699
 4006TIP3    H111963   0.032   0.175   6.624
 4006TIP3    H211964   0.026   0.210   6.771
 4007TIP3   OH211965   0.931   5.701   4.219
 4007TIP3    H111966   0.979   5.620   4.236
 4007TIP3    H211967   0.933   5.748   4.303
 4008TIP3   OH211968   5.254   7.362   6.661
 4008TIP3    H111969   5.215   7.376   6.747
 4008TIP3    H211970   5.233   7.440   6.611
 4009TIP3   OH211971   6.924   7.124   3.366
 4009TIP3    H111972   6.938   7.047   3.420
 4009TIP3    H211973   7.012   7.158   3.349
 4010TIP3   OH211974   0.757   1.978   1.382
 4010TIP3    H111975   0.752   2.001   1.475
 4010TIP3    H211976   0.696   2.038   1.339
 4011TIP3   OH211977   2.849   0.304   6.612
 4011TIP3    H111978   2.871   0.349   6.694
 4011TIP3    H211979   2.933   0.268   6.581
 4012TIP3   OH211980   6.416   1.205   4.591
 4012TIP3    H111981   6.416   1.117   4.552
 4012TIP3    H211982   6.393   1.190   4.683
 4013TIP3   OH211983   8.097   4.968   1.115
 4013TIP3    H111984   8.184   5.008   1.115
 4013TIP3    H211985   8.065   4.980   1.204
 4014TIP3   OH211986   5.832   0.921   3.960
 4014TIP3    H111987   5.874   1.000   3.994
 4014TIP3    H211988   5.876   0.849   4.005
 4015TIP3   OH211989   3.903   2.010   0.104
 4015TIP3    H111990   3.943   1.973   0.183
 4015TIP3    H211991   3.975   2.016   0.041
 4016TIP3   OH211992   7.166   3.584   5.741
 4016TIP3    H111993   7.157   3.649   5.670
 4016TIP3    H211994   7.195   3.504   5.696
 4017TIP3   OH211995   7.856   5.069   1.269
 4017TIP3    H111996   7.815   5.054   1.183
 4017TIP3    H211997   7.853   4.984   1.312
 4018TIP3   OH211998   5.975   6.312   4.908
 4018TIP3    H111999   6.021   6.389   4.943
 4018TIP3    H212000   6.043   6.245   4.902
 4019TIP3   OH212001   6.673   3.287   1.416
 4019TIP3    H112002   6.680   3.216   1.352
 4019TIP3    H212003   6.585   3.278   1.453
 4020TIP3   OH212004   3.888   5.363   2.683
 4020TIP3    H112005   3.939   5.424   2.737
 4020TIP3    H212006   3.858   5.416   2.609
 4021TIP3   OH212007   0.896   1.068   1.251
 4021TIP3    H112008   0.882   1.037   1.340
 4021TIP3    H212009   0.925   0.991   1.202
 4022TIP3   OH212010   7.893   6.647   4.267
 4022TIP3    H112011   7.949   6.715   4.306
 4022TIP3    H212012   7.835   6.620   4.338
 4023TIP3   OH212013   7.310   7.478   4.187
 4023TIP3    H112014   7.324   7.386   4.163
 4023TIP3    H212015   7.298   7.476   4.282
 4024TIP3   OH212016   4.302   2.110   3.998
 4024TIP3    H112017   4.221   2.126   4.047
 4024TIP3    H212018   4.286   2.148   3.912
 4025TIP3   OH212019   0.962   0.539   1.488
 4025TIP3    H112020   1.030   0.558   1.424
 4025TIP3    H212021   0.887   0.592   1.460
 4026TIP3   OH212022   1.288   0.453   1.076
 4026TIP3    H112023   1.341   0.459   1.155
 4026TIP3    H212024   1.351   0.438   1.006
 4027TIP3   OH212025   1.267   0.582   0.206
 4027TIP3    H112026   1.309   0.665   0.185
 4027TIP3    H212027   1.265   0.534   0.124
 4028TIP3   OH212028   2.960   5.884   2.124
 4028TIP3    H112029   2.892   5.817   2.125
 4028TIP3    H212030   3.038   5.838   2.156
 4029TIP3   OH212031   6.547   0.086   0.547
 4029TIP3    H112032   6.585   0.077   0.460
 4029TIP3    H212033   6.483   0.157   0.538
 4030TIP3   OH212034   6.745   2.480   4.850
 4030TIP3    H112035   6.746   2.554   4.790
 4030TIP3    H212036   6.722   2.405   4.795
 4031TIP3   OH212037   0.631   2.754   4.346
 4031TIP3    H112038   0.632   2.764   4.441
 4031TIP3    H212039   0.538   2.752   4.323
 4032TIP3   OH212040   0.438   2.831   5.741
 4032TIP3    H112041   0.374   2.845   5.671
 4032TIP3    H212042   0.408   2.888   5.812
 4033TIP3   OH212043   7.493   4.402   6.380
 4033TIP3    H112044   7.522   4.438   6.464
 4033TIP3    H212045   7.408   4.444   6.365
 4034TIP3   OH212046   0.777   0.597   4.799
 4034TIP3    H112047   0.683   0.591   4.783
 4034TIP3    H212048   0.786   0.578   4.893
 4035TIP3   OH212049   1.078   2.613   2.065
 4035TIP3    H112050   1.133   2.641   1.992
 4035TIP3    H212051   0.991   2.600   2.026
 4036TIP3   OH212052   2.891   3.731   4.644
 4036TIP3    H112053   2.860   3.652   4.599
 4036TIP3    H212054   2.880   3.711   4.737
 4037TIP3   OH212055   2.952   5.980   2.518
 4037TIP3    H112056   2.913   5.922   2.583
 4037TIP3    H212057   2.912   5.953   2.435
 4038TIP3   OH212058   6.729   1.732  -0.001
 4038TIP3    H112059   6.656   1.703   0.054
 4038TIP3    H212060   6.807   1.722   0.054
 4039TIP3   OH212061   7.862   7.165   3.984
 4039TIP3    H112062   7.944   7.168   3.934
 4039TIP3    H212063   7.867   7.241   4.042
 4040TIP3   OH212064   4.435   5.177   6.514
 4040TIP3    H112065   4.447   5.088   6.479
 4040TIP3    H212066   4.450   5.234   6.438
 4041TIP3   OH212067   1.568   0.375   0.295
 4041TIP3    H112068   1.574   0.284   0.325
 4041TIP3    H212069   1.508   0.373   0.221
 4042TIP3   OH212070   5.564   6.249   1.505
 4042TIP3    H112071   5.589   6.178   1.446
 4042TIP3    H212072   5.549   6.206   1.590
 4043TIP3   OH212073   4.954   4.892   2.277
 4043TIP3    H112074   4.871   4.864   2.315
 4043TIP3    H212075   5.020   4.853   2.334
 4044TIP3   OH212076   2.036   2.371   3.250
 4044TIP3    H112077   2.007   2.345   3.162
 4044TIP3    H212078   1.955   2.386   3.298
 4045TIP3   OH212079   4.930   2.033   3.765
 4045TIP3    H112080   4.871   2.062   3.695
 4045TIP3    H212081   4.989   1.971   3.722
 4046TIP3   OH212082   1.543   0.045   0.467
 4046TIP3    H112083   1.492  -0.016   0.520
 4046TIP3    H212084   1.508   0.131   0.490
 4047TIP3   OH212085   8.026   4.221   2.974
 4047TIP3    H112086   8.000   4.227   3.066
 4047TIP3    H212087   7.944   4.227   2.925
 4048TIP3   OH212088   0.013   0.145   2.795
 4048TIP3    H112089  -0.069   0.194   2.795
 4048TIP3    H212090   0.016   0.102   2.880
 4049TIP3   OH212091   6.503   1.684   2.406
 4049TIP3    H112092   6.424   1.698   2.458
 4049TIP3    H212093   6.570   1.737   2.450
 4050TIP3   OH212094   4.780   4.803   2.709
 4050TIP3    H112095   4.767   4.740   2.780
 4050TIP3    H212096   4.873   4.797   2.687
 4051TIP3   OH212097   5.480   2.667  -0.021
 4051TIP3    H112098   5.404   2.618  -0.052
 4051TIP3    H212099   5.553   2.633  -0.074
 4052TIP3   OH212100   1.640   3.017   3.554
 4052TIP3    H112101   1.675   2.930   3.577
 4052TIP3    H212102   1.553   2.999   3.518
 4053TIP3   OH212103   7.238   5.762   6.688
 4053TIP3    H112104   7.152   5.735   6.655
 4053TIP3    H212105   7.271   5.823   6.622
 4054TIP3   OH212106   5.448   7.682   2.717
 4054TIP3    H112107   5.357   7.710   2.724
 4054TIP3    H212108   5.498   7.764   2.713
 4055TIP3   OH212109   3.519   1.793   6.182
 4055TIP3    H112110   3.581   1.854   6.141
 4055TIP3    H212111   3.434   1.819   6.147
 4056TIP3   OH212112   2.447   0.180   1.633
 4056TIP3    H112113   2.448   0.108   1.571
 4056TIP3    H212114   2.532   0.223   1.622
 4057TIP3   OH212115  -0.026   6.245   6.605
 4057TIP3    H112116   0.015   6.192   6.673
 4057TIP3    H212117   0.022   6.328   6.606
 4058TIP3   OH212118   3.665   3.140   4.383
 4058TIP3    H112119   3.646   3.099   4.468
 4058TIP3    H212120   3.612   3.091   4.320
 4059TIP3   OH212121   3.424   2.067   2.055
 4059TIP3    H112122   3.410   1.988   2.003
 4059TIP3    H212123   3.436   2.036   2.144
 4060TIP3   OH212124   0.279   1.991   3.587
 4060TIP3    H112125   0.357   1.951   3.625
 4060TIP3    H212126   0.217   1.998   3.659
 4061TIP3   OH212127   3.721   1.833   6.623
 4061TIP3    H112128   3.732   1.824   6.529
 4061TIP3    H212129   3.784   1.902   6.647
 4062TIP3   OH212130   1.423   1.013   5.564
 4062TIP3    H112131   1.375   1.096   5.568
 4062TIP3    H212132   1.403   0.979   5.476
 4063TIP3   OH212133   4.046   5.958   2.994
 4063TIP3    H112134   4.061   6.053   2.997
 4063TIP3    H212135   4.125   5.921   3.033
 4064TIP3   OH212136   1.043   2.741   5.734
 4064TIP3    H112137   1.069   2.717   5.823
 4064TIP3    H212138   1.057   2.663   5.682
 4065TIP3   OH212139   4.326   2.449   1.695
 4065TIP3    H112140   4.256   2.507   1.727
 4065TIP3    H212141   4.367   2.498   1.624
 4066TIP3   OH212142   1.736   2.173   4.602
 4066TIP3    H112143   1.805   2.200   4.662
 4066TIP3    H212144   1.769   2.093   4.562
 4067TIP3   OH212145   0.795   1.958   4.182
 4067TIP3    H112146   0.747   1.993   4.107
 4067TIP3    H212147   0.865   2.021   4.197
 4068TIP3   OH212148   4.686   1.910   4.828
 4068TIP3    H112149   4.619   1.868   4.774
 4068TIP3    H212150   4.670   2.004   4.818
 4069TIP3   OH212151   6.457   3.424   0.609
 4069TIP3    H112152   6.531   3.365   0.617
 4069TIP3    H212153   6.426   3.438   0.699
 4070TIP3   OH212154   7.902   1.033   5.650
 4070TIP3    H112155   7.981   1.011   5.600
 4070TIP3    H212156   7.934   1.088   5.721
 4071TIP3   OH212157   0.998   3.182   1.342
 4071TIP3    H112158   0.992   3.124   1.418
 4071TIP3    H212159   0.996   3.270   1.379
 4072TIP3   OH212160   0.889   6.441   4.087
 4072TIP3    H112161   0.937   6.457   4.006
 4072TIP3    H212162   0.878   6.346   4.091
 4073TIP3   OH212163   5.193   0.531   5.443
 4073TIP3    H112164   5.272   0.481   5.423
 4073TIP3    H212165   5.121   0.473   5.420
 4074TIP3   OH212166   7.121   7.542   6.041
 4074TIP3    H112167   7.186   7.513   5.977
 4074TIP3    H212168   7.064   7.466   6.054
 4075TIP3   OH212169   0.080   2.590   4.904
 4075TIP3    H112170   0.114   2.514   4.857
 4075TIP3    H212171   0.147   2.657   4.891
 4076TIP3   OH212172   5.247   7.050   2.751
 4076TIP3    H112173   5.199   7.132   2.740
 4076TIP3    H212174   5.336   7.070   2.720
 4077TIP3   OH212175   8.155   6.746   6.396
 4077TIP3    H112176   8.108   6.763   6.314
 4077TIP3    H212177   8.187   6.657   6.387
 4078TIP3   OH212178   1.735   1.454   4.643
 4078TIP3    H112179   1.676   1.433   4.715
 4078TIP3    H212180   1.723   1.382   4.581
 4079TIP3   OH212181   0.249   2.419   0.726
 4079TIP3    H112182   0.178   2.437   0.663
 4079TIP3    H212183   0.207   2.424   0.812
 4080TIP3   OH212184   1.376   3.056   5.573
 4080TIP3    H112185   1.405   3.004   5.648
 4080TIP3    H212186   1.285   3.029   5.558
 4081TIP3   OH212187   3.527   5.267   5.600
 4081TIP3    H112188   3.468   5.208   5.647
 4081TIP3    H212189   3.598   5.284   5.662
 4082TIP3   OH212190   0.706   7.778   2.889
 4082TIP3    H112191   0.667   7.779   2.976
 4082TIP3    H212192   0.721   7.870   2.868
 4083TIP3   OH212193   2.792   3.853   0.772
 4083TIP3    H112194   2.790   3.777   0.830
 4083TIP3    H212195   2.838   3.822   0.694
 4084TIP3   OH212196   3.351   4.256   3.445
 4084TIP3    H112197   3.429   4.299   3.410
 4084TIP3    H212198   3.281   4.321   3.436
 4085TIP3   OH212199   7.798   6.976   0.476
 4085TIP3    H112200   7.883   6.959   0.516
 4085TIP3    H212201   7.776   7.066   0.503
 4086TIP3   OH212202   2.678   3.763   1.958
 4086TIP3    H112203   2.587   3.794   1.969
 4086TIP3    H212204   2.673   3.669   1.976
 4087TIP3   OH212205   2.278   5.067   6.168
 4087TIP3    H112206   2.201   5.122   6.183
 4087TIP3    H212207   2.243   4.986   6.132
 4088TIP3   OH212208   3.236   3.270   1.625
 4088TIP3    H112209   3.245   3.202   1.691
 4088TIP3    H212210   3.282   3.345   1.662
 4089TIP3   OH212211   4.332   6.871   0.366
 4089TIP3    H112212   4.416   6.876   0.320
 4089TIP3    H212213   4.267   6.886   0.297
 4090TIP3   OH212214   4.124   3.769   5.700
 4090TIP3    H112215   4.117   3.855   5.658
 4090TIP3    H212216   4.113   3.707   5.629
 4091TIP3   OH212217   7.833   4.277   1.474
 4091TIP3    H112218   7.902   4.231   1.426
 4091TIP3    H212219   7.757   4.218   1.470
 4092TIP3   OH212220   6.348   3.028   1.699
 4092TIP3    H112221   6.388   2.958   1.751
 4092TIP3    H212222   6.415   3.051   1.635
 4093TIP3   OH212223   5.478   4.518   4.520
 4093TIP3    H112224   5.544   4.522   4.451
 4093TIP3    H212225   5.503   4.443   4.574
 4094TIP3   OH212226   3.704   7.172   2.473
 4094TIP3    H112227   3.724   7.081   2.495
 4094TIP3    H212228   3.726   7.222   2.552
 4095TIP3   OH212229   3.226   0.381   5.119
 4095TIP3    H112230   3.212   0.287   5.106
 4095TIP3    H212231   3.281   0.407   5.044
 4096TIP3   OH212232   6.276   0.605   1.803
 4096TIP3    H112233   6.230   0.534   1.758
 4096TIP3    H212234   6.293   0.670   1.735
 4097TIP3   OH212235   4.459   5.127   3.322
 4097TIP3    H112236   4.504   5.166   3.397
 4097TIP3    H212237   4.435   5.039   3.352
 4098TIP3   OH212238   6.051   4.034   0.483
 4098TIP3    H112239   6.119   4.097   0.459
 4098TIP3    H212240   6.076   3.953   0.437
 4099TIP3   OH212241   3.384   7.390   0.238
 4099TIP3    H112242   3.471   7.408   0.203
 4099TIP3    H212243   3.393   7.406   0.332
 4100TIP3   OH212244   2.713   5.585   4.532
 4100TIP3    H112245   2.650   5.573   4.461
 4100TIP3    H212246   2.767   5.659   4.504
 4101TIP3   OH212247   0.508   6.016   6.269
 4101TIP3    H112248   0.583   5.968   6.235
 4101TIP3    H212249   0.435   5.990   6.212
 4102TIP3   OH212250   6.395   3.881   6.612
 4102TIP3    H112251   6.453   3.849   6.543
 4102TIP3    H212252   6.449   3.941   6.663
 4103TIP3   OH212253   4.614   4.815   4.180
 4103TIP3    H112254   4.662   4.739   4.214
 4103TIP3    H212255   4.649   4.827   4.091
 4104TIP3   OH212256   3.454   2.428   3.537
 4104TIP3    H112257   3.425   2.494   3.600
 4104TIP3    H212258   3.377   2.412   3.482
 4105TIP3   OH212259   3.366   0.972   5.612
 4105TIP3    H112260   3.436   0.910   5.631
 4105TIP3    H212261   3.303   0.922   5.559
 4106TIP3   OH212262   7.963   3.810   3.719
 4106TIP3    H112263   8.007   3.747   3.661
 4106TIP3    H212264   7.990   3.895   3.687
 4107TIP3   OH212265   4.034   2.430   2.233
 4107TIP3    H112266   4.026   2.454   2.141
 4107TIP3    H212267   4.066   2.339   2.232
 4108TIP3   OH212268   2.330   6.315   2.494
 4108TIP3    H112269   2.350   6.245   2.556
 4108TIP3    H212270   2.284   6.381   2.547
 4109TIP3   OH212271   4.165   0.720   6.140
 4109TIP3    H112272   4.194   0.628   6.142
 4109TIP3    H212273   4.235   0.766   6.094
 4110TIP3   OH212274   0.223   2.124   5.036
 4110TIP3    H112275   0.142   2.079   5.012
 4110TIP3    H212276   0.293   2.068   5.003
 4111TIP3   OH212277   1.828   0.779   0.611
 4111TIP3    H112278   1.779   0.791   0.530
 4111TIP3    H212279   1.789   0.702   0.652
 4112TIP3   OH212280   5.425   3.230   0.667
 4112TIP3    H112281   5.334   3.210   0.687
 4112TIP3    H212282   5.468   3.145   0.661
 4113TIP3   OH212283   4.671   6.825   3.166
 4113TIP3    H112284   4.759   6.795   3.192
 4113TIP3    H212285   4.626   6.745   3.139
 4114TIP3   OH212286   7.459   3.378   6.630
 4114TIP3    H112287   7.478   3.328   6.551
 4114TIP3    H212288   7.386   3.331   6.671
 4115TIP3   OH212289   7.867   6.552   6.353
 4115TIP3    H112290   7.843   6.494   6.280
 4115TIP3    H212291   7.956   6.525   6.377
 4116TIP3   OH212292   7.732   1.197   0.777
 4116TIP3    H112293   7.658   1.240   0.819
 4116TIP3    H212294   7.805   1.259   0.787
 4117TIP3   OH212295   7.894   4.348   4.079
 4117TIP3    H112296   7.973   4.389   4.045
 4117TIP3    H212297   7.907   4.254   4.066
 4118TIP3   OH212298   7.720   5.446   6.441
 4118TIP3    H112299   7.754   5.512   6.503
 4118TIP3    H212300   7.701   5.370   6.496
 4119TIP3   OH212301   3.844   5.347   4.159
 4119TIP3    H112302   3.785   5.357   4.084
 4119TIP3    H212303   3.906   5.420   4.151
 4120TIP3   OH212304   2.577   4.375   0.703
 4120TIP3    H112305   2.607   4.379   0.613
 4120TIP3    H212306   2.657   4.376   0.755
 4121TIP3   OH212307   1.939   0.161   6.094
 4121TIP3    H112308   2.024   0.133   6.060
 4121TIP3    H212309   1.942   0.140   6.187
 4122TIP3   OH212310   5.983   0.138   3.008
 4122TIP3    H112311   6.031   0.064   3.047
 4122TIP3    H212312   6.046   0.210   3.010
 4123TIP3   OH212313   0.174   1.599   0.277
 4123TIP3    H112314   0.252   1.652   0.290
 4123TIP3    H212315   0.129   1.601   0.361
 4124TIP3   OH212316   3.887   0.290   2.261
 4124TIP3    H112317   3.794   0.284   2.238
 4124TIP3    H212318   3.919   0.365   2.210
 4125TIP3   OH212319   6.863   5.395   5.332
 4125TIP3    H112320   6.883   5.451   5.407
 4125TIP3    H212321   6.860   5.455   5.257
 4126TIP3   OH212322   6.827   7.863   1.633
 4126TIP3    H112323   6.848   7.793   1.572
 4126TIP3    H212324   6.794   7.818   1.711
 4127TIP3   OH212325   7.563   4.717   6.425
 4127TIP3    H112326   7.577   4.807   6.453
 4127TIP3    H212327   7.469   4.710   6.412
 4128TIP3   OH212328   5.101   6.327   1.391
 4128TIP3    H112329   5.107   6.420   1.368
 4128TIP3    H212330   5.083   6.283   1.308
 4129TIP3   OH212331   5.686   2.708   4.316
 4129TIP3    H112332   5.673   2.668   4.402
 4129TIP3    H212333   5.691   2.802   4.334
 4130TIP3   OH212334   0.603   0.217   3.192
 4130TIP3    H112335   0.687   0.203   3.236
 4130TIP3    H212336   0.625   0.266   3.113
 4131TIP3   OH212337   0.125   3.671   1.197
 4131TIP3    H112338   0.098   3.678   1.105
 4131TIP3    H212339   0.115   3.760   1.231
 4132TIP3   OH212340   0.388   0.128   1.714
 4132TIP3    H112341   0.436   0.067   1.769
 4132TIP3    H212342   0.451   0.154   1.646
 4133TIP3   OH212343   5.595   3.110   3.229
 4133TIP3    H112344   5.668   3.150   3.276
 4133TIP3    H212345   5.552   3.054   3.294
 4134TIP3   OH212346   4.613   7.761   2.009
 4134TIP3    H112347   4.677   7.709   2.059
 4134TIP3    H212348   4.636   7.745   1.918
 4135TIP3   OH212349   4.126   0.696   3.979
 4135TIP3    H112350   4.054   0.759   3.977
 4135TIP3    H212351   4.146   0.685   4.072
 4136TIP3   OH212352   2.633   4.765   2.164
 4136TIP3    H112353   2.718   4.720   2.167
 4136TIP3    H212354   2.579   4.711   2.106
 4137TIP3   OH212355   5.605   0.267   6.739
 4137TIP3    H112356   5.590   0.312   6.822
 4137TIP3    H212357   5.601   0.336   6.673
 4138TIP3   OH212358   7.370   1.695   1.036
 4138TIP3    H112359   7.283   1.733   1.020
 4138TIP3    H212360   7.418   1.764   1.081
 4139TIP3   OH212361   3.852   4.275   4.297
 4139TIP3    H112362   3.769   4.227   4.300
 4139TIP3    H212363   3.826   4.367   4.305
 4140TIP3   OH212364   5.230   4.412   3.112
 4140TIP3    H112365   5.305   4.373   3.157
 4140TIP3    H212366   5.237   4.379   3.022
 4141TIP3   OH212367   3.426   7.427   0.494
 4141TIP3    H112368   3.498   7.364   0.503
 4141TIP3    H212369   3.364   7.402   0.563
 4142TIP3   OH212370   7.754   1.582   2.814
 4142TIP3    H112371   7.665   1.553   2.830
 4142TIP3    H212372   7.763   1.663   2.864
 4143TIP3   OH212373   5.633   7.290   0.207
 4143TIP3    H112374   5.727   7.288   0.195
 4143TIP3    H212375   5.608   7.381   0.194
 4144TIP3   OH212376   3.921   0.233   5.621
 4144TIP3    H112377   3.896   0.321   5.592
 4144TIP3    H212378   3.951   0.246   5.711
 4145TIP3   OH212379   2.763   0.933   4.925
 4145TIP3    H112380   2.769   0.988   5.002
 4145TIP3    H212381   2.672   0.904   4.922
 4146TIP3   OH212382   3.426   1.288   1.778
 4146TIP3    H112383   3.497   1.277   1.841
 4146TIP3    H212384   3.454   1.238   1.701
 4147TIP3   OH212385   5.930   4.971   6.195
 4147TIP3    H112386   5.880   5.000   6.271
 4147TIP3    H212387   5.958   5.053   6.153
 4148TIP3   OH212388   4.388   7.177   1.708
 4148TIP3    H112389   4.455   7.157   1.774
 4148TIP3    H212390   4.363   7.092   1.673
 4149TIP3   OH212391   3.426   2.566   1.100
 4149TIP3    H112392   3.501   2.572   1.160
 4149TIP3    H212393   3.351   2.549   1.157
 4150TIP3   OH212394   8.161   4.374   0.584
 4150TIP3    H112395   8.104   4.420   0.645
 4150TIP3    H212396   8.223   4.327   0.640
 4151TIP3   OH212397   6.986   4.215   2.144
 4151TIP3    H112398   6.965   4.273   2.217
 4151TIP3    H212399   6.937   4.250   2.070
 4152TIP3   OH212400   3.852   1.514   2.751
 4152TIP3    H112401   3.872   1.551   2.837
 4152TIP3    H212402   3.903   1.433   2.747
 4153TIP3   OH212403   0.364   5.088   6.053
 4153TIP3    H112404   0.413   5.165   6.082
 4153TIP3    H212405   0.386   5.021   6.117
 4154TIP3   OH212406   3.611   6.795   6.703
 4154TIP3    H112407   3.527   6.750   6.702
 4154TIP3    H212408   3.616   6.841   6.619
 4155TIP3   OH212409   7.937   3.091   1.637
 4155TIP3    H112410   8.022   3.115   1.601
 4155TIP3    H212411   7.897   3.037   1.568
 4156TIP3   OH212412   0.800   7.275   0.970
 4156TIP3    H112413   0.711   7.306   0.954
 4156TIP3    H212414   0.856   7.350   0.949
 4157TIP3   OH212415   1.568   4.216   1.956
 4157TIP3    H112416   1.616   4.289   1.994
 4157TIP3    H212417   1.595   4.140   2.008
 4158TIP3   OH212418   6.968   7.302   2.279
 4158TIP3    H112419   7.028   7.231   2.301
 4158TIP3    H212420   6.924   7.323   2.362
 4159TIP3   OH212421   2.665   6.150   0.818
 4159TIP3    H112422   2.578   6.138   0.857
 4159TIP3    H212423   2.700   6.228   0.861
 4160TIP3   OH212424   6.404   3.051   4.262
 4160TIP3    H112425   6.309   3.047   4.274
 4160TIP3    H212426   6.416   3.064   4.168
 4161TIP3   OH212427   7.281   2.042   1.130
 4161TIP3    H112428   7.243   2.027   1.217
 4161TIP3    H212429   7.268   2.135   1.114
 4162TIP3   OH212430   5.520   0.462   3.828
 4162TIP3    H112431   5.537   0.381   3.779
 4162TIP3    H212432   5.450   0.438   3.889
 4163TIP3   OH212433   4.373   4.427   5.863
 4163TIP3    H112434   4.281   4.416   5.886
 4163TIP3    H212435   4.420   4.386   5.935
 4164TIP3   OH212436   1.022   2.551   2.582
 4164TIP3    H112437   0.974   2.610   2.523
 4164TIP3    H212438   0.953   2.500   2.626
 4165TIP3   OH212439   2.272   2.596   3.615
 4165TIP3    H112440   2.340   2.544   3.573
 4165TIP3    H212441   2.304   2.686   3.610
 4166TIP3   OH212442   7.882   3.896   1.428
 4166TIP3    H112443   7.859   3.940   1.346
 4166TIP3    H212444   7.972   3.923   1.445
 4167TIP3   OH212445   4.589   5.729   2.241
 4167TIP3    H112446   4.530   5.771   2.179
 4167TIP3    H212447   4.592   5.638   2.214
 4168TIP3   OH212448   1.238   2.756   3.727
 4168TIP3    H112449   1.231   2.702   3.805
 4168TIP3    H212450   1.163   2.815   3.732
 4169TIP3   OH212451   0.610   6.836   0.479
 4169TIP3    H112452   0.617   6.741   0.469
 4169TIP3    H212453   0.576   6.866   0.395
 4170TIP3   OH212454   3.139   4.977   1.153
 4170TIP3    H112455   3.079   4.940   1.088
 4170TIP3    H212456   3.222   4.932   1.139
 4171TIP3   OH212457   7.238   4.364   5.703
 4171TIP3    H112458   7.263   4.286   5.752
 4171TIP3    H212459   7.185   4.415   5.763
 4172TIP3   OH212460   2.614   2.332   2.373
 4172TIP3    H112461   2.520   2.340   2.357
 4172TIP3    H212462   2.623   2.329   2.468
 4173TIP3   OH212463   1.119   5.722   3.814
 4173TIP3    H112464   1.163   5.689   3.892
 4173TIP3    H212465   1.062   5.650   3.786
 4174TIP3   OH212466   4.870   3.208   6.669
 4174TIP3    H112467   4.907   3.134   6.620
 4174TIP3    H212468   4.775   3.199   6.658
 4175TIP3   OH212469   4.276   2.634   2.277
 4175TIP3    H112470   4.279   2.625   2.182
 4175TIP3    H212471   4.307   2.723   2.293
 4176TIP3   OH212472   0.261   1.299   4.238
 4176TIP3    H112473   0.245   1.393   4.230
 4176TIP3    H212474   0.228   1.276   4.324
 4177TIP3   OH212475   6.767   2.652   5.316
 4177TIP3    H112476   6.750   2.570   5.269
 4177TIP3    H212477   6.776   2.718   5.247
 4178TIP3   OH212478   1.724   5.776   1.065
 4178TIP3    H112479   1.726   5.696   1.118
 4178TIP3    H212480   1.759   5.749   0.980
 4179TIP3   OH212481   4.745   3.035   5.917
 4179TIP3    H112482   4.660   2.991   5.914
 4179TIP3    H212483   4.791   2.992   5.989
 4180TIP3   OH212484   5.614   6.720   3.042
 4180TIP3    H112485   5.543   6.667   3.005
 4180TIP3    H212486   5.571   6.769   3.113
 4181TIP3   OH212487   4.519   4.339   1.422
 4181TIP3    H112488   4.539   4.430   1.403
 4181TIP3    H212489   4.600   4.304   1.460
 4182TIP3   OH212490   2.284   2.537   5.983
 4182TIP3    H112491   2.345   2.559   6.054
 4182TIP3    H212492   2.327   2.569   5.903
 4183TIP3   OH212493   1.882   4.775   3.249
 4183TIP3    H112494   1.958   4.741   3.297
 4183TIP3    H212495   1.812   4.777   3.314
 4184TIP3   OH212496   8.166   3.967  -0.006
 4184TIP3    H112497   8.112   4.015   0.056
 4184TIP3    H212498   8.238   4.026  -0.026
 4185TIP3   OH212499   2.973   2.076   3.320
 4185TIP3    H112500   2.980   1.992   3.366
 4185TIP3    H212501   2.928   2.134   3.381
 4186TIP3   OH212502   3.838   2.428   6.359
 4186TIP3    H112503   3.748   2.397   6.373
 4186TIP3    H212504   3.875   2.434   6.447
 4187TIP3   OH212505   1.525   2.039   4.720
 4187TIP3    H112506   1.548   2.057   4.811
 4187TIP3    H212507   1.603   2.064   4.670
 4188TIP3   OH212508   4.156   4.866   4.909
 4188TIP3    H112509   4.084   4.904   4.960
 4188TIP3    H212510   4.198   4.804   4.969
 4189TIP3   OH212511   5.639   5.928   5.236
 4189TIP3    H112512   5.732   5.935   5.215
 4189TIP3    H212513   5.637   5.887   5.322
 4190TIP3   OH212514   5.862   4.289   5.087
 4190TIP3    H112515   5.915   4.350   5.035
 4190TIP3    H212516   5.905   4.204   5.077
 4191TIP3   OH212517   4.741   4.176   2.381
 4191TIP3    H112518   4.745   4.154   2.288
 4191TIP3    H212519   4.772   4.097   2.425
 4192TIP3   OH212520   6.554   0.378   1.364
 4192TIP3    H112521   6.546   0.465   1.401
 4192TIP3    H212522   6.465   0.355   1.336
 4193TIP3   OH212523   6.760   2.693   1.228
 4193TIP3    H112524   6.845   2.665   1.196
 4193TIP3    H212525   6.714   2.612   1.248
 4194TIP3   OH212526   4.555   6.481   1.011
 4194TIP3    H112527   4.470   6.439   1.005
 4194TIP3    H212528   4.602   6.429   1.076
 4195TIP3   OH212529   4.021   7.179   0.669
 4195TIP3    H112530   3.933   7.201   0.699
 4195TIP3    H212531   4.012   7.165   0.575
 4196TIP3   OH212532   0.891   6.344   5.136
 4196TIP3    H112533   0.896   6.438   5.155
 4196TIP3    H212534   0.810   6.335   5.086
 4197TIP3   OH212535   3.329   5.672   3.962
 4197TIP3    H112536   3.252   5.653   4.015
 4197TIP3    H212537   3.399   5.687   4.026
 4198TIP3   OH212538   4.429   7.222   1.021
 4198TIP3    H112539   4.359   7.243   0.960
 4198TIP3    H212540   4.467   7.141   0.988
 4199TIP3   OH212541   6.793   2.975   1.870
 4199TIP3    H112542   6.872   2.921   1.869
 4199TIP3    H212543   6.744   2.945   1.947
 4200TIP3   OH212544   7.472   6.392   5.168
 4200TIP3    H112545   7.396   6.438   5.132
 4200TIP3    H212546   7.517   6.356   5.092
 4201TIP3   OH212547   5.357   4.682   4.747
 4201TIP3    H112548   5.401   4.640   4.673
 4201TIP3    H212549   5.397   4.769   4.752
 4202TIP3   OH212550   4.879   3.660   3.130
 4202TIP3    H112551   4.787   3.646   3.153
 4202TIP3    H212552   4.925   3.659   3.214
 4203TIP3   OH212553   3.055   2.514   5.335
 4203TIP3    H112554   3.052   2.458   5.413
 4203TIP3    H212555   3.129   2.481   5.284
 4204TIP3   OH212556   1.730   3.641   0.986
 4204TIP3    H112557   1.820   3.636   1.019
 4204TIP3    H212558   1.715   3.556   0.945
 4205TIP3   OH212559   4.281   6.687   2.395
 4205TIP3    H112560   4.259   6.624   2.463
 4205TIP3    H212561   4.265   6.641   2.313
 4206TIP3   OH212562   6.979   2.587   5.514
 4206TIP3    H112563   6.922   2.613   5.442
 4206TIP3    H212564   6.984   2.665   5.570
 4207TIP3   OH212565   6.645   6.156   2.312
 4207TIP3    H112566   6.640   6.233   2.369
 4207TIP3    H212567   6.736   6.126   2.320
 4208TIP3   OH212568   7.124   0.170   6.281
 4208TIP3    H112569   7.182   0.106   6.324
 4208TIP3    H212570   7.103   0.131   6.197
 4209TIP3   OH212571   7.224   6.478   6.502
 4209TIP3    H112572   7.260   6.426   6.573
 4209TIP3    H212573   7.162   6.419   6.458
 4210TIP3   OH212574   5.007   3.336   1.970
 4210TIP3    H112575   5.074   3.383   1.919
 4210TIP3    H212576   5.037   3.345   2.060
 4211TIP3   OH212577   3.045   5.589   1.814
 4211TIP3    H112578   3.134   5.624   1.826
 4211TIP3    H212579   3.013   5.574   1.903
 4212TIP3   OH212580   2.512   6.813   0.835
 4212TIP3    H112581   2.604   6.817   0.860
 4212TIP3    H212582   2.468   6.780   0.914
 4213TIP3   OH212583   4.233   6.829   5.850
 4213TIP3    H112584   4.200   6.872   5.929
 4213TIP3    H212585   4.301   6.769   5.882
 4214TIP3   OH212586   4.182   4.200   5.410
 4214TIP3    H112587   4.250   4.193   5.343
 4214TIP3    H212588   4.213   4.270   5.469
 4215TIP3   OH212589   1.313   1.252   5.423
 4215TIP3    H112590   1.269   1.298   5.495
 4215TIP3    H212591   1.374   1.317   5.387
 4216TIP3   OH212592   5.014   0.911   1.327
 4216TIP3    H112593   5.093   0.933   1.278
 4216TIP3    H212594   5.043   0.907   1.418
 4217TIP3   OH212595   0.688   1.435   0.239
 4217TIP3    H112596   0.753   1.439   0.309
 4217TIP3    H212597   0.625   1.368   0.268
 4218TIP3   OH212598   0.804   0.356   3.419
 4218TIP3    H112599   0.801   0.426   3.354
 4218TIP3    H212600   0.722   0.365   3.467
 4219TIP3   OH212601   2.906   0.803   5.189
 4219TIP3    H112602   2.956   0.859   5.129
 4219TIP3    H212603   2.828   0.854   5.211
 4220TIP3   OH212604   1.045   6.877   6.419
 4220TIP3    H112605   1.095   6.955   6.395
 4220TIP3    H212606   1.107   6.821   6.465
 4221TIP3   OH212607   4.488   1.335   0.225
 4221TIP3    H112608   4.565   1.357   0.172
 4221TIP3    H212609   4.522   1.321   0.313
 4222TIP3   OH212610   0.806   1.396   4.990
 4222TIP3    H112611   0.768   1.338   4.924
 4222TIP3    H212612   0.805   1.344   5.071
 4223TIP3   OH212613   1.353   3.258   0.788
 4223TIP3    H112614   1.401   3.275   0.869
 4223TIP3    H212615   1.316   3.343   0.764
 4224TIP3   OH212616   6.743   1.468   6.706
 4224TIP3    H112617   6.715   1.548   6.663
 4224TIP3    H212618   6.819   1.494   6.758
 4225TIP3   OH212619   3.776   4.439   6.675
 4225TIP3    H112620   3.799   4.444   6.583
 4225TIP3    H212621   3.712   4.509   6.688
 4226TIP3   OH212622   6.928   4.080   5.123
 4226TIP3    H112623   6.858   4.136   5.087
 4226TIP3    H212624   6.982   4.058   5.047
 4227TIP3   OH212625   5.635   6.282   5.271
 4227TIP3    H112626   5.587   6.234   5.204
 4227TIP3    H212627   5.726   6.255   5.260
 4228TIP3   OH212628   7.106   0.889   4.612
 4228TIP3    H112629   7.032   0.830   4.620
 4228TIP3    H212630   7.085   0.943   4.536
 4229TIP3   OH212631   3.869   6.636   2.032
 4229TIP3    H112632   3.782   6.658   2.066
 4229TIP3    H212633   3.913   6.720   2.024
 4230TIP3   OH212634   3.122   6.487   4.828
 4230TIP3    H112635   3.055   6.435   4.872
 4230TIP3    H212636   3.204   6.440   4.846
 4231TIP3   OH212637   6.776   0.089   4.390
 4231TIP3    H112638   6.816   0.119   4.471
 4231TIP3    H212639   6.752   0.169   4.344
 4232TIP3   OH212640   7.061   4.099   0.244
 4232TIP3    H112641   6.986   4.153   0.219
 4232TIP3    H212642   7.064   4.030   0.177
 4233TIP3   OH212643   1.376   7.170   1.044
 4233TIP3    H112644   1.427   7.226   0.986
 4233TIP3    H212645   1.403   7.195   1.132
 4234TIP3   OH212646   4.370   0.623   1.139
 4234TIP3    H112647   4.301   0.684   1.110
 4234TIP3    H212648   4.336   0.586   1.221
 4235TIP3   OH212649   7.572   1.676   1.997
 4235TIP3    H112650   7.628   1.733   1.946
 4235TIP3    H212651   7.501   1.732   2.028
 4236TIP3   OH212652   1.590   2.789   4.148
 4236TIP3    H112653   1.602   2.865   4.092
 4236TIP3    H212654   1.678   2.752   4.157
 4237TIP3   OH212655   5.816   3.605   5.785
 4237TIP3    H112656   5.834   3.612   5.691
 4237TIP3    H212657   5.874   3.669   5.826
 4238TIP3   OH212658   4.559   6.942   5.858
 4238TIP3    H112659   4.483   6.998   5.841
 4238TIP3    H212660   4.622   7.000   5.902
 4239TIP3   OH212661   3.331   3.621   4.732
 4239TIP3    H112662   3.289   3.543   4.769
 4239TIP3    H212663   3.267   3.654   4.669
 4240TIP3   OH212664   6.010   4.616   2.516
 4240TIP3    H112665   6.072   4.623   2.444
 4240TIP3    H212666   5.934   4.667   2.487
 4241TIP3   OH212667   2.996   1.190   1.100
 4241TIP3    H112668   3.086   1.185   1.067
 4241TIP3    H212669   2.970   1.281   1.085
 4242TIP3   OH212670   4.728   2.879   3.747
 4242TIP3    H112671   4.783   2.913   3.677
 4242TIP3    H212672   4.775   2.802   3.780
 4243TIP3   OH212673   0.779   2.916   2.555
 4243TIP3    H112674   0.733   2.835   2.578
 4243TIP3    H212675   0.774   2.921   2.460
 4244TIP3   OH212676   5.161   7.391   2.110
 4244TIP3    H112677   5.171   7.306   2.068
 4244TIP3    H212678   5.235   7.443   2.077
 4245TIP3   OH212679   6.724   6.332   5.008
 4245TIP3    H112680   6.814   6.356   5.027
 4245TIP3    H212681   6.693   6.399   4.947
 4246TIP3   OH212682   1.287   2.152   3.690
 4246TIP3    H112683   1.255   2.237   3.660
 4246TIP3    H212684   1.214   2.092   3.673
 4247TIP3   OH212685   0.896   0.514   0.203
 4247TIP3    H112686   0.922   0.448   0.138
 4247TIP3    H212687   0.884   0.464   0.284
 4248TIP3   OH212688   4.545   3.038   5.643
 4248TIP3    H112689   4.629   3.008   5.676
 4248TIP3    H212690   4.481   3.007   5.707
 4249TIP3   OH212691   2.406   2.033   4.708
 4249TIP3    H112692   2.362   1.995   4.632
 4249TIP3    H212693   2.385   2.127   4.703
 4250TIP3   OH212694   1.444   4.605   6.087
 4250TIP3    H112695   1.414   4.695   6.097
 4250TIP3    H212696   1.505   4.607   6.014
 4251TIP3   OH212697   4.763   0.734   2.806
 4251TIP3    H112698   4.734   0.658   2.856
 4251TIP3    H212699   4.772   0.702   2.716
 4252TIP3   OH212700   7.168   4.309   1.367
 4252TIP3    H112701   7.145   4.260   1.445
 4252TIP3    H212702   7.185   4.398   1.398
 4253TIP3   OH212703   5.907   5.442   2.338
 4253TIP3    H112704   5.958   5.418   2.261
 4253TIP3    H212705   5.880   5.532   2.322
 4254TIP3   OH212706   1.566   2.069   5.001
 4254TIP3    H112707   1.571   2.141   5.065
 4254TIP3    H212708   1.649   2.023   5.010
 4255TIP3   OH212709   5.726   7.124   5.965
 4255TIP3    H112710   5.713   7.189   6.034
 4255TIP3    H212711   5.819   7.132   5.942
 4256TIP3   OH212712   2.889   7.815   5.215
 4256TIP3    H112713   2.834   7.744   5.247
 4256TIP3    H212714   2.868   7.821   5.121
 4257TIP3   OH212715   2.660   2.177   5.903
 4257TIP3    H112716   2.628   2.263   5.878
 4257TIP3    H212717   2.584   2.132   5.940
 4258TIP3   OH212718   5.554   4.033   6.017
 4258TIP3    H112719   5.548   3.943   6.048
 4258TIP3    H212720   5.622   4.031   5.950
 4259TIP3   OH212721   7.996   6.438   3.544
 4259TIP3    H112722   8.034   6.395   3.621
 4259TIP3    H212723   7.914   6.392   3.529
 4260TIP3   OH212724   7.709   1.577   0.675
 4260TIP3    H112725   7.670   1.491   0.658
 4260TIP3    H212726   7.639   1.627   0.718
 4261TIP3   OH212727   4.259   5.766   3.031
 4261TIP3    H112728   4.335   5.728   2.986
 4261TIP3    H212729   4.242   5.706   3.104
 4262TIP3   OH212730   1.877   3.597   3.322
 4262TIP3    H112731   1.929   3.619   3.245
 4262TIP3    H212732   1.940   3.598   3.394
 4263TIP3   OH212733   6.530   7.746   4.437
 4263TIP3    H112734   6.489   7.695   4.506
 4263TIP3    H212735   6.595   7.688   4.398
 4264TIP3   OH212736   2.615   6.536   1.591
 4264TIP3    H112737   2.666   6.516   1.513
 4264TIP3    H212738   2.525   6.514   1.568
 4265TIP3   OH212739   2.721   7.724   0.392
 4265TIP3    H112740   2.655   7.693   0.331
 4265TIP3    H212741   2.739   7.650   0.449
 4266TIP3   OH212742   0.624   5.013   6.615
 4266TIP3    H112743   0.553   5.015   6.550
 4266TIP3    H212744   0.687   4.949   6.580
 4267TIP3   OH212745   8.050   0.550   2.308
 4267TIP3    H112746   8.028   0.591   2.392
 4267TIP3    H212747   8.071   0.460   2.330
 4268TIP3   OH212748   2.989   2.591   2.052
 4268TIP3    H112749   2.952   2.585   2.140
 4268TIP3    H212750   3.051   2.518   2.047
 4269TIP3   OH212751   1.184   4.234   5.362
 4269TIP3    H112752   1.266   4.214   5.407
 4269TIP3    H212753   1.159   4.152   5.320
 4270TIP3   OH212754   1.939   1.989   6.324
 4270TIP3    H112755   2.035   1.989   6.324
 4270TIP3    H212756   1.915   2.052   6.257
 4271TIP3   OH212757   0.257   2.155   3.369
 4271TIP3    H112758   0.294   2.099   3.300
 4271TIP3    H212759   0.247   2.096   3.444
 4272TIP3   OH212760   3.292   3.608   0.460
 4272TIP3    H112761   3.321   3.549   0.391
 4272TIP3    H212762   3.312   3.562   0.542
 4273TIP3   OH212763   7.678   4.185   6.639
 4273TIP3    H112764   7.767   4.216   6.620
 4273TIP3    H212765   7.639   4.171   6.553
 4274TIP3   OH212766   2.801   4.198   1.140
 4274TIP3    H112767   2.833   4.121   1.188
 4274TIP3    H212768   2.861   4.207   1.066
 4275TIP3   OH212769   3.214   3.747   4.154
 4275TIP3    H112770   3.277   3.705   4.096
 4275TIP3    H212771   3.222   3.841   4.134
 4276TIP3   OH212772   0.815   1.346   0.479
 4276TIP3    H112773   0.837   1.330   0.570
 4276TIP3    H212774   0.727   1.382   0.481
 4277TIP3   OH212775   2.536   0.040   5.024
 4277TIP3    H112776   2.522   0.131   4.997
 4277TIP3    H212777   2.625   0.020   4.993
 4278TIP3   OH212778   5.985   0.331   1.470
 4278TIP3    H112779   5.955   0.244   1.443
 4278TIP3    H212780   5.934   0.392   1.417
 4279TIP3   OH212781   3.603   6.344   3.705
 4279TIP3    H112782   3.603   6.359   3.610
 4279TIP3    H212783   3.515   6.370   3.733
 4280TIP3   OH212784   2.719   4.031   3.657
 4280TIP3    H112785   2.785   4.096   3.637
 4280TIP3    H212786   2.750   3.951   3.613
 4281TIP3   OH212787   1.564   7.678   1.948
 4281TIP3    H112788   1.592   7.612   1.884
 4281TIP3    H212789   1.557   7.631   2.030
 4282TIP3   OH212790   8.319   4.388   5.720
 4282TIP3    H112791   8.296   4.366   5.811
 4282TIP3    H212792   8.236   4.409   5.679
 4283TIP3   OH212793   4.280   3.809   2.085
 4283TIP3    H112794   4.322   3.728   2.056
 4283TIP3    H212795   4.329   3.878   2.041
 4284TIP3   OH212796   0.496   0.911   1.212
 4284TIP3    H112797   0.476   0.917   1.305
 4284TIP3    H212798   0.503   1.001   1.182
 4285TIP3   OH212799   3.850   5.872   5.925
 4285TIP3    H112800   3.942   5.867   5.898
 4285TIP3    H212801   3.840   5.803   5.991
 4286TIP3   OH212802   4.479   0.875   5.422
 4286TIP3    H112803   4.563   0.900   5.383
 4286TIP3    H212804   4.468   0.783   5.398
 4287TIP3   OH212805   5.857   0.056   6.079
 4287TIP3    H112806   5.906  -0.027   6.087
 4287TIP3    H212807   5.772   0.030   6.043
 4288TIP3   OH212808   6.750   4.975   4.628
 4288TIP3    H112809   6.699   5.037   4.681
 4288TIP3    H212810   6.785   4.913   4.692
 4289TIP3   OH212811   2.849   2.176   0.644
 4289TIP3    H112812   2.784   2.211   0.584
 4289TIP3    H212813   2.887   2.254   0.686
 4290TIP3   OH212814   5.527   3.553   5.125
 4290TIP3    H112815   5.441   3.570   5.086
 4290TIP3    H212816   5.509   3.497   5.200
 4291TIP3   OH212817   6.460   5.466   5.125
 4291TIP3    H112818   6.371   5.430   5.126
 4291TIP3    H212819   6.489   5.460   5.216
 4292TIP3   OH212820   5.463   7.471   5.745
 4292TIP3    H112821   5.467   7.410   5.671
 4292TIP3    H212822   5.396   7.435   5.802
 4293TIP3   OH212823   8.039   2.061   2.634
 4293TIP3    H112824   8.025   2.076   2.728
 4293TIP3    H212825   8.100   1.988   2.630
 4294TIP3   OH212826   4.164   4.883   3.785
 4294TIP3    H112827   4.206   4.884   3.871
 4294TIP3    H212828   4.167   4.974   3.755
 4295TIP3   OH212829   6.587   3.105   5.548
 4295TIP3    H112830   6.589   3.012   5.525
 4295TIP3    H212831   6.678   3.126   5.570
 4296TIP3   OH212832   8.347   3.231   1.849
 4296TIP3    H112833   8.293   3.193   1.918
 4296TIP3    H212834   8.398   3.158   1.815
 4297TIP3   OH212835   3.647   2.885   2.994
 4297TIP3    H112836   3.691   2.807   3.028
 4297TIP3    H212837   3.712   2.955   3.004
 4298TIP3   OH212838   5.831   6.709   3.606
 4298TIP3    H112839   5.764   6.674   3.547
 4298TIP3    H212840   5.794   6.792   3.636
 4299TIP3   OH212841   7.292   1.231   6.191
 4299TIP3    H112842   7.220   1.235   6.253
 4299TIP3    H212843   7.289   1.315   6.145
 4300TIP3   OH212844   4.842   7.707   4.628
 4300TIP3    H112845   4.780   7.687   4.699
 4300TIP3    H212846   4.799   7.672   4.550
 4301TIP3   OH212847   3.189   1.923   2.216
 4301TIP3    H112848   3.181   1.828   2.216
 4301TIP3    H212849   3.282   1.939   2.225
 4302TIP3   OH212850   2.932   4.889   2.012
 4302TIP3    H112851   2.930   4.983   1.994
 4302TIP3    H212852   2.858   4.854   1.962
 4303TIP3   OH212853   4.634   1.897   3.398
 4303TIP3    H112854   4.728   1.907   3.413
 4303TIP3    H212855   4.594   1.966   3.451
 4304TIP3   OH212856   7.161   4.953   0.357
 4304TIP3    H112857   7.250   4.919   0.368
 4304TIP3    H212858   7.112   4.920   0.432
 4305TIP3   OH212859   4.797   4.610   1.020
 4305TIP3    H112860   4.871   4.572   0.973
 4305TIP3    H212861   4.791   4.699   0.985
 4306TIP3   OH212862   4.579   6.047   0.160
 4306TIP3    H112863   4.624   6.033   0.243
 4306TIP3    H212864   4.562   5.959   0.127
 4307TIP3   OH212865   5.370   5.558   1.646
 4307TIP3    H112866   5.319   5.614   1.587
 4307TIP3    H212867   5.396   5.484   1.591
 4308TIP3   OH212868   3.972   6.625   2.329
 4308TIP3    H112869   3.922   6.622   2.247
 4308TIP3    H212870   4.041   6.689   2.313
 4309TIP3   OH212871   4.777   7.075   4.711
 4309TIP3    H112872   4.787   6.980   4.710
 4309TIP3    H212873   4.819   7.104   4.630
 4310TIP3   OH212874   2.393   4.106   5.688
 4310TIP3    H112875   2.434   4.020   5.678
 4310TIP3    H212876   2.454   4.167   5.647
 4311TIP3   OH212877   7.462   0.821   4.154
 4311TIP3    H112878   7.553   0.795   4.142
 4311TIP3    H212879   7.426   0.826   4.065
 4312TIP3   OH212880   5.392   3.286   4.805
 4312TIP3    H112881   5.331   3.359   4.803
 4312TIP3    H212882   5.471   3.319   4.762
 4313TIP3   OH212883   0.975   3.989   4.750
 4313TIP3    H112884   0.987   3.934   4.828
 4313TIP3    H212885   1.005   3.934   4.677
 4314TIP3   OH212886   1.277   6.298   4.577
 4314TIP3    H112887   1.200   6.320   4.629
 4314TIP3    H212888   1.344   6.359   4.607
 4315TIP3   OH212889   4.889   4.964   1.770
 4315TIP3    H112890   4.852   4.890   1.818
 4315TIP3    H212891   4.955   5.001   1.829
 4316TIP3   OH212892   7.812   7.312   3.647
 4316TIP3    H112893   7.804   7.370   3.722
 4316TIP3    H212894   7.894   7.265   3.661
 4317TIP3   OH212895   4.060   7.039   2.629
 4317TIP3    H112896   4.110   7.109   2.588
 4317TIP3    H212897   4.123   6.968   2.642
 4318TIP3   OH212898   4.000   1.295   5.459
 4318TIP3    H112899   4.025   1.217   5.410
 4318TIP3    H212900   4.079   1.349   5.461
 4319TIP3   OH212901   1.835   2.591   2.228
 4319TIP3    H112902   1.825   2.685   2.241
 4319TIP3    H212903   1.857   2.557   2.315
 4320TIP3   OH212904   4.187   7.478   3.565
 4320TIP3    H112905   4.169   7.572   3.568
 4320TIP3    H212906   4.141   7.443   3.641
 4321TIP3   OH212907   2.903   0.910   6.673
 4321TIP3    H112908   2.853   0.862   6.607
 4321TIP3    H212909   2.921   0.845   6.741
 4322TIP3   OH212910   2.910   0.382   3.511
 4322TIP3    H112911   2.931   0.321   3.441
 4322TIP3    H212912   2.863   0.329   3.576
 4323TIP3   OH212913   5.632   5.921   0.260
 4323TIP3    H112914   5.570   5.868   0.309
 4323TIP3    H212915   5.702   5.860   0.237
 4324TIP3   OH212916   3.047   0.371   5.778
 4324TIP3    H112917   3.102   0.367   5.700
 4324TIP3    H212918   3.051   0.282   5.814
 4325TIP3   OH212919   5.989   6.305   6.425
 4325TIP3    H112920   6.019   6.322   6.515
 4325TIP3    H212921   6.020   6.382   6.376
 4326TIP3   OH212922   2.921   3.391   6.109
 4326TIP3    H112923   2.966   3.310   6.083
 4326TIP3    H212924   2.923   3.391   6.204
 4327TIP3   OH212925   1.120   4.332   1.873
 4327TIP3    H112926   1.201   4.282   1.866
 4327TIP3    H212927   1.144   4.420   1.842
 4328TIP3   OH212928   3.827   5.860   4.926
 4328TIP3    H112929   3.901   5.879   4.868
 4328TIP3    H212930   3.791   5.778   4.893
 4329TIP3   OH212931   4.560   6.120   2.806
 4329TIP3    H112932   4.559   6.120   2.710
 4329TIP3    H212933   4.652   6.105   2.829
 4330TIP3   OH212934   4.422   7.355   3.589
 4330TIP3    H112935   4.336   7.391   3.570
 4330TIP3    H212936   4.475   7.431   3.613
 4331TIP3   OH212937   0.592   6.665   1.275
 4331TIP3    H112938   0.655   6.611   1.322
 4331TIP3    H212939   0.607   6.644   1.183
 4332TIP3   OH212940   1.533   1.710   4.917
 4332TIP3    H112941   1.451   1.690   4.963
 4332TIP3    H212942   1.505   1.739   4.830
 4333TIP3   OH212943   2.995   5.301   3.751
 4333TIP3    H112944   2.933   5.284   3.680
 4333TIP3    H212945   2.980   5.392   3.775
 4334TIP3   OH212946   3.935   1.129   6.534
 4334TIP3    H112947   3.941   1.185   6.456
 4334TIP3    H212948   3.926   1.190   6.607
 4335TIP3   OH212949   4.065   6.576   6.611
 4335TIP3    H112950   4.135   6.640   6.613
 4335TIP3    H212951   4.038   6.566   6.702
 4336TIP3   OH212952   0.096   3.926   4.634
 4336TIP3    H112953   0.095   3.973   4.718
 4336TIP3    H212954   0.009   3.887   4.629
 4337TIP3   OH212955   4.165   1.396   5.940
 4337TIP3    H112956   4.118   1.354   6.012
 4337TIP3    H212957   4.147   1.489   5.951
 4338TIP3   OH212958   0.670   6.174   3.323
 4338TIP3    H112959   0.667   6.124   3.241
 4338TIP3    H212960   0.578   6.193   3.342
 4339TIP3   OH212961   0.920   4.002   3.139
 4339TIP3    H112962   0.846   4.060   3.120
 4339TIP3    H212963   0.993   4.062   3.154
 4340TIP3   OH212964   2.774   5.455   4.778
 4340TIP3    H112965   2.754   5.485   4.689
 4340TIP3    H212966   2.795   5.362   4.768
 4341TIP3   OH212967   4.152   3.947   4.769
 4341TIP3    H112968   4.167   4.040   4.750
 4341TIP3    H212969   4.166   3.939   4.863
 4342TIP3   OH212970   3.800   1.768   5.245
 4342TIP3    H112971   3.735   1.725   5.188
 4342TIP3    H212972   3.837   1.697   5.297
 4343TIP3   OH212973   1.121   4.766   3.817
 4343TIP3    H112974   1.183   4.786   3.887
 4343TIP3    H212975   1.117   4.670   3.817
 4344TIP3   OH212976   7.240   1.923   3.606
 4344TIP3    H112977   7.168   1.899   3.548
 4344TIP3    H212978   7.197   1.960   3.683
 4345TIP3   OH212979   7.906   5.924   1.859
 4345TIP3    H112980   7.966   5.958   1.924
 4345TIP3    H212981   7.859   6.001   1.827
 4346TIP3   OH212982   5.321   5.771   3.025
 4346TIP3    H112983   5.293   5.827   2.952
 4346TIP3    H212984   5.336   5.831   3.097
 4347TIP3   OH212985   1.137   2.423   6.345
 4347TIP3    H112986   1.155   2.364   6.419
 4347TIP3    H212987   1.086   2.369   6.284
 4348TIP3   OH212988   6.558   5.325   1.128
 4348TIP3    H112989   6.647   5.352   1.152
 4348TIP3    H212990   6.531   5.266   1.199
 4349TIP3   OH212991   4.601   4.117   5.835
 4349TIP3    H112992   4.681   4.161   5.806
 4349TIP3    H212993   4.536   4.138   5.768
 4350TIP3   OH212994   4.767   7.671   1.575
 4350TIP3    H112995   4.714   7.593   1.585
 4350TIP3    H212996   4.777   7.705   1.664
 4351TIP3   OH212997   6.515   3.330   3.310
 4351TIP3    H112998   6.456   3.263   3.275
 4351TIP3    H212999   6.516   3.398   3.242
 4352TIP3   OH213000   4.308   0.420   2.909
 4352TIP3    H113001   4.309   0.502   2.958
 4352TIP3    H213002   4.289   0.445   2.819
 4353TIP3   OH213003   7.312   5.610   3.459
 4353TIP3    H113004   7.372   5.684   3.459
 4353TIP3    H213005   7.285   5.600   3.551
 4354TIP3   OH213006   7.273   1.267   4.756
 4354TIP3    H113007   7.250   1.197   4.816
 4354TIP3    H213008   7.256   1.231   4.669
 4355TIP3   OH213009   6.747   7.469   6.234
 4355TIP3    H113010   6.711   7.524   6.303
 4355TIP3    H213011   6.808   7.526   6.187
 4356TIP3   OH213012   4.416   0.605   5.932
 4356TIP3    H113013   4.392   0.694   5.960
 4356TIP3    H213014   4.510   0.610   5.915
 4357TIP3   OH213015   3.942   6.344   0.757
 4357TIP3    H113016   3.917   6.307   0.842
 4357TIP3    H213017   4.003   6.281   0.720
 4358TIP3   OH213018   8.144   5.127   2.939
 4358TIP3    H113019   8.186   5.210   2.960
 4358TIP3    H213020   8.197   5.061   2.985
 4359TIP3   OH213021   4.095   6.155   0.510
 4359TIP3    H113022   4.105   6.125   0.601
 4359TIP3    H213023   4.103   6.250   0.516
 4360TIP3   OH213024   7.687   4.378   1.080
 4360TIP3    H113025   7.690   4.473   1.069
 4360TIP3    H213026   7.733   4.343   1.004
 4361TIP3   OH213027   1.261   6.300   3.551
 4361TIP3    H113028   1.318   6.224   3.540
 4361TIP3    H213029   1.313   6.363   3.599
 4362TIP3   OH213030   5.557   0.233   5.059
 4362TIP3    H113031   5.571   0.302   5.124
 4362TIP3    H213032   5.633   0.238   5.002
 4363TIP3   OH213033   5.195   3.137   0.761
 4363TIP3    H113034   5.111   3.165   0.796
 4363TIP3    H213035   5.210   3.051   0.801
 4364TIP3   OH213036   8.291   4.878   2.968
 4364TIP3    H113037   8.247   4.831   2.897
 4364TIP3    H213038   8.299   4.813   3.038
 4365TIP3   OH213039   3.978   7.322   1.733
 4365TIP3    H113040   4.070   7.347   1.747
 4365TIP3    H213041   3.928   7.397   1.764
 4366TIP3   OH213042   6.096   0.651   0.046
 4366TIP3    H113043   6.061   0.738   0.032
 4366TIP3    H213044   6.019   0.595   0.056
 4367TIP3   OH213045   7.395   5.889   3.104
 4367TIP3    H113046   7.404   5.800   3.138
 4367TIP3    H213047   7.478   5.931   3.127
 4368TIP3   OH213048   2.051   1.074   2.262
 4368TIP3    H113049   2.024   1.077   2.170
 4368TIP3    H213050   2.118   1.142   2.270
 4369TIP3   OH213051   2.674   0.437   6.422
 4369TIP3    H113052   2.606   0.492   6.462
 4369TIP3    H213053   2.729   0.409   6.495
 4370TIP3   OH213054   6.604   5.334   4.061
 4370TIP3    H113055   6.624   5.304   4.150
 4370TIP3    H213056   6.508   5.337   4.059
 4371TIP3   OH213057   0.132   3.265   2.649
 4371TIP3    H113058   0.094   3.189   2.694
 4371TIP3    H213059   0.137   3.333   2.717
 4372TIP3   OH213060   8.080   7.176   3.800
 4372TIP3    H113061   8.156   7.120   3.817
 4372TIP3    H213062   8.022   7.121   3.746
 4373TIP3   OH213063   7.953   2.833   3.368
 4373TIP3    H113064   7.907   2.916   3.353
 4373TIP3    H213065   7.920   2.775   3.299
 4374TIP3   OH213066   6.048   0.890   1.285
 4374TIP3    H113067   6.135   0.849   1.293
 4374TIP3    H213068   6.058   0.954   1.216
 4375TIP3   OH213069   7.817   1.932   0.407
 4375TIP3    H113070   7.899   1.884   0.419
 4375TIP3    H213071   7.839   2.004   0.349
 4376TIP3   OH213072   2.897   1.892   4.483
 4376TIP3    H113073   2.810   1.895   4.444
 4376TIP3    H213074   2.898   1.810   4.533
 4377TIP3   OH213075   5.091   3.322   0.237
 4377TIP3    H113076   4.997   3.338   0.241
 4377TIP3    H213077   5.109   3.268   0.314
 4378TIP3   OH213078   5.554   0.139   1.666
 4378TIP3    H113079   5.573   0.048   1.644
 4378TIP3    H213080   5.632   0.170   1.712
 4379TIP3   OH213081   6.530   6.434   1.726
 4379TIP3    H113082   6.453   6.379   1.717
 4379TIP3    H213083   6.592   6.381   1.777
 4380TIP3   OH213084   7.652   0.858   1.910
 4380TIP3    H113085   7.654   0.762   1.918
 4380TIP3    H213086   7.744   0.883   1.908
 4381TIP3   OH213087   0.882   1.327   1.171
 4381TIP3    H113088   0.807   1.377   1.202
 4381TIP3    H213089   0.889   1.254   1.233
 4382TIP3   OH213090   0.133   1.069   4.850
 4382TIP3    H113091   0.184   1.127   4.793
 4382TIP3    H213092   0.042   1.097   4.838
 4383TIP3   OH213093   4.578   7.205   3.426
 4383TIP3    H113094   4.570   7.189   3.332
 4383TIP3    H213095   4.497   7.249   3.450
 4384TIP3   OH213096   7.313   1.486   4.173
 4384TIP3    H113097   7.369   1.543   4.119
 4384TIP3    H213098   7.318   1.523   4.261
 4385TIP3   OH213099   5.984   0.052   4.103
 4385TIP3    H113100   5.969  -0.025   4.048
 4385TIP3    H213101   5.955   0.025   4.190
 4386TIP3   OH213102   7.563   2.904   0.706
 4386TIP3    H113103   7.640   2.945   0.668
 4386TIP3    H213104   7.580   2.902   0.800
 4387TIP3   OH213105   8.032   7.294   3.074
 4387TIP3    H113106   8.049   7.363   3.137
 4387TIP3    H213107   7.938   7.276   3.081
 4388TIP3   OH213108   2.989   0.565   2.969
 4388TIP3    H113109   2.919   0.513   3.008
 4388TIP3    H213110   2.947   0.649   2.947
 4389TIP3   OH213111   3.741   2.605   4.161
 4389TIP3    H113112   3.726   2.529   4.105
 4389TIP3    H213113   3.664   2.609   4.217
 4390TIP3   OH213114   7.627   1.166   6.607
 4390TIP3    H113115   7.586   1.106   6.669
 4390TIP3    H213116   7.554   1.207   6.561
 4391TIP3   OH213117   8.071   2.913   3.884
 4391TIP3    H113118   8.049   2.820   3.891
 4391TIP3    H213119   8.057   2.948   3.972
 4392TIP3   OH213120   5.075   1.777   3.712
 4392TIP3    H113121   5.130   1.748   3.639
 4392TIP3    H213122   5.126   1.755   3.790
 4393TIP3   OH213123   7.115   1.958   3.319
 4393TIP3    H113124   7.064   1.920   3.247
 4393TIP3    H213125   7.199   1.982   3.279
 4394TIP3   OH213126   7.359   5.600   3.114
 4394TIP3    H113127   7.271   5.591   3.151
 4394TIP3    H213128   7.348   5.581   3.021
 4395TIP3   OH213129   1.959   6.540   6.453
 4395TIP3    H113130   1.895   6.501   6.512
 4395TIP3    H213131   2.000   6.465   6.410
 4396TIP3   OH213132   4.602   5.211   4.362
 4396TIP3    H113133   4.545   5.137   4.339
 4396TIP3    H213134   4.611   5.260   4.280
 4397TIP3   OH213135   3.622   1.622   0.135
 4397TIP3    H113136   3.618   1.537   0.178
 4397TIP3    H213137   3.716   1.639   0.125
 4398TIP3   OH213138   5.054   5.606   3.189
 4398TIP3    H113139   5.118   5.635   3.254
 4398TIP3    H213140   5.044   5.512   3.204
 4399TIP3   OH213141   2.646   3.039   4.761
 4399TIP3    H113142   2.616   2.948   4.761
 4399TIP3    H213143   2.595   3.081   4.830
 4400TIP3   OH213144   2.185   7.479   2.185
 4400TIP3    H113145   2.229   7.486   2.270
 4400TIP3    H213146   2.142   7.394   2.187
 4401TIP3   OH213147   3.400   4.514   5.388
 4401TIP3    H113148   3.478   4.561   5.358
 4401TIP3    H213149   3.435   4.438   5.435
 4402TIP3   OH213150   5.856   2.958   4.789
 4402TIP3    H113151   5.800   3.032   4.812
 4402TIP3    H213152   5.945   2.992   4.798
 4403TIP3   OH213153   2.384   1.829   0.127
 4403TIP3    H113154   2.311   1.874   0.085
 4403TIP3    H213155   2.346   1.749   0.162
 4404TIP3   OH213156   3.730   7.073   4.006
 4404TIP3    H113157   3.779   7.000   4.045
 4404TIP3    H213158   3.641   7.063   4.042
 4405TIP3   OH213159   0.798   7.430   3.035
 4405TIP3    H113160   0.851   7.356   3.063
 4405TIP3    H213161   0.724   7.432   3.095
 4406TIP3   OH213162   4.400   0.270   2.136
 4406TIP3    H113163   4.447   0.205   2.083
 4406TIP3    H213164   4.308   0.249   2.123
 4407TIP3   OH213165   5.781   4.607   0.024
 4407TIP3    H113166   5.853   4.652   0.069
 4407TIP3    H213167   5.754   4.538   0.084
 4408TIP3   OH213168   0.679   2.032   0.994
 4408TIP3    H113169   0.757   2.034   1.049
 4408TIP3    H213170   0.681   2.115   0.945
 4409TIP3   OH213171   1.141   0.789   3.195
 4409TIP3    H113172   1.146   0.703   3.237
 4409TIP3    H213173   1.092   0.773   3.114
 4410TIP3   OH213174   0.342   3.730   5.908
 4410TIP3    H113175   0.357   3.671   5.834
 4410TIP3    H213176   0.296   3.677   5.972
 4411TIP3   OH213177   3.728   3.694   5.954
 4411TIP3    H113178   3.700   3.644   5.878
 4411TIP3    H213179   3.668   3.769   5.956
 4412TIP3   OH213180   1.015   1.274   6.140
 4412TIP3    H113181   0.929   1.311   6.158
 4412TIP3    H213182   1.045   1.242   6.225
 4413TIP3   OH213183   1.752   5.678   4.984
 4413TIP3    H113184   1.759   5.692   5.079
 4413TIP3    H213185   1.804   5.749   4.945
 4414TIP3   OH213186   8.207   5.584   1.610
 4414TIP3    H113187   8.134   5.562   1.552
 4414TIP3    H213188   8.240   5.500   1.640
 4415TIP3   OH213189   5.381   5.510   2.920
 4415TIP3    H113190   5.300   5.460   2.931
 4415TIP3    H213191   5.369   5.588   2.975
 4416TIP3   OH213192   4.839   6.416   3.780
 4416TIP3    H113193   4.895   6.459   3.844
 4416TIP3    H213194   4.771   6.374   3.833
 4417TIP3   OH213195   6.477   7.404   5.039
 4417TIP3    H113196   6.417   7.374   5.107
 4417TIP3    H213197   6.564   7.396   5.078
 4418TIP3   OH213198   5.327   0.544   5.816
 4418TIP3    H113199   5.259   0.479   5.793
 4418TIP3    H213200   5.318   0.555   5.910
 4419TIP3   OH213201   3.806   0.186   3.746
 4419TIP3    H113202   3.766   0.114   3.697
 4419TIP3    H213203   3.816   0.151   3.835
 4420TIP3   OH213204   5.242   3.227   1.522
 4420TIP3    H113205   5.180   3.281   1.473
 4420TIP3    H213206   5.258   3.151   1.465
 4421TIP3   OH213207   2.485   4.319   0.250
 4421TIP3    H113208   2.405   4.288   0.292
 4421TIP3    H213209   2.549   4.326   0.321
 4422TIP3   OH213210   2.123   2.813   5.921
 4422TIP3    H113211   2.206   2.859   5.925
 4422TIP3    H213212   2.130   2.756   5.844
 4423TIP3   OH213213   5.505   3.375   1.049
 4423TIP3    H113214   5.581   3.425   1.077
 4423TIP3    H213215   5.498   3.393   0.955
 4424TIP3   OH213216   7.771   0.366   5.499
 4424TIP3    H113217   7.697   0.336   5.446
 4424TIP3    H213218   7.778   0.301   5.569
 4425TIP3   OH213219   0.446   1.250   2.279
 4425TIP3    H113220   0.399   1.205   2.208
 4425TIP3    H213221   0.530   1.205   2.285
 4426TIP3   OH213222   5.560   5.120   5.784
 4426TIP3    H113223   5.513   5.122   5.867
 4426TIP3    H213224   5.500   5.078   5.723
 4427TIP3   OH213225   0.480   3.687   4.599
 4427TIP3    H113226   0.405   3.631   4.577
 4427TIP3    H213227   0.528   3.636   4.664
 4428TIP3   OH213228   6.343   6.996   1.663
 4428TIP3    H113229   6.377   6.919   1.616
 4428TIP3    H213230   6.294   6.959   1.736
 4429TIP3   OH213231   1.443   1.631   6.719
 4429TIP3    H113232   1.462   1.689   6.792
 4429TIP3    H213233   1.412   1.550   6.760
 4430TIP3   OH213234   0.417   0.570   0.460
 4430TIP3    H113235   0.503   0.559   0.501
 4430TIP3    H213236   0.355   0.554   0.531
 4431TIP3   OH213237   4.611   4.543   6.380
 4431TIP3    H113238   4.534   4.556   6.436
 4431TIP3    H213239   4.593   4.597   6.302
 4432TIP3   OH213240   2.134   4.630   3.044
 4432TIP3    H113241   2.053   4.672   3.074
 4432TIP3    H213242   2.203   4.690   3.071
 4433TIP3   OH213243   4.569   5.641   5.621
 4433TIP3    H113244   4.525   5.694   5.688
 4433TIP3    H213245   4.549   5.551   5.644
 4434TIP3   OH213246   2.391   3.251   4.128
 4434TIP3    H113247   2.366   3.186   4.062
 4434TIP3    H213248   2.315   3.257   4.186
 4435TIP3   OH213249   8.041   2.717   6.761
 4435TIP3    H113250   8.038   2.782   6.831
 4435TIP3    H213251   7.952   2.713   6.727
 4436TIP3   OH213252   7.631   1.977   0.712
 4436TIP3    H113253   7.584   2.026   0.780
 4436TIP3    H213254   7.599   1.887   0.720
 4437TIP3   OH213255   5.332   0.055   4.132
 4437TIP3    H113256   5.405   0.076   4.074
 4437TIP3    H213257   5.280   0.135   4.135
 4438TIP3   OH213258   4.642   4.674   5.574
 4438TIP3    H113259   4.703   4.604   5.597
 4438TIP3    H213260   4.568   4.663   5.634
 4439TIP3   OH213261   3.798   5.747   1.307
 4439TIP3    H113262   3.752   5.767   1.226
 4439TIP3    H213263   3.834   5.831   1.336
 4440TIP3   OH213264   4.393   2.900   0.515
 4440TIP3    H113265   4.404   2.989   0.481
 4440TIP3    H213266   4.311   2.869   0.477
 4441TIP3   OH213267   6.549   1.610   3.872
 4441TIP3    H113268   6.546   1.704   3.857
 4441TIP3    H213269   6.469   1.590   3.919
 4442TIP3   OH213270   1.479   6.966   3.396
 4442TIP3    H113271   1.566   7.003   3.378
 4442TIP3    H213272   1.425   7.043   3.418
 4443TIP3   OH213273   6.965   1.825   4.973
 4443TIP3    H113274   7.010   1.742   4.992
 4443TIP3    H213275   6.949   1.864   5.059
 4444TIP3   OH213276   2.415   0.709   2.771
 4444TIP3    H113277   2.409   0.654   2.693
 4444TIP3    H213278   2.324   0.734   2.789
 4445TIP3   OH213279   2.329   4.854   5.333
 4445TIP3    H113280   2.424   4.844   5.343
 4445TIP3    H213281   2.292   4.786   5.388
 4446TIP3   OH213282   5.087   7.014   5.820
 4446TIP3    H113283   5.052   7.060   5.896
 4446TIP3    H213284   5.108   6.926   5.852
 4447TIP3   OH213285   6.243   4.293   1.784
 4447TIP3    H113286   6.149   4.301   1.800
 4447TIP3    H213287   6.272   4.382   1.767
 4448TIP3   OH213288   4.060   4.195   4.134
 4448TIP3    H113289   3.997   4.236   4.194
 4448TIP3    H213290   4.009   4.175   4.055
 4449TIP3   OH213291   3.349   5.799   3.168
 4449TIP3    H113292   3.422   5.783   3.108
 4449TIP3    H213293   3.375   5.756   3.250
 4450TIP3   OH213294   4.081   0.288   2.708
 4450TIP3    H113295   4.054   0.318   2.795
 4450TIP3    H213296   4.005   0.304   2.652
 4451TIP3   OH213297   4.913   5.676   3.745
 4451TIP3    H113298   4.876   5.645   3.828
 4451TIP3    H213299   4.925   5.597   3.692
 4452TIP3   OH213300   8.318   1.377   5.892
 4452TIP3    H113301   8.382   1.324   5.940
 4452TIP3    H213302   8.256   1.406   5.959
 4453TIP3   OH213303   1.025   5.030   1.151
 4453TIP3    H113304   0.938   5.001   1.125
 4453TIP3    H213305   1.075   5.035   1.070
 4454TIP3   OH213306   7.362   7.077   5.011
 4454TIP3    H113307   7.404   7.093   5.096
 4454TIP3    H213308   7.372   7.160   4.964
 4455TIP3   OH213309   7.488   7.451   5.806
 4455TIP3    H113310   7.507   7.435   5.899
 4455TIP3    H213311   7.437   7.375   5.778
 4456TIP3   OH213312   4.227   6.313   1.543
 4456TIP3    H113313   4.203   6.406   1.550
 4456TIP3    H213314   4.146   6.269   1.518
 4457TIP3   OH213315   7.335   7.837   0.907
 4457TIP3    H113316   7.380   7.835   0.992
 4457TIP3    H213317   7.381   7.772   0.854
 4458TIP3   OH213318   4.457   1.361   2.783
 4458TIP3    H113319   4.490   1.316   2.705
 4458TIP3    H213320   4.474   1.454   2.765
 4459TIP3   OH213321   7.888   7.425   4.955
 4459TIP3    H113322   7.890   7.517   4.931
 4459TIP3    H213323   7.977   7.394   4.941
 4460TIP3   OH213324   1.720   6.529   3.743
 4460TIP3    H113325   1.776   6.471   3.691
 4460TIP3    H213326   1.769   6.611   3.748
 4461TIP3   OH213327   2.312   7.503   4.688
 4461TIP3    H113328   2.386   7.564   4.693
 4461TIP3    H213329   2.351   7.417   4.699
 4462TIP3   OH213330   8.303   2.198   4.664
 4462TIP3    H113331   8.342   2.157   4.587
 4462TIP3    H213332   8.278   2.125   4.720
 4463TIP3   OH213333   1.026   1.375   3.901
 4463TIP3    H113334   1.009   1.287   3.934
 4463TIP3    H213335   1.049   1.362   3.809
 4464TIP3   OH213336   0.697   3.359   2.046
 4464TIP3    H113337   0.622   3.323   1.999
 4464TIP3    H213338   0.659   3.404   2.122
 4465TIP3   OH213339   7.557   3.121   5.416
 4465TIP3    H113340   7.616   3.054   5.451
 4465TIP3    H213341   7.577   3.124   5.322
 4466TIP3   OH213342   3.566   5.771   4.486
 4466TIP3    H113343   3.591   5.836   4.553
 4466TIP3    H213344   3.646   5.722   4.469
 4467TIP3   OH213345   5.812   7.148   3.136
 4467TIP3    H113346   5.798   7.077   3.073
 4467TIP3    H213347   5.908   7.158   3.139
 4468TIP3   OH213348   4.889   5.578   6.330
 4468TIP3    H113349   4.980   5.599   6.308
 4468TIP3    H213350   4.888   5.482   6.337
 4469TIP3   OH213351   4.548   4.271   0.902
 4469TIP3    H113352   4.568   4.318   0.983
 4469TIP3    H213353   4.633   4.254   0.862
 4470TIP3   OH213354   6.859   7.691   3.976
 4470TIP3    H113355   6.942   7.702   4.024
 4470TIP3    H213356   6.874   7.618   3.918
 4471TIP3   OH213357   1.080   7.281   1.129
 4471TIP3    H113358   1.006   7.251   1.181
 4471TIP3    H213359   1.155   7.233   1.164
 4472TIP3   OH213360   7.302   1.255   0.387
 4472TIP3    H113361   7.359   1.321   0.346
 4472TIP3    H213362   7.289   1.189   0.319
 4473TIP3   OH213363   0.899   0.368   0.438
 4473TIP3    H113364   0.884   0.279   0.471
 4473TIP3    H213365   0.961   0.407   0.499
 4474TIP3   OH213366   0.057   4.948   2.446
 4474TIP3    H113367   0.105   4.960   2.527
 4474TIP3    H213368   0.123   4.921   2.382
 4475TIP3   OH213369   3.200   1.036   3.127
 4475TIP3    H113370   3.228   1.059   3.039
 4475TIP3    H213371   3.107   1.058   3.129
 4476TIP3   OH213372   1.344   4.096   5.849
 4476TIP3    H113373   1.303   4.056   5.925
 4476TIP3    H213374   1.295   4.177   5.835
 4477TIP3   OH213375   6.200   4.677   6.276
 4477TIP3    H113376   6.162   4.740   6.338
 4477TIP3    H213377   6.288   4.661   6.310
 4478TIP3   OH213378   8.146   2.852   6.154
 4478TIP3    H113379   8.195   2.840   6.235
 4478TIP3    H213380   8.058   2.819   6.174
 4479TIP3   OH213381   8.149   3.591   5.561
 4479TIP3    H113382   8.079   3.620   5.619
 4479TIP3    H213383   8.189   3.671   5.529
 4480TIP3   OH213384   7.902   2.080   2.884
 4480TIP3    H113385   7.902   2.099   2.978
 4480TIP3    H213386   7.825   2.024   2.872
 4481TIP3   OH213387   2.997   4.622   1.447
 4481TIP3    H113388   3.018   4.697   1.392
 4481TIP3    H213389   2.903   4.608   1.434
 4482TIP3   OH213390   6.354   6.978   3.110
 4482TIP3    H113391   6.351   7.039   3.184
 4482TIP3    H213392   6.294   6.908   3.134
 4483TIP3   OH213393   6.533   6.730   3.467
 4483TIP3    H113394   6.596   6.658   3.475
 4483TIP3    H213395   6.459   6.692   3.420
 4484TIP3   OH213396   5.221   5.349   5.583
 4484TIP3    H113397   5.128   5.364   5.599
 4484TIP3    H213398   5.248   5.289   5.652
 4485TIP3   OH213399   6.296   7.270   1.615
 4485TIP3    H113400   6.304   7.174   1.621
 4485TIP3    H213401   6.253   7.295   1.697
 4486TIP3   OH213402   0.535   3.067   1.092
 4486TIP3    H113403   0.448   3.092   1.123
 4486TIP3    H213404   0.519   3.013   1.015
 4487TIP3   OH213405   2.281   0.281   5.838
 4487TIP3    H113406   2.240   0.311   5.919
 4487TIP3    H213407   2.222   0.309   5.769
 4488TIP3   OH213408   0.909   2.641   2.303
 4488TIP3    H113409   0.873   2.553   2.294
 4488TIP3    H213410   0.984   2.642   2.244
 4489TIP3   OH213411   0.150   2.698   0.743
 4489TIP3    H113412   0.196   2.708   0.827
 4489TIP3    H213413   0.060   2.675   0.768
 4490TIP3   OH213414   3.925   0.235   1.675
 4490TIP3    H113415   3.992   0.276   1.729
 4490TIP3    H213416   3.889   0.166   1.730
 4491TIP3   OH213417   4.643   4.376   5.995
 4491TIP3    H113418   4.682   4.362   5.909
 4491TIP3    H213419   4.657   4.294   6.041
 4492TIP3   OH213420   7.534   6.524   1.906
 4492TIP3    H113421   7.488   6.580   1.968
 4492TIP3    H213422   7.467   6.463   1.876
 4493TIP3   OH213423   6.527   5.828   5.939
 4493TIP3    H113424   6.557   5.806   5.850
 4493TIP3    H213425   6.536   5.923   5.944
 4494TIP3   OH213426   5.277   4.870   3.571
 4494TIP3    H113427   5.359   4.837   3.609
 4494TIP3    H213428   5.244   4.932   3.635
 4495TIP3   OH213429   0.716   2.921   6.613
 4495TIP3    H113430   0.810   2.935   6.608
 4495TIP3    H213431   0.678   3.003   6.581
 4496TIP3   OH213432   1.917   4.166   3.792
 4496TIP3    H113433   1.854   4.104   3.758
 4496TIP3    H213434   1.986   4.112   3.830
 4497TIP3   OH213435   6.465   3.136   0.922
 4497TIP3    H113436   6.556   3.112   0.939
 4497TIP3    H213437   6.424   3.134   1.008
 4498TIP3   OH213438   1.975   4.302   0.957
 4498TIP3    H113439   2.026   4.291   0.876
 4498TIP3    H213440   1.897   4.248   0.943
 4499TIP3   OH213441   3.987   3.221   6.472
 4499TIP3    H113442   3.910   3.168   6.491
 4499TIP3    H213443   4.061   3.163   6.490
 4500TIP3   OH213444   5.943   4.575   3.540
 4500TIP3    H113445   5.962   4.665   3.514
 4500TIP3    H213446   5.871   4.582   3.603
 4501TIP3   OH213447   7.711   1.702   3.558
 4501TIP3    H113448   7.791   1.658   3.584
 4501TIP3    H213449   7.668   1.641   3.498
 4502TIP3   OH213450   3.722   6.222   2.414
 4502TIP3    H113451   3.682   6.200   2.498
 4502TIP3    H213452   3.650   6.221   2.352
 4503TIP3   OH213453   2.045   3.641   3.081
 4503TIP3    H113454   1.968   3.609   3.034
 4503TIP3    H213455   2.114   3.579   3.058
 4504TIP3   OH213456   3.883   3.170   5.798
 4504TIP3    H113457   3.835   3.149   5.878
 4504TIP3    H213458   3.825   3.142   5.727
 4505TIP3   OH213459   1.020   6.652   6.179
 4505TIP3    H113460   1.105   6.683   6.211
 4505TIP3    H213461   0.958   6.720   6.204
 4506TIP3   OH213462   4.330   6.443   4.372
 4506TIP3    H113463   4.423   6.435   4.396
 4506TIP3    H213464   4.298   6.515   4.426
 4507TIP3   OH213465   7.033   2.892   0.864
 4507TIP3    H113466   7.081   2.891   0.781
 4507TIP3    H213467   6.968   2.823   0.855
 4508TIP3   OH213468   6.611   6.010   4.400
 4508TIP3    H113469   6.600   6.096   4.358
 4508TIP3    H213470   6.557   5.951   4.348
 4509TIP3   OH213471   1.013   3.502   1.283
 4509TIP3    H113472   0.941   3.485   1.222
 4509TIP3    H213473   1.061   3.575   1.243
 4510TIP3   OH213474   5.452   3.613   4.218
 4510TIP3    H113475   5.525   3.624   4.157
 4510TIP3    H213476   5.422   3.524   4.203
 4511TIP3   OH213477   7.172   3.039   3.890
 4511TIP3    H113478   7.250   3.065   3.939
 4511TIP3    H213479   7.100   3.049   3.953
 4512TIP3   OH213480   5.046   6.742   5.464
 4512TIP3    H113481   4.957   6.747   5.431
 4512TIP3    H213482   5.043   6.671   5.529
 4513TIP3   OH213483   6.113   5.548   0.346
 4513TIP3    H113484   6.024   5.538   0.382
 4513TIP3    H213485   6.136   5.460   0.317
 4514TIP3   OH213486   4.899   6.282   5.671
 4514TIP3    H113487   4.827   6.273   5.734
 4514TIP3    H213488   4.948   6.200   5.680
 4515TIP3   OH213489   4.886   2.907   3.446
 4515TIP3    H113490   4.929   2.961   3.512
 4515TIP3    H213491   4.837   2.970   3.392
 4516TIP3   OH213492   3.704   7.035   0.423
 4516TIP3    H113493   3.798   7.021   0.431
 4516TIP3    H213494   3.674   6.971   0.359
 4517TIP3   OH213495   7.859   6.439   2.534
 4517TIP3    H113496   7.850   6.389   2.615
 4517TIP3    H213497   7.880   6.373   2.468
 4518TIP3   OH213498   6.987   0.440   5.673
 4518TIP3    H113499   6.910   0.493   5.694
 4518TIP3    H213500   6.995   0.446   5.578
 4519TIP3   OH213501   5.659   4.552   2.974
 4519TIP3    H113502   5.591   4.497   3.014
 4519TIP3    H213503   5.730   4.490   2.953
 4520TIP3   OH213504   7.845   1.336   2.886
 4520TIP3    H113505   7.837   1.282   2.807
 4520TIP3    H213506   7.823   1.424   2.857
 4521TIP3   OH213507   2.909   6.564   1.158
 4521TIP3    H113508   2.957   6.484   1.181
 4521TIP3    H213509   2.962   6.605   1.091
 4522TIP3   OH213510   1.142   2.225   2.637
 4522TIP3    H113511   1.077   2.228   2.567
 4522TIP3    H213512   1.222   2.196   2.594
 4523TIP3   OH213513   2.387   5.239   4.191
 4523TIP3    H113514   2.447   5.314   4.191
 4523TIP3    H213515   2.359   5.231   4.282
 4524TIP3   OH213516   5.611   7.686   0.836
 4524TIP3    H113517   5.535   7.717   0.787
 4524TIP3    H213518   5.669   7.762   0.840
 4525TIP3   OH213519   6.358   3.699   4.344
 4525TIP3    H113520   6.411   3.771   4.379
 4525TIP3    H213521   6.336   3.727   4.254
 4526TIP3   OH213522   1.161   6.356   2.037
 4526TIP3    H113523   1.072   6.376   2.007
 4526TIP3    H213524   1.184   6.427   2.096
 4527TIP3   OH213525   5.328   2.565   5.361
 4527TIP3    H113526   5.360   2.555   5.272
 4527TIP3    H213527   5.281   2.484   5.379
 4528TIP3   OH213528   6.691   1.820   4.620
 4528TIP3    H113529   6.693   1.837   4.526
 4528TIP3    H213530   6.781   1.836   4.649
 4529TIP3   OH213531   8.100   4.488   4.330
 4529TIP3    H113532   8.147   4.416   4.288
 4529TIP3    H213533   8.010   4.458   4.337
 4530TIP3   OH213534   5.561   0.091   3.986
 4530TIP3    H113535   5.597   0.007   3.959
 4530TIP3    H213536   5.634   0.138   4.024
 4531TIP3   OH213537   7.790   7.550   4.669
 4531TIP3    H113538   7.853   7.565   4.599
 4531TIP3    H213539   7.821   7.604   4.742
 4532TIP3   OH213540   5.940   3.231   1.211
 4532TIP3    H113541   5.854   3.195   1.191
 4532TIP3    H213542   5.982   3.243   1.126
 4533TIP3   OH213543   6.882   6.005   6.370
 4533TIP3    H113544   6.913   6.095   6.367
 4533TIP3    H213545   6.788   6.012   6.384
 4534TIP3   OH213546   6.174   5.201   1.814
 4534TIP3    H113547   6.153   5.109   1.829
 4534TIP3    H213548   6.200   5.234   1.899
 4535TIP3   OH213549   8.137   7.292   5.023
 4535TIP3    H113550   8.147   7.299   5.118
 4535TIP3    H213551   8.128   7.198   5.007
 4536TIP3   OH213552   7.332   0.275   0.192
 4536TIP3    H113553   7.362   0.366   0.188
 4536TIP3    H213554   7.393   0.233   0.252
 4537TIP3   OH213555   6.043   5.965   6.701
 4537TIP3    H113556   6.116   6.009   6.745
 4537TIP3    H213557   6.056   5.872   6.720
 4538TIP3   OH213558   3.093   1.055   6.449
 4538TIP3    H113559   3.024   1.044   6.515
 4538TIP3    H213560   3.045   1.078   6.369
 4539TIP3   OH213561   5.264   4.850   6.640
 4539TIP3    H113562   5.252   4.771   6.588
 4539TIP3    H213563   5.271   4.921   6.576
 4540TIP3   OH213564   5.306   7.497   0.144
 4540TIP3    H113565   5.401   7.509   0.142
 4540TIP3    H213566   5.277   7.523   0.057
 4541TIP3   OH213567   8.071   0.829   6.176
 4541TIP3    H113568   7.993   0.812   6.123
 4541TIP3    H213569   8.130   0.877   6.118
 4542TIP3   OH213570   4.632   4.254   6.400
 4542TIP3    H113571   4.630   4.349   6.411
 4542TIP3    H213572   4.540   4.230   6.389
 4543TIP3   OH213573   0.576   1.352   4.607
 4543TIP3    H113574   0.549   1.318   4.522
 4543TIP3    H213575   0.588   1.446   4.592
 4544TIP3   OH213576   3.805   0.840   1.692
 4544TIP3    H113577   3.876   0.783   1.661
 4544TIP3    H213578   3.786   0.898   1.617
 4545TIP3   OH213579   0.259   2.235   5.794
 4545TIP3    H113580   0.334   2.263   5.847
 4545TIP3    H213581   0.199   2.309   5.795
 4546TIP3   OH213582   0.217   0.484   4.939
 4546TIP3    H113583   0.289   0.447   4.887
 4546TIP3    H213584   0.208   0.424   5.013
 4547TIP3   OH213585   3.220   6.498   3.652
 4547TIP3    H113586   3.147   6.544   3.610
 4547TIP3    H213587   3.222   6.532   3.741
 4548TIP3   OH213588   7.596   0.452   1.197
 4548TIP3    H113589   7.679   0.408   1.214
 4548TIP3    H213590   7.600   0.533   1.250
 4549TIP3   OH213591   5.476   4.020   0.463
 4549TIP3    H113592   5.547   3.992   0.520
 4549TIP3    H213593   5.495   3.979   0.378
 4550TIP3   OH213594   1.336   3.224   4.338
 4550TIP3    H113595   1.263   3.284   4.352
 4550TIP3    H213596   1.336   3.168   4.415
 4551TIP3   OH213597   0.985   6.841   5.499
 4551TIP3    H113598   1.044   6.780   5.455
 4551TIP3    H213599   1.041   6.890   5.560
 4552TIP3   OH213600   6.873   5.586   0.225
 4552TIP3    H113601   6.845   5.662   0.276
 4552TIP3    H213602   6.832   5.599   0.140
 4553TIP3   OH213603   1.041   0.637   2.975
 4553TIP3    H113604   1.126   0.667   2.942
 4553TIP3    H213605   1.046   0.541   2.973
 4554TIP3   OH213606   3.919   5.756   6.483
 4554TIP3    H113607   3.834   5.733   6.446
 4554TIP3    H213608   3.930   5.696   6.557
 4555TIP3   OH213609   4.878   3.993   6.158
 4555TIP3    H113610   4.880   4.086   6.180
 4555TIP3    H213611   4.950   3.982   6.096
 4556TIP3   OH213612   1.794   6.319   5.012
 4556TIP3    H113613   1.721   6.377   5.033
 4556TIP3    H213614   1.826   6.289   5.098
 4557TIP3   OH213615   4.633   4.557   5.073
 4557TIP3    H113616   4.599   4.475   5.035
 4557TIP3    H213617   4.728   4.550   5.062
 4558TIP3   OH213618   3.605   3.333   5.891
 4558TIP3    H113619   3.685   3.317   5.942
 4558TIP3    H213620   3.633   3.326   5.800
 4559TIP3   OH213621   5.863   5.054   6.507
 4559TIP3    H113622   5.825   5.021   6.588
 4559TIP3    H213623   5.854   5.149   6.513
 4560TIP3   OH213624   3.594   3.595   1.063
 4560TIP3    H113625   3.535   3.607   1.137
 4560TIP3    H213626   3.543   3.545   0.999
 4561TIP3   OH213627   3.619   5.845   0.238
 4561TIP3    H113628   3.657   5.930   0.214
 4561TIP3    H213629   3.651   5.828   0.327
 4562TIP3   OH213630   2.394   2.968   3.059
 4562TIP3    H113631   2.462   2.903   3.075
 4562TIP3    H213632   2.359   2.989   3.146
 4563TIP3   OH213633   7.985   6.239   5.069
 4563TIP3    H113634   7.978   6.167   5.132
 4563TIP3    H213635   8.063   6.217   5.017
 4564TIP3   OH213636   5.651   2.756   3.383
 4564TIP3    H113637   5.713   2.724   3.318
 4564TIP3    H213638   5.706   2.805   3.445
 4565TIP3   OH213639   3.799   4.828   6.100
 4565TIP3    H113640   3.762   4.768   6.165
 4565TIP3    H213641   3.741   4.819   6.024
 4566TIP3   OH213642   0.629   7.205   2.786
 4566TIP3    H113643   0.559   7.250   2.834
 4566TIP3    H213644   0.610   7.112   2.797
 4567TIP3   OH213645   1.517   7.183   4.848
 4567TIP3    H113646   1.498   7.264   4.801
 4567TIP3    H213647   1.432   7.142   4.861
 4568TIP3   OH213648   2.382   4.685   4.465
 4568TIP3    H113649   2.448   4.748   4.436
 4568TIP3    H213650   2.306   4.739   4.487
 4569TIP3   OH213651   4.144   5.130   6.391
 4569TIP3    H113652   4.109   5.062   6.333
 4569TIP3    H213653   4.123   5.100   6.479
 4570TIP3   OH213654   2.073   6.376   0.574
 4570TIP3    H113655   1.997   6.330   0.539
 4570TIP3    H213656   2.066   6.366   0.669
 4571TIP3   OH213657   5.113   2.015   0.028
 4571TIP3    H113658   5.143   1.925   0.012
 4571TIP3    H213659   5.042   2.006   0.092
 4572TIP3   OH213660   2.793   2.977   1.619
 4572TIP3    H113661   2.855   2.955   1.548
 4572TIP3    H213662   2.846   3.025   1.682
 4573TIP3   OH213663   2.632   5.582   6.165
 4573TIP3    H113664   2.663   5.644   6.231
 4573TIP3    H213665   2.690   5.598   6.089
 4574TIP3   OH213666   0.197   4.397   2.115
 4574TIP3    H113667   0.280   4.443   2.106
 4574TIP3    H213668   0.221   4.305   2.120
 4575TIP3   OH213669   5.050   2.686   3.631
 4575TIP3    H113670   4.997   2.608   3.648
 4575TIP3    H213671   5.031   2.708   3.540
 4576TIP3   OH213672   5.294   4.705   2.835
 4576TIP3    H113673   5.380   4.682   2.799
 4576TIP3    H213674   5.301   4.686   2.929
 4577TIP3   OH213675   5.029   1.611   4.093
 4577TIP3    H113676   5.040   1.701   4.062
 4577TIP3    H213677   5.001   1.563   4.015
 4578TIP3   OH213678   5.250   4.638   6.485
 4578TIP3    H113679   5.308   4.619   6.411
 4578TIP3    H213680   5.186   4.567   6.485
 4579TIP3   OH213681   3.720   1.532   1.622
 4579TIP3    H113682   3.783   1.488   1.565
 4579TIP3    H213683   3.766   1.608   1.656
 4580TIP3   OH213684   0.891   6.597   5.917
 4580TIP3    H113685   0.952   6.626   5.985
 4580TIP3    H213686   0.840   6.675   5.895
 4581TIP3   OH213687   7.291   0.360   4.978
 4581TIP3    H113688   7.298   0.425   4.908
 4581TIP3    H213689   7.219   0.303   4.950
 4582TIP3   OH213690   0.610   1.226   1.492
 4582TIP3    H113691   0.515   1.216   1.481
 4582TIP3    H213692   0.627   1.317   1.470
 4583TIP3   OH213693   4.520   2.911   5.906
 4583TIP3    H113694   4.430   2.929   5.934
 4583TIP3    H213695   4.546   2.836   5.959
 4584TIP3   OH213696   1.259   2.507   3.357
 4584TIP3    H113697   1.277   2.536   3.447
 4584TIP3    H213698   1.186   2.446   3.366
 4585TIP3   OH213699   5.791   1.668   6.269
 4585TIP3    H113700   5.783   1.745   6.325
 4585TIP3    H213701   5.767   1.700   6.181
 4586TIP3   OH213702   7.640   6.106   5.459
 4586TIP3    H113703   7.652   6.201   5.455
 4586TIP3    H213704   7.545   6.094   5.467
 4587TIP3   OH213705   6.251   7.353   3.592
 4587TIP3    H113706   6.253   7.278   3.652
 4587TIP3    H213707   6.330   7.344   3.539
 4588TIP3   OH213708   0.795   2.055   3.268
 4588TIP3    H113709   0.887   2.081   3.274
 4588TIP3    H213710   0.773   2.024   3.356
 4589TIP3   OH213711   4.470   4.770   2.591
 4589TIP3    H113712   4.534   4.820   2.642
 4589TIP3    H213713   4.519   4.694   2.559
 4590TIP3   OH213714   7.177   5.847   5.541
 4590TIP3    H113715   7.215   5.877   5.624
 4590TIP3    H213716   7.246   5.863   5.476
 4591TIP3   OH213717   4.555   2.870   2.816
 4591TIP3    H113718   4.559   2.888   2.722
 4591TIP3    H213719   4.461   2.870   2.836
 4592TIP3   OH213720   0.887   6.035   1.450
 4592TIP3    H113721   0.873   5.940   1.447
 4592TIP3    H213722   0.799   6.072   1.444
 4593TIP3   OH213723   7.511   2.754   5.714
 4593TIP3    H113724   7.521   2.687   5.646
 4593TIP3    H213725   7.426   2.794   5.696
 4594TIP3   OH213726   0.850   4.818   2.926
 4594TIP3    H113727   0.836   4.890   2.865
 4594TIP3    H213728   0.945   4.812   2.934
 4595TIP3   OH213729   1.617   6.905   5.012
 4595TIP3    H113730   1.671   6.905   5.090
 4595TIP3    H213731   1.570   6.989   5.015
 4596TIP3   OH213732   2.390   6.984   1.592
 4596TIP3    H113733   2.483   6.969   1.577
 4596TIP3    H213734   2.369   7.060   1.538
 4597TIP3   OH213735   6.771   3.735   6.076
 4597TIP3    H113736   6.857   3.729   6.033
 4597TIP3    H213737   6.717   3.670   6.030
 4598TIP3   OH213738   2.782   6.533   0.712
 4598TIP3    H113739   2.788   6.531   0.617
 4598TIP3    H213740   2.825   6.615   0.738
 4599TIP3   OH213741   7.037   2.536   0.026
 4599TIP3    H113742   7.077   2.560   0.110
 4599TIP3    H213743   6.980   2.462   0.047
 4600TIP3   OH213744   7.467   2.793   4.023
 4600TIP3    H113745   7.533   2.862   4.027
 4600TIP3    H213746   7.437   2.783   4.113
 4601TIP3   OH213747   3.357   5.411   5.841
 4601TIP3    H113748   3.436   5.463   5.829
 4601TIP3    H213749   3.328   5.433   5.929
 4602TIP3   OH213750   1.950   6.694   1.018
 4602TIP3    H113751   1.906   6.763   0.969
 4602TIP3    H213752   2.008   6.740   1.078
 4603TIP3   OH213753   3.496   1.934   1.249
 4603TIP3    H113754   3.530   1.892   1.328
 4603TIP3    H213755   3.417   1.980   1.278
 4604TIP3   OH213756   2.887   5.035   5.383
 4604TIP3    H113757   2.905   4.950   5.343
 4604TIP3    H213758   2.792   5.036   5.395
 4605TIP3   OH213759   6.564   7.242   0.372
 4605TIP3    H113760   6.596   7.290   0.296
 4605TIP3    H213761   6.508   7.304   0.418
 4606TIP3   OH213762   7.354   6.337   1.878
 4606TIP3    H113763   7.368   6.243   1.874
 4606TIP3    H213764   7.270   6.351   1.835
 4607TIP3   OH213765   2.935   7.728   2.827
 4607TIP3    H113766   2.874   7.718   2.754
 4607TIP3    H213767   2.879   7.738   2.904
 4608TIP3   OH213768   4.846   3.551   1.657
 4608TIP3    H113769   4.829   3.603   1.579
 4608TIP3    H213770   4.882   3.469   1.624
 4609TIP3   OH213771   1.871   4.157   3.104
 4609TIP3    H113772   1.898   4.244   3.075
 4609TIP3    H213773   1.928   4.137   3.178
 4610TIP3   OH213774   3.413   3.457   0.266
 4610TIP3    H113775   3.494   3.436   0.220
 4610TIP3    H213776   3.346   3.459   0.198
 4611TIP3   OH213777   4.666   6.736   4.643
 4611TIP3    H113778   4.627   6.777   4.720
 4611TIP3    H213779   4.645   6.643   4.653
 4612TIP3   OH213780   7.696   1.961   3.238
 4612TIP3    H113781   7.613   1.952   3.285
 4612TIP3    H213782   7.727   1.871   3.225
 4613TIP3   OH213783   6.093   5.267   0.937
 4613TIP3    H113784   6.090   5.344   0.881
 4613TIP3    H213785   6.184   5.260   0.964
 4614TIP3   OH213786   0.375   5.420   4.883
 4614TIP3    H113787   0.385   5.441   4.976
 4614TIP3    H213788   0.340   5.501   4.844
 4615TIP3   OH213789   1.552   5.248   0.599
 4615TIP3    H113790   1.523   5.208   0.681
 4615TIP3    H213791   1.542   5.343   0.613
 4616TIP3   OH213792   1.685   0.692   5.135
 4616TIP3    H113793   1.590   0.689   5.129
 4616TIP3    H213794   1.707   0.625   5.199
 4617TIP3   OH213795   3.217   0.517   5.948
 4617TIP3    H113796   3.167   0.470   5.882
 4617TIP3    H213797   3.294   0.462   5.964
 4618TIP3   OH213798   6.534   4.954   2.235
 4618TIP3    H113799   6.554   5.045   2.258
 4618TIP3    H213800   6.584   4.902   2.297
 4619TIP3   OH213801   2.241   2.322   2.489
 4619TIP3    H113802   2.221   2.395   2.431
 4619TIP3    H213803   2.302   2.358   2.554
 4620TIP3   OH213804   2.531   0.165   5.916
 4620TIP3    H113805   2.443   0.188   5.885
 4620TIP3    H213806   2.554   0.236   5.976
 4621TIP3   OH213807   1.047   7.594   4.811
 4621TIP3    H113808   1.081   7.682   4.826
 4621TIP3    H213809   1.063   7.547   4.893
 4622TIP3   OH213810   2.223   6.009   1.539
 4622TIP3    H113811   2.196   5.917   1.533
 4622TIP3    H213812   2.156   6.057   1.491
 4623TIP3   OH213813   2.992   3.925   4.273
 4623TIP3    H113814   2.948   3.928   4.358
 4623TIP3    H213815   2.995   3.832   4.251
 4624TIP3   OH213816   5.526   0.976   3.951
 4624TIP3    H113817   5.530   0.972   3.855
 4624TIP3    H213818   5.603   0.928   3.980
 4625TIP3   OH213819   8.098   2.139   5.114
 4625TIP3    H113820   8.086   2.051   5.077
 4625TIP3    H213821   8.189   2.140   5.143
 4626TIP3   OH213822   1.660   4.283   1.367
 4626TIP3    H113823   1.646   4.297   1.461
 4626TIP3    H213824   1.747   4.244   1.362
 4627TIP3   OH213825   6.817   5.628   4.329
 4627TIP3    H113826   6.877   5.677   4.386
 4627TIP3    H213827   6.871   5.561   4.288
 4628TIP3   OH213828   5.151   0.840   5.388
 4628TIP3    H113829   5.198   0.756   5.395
 4628TIP3    H213830   5.214   0.898   5.345
 4629TIP3   OH213831   5.672   7.176   2.099
 4629TIP3    H113832   5.729   7.221   2.036
 4629TIP3    H213833   5.642   7.245   2.157
 4630TIP3   OH213834   0.222   6.011   6.407
 4630TIP3    H113835   0.197   5.984   6.319
 4630TIP3    H213836   0.305   6.057   6.396
 4631TIP3   OH213837   0.692   4.704   0.208
 4631TIP3    H113838   0.656   4.753   0.282
 4631TIP3    H213839   0.785   4.726   0.208
 4632TIP3   OH213840   5.048   4.797   2.651
 4632TIP3    H113841   5.072   4.786   2.559
 4632TIP3    H213842   5.128   4.774   2.699
 4633TIP3   OH213843   8.115   0.060   3.968
 4633TIP3    H113844   8.175   0.050   4.041
 4633TIP3    H213845   8.030   0.033   4.002
 4634TIP3   OH213846   2.382   4.111   5.211
 4634TIP3    H113847   2.466   4.077   5.243
 4634TIP3    H213848   2.405   4.159   5.131
 4635TIP3   OH213849   5.375   6.512   1.412
 4635TIP3    H113850   5.431   6.435   1.401
 4635TIP3    H213851   5.421   6.582   1.367
 4636TIP3   OH213852   7.701   2.554   2.125
 4636TIP3    H113853   7.697   2.503   2.044
 4636TIP3    H213854   7.684   2.644   2.098
 4637TIP3   OH213855   0.638   3.613   4.060
 4637TIP3    H113856   0.633   3.621   4.155
 4637TIP3    H213857   0.675   3.696   4.031
 4638TIP3   OH213858   6.877   4.405   6.140
 4638TIP3    H113859   6.851   4.449   6.060
 4638TIP3    H213860   6.940   4.339   6.112
 4639TIP3   OH213861   2.242   2.432   0.668
 4639TIP3    H113862   2.321   2.486   0.659
 4639TIP3    H213863   2.176   2.493   0.701
 4640TIP3   OH213864   2.422   5.655   4.924
 4640TIP3    H113865   2.461   5.590   4.983
 4640TIP3    H213866   2.487   5.667   4.855
 4641TIP3   OH213867   6.478   7.076   3.716
 4641TIP3    H113868   6.384   7.056   3.711
 4641TIP3    H213869   6.493   7.095   3.809
 4642TIP3   OH213870   0.173   5.373   0.628
 4642TIP3    H113871   0.192   5.435   0.698
 4642TIP3    H213872   0.113   5.420   0.570
 4643TIP3   OH213873   2.675   7.630   6.825
 4643TIP3    H113874   2.631   7.605   6.743
 4643TIP3    H213875   2.660   7.724   6.832
 4644TIP3   OH213876   2.857   1.105   4.724
 4644TIP3    H113877   2.839   1.048   4.799
 4644TIP3    H213878   2.952   1.101   4.712
 4645TIP3   OH213879   6.957   6.321   2.934
 4645TIP3    H113880   6.916   6.242   2.899
 4645TIP3    H213881   6.909   6.393   2.893
 4646TIP3   OH213882   5.627   1.203   0.823
 4646TIP3    H113883   5.706   1.243   0.786
 4646TIP3    H213884   5.571   1.187   0.747
 4647TIP3   OH213885   4.193   1.419   1.059
 4647TIP3    H113886   4.244   1.343   1.031
 4647TIP3    H213887   4.226   1.440   1.146
 4648TIP3   OH213888   5.553   6.029   5.753
 4648TIP3    H113889   5.615   6.102   5.757
 4648TIP3    H213890   5.563   5.994   5.664
 4649TIP3   OH213891   4.216   7.040   3.228
 4649TIP3    H113892   4.281   7.056   3.159
 4649TIP3    H213893   4.229   6.948   3.251
 4650TIP3   OH213894   0.661   4.369   1.357
 4650TIP3    H113895   0.698   4.454   1.332
 4650TIP3    H213896   0.735   4.309   1.358
 4651TIP3   OH213897   4.387   5.745   6.439
 4651TIP3    H113898   4.439   5.698   6.504
 4651TIP3    H213899   4.382   5.686   6.364
 4652TIP3   OH213900   4.996   5.633   2.915
 4652TIP3    H113901   5.030   5.648   3.003
 4652TIP3    H213902   5.012   5.540   2.899
 4653TIP3   OH213903   5.518   3.921   6.310
 4653TIP3    H113904   5.443   3.952   6.360
 4653TIP3    H213905   5.526   3.984   6.238
 4654TIP3   OH213906   6.853   1.144   3.146
 4654TIP3    H113907   6.924   1.163   3.084
 4654TIP3    H213908   6.778   1.122   3.091
 4655TIP3   OH213909   3.335   2.176   5.446
 4655TIP3    H113910   3.271   2.119   5.488
 4655TIP3    H213911   3.288   2.259   5.434
 4656TIP3   OH213912   8.179   1.944   4.708
 4656TIP3    H113913   8.191   1.859   4.751
 4656TIP3    H213914   8.194   1.926   4.615
 4657TIP3   OH213915   2.461   1.229   5.772
 4657TIP3    H113916   2.494   1.154   5.722
 4657TIP3    H213917   2.521   1.300   5.750
 4658TIP3   OH213918   2.711   4.434   2.827
 4658TIP3    H113919   2.666   4.357   2.792
 4658TIP3    H213920   2.804   4.410   2.825
 4659TIP3   OH213921   3.353   6.305   4.822
 4659TIP3    H113922   3.446   6.314   4.803
 4659TIP3    H213923   3.335   6.212   4.810
 4660TIP3   OH213924   7.863   4.360   4.421
 4660TIP3    H113925   7.837   4.273   4.390
 4660TIP3    H213926   7.911   4.343   4.502
 4661TIP3   OH213927   3.781   7.539   4.620
 4661TIP3    H113928   3.688   7.529   4.639
 4661TIP3    H213929   3.825   7.494   4.693
 4662TIP3   OH213930   6.032   7.038   2.855
 4662TIP3    H113931   6.009   6.971   2.791
 4662TIP3    H213932   5.970   7.109   2.838
 4663TIP3   OH213933   5.439   5.616   0.147
 4663TIP3    H113934   5.505   5.550   0.169
 4663TIP3    H213935   5.366   5.597   0.207
 4664TIP3   OH213936   7.290   0.291   4.435
 4664TIP3    H113937   7.334   0.348   4.499
 4664TIP3    H213938   7.199   0.290   4.463
 4665TIP3   OH213939   2.315   1.306   0.895
 4665TIP3    H113940   2.298   1.250   0.971
 4665TIP3    H213941   2.408   1.329   0.903
 4666TIP3   OH213942   3.699   3.511   6.194
 4666TIP3    H113943   3.751   3.546   6.267
 4666TIP3    H213944   3.712   3.575   6.124
 4667TIP3   OH213945   5.475   7.748   5.370
 4667TIP3    H113946   5.432   7.723   5.288
 4667TIP3    H213947   5.444   7.837   5.387
 4668TIP3   OH213948   5.339   7.763   2.996
 4668TIP3    H113949   5.293   7.696   2.946
 4668TIP3    H213950   5.270   7.821   3.028
 4669TIP3   OH213951   4.078   2.278   6.224
 4669TIP3    H113952   4.140   2.351   6.223
 4669TIP3    H213953   3.994   2.319   6.248
 4670TIP3   OH213954   5.742   4.335   6.295
 4670TIP3    H113955   5.834   4.337   6.323
 4670TIP3    H213956   5.692   4.351   6.375
 4671TIP3   OH213957   6.485   4.874   5.006
 4671TIP3    H113958   6.494   4.962   5.041
 4671TIP3    H213959   6.434   4.884   4.926
 4672TIP3   OH213960   6.746   0.806   5.368
 4672TIP3    H113961   6.741   0.822   5.274
 4672TIP3    H213962   6.755   0.711   5.376
 4673TIP3   OH213963   1.690   5.073   3.220
 4673TIP3    H113964   1.681   5.134   3.147
 4673TIP3    H213965   1.702   4.987   3.178
 4674TIP3   OH213966   3.792   6.291   1.635
 4674TIP3    H113967   3.864   6.228   1.644
 4674TIP3    H213968   3.825   6.356   1.573
 4675TIP3   OH213969   1.999   7.269   1.703
 4675TIP3    H113970   1.974   7.296   1.615
 4675TIP3    H213971   2.092   7.293   1.710
 4676TIP3   OH213972   1.486   1.458   1.241
 4676TIP3    H113973   1.508   1.374   1.201
 4676TIP3    H213974   1.540   1.461   1.320
 4677TIP3   OH213975   3.448   3.030   1.551
 4677TIP3    H113976   3.430   3.054   1.642
 4677TIP3    H213977   3.492   3.107   1.515
 4678TIP3   OH213978   1.030   1.394   5.482
 4678TIP3    H113979   1.091   1.373   5.553
 4678TIP3    H213980   0.943   1.377   5.519
 4679TIP3   OH213981   2.976   3.249   3.790
 4679TIP3    H113982   2.924   3.211   3.861
 4679TIP3    H213983   2.978   3.181   3.723
 4680TIP3   OH213984   6.207   0.887   6.230
 4680TIP3    H113985   6.256   0.878   6.148
 4680TIP3    H213986   6.218   0.803   6.274
 4681TIP3   OH213987   0.298   5.231   2.254
 4681TIP3    H113988   0.259   5.176   2.186
 4681TIP3    H213989   0.226   5.254   2.312
 4682TIP3   OH213990   1.318   3.923   3.522
 4682TIP3    H113991   1.261   3.867   3.468
 4682TIP3    H213992   1.405   3.884   3.514
 4683TIP3   OH213993   7.398   7.222   3.773
 4683TIP3    H113994   7.402   7.198   3.680
 4683TIP3    H213995   7.378   7.141   3.818
 4684TIP3   OH213996   4.878   1.708   5.270
 4684TIP3    H113997   4.864   1.716   5.175
 4684TIP3    H213998   4.791   1.689   5.305
 4685TIP3   OH213999   7.224   0.936   6.458
 4685TIP3    H114000   7.263   0.983   6.531
 4685TIP3    H214001   7.151   0.887   6.496
 4686TIP3   OH214002   4.603   0.081   4.456
 4686TIP3    H114003   4.678   0.100   4.399
 4686TIP3    H214004   4.596  -0.014   4.455
 4687TIP3   OH214005   0.777   6.399   6.757
 4687TIP3    H114006   0.838   6.392   6.684
 4687TIP3    H214007   0.709   6.334   6.739
 4688TIP3   OH214008   6.699   7.653   0.335
 4688TIP3    H114009   6.774   7.595   0.342
 4688TIP3    H214010   6.623   7.595   0.342
 4689TIP3   OH214011   1.006   2.397   3.389
 4689TIP3    H114012   1.021   2.312   3.346
 4689TIP3    H214013   0.921   2.425   3.356
 4690TIP3   OH214014   6.950   0.264   2.938
 4690TIP3    H114015   6.919   0.232   2.854
 4690TIP3    H214016   6.988   0.350   2.919
 4691TIP3   OH214017   2.326   2.355   4.461
 4691TIP3    H114018   2.250   2.330   4.513
 4691TIP3    H214019   2.289   2.384   4.377
 4692TIP3   OH214020   2.986   6.825   4.761
 4692TIP3    H114021   2.981   6.747   4.817
 4692TIP3    H214022   3.015   6.895   4.820
 4693TIP3   OH214023   8.108   5.596   2.443
 4693TIP3    H114024   8.111   5.655   2.519
 4693TIP3    H214025   8.195   5.602   2.404
 4694TIP3   OH214026   6.378   4.939   1.213
 4694TIP3    H114027   6.438   4.869   1.189
 4694TIP3    H214028   6.357   4.982   1.131
 4695TIP3   OH214029   3.521   1.113   0.915
 4695TIP3    H114030   3.509   1.208   0.913
 4695TIP3    H214031   3.616   1.101   0.916
 4696TIP3   OH214032   0.753   0.552   5.052
 4696TIP3    H114033   0.779   0.462   5.075
 4696TIP3    H214034   0.822   0.607   5.091
 4697TIP3   OH214035   4.605   2.393   4.590
 4697TIP3    H114036   4.596   2.485   4.613
 4697TIP3    H214037   4.668   2.393   4.517
 4698TIP3   OH214038   3.829   1.794   1.696
 4698TIP3    H114039   3.842   1.886   1.674
 4698TIP3    H214040   3.913   1.765   1.732
 4699TIP3   OH214041   7.994   6.145   6.742
 4699TIP3    H114042   7.960   6.064   6.777
 4699TIP3    H214043   8.064   6.118   6.682
 4700TIP3   OH214044   6.749   5.200   3.882
 4700TIP3    H114045   6.721   5.207   3.791
 4700TIP3    H214046   6.677   5.239   3.932
 4701TIP3   OH214047   3.045   4.111   5.010
 4701TIP3    H114048   3.027   4.023   4.976
 4701TIP3    H214049   3.138   4.125   4.992
 4702TIP3   OH214050   0.826   6.303   0.604
 4702TIP3    H114051   0.845   6.213   0.630
 4702TIP3    H214052   0.744   6.297   0.555
 4703TIP3   OH214053   4.301   2.971   2.087
 4703TIP3    H114054   4.394   2.977   2.108
 4703TIP3    H214055   4.287   2.879   2.065
 4704TIP3   OH214056   3.775   2.355   5.200
 4704TIP3    H114057   3.842   2.293   5.171
 4704TIP3    H214058   3.736   2.313   5.277
 4705TIP3   OH214059   2.896   2.626   5.647
 4705TIP3    H114060   2.860   2.643   5.560
 4705TIP3    H214061   2.991   2.625   5.635
 4706TIP3   OH214062   5.495   2.728   6.400
 4706TIP3    H114063   5.464   2.792   6.336
 4706TIP3    H214064   5.499   2.646   6.351
 4707TIP3   OH214065   1.755   0.637   4.188
 4707TIP3    H114066   1.676   0.611   4.236
 4707TIP3    H214067   1.784   0.718   4.230
 4708TIP3   OH214068   7.082   5.095   4.060
 4708TIP3    H114069   7.029   5.165   4.022
 4708TIP3    H214070   7.172   5.122   4.047
 4709TIP3   OH214071   5.069   0.029   5.789
 4709TIP3    H114072   4.979  -0.002   5.784
 4709TIP3    H214073   5.076   0.093   5.718
 4710TIP3   OH214074   7.328   7.074   0.461
 4710TIP3    H114075   7.296   7.023   0.387
 4710TIP3    H214076   7.288   7.033   0.538
 4711TIP3   OH214077   5.773   5.274   6.685
 4711TIP3    H114078   5.695   5.320   6.655
 4711TIP3    H214079   5.779   5.293   6.778
 4712TIP3   OH214080   3.329   6.941   0.822
 4712TIP3    H114081   3.321   6.862   0.874
 4712TIP3    H214082   3.286   6.921   0.739
 4713TIP3   OH214083   7.962   5.098   0.883
 4713TIP3    H114084   7.985   5.071   0.972
 4713TIP3    H214085   7.867   5.090   0.879
 4714TIP3   OH214086   3.625   0.676   4.727
 4714TIP3    H114087   3.615   0.581   4.716
 4714TIP3    H214088   3.652   0.707   4.641
 4715TIP3   OH214089   7.696   7.552   4.159
 4715TIP3    H114090   7.666   7.641   4.181
 4715TIP3    H214091   7.623   7.513   4.111
 4716TIP3   OH214092   4.765   7.836   5.871
 4716TIP3    H114093   4.764   7.855   5.777
 4716TIP3    H214094   4.763   7.741   5.877
 4717TIP3   OH214095   2.140   3.639   4.368
 4717TIP3    H114096   2.102   3.587   4.297
 4717TIP3    H214097   2.219   3.591   4.393
 4718TIP3   OH214098   4.534   1.650   0.380
 4718TIP3    H114099   4.575   1.712   0.440
 4718TIP3    H214100   4.579   1.567   0.395
 4719TIP3   OH214101   1.083   2.700   4.801
 4719TIP3    H114102   1.138   2.681   4.877
 4719TIP3    H214103   1.061   2.793   4.810
 4720TIP3   OH214104   5.966   2.335   3.651
 4720TIP3    H114105   5.981   2.292   3.567
 4720TIP3    H214106   5.907   2.276   3.698
 4721TIP3   OH214107   2.423   5.692   1.207
 4721TIP3    H114108   2.495   5.687   1.145
 4721TIP3    H214109   2.457   5.742   1.281
 4722TIP3   OH214110   1.033   2.652   6.660
 4722TIP3    H114111   1.021   2.746   6.672
 4722TIP3    H214112   1.037   2.640   6.565
 4723TIP3   OH214113   3.259   1.566   5.107
 4723TIP3    H114114   3.332   1.576   5.168
 4723TIP3    H214115   3.254   1.472   5.091
 4724TIP3   OH214116   0.093   4.131   4.846
 4724TIP3    H114117   0.185   4.132   4.871
 4724TIP3    H214118   0.054   4.204   4.895
 4725TIP3   OH214119   4.191   0.213   0.364
 4725TIP3    H114120   4.236   0.235   0.283
 4725TIP3    H214121   4.111   0.266   0.361
 4726TIP3   OH214122   2.397   6.094   2.775
 4726TIP3    H114123   2.304   6.080   2.793
 4726TIP3    H214124   2.427   6.152   2.845
 4727TIP3   OH214125   3.913   1.422   1.960
 4727TIP3    H114126   3.936   1.402   1.870
 4727TIP3    H214127   3.860   1.349   1.989
 4728TIP3   OH214128   0.043   6.821   4.253
 4728TIP3    H114129  -0.011   6.899   4.262
 4728TIP3    H214130   0.131   6.849   4.275
 4729TIP3   OH214131   7.814   6.720   1.349
 4729TIP3    H114132   7.815   6.676   1.434
 4729TIP3    H214133   7.773   6.805   1.366
 4730TIP3   OH214134   3.521   2.319   5.969
 4730TIP3    H114135   3.438   2.335   5.925
 4730TIP3    H214136   3.530   2.391   6.032
 4731TIP3   OH214137   1.999   2.642   1.483
 4731TIP3    H114138   1.995   2.738   1.483
 4731TIP3    H214139   2.081   2.621   1.527
 4732TIP3   OH214140   3.807   2.451   1.532
 4732TIP3    H114141   3.714   2.474   1.522
 4732TIP3    H214142   3.815   2.365   1.492
 4733TIP3   OH214143   7.788   0.777   6.705
 4733TIP3    H114144   7.709   0.830   6.690
 4733TIP3    H214145   7.823   0.761   6.617
 4734TIP3   OH214146   3.490   5.015   2.750
 4734TIP3    H114147   3.513   5.094   2.799
 4734TIP3    H214148   3.574   4.975   2.727
 4735TIP3   OH214149   1.928   5.928   4.209
 4735TIP3    H114150   1.843   5.963   4.238
 4735TIP3    H214151   1.917   5.833   4.214
 4736TIP3   OH214152   6.304   7.031   0.756
 4736TIP3    H114153   6.372   7.089   0.790
 4736TIP3    H214154   6.351   6.952   0.731
 4737TIP3   OH214155   8.065   7.475   5.605
 4737TIP3    H114156   8.133   7.541   5.592
 4737TIP3    H214157   8.099   7.417   5.673
 4738TIP3   OH214158   6.150   0.830   3.849
 4738TIP3    H114159   6.141   0.858   3.941
 4738TIP3    H214160   6.187   0.742   3.855
 4739TIP3   OH214161   7.523   0.673   2.576
 4739TIP3    H114162   7.533   0.650   2.484
 4739TIP3    H214163   7.433   0.649   2.597
 4740TIP3   OH214164   1.450   5.240   1.662
 4740TIP3    H114165   1.516   5.177   1.636
 4740TIP3    H214166   1.367   5.202   1.633
 4741TIP3   OH214167   7.555   2.853   4.764
 4741TIP3    H114168   7.573   2.886   4.676
 4741TIP3    H214169   7.490   2.913   4.800
 4742TIP3   OH214170   7.837   3.804   2.541
 4742TIP3    H114171   7.774   3.798   2.470
 4742TIP3    H214172   7.911   3.751   2.512
 4743TIP3   OH214173   6.371   1.032   1.960
 4743TIP3    H114174   6.372   1.102   1.895
 4743TIP3    H214175   6.407   1.071   2.039
 4744TIP3   OH214176   7.019   5.766   1.942
 4744TIP3    H114177   7.110   5.736   1.947
 4744TIP3    H214178   6.990   5.770   2.033
 4745TIP3   OH214179   1.917   7.381   0.657
 4745TIP3    H114180   1.880   7.333   0.582
 4745TIP3    H214181   2.003   7.342   0.670
 4746TIP3   OH214182   8.138   3.346   5.914
 4746TIP3    H114183   8.124   3.286   5.841
 4746TIP3    H214184   8.227   3.380   5.901
 4747TIP3   OH214185   5.555   5.463   6.622
 4747TIP3    H114186   5.628   5.515   6.587
 4747TIP3    H214187   5.499   5.447   6.547
 4748TIP3   OH214188   0.801   1.456   6.225
 4748TIP3    H114189   0.761   1.529   6.178
 4748TIP3    H214190   0.738   1.385   6.217
 4749TIP3   OH214191   1.325   2.560   6.667
 4749TIP3    H114192   1.250   2.618   6.654
 4749TIP3    H214193   1.357   2.583   6.755
 4750TIP3   OH214194   7.700   0.789   5.597
 4750TIP3    H114195   7.691   0.796   5.502
 4750TIP3    H214196   7.762   0.857   5.621
 4751TIP3   OH214197   4.628   4.610   3.572
 4751TIP3    H114198   4.679   4.679   3.615
 4751TIP3    H214199   4.656   4.613   3.481
 4752TIP3   OH214200   7.015   5.500   2.671
 4752TIP3    H114201   6.954   5.559   2.626
 4752TIP3    H214202   7.099   5.546   2.667
 4753TIP3   OH214203   5.437   4.821   0.186
 4753TIP3    H114204   5.405   4.808   0.275
 4753TIP3    H214205   5.527   4.851   0.197
 4754TIP3   OH214206   2.035   3.548   5.886
 4754TIP3    H114207   2.029   3.466   5.935
 4754TIP3    H214208   2.114   3.537   5.833
 4755TIP3   OH214209   5.393   1.722   4.194
 4755TIP3    H114210   5.358   1.745   4.108
 4755TIP3    H214211   5.329   1.757   4.256
 4756TIP3   OH214212   2.819   1.940   0.168
 4756TIP3    H114213   2.802   1.850   0.140
 4756TIP3    H214214   2.914   1.948   0.170
 4757TIP3   OH214215   4.387   3.287   6.455
 4757TIP3    H114216   4.361   3.248   6.538
 4757TIP3    H214217   4.466   3.338   6.476
 4758TIP3   OH214218   2.627   5.999   2.985
 4758TIP3    H114219   2.665   5.927   2.934
 4758TIP3    H214220   2.544   5.964   3.017
 4759TIP3   OH214221   3.863   5.737   0.895
 4759TIP3    H114222   3.848   5.673   0.965
 4759TIP3    H214223   3.785   5.730   0.839
 4760TIP3   OH214224   0.155   4.871   3.887
 4760TIP3    H114225   0.209   4.815   3.831
 4760TIP3    H214226   0.191   4.959   3.877
 4761TIP3   OH214227   3.255   7.314   4.800
 4761TIP3    H114228   3.249   7.309   4.895
 4761TIP3    H214229   3.321   7.248   4.777
 4762TIP3   OH214230   5.734   5.849   0.914
 4762TIP3    H114231   5.652   5.857   0.865
 4762TIP3    H214232   5.744   5.755   0.929
 4763TIP3   OH214233   5.227   0.645   1.316
 4763TIP3    H114234   5.253   0.734   1.340
 4763TIP3    H214235   5.247   0.593   1.393
 4764TIP3   OH214236   4.119   4.546   4.322
 4764TIP3    H114237   4.140   4.517   4.411
 4764TIP3    H214238   4.094   4.466   4.276
 4765TIP3   OH214239   7.497   5.531   6.296
 4765TIP3    H114240   7.474   5.613   6.339
 4765TIP3    H214241   7.565   5.493   6.352
 4766TIP3   OH214242   0.476   3.140   2.657
 4766TIP3    H114243   0.487   3.071   2.592
 4766TIP3    H214244   0.544   3.123   2.722
 4767TIP3   OH214245   7.762   1.618   1.136
 4767TIP3    H114246   7.701   1.573   1.195
 4767TIP3    H214247   7.739   1.586   1.049
 4768TIP3   OH214248   5.832   5.382   4.515
 4768TIP3    H114249   5.883   5.393   4.596
 4768TIP3    H214250   5.866   5.450   4.457
 4769TIP3   OH214251   0.604   6.985   4.069
 4769TIP3    H114252   0.699   6.990   4.063
 4769TIP3    H214253   0.580   6.914   4.011
 4770TIP3   OH214254   1.930   3.546   5.149
 4770TIP3    H114255   1.950   3.599   5.072
 4770TIP3    H214256   1.836   3.553   5.160
 4771TIP3   OH214257   4.599   4.412   0.437
 4771TIP3    H114258   4.581   4.318   0.444
 4771TIP3    H214259   4.543   4.452   0.504
 4772TIP3   OH214260   8.069   1.479   1.609
 4772TIP3    H114261   8.057   1.473   1.514
 4772TIP3    H214262   7.993   1.433   1.646
 4773TIP3   OH214263   3.431   5.055   4.557
 4773TIP3    H114264   3.383   5.132   4.525
 4773TIP3    H214265   3.459   5.080   4.645
 4774TIP3   OH214266   3.094   5.195   2.227
 4774TIP3    H114267   3.120   5.106   2.252
 4774TIP3    H214268   3.040   5.226   2.300
 4775TIP3   OH214269   1.774   5.434   4.114
 4775TIP3    H114270   1.729   5.360   4.074
 4775TIP3    H214271   1.820   5.476   4.041
 4776TIP3   OH214272   4.178   3.862   6.494
 4776TIP3    H114273   4.107   3.895   6.440
 4776TIP3    H214274   4.192   3.772   6.464
 4777TIP3   OH214275   1.930   5.850   2.858
 4777TIP3    H114276   1.858   5.904   2.890
 4777TIP3    H214277   1.988   5.911   2.813
 4778TIP3   OH214278   5.521   0.630   5.618
 4778TIP3    H114279   5.460   0.595   5.683
 4778TIP3    H214280   5.481   0.610   5.534
 4779TIP3   OH214281   0.974   7.625   2.195
 4779TIP3    H114282   1.008   7.706   2.158
 4779TIP3    H214283   0.966   7.643   2.289
 4780TIP3   OH214284   5.549   0.738   6.751
 4780TIP3    H114285   5.569   0.735   6.845
 4780TIP3    H214286   5.627   0.704   6.708
 4781TIP3   OH214287   1.547   6.254   2.743
 4781TIP3    H114288   1.594   6.204   2.677
 4781TIP3    H214289   1.518   6.333   2.698
 4782TIP3   OH214290   2.124   6.488   0.123
 4782TIP3    H114291   2.037   6.526   0.131
 4782TIP3    H214292   2.156   6.481   0.213
 4783TIP3   OH214293   2.878   3.663   5.448
 4783TIP3    H114294   2.808   3.602   5.471
 4783TIP3    H214295   2.923   3.621   5.374
 4784TIP3   OH214296   4.187   7.796   5.794
 4784TIP3    H114297   4.111   7.756   5.836
 4784TIP3    H214298   4.152   7.874   5.751
 4785TIP3   OH214299   6.475   4.345   4.302
 4785TIP3    H114300   6.480   4.418   4.364
 4785TIP3    H214301   6.565   4.314   4.295
 4786TIP3   OH214302   6.937   1.087   5.920
 4786TIP3    H114303   6.946   1.180   5.944
 4786TIP3    H214304   6.987   1.040   5.986
 4787TIP3   OH214305   1.652   5.421   1.908
 4787TIP3    H114306   1.717   5.489   1.890
 4787TIP3    H214307   1.693   5.367   1.976
 4788TIP3   OH214308   5.572   4.655   5.280
 4788TIP3    H114309   5.547   4.578   5.331
 4788TIP3    H214310   5.515   4.725   5.312
 4789TIP3   OH214311   6.726   2.285   3.393
 4789TIP3    H114312   6.652   2.279   3.333
 4789TIP3    H214313   6.749   2.194   3.413
 4790TIP3   OH214314   0.918   0.295   4.070
 4790TIP3    H114315   0.999   0.314   4.022
 4790TIP3    H214316   0.931   0.335   4.156
 4791TIP3   OH214317   3.397   3.539   6.735
 4791TIP3    H114318   3.357   3.506   6.655
 4791TIP3    H214319   3.358   3.626   6.747
 4792TIP3   OH214320   3.648   4.557   5.116
 4792TIP3    H114321   3.693   4.635   5.082
 4792TIP3    H214322   3.717   4.506   5.157
 4793TIP3   OH214323   5.250   6.357   1.928
 4793TIP3    H114324   5.241   6.348   1.833
 4793TIP3    H214325   5.201   6.283   1.963
 4794TIP3   OH214326   1.333   3.673   6.103
 4794TIP3    H114327   1.287   3.616   6.040
 4794TIP3    H214328   1.335   3.622   6.184
 4795TIP3   OH214329   4.045   0.417   4.271
 4795TIP3    H114330   4.083   0.505   4.274
 4795TIP3    H214331   4.033   0.400   4.178
 4796TIP3   OH214332   2.760   4.226   5.347
 4796TIP3    H114333   2.772   4.169   5.271
 4796TIP3    H214334   2.774   4.315   5.313
 4797TIP3   OH214335   6.593   5.416   2.659
 4797TIP3    H114336   6.664   5.420   2.596
 4797TIP3    H214337   6.588   5.324   2.685
 4798TIP3   OH214338   4.060   1.734   3.455
 4798TIP3    H114339   4.070   1.828   3.440
 4798TIP3    H214340   4.063   1.725   3.550
 4799TIP3   OH214341   4.943   6.658   0.089
 4799TIP3    H114342   4.972   6.572   0.059
 4799TIP3    H214343   4.983   6.720   0.027
 4800TIP3   OH214344   3.678   0.853   0.355
 4800TIP3    H114345   3.669   0.815   0.267
 4800TIP3    H214346   3.588   0.861   0.387
 4801TIP3   OH214347   5.461   3.986   2.283
 4801TIP3    H114348   5.515   3.955   2.211
 4801TIP3    H214349   5.371   3.972   2.254
 4802TIP3   OH214350   1.414   2.442   0.779
 4802TIP3    H114351   1.432   2.363   0.831
 4802TIP3    H214352   1.432   2.416   0.689
 4803TIP3   OH214353   5.099   5.319   6.579
 4803TIP3    H114354   5.096   5.293   6.671
 4803TIP3    H214355   5.064   5.243   6.532
 4804TIP3   OH214356   7.020   0.513   2.857
 4804TIP3    H114357   7.075   0.486   2.783
 4804TIP3    H214358   7.077   0.567   2.911
 4805TIP3   OH214359   1.070   0.527   5.446
 4805TIP3    H114360   1.134   0.495   5.510
 4805TIP3    H214361   1.025   0.598   5.491
 4806TIP3   OH214362   7.291   3.660   6.808
 4806TIP3    H114363   7.226   3.638   6.741
 4806TIP3    H214364   7.375   3.642   6.766
 4807TIP3   OH214365   7.404   7.147   6.129
 4807TIP3    H114366   7.361   7.078   6.180
 4807TIP3    H214367   7.361   7.228   6.158
 4808TIP3   OH214368   4.455   6.185   5.737
 4808TIP3    H114369   4.376   6.198   5.789
 4808TIP3    H214370   4.427   6.197   5.646
 4809TIP3   OH214371   5.374   3.668   6.344
 4809TIP3    H114372   5.434   3.742   6.332
 4809TIP3    H214373   5.290   3.709   6.365
 4810TIP3   OH214374   1.420   6.220   1.171
 4810TIP3    H114375   1.372   6.153   1.220
 4810TIP3    H214376   1.382   6.303   1.202
 4811TIP3   OH214377   4.543   0.487   2.030
 4811TIP3    H114378   4.634   0.458   2.033
 4811TIP3    H214379   4.491   0.407   2.036
 4812TIP3   OH214380   6.591   6.790   4.215
 4812TIP3    H114381   6.661   6.843   4.177
 4812TIP3    H214382   6.540   6.851   4.268
 4813TIP3   OH214383   6.110   2.159   4.680
 4813TIP3    H114384   6.130   2.252   4.672
 4813TIP3    H214385   6.192   2.115   4.657
 4814TIP3   OH214386   2.714   2.453   3.179
 4814TIP3    H114387   2.656   2.381   3.204
 4814TIP3    H214388   2.655   2.525   3.157
 4815TIP3   OH214389   0.640   2.522   6.294
 4815TIP3    H114390   0.603   2.434   6.300
 4815TIP3    H214391   0.656   2.547   6.385
 4816TIP3   OH214392   1.745   7.298   2.702
 4816TIP3    H114393   1.654   7.322   2.720
 4816TIP3    H214394   1.793   7.323   2.781
 4817TIP3   OH214395   0.734   0.393   2.614
 4817TIP3    H114396   0.643   0.420   2.625
 4817TIP3    H214397   0.734   0.300   2.639
 4818TIP3   OH214398   3.467   7.113   4.143
 4818TIP3    H114399   3.426   7.082   4.224
 4818TIP3    H214400   3.430   7.200   4.128
 4819TIP3   OH214401   0.612   0.858   0.077
 4819TIP3    H114402   0.635   0.890   0.165
 4819TIP3    H214403   0.539   0.798   0.092
 4820TIP3   OH214404   7.672   5.911   6.358
 4820TIP3    H114405   7.694   5.965   6.433
 4820TIP3    H214406   7.614   5.966   6.304
 4821TIP3   OH214407   4.804   4.637   5.913
 4821TIP3    H114408   4.771   4.548   5.930
 4821TIP3    H214409   4.780   4.654   5.822
 4822TIP3   OH214410   5.294   0.424   6.108
 4822TIP3    H114411   5.266   0.344   6.063
 4822TIP3    H214412   5.233   0.491   6.079
 4823TIP3   OH214413   5.781   2.855   3.599
 4823TIP3    H114414   5.692   2.890   3.605
 4823TIP3    H214415   5.801   2.826   3.688
 4824TIP3   OH214416   2.582   4.659   0.344
 4824TIP3    H114417   2.522   4.680   0.272
 4824TIP3    H214418   2.659   4.621   0.301
 4825TIP3   OH214419   2.864   3.061   3.263
 4825TIP3    H114420   2.829   3.083   3.177
 4825TIP3    H214421   2.959   3.071   3.253
 4826TIP3   OH214422   0.856   0.130   3.725
 4826TIP3    H114423   0.897   0.099   3.805
 4826TIP3    H214424   0.910   0.093   3.655
 4827TIP3   OH214425   5.128   6.091   2.230
 4827TIP3    H114426   5.080   6.171   2.209
 4827TIP3    H214427   5.062   6.034   2.270
 4828TIP3   OH214428   5.865   2.221   3.167
 4828TIP3    H114429   5.830   2.288   3.225
 4828TIP3    H214430   5.906   2.269   3.095
 4829TIP3   OH214431   7.777   0.686   0.418
 4829TIP3    H114432   7.834   0.612   0.394
 4829TIP3    H214433   7.753   0.726   0.335
 4830TIP3   OH214434   4.069   0.907   3.706
 4830TIP3    H114435   4.122   0.828   3.696
 4830TIP3    H214436   3.980   0.875   3.720
 4831TIP3   OH214437   4.832   5.353   2.420
 4831TIP3    H114438   4.794   5.301   2.349
 4831TIP3    H214439   4.921   5.317   2.431
 4832TIP3   OH214440   4.369   6.903   1.867
 4832TIP3    H114441   4.385   6.932   1.778
 4832TIP3    H214442   4.456   6.887   1.903
 4833TIP3   OH214443   3.561   4.023   2.558
 4833TIP3    H114444   3.611   4.014   2.477
 4833TIP3    H214445   3.495   4.090   2.539
 4834TIP3   OH214446   6.974   7.757   1.204
 4834TIP3    H114447   6.985   7.705   1.125
 4834TIP3    H214448   6.902   7.817   1.184
 4835TIP3   OH214449   7.706   1.264   2.042
 4835TIP3    H114450   7.645   1.327   2.002
 4835TIP3    H214451   7.786   1.273   1.991
 4836TIP3   OH214452   7.550   2.520   4.018
 4836TIP3    H114453   7.530   2.611   4.041
 4836TIP3    H214454   7.572   2.523   3.925
 4837TIP3   OH214455   3.783   1.008   0.014
 4837TIP3    H114456   3.834   1.049   0.084
 4837TIP3    H214457   3.786   0.914   0.035
 4838TIP3   OH214458   5.885   1.658   5.712
 4838TIP3    H114459   5.918   1.570   5.692
 4838TIP3    H214460   5.791   1.645   5.729
 4839TIP3   OH214461   1.755   6.417   1.630
 4839TIP3    H114462   1.724   6.507   1.618
 4839TIP3    H214463   1.779   6.411   1.722
 4840TIP3   OH214464   2.199   1.207   6.181
 4840TIP3    H114465   2.197   1.141   6.251
 4840TIP3    H214466   2.109   1.210   6.149
 4841TIP3   OH214467   3.460   5.199   1.087
 4841TIP3    H114468   3.516   5.229   1.016
 4841TIP3    H214469   3.385   5.259   1.085
 4842TIP3   OH214470   3.203   1.971   3.180
 4842TIP3    H114471   3.213   1.886   3.223
 4842TIP3    H214472   3.125   2.009   3.219
 4843TIP3   OH214473   0.790   6.679   2.405
 4843TIP3    H114474   0.829   6.659   2.320
 4843TIP3    H214475   0.699   6.652   2.396
 4844TIP3   OH214476   4.532   1.661   0.100
 4844TIP3    H114477   4.500   1.690   0.186
 4844TIP3    H214478   4.511   1.733   0.041
 4845TIP3   OH214479   8.250   1.142   5.298
 4845TIP3    H114480   8.286   1.194   5.226
 4845TIP3    H214481   8.188   1.201   5.341
 4846TIP3   OH214482   6.824   4.259   1.896
 4846TIP3    H114483   6.861   4.307   1.821
 4846TIP3    H214484   6.732   4.284   1.897
 4847TIP3   OH214485   5.263   4.750   0.861
 4847TIP3    H114486   5.193   4.781   0.803
 4847TIP3    H214487   5.230   4.764   0.949
 4848TIP3   OH214488   3.909   2.935   5.254
 4848TIP3    H114489   3.992   2.887   5.252
 4848TIP3    H214490   3.851   2.884   5.197
 4849TIP3   OH214491   4.271   2.763   6.512
 4849TIP3    H114492   4.256   2.791   6.422
 4849TIP3    H214493   4.267   2.667   6.508
 4850TIP3   OH214494   6.891   1.616   3.003
 4850TIP3    H114495   6.847   1.557   3.065
 4850TIP3    H214496   6.834   1.617   2.926
 4851TIP3   OH214497   3.411   4.453   2.480
 4851TIP3    H114498   3.459   4.467   2.398
 4851TIP3    H214499   3.402   4.358   2.486
 4852TIP3   OH214500   5.991   1.628   1.120
 4852TIP3    H114501   5.954   1.558   1.067
 4852TIP3    H214502   5.951   1.708   1.087
 4853TIP3   OH214503   0.986   2.955   6.601
 4853TIP3    H114504   1.075   2.941   6.567
 4853TIP3    H214505   0.984   3.048   6.624
 4854TIP3   OH214506   5.182   0.208   3.052
 4854TIP3    H114507   5.147   0.121   3.071
 4854TIP3    H214508   5.243   0.193   2.980
 4855TIP3   OH214509   6.308   3.095   3.470
 4855TIP3    H114510   6.242   3.029   3.448
 4855TIP3    H214511   6.385   3.069   3.419
 4856TIP3   OH214512   7.937   2.947   2.799
 4856TIP3    H114513   8.017   2.987   2.765
 4856TIP3    H214514   7.966   2.894   2.873
 4857TIP3   OH214515   1.943   1.601   4.531
 4857TIP3    H114516   2.024   1.572   4.572
 4857TIP3    H214517   1.874   1.571   4.589
 4858TIP3   OH214518   0.545   2.481   5.623
 4858TIP3    H114519   0.638   2.490   5.604
 4858TIP3    H214520   0.539   2.406   5.681
 4859TIP3   OH214521   4.604   6.469   4.411
 4859TIP3    H114522   4.635   6.468   4.502
 4859TIP3    H214523   4.684   6.472   4.359
 4860TIP3   OH214524   1.192   6.086   1.972
 4860TIP3    H114525   1.166   6.176   1.989
 4860TIP3    H214526   1.166   6.037   2.051
 4861TIP3   OH214527   4.510   0.956   0.982
 4861TIP3    H114528   4.591   0.909   1.003
 4861TIP3    H214529   4.479   0.915   0.901
 4862TIP3   OH214530   0.846   5.559   1.545
 4862TIP3    H114531   0.783   5.493   1.515
 4862TIP3    H214532   0.911   5.509   1.595
 4863TIP3   OH214533   6.020   5.541   5.643
 4863TIP3    H114534   6.031   5.621   5.694
 4863TIP3    H214535   5.945   5.497   5.682
 4864TIP3   OH214536   3.311   2.634   3.686
 4864TIP3    H114537   3.237   2.576   3.707
 4864TIP3    H214538   3.349   2.656   3.770
 4865TIP3   OH214539   2.260   7.575   4.963
 4865TIP3    H114540   2.166   7.592   4.960
 4865TIP3    H214541   2.283   7.551   4.874
 4866TIP3   OH214542   6.021   6.316   4.642
 4866TIP3    H114543   6.020   6.405   4.606
 4866TIP3    H214544   6.003   6.328   4.735
 4867TIP3   OH214545   1.830   4.154   5.494
 4867TIP3    H114546   1.744   4.166   5.534
 4867TIP3    H214547   1.821   4.188   5.405
 4868TIP3   OH214548   4.241   5.186   6.721
 4868TIP3    H114549   4.161   5.137   6.703
 4868TIP3    H214550   4.303   5.155   6.655
 4869TIP3   OH214551   3.986   2.242   4.903
 4869TIP3    H114552   3.948   2.236   4.815
 4869TIP3    H214553   3.974   2.154   4.940
 4870TIP3   OH214554   4.867   1.482   3.572
 4870TIP3    H114555   4.862   1.514   3.482
 4870TIP3    H214556   4.800   1.530   3.619
 4871TIP3   OH214557   6.800   0.172   2.181
 4871TIP3    H114558   6.824   0.129   2.098
 4871TIP3    H214559   6.736   0.238   2.156
 4872TIP3   OH214560   5.237   5.303   1.176
 4872TIP3    H114561   5.198   5.267   1.255
 4872TIP3    H214562   5.175   5.370   1.146
 4873TIP3   OH214563   2.632   3.327   0.113
 4873TIP3    H114564   2.695   3.384   0.069
 4873TIP3    H214565   2.554   3.381   0.124
 4874TIP3   OH214566   2.829   0.489   0.450
 4874TIP3    H114567   2.810   0.396   0.437
 4874TIP3    H214568   2.830   0.501   0.545
 4875TIP3   OH214569   7.192   4.814   1.910
 4875TIP3    H114570   7.104   4.837   1.881
 4875TIP3    H214571   7.235   4.899   1.923
 4876TIP3   OH214572   7.311   3.914   5.355
 4876TIP3    H114573   7.331   3.950   5.441
 4876TIP3    H214574   7.324   3.988   5.295
 4877TIP3   OH214575   1.615   2.200   5.628
 4877TIP3    H114576   1.538   2.257   5.631
 4877TIP3    H214577   1.620   2.161   5.716
 4878TIP3   OH214578   6.262   2.797   5.723
 4878TIP3    H114579   6.315   2.718   5.718
 4878TIP3    H214580   6.297   2.845   5.798
 4879TIP3   OH214581   7.577   6.221   4.949
 4879TIP3    H114582   7.600   6.129   4.933
 4879TIP3    H214583   7.661   6.263   4.969
 4880TIP3   OH214584   3.051   1.495   6.169
 4880TIP3    H114585   3.129   1.523   6.218
 4880TIP3    H214586   3.011   1.577   6.139
 4881TIP3   OH214587   7.474   7.548   3.160
 4881TIP3    H114588   7.499   7.523   3.071
 4881TIP3    H214589   7.536   7.503   3.216
 4882TIP3   OH214590   0.944   2.578   0.327
 4882TIP3    H114591   0.916   2.599   0.238
 4882TIP3    H214592   0.931   2.660   0.376
 4883TIP3   OH214593   3.241   2.457   3.935
 4883TIP3    H114594   3.166   2.514   3.953
 4883TIP3    H214595   3.311   2.492   3.990
 4884TIP3   OH214596   1.330   1.017   3.583
 4884TIP3    H114597   1.314   1.110   3.563
 4884TIP3    H214598   1.418   1.000   3.550
 4885TIP3   OH214599   6.585   3.114   0.217
 4885TIP3    H114600   6.542   3.199   0.227
 4885TIP3    H214601   6.670   3.125   0.259
 4886TIP3   OH214602   7.411   0.786   0.245
 4886TIP3    H114603   7.350   0.736   0.299
 4886TIP3    H214604   7.498   0.750   0.267
 4887TIP3   OH214605   6.604   4.133   2.212
 4887TIP3    H114606   6.633   4.116   2.122
 4887TIP3    H214607   6.509   4.132   2.208
 4888TIP3   OH214608   3.382   3.939   2.891
 4888TIP3    H114609   3.391   3.862   2.947
 4888TIP3    H214610   3.466   3.984   2.899
 4889TIP3   OH214611   7.674   7.488   6.320
 4889TIP3    H114612   7.762   7.525   6.308
 4889TIP3    H214613   7.687   7.394   6.309
 4890TIP3   OH214614   6.782   7.599   5.946
 4890TIP3    H114615   6.798   7.693   5.935
 4890TIP3    H214616   6.689   7.594   5.969
 4891TIP3   OH214617   3.525   6.984   6.534
 4891TIP3    H114618   3.580   7.014   6.461
 4891TIP3    H214619   3.437   7.012   6.510
 4892TIP3   OH214620   7.747   0.808   1.593
 4892TIP3    H114621   7.811   0.769   1.652
 4892TIP3    H214622   7.740   0.899   1.623
 4893TIP3   OH214623   7.277   7.741   2.812
 4893TIP3    H114624   7.339   7.811   2.794
 4893TIP3    H214625   7.211   7.749   2.744
 4894TIP3   OH214626   6.293   0.770   1.328
 4894TIP3    H114627   6.305   0.754   1.422
 4894TIP3    H214628   6.381   0.791   1.297
 4895TIP3   OH214629   0.770   7.132   0.112
 4895TIP3    H114630   0.725   7.174   0.185
 4895TIP3    H214631   0.844   7.087   0.152
 4896TIP3   OH214632   2.257   7.051   3.396
 4896TIP3    H114633   2.238   7.142   3.418
 4896TIP3    H214634   2.351   7.048   3.383
 4897TIP3   OH214635   6.117   1.849   2.781
 4897TIP3    H114636   6.040   1.883   2.827
 4897TIP3    H214637   6.190   1.867   2.839
 4898TIP3   OH214638   1.747   7.471   1.269
 4898TIP3    H114639   1.820   7.533   1.273
 4898TIP3    H214640   1.676   7.521   1.228
 4899TIP3   OH214641   7.137   3.538   6.591
 4899TIP3    H114642   7.083   3.600   6.540
 4899TIP3    H214643   7.211   3.518   6.533
 4900TIP3   OH214644   1.078   2.145   3.341
 4900TIP3    H114645   1.146   2.113   3.281
 4900TIP3    H214646   1.099   2.103   3.424
 4901TIP3   OH214647   5.336   3.035   2.968
 4901TIP3    H114648   5.296   3.076   3.044
 4901TIP3    H214649   5.304   3.085   2.894
 4902TIP3   OH214650   6.279   4.999   5.194
 4902TIP3    H114651   6.202   5.048   5.222
 4902TIP3    H214652   6.245   4.912   5.172
 4903TIP3   OH214653   6.152   2.148   4.226
 4903TIP3    H114654   6.182   2.060   4.202
 4903TIP3    H214655   6.060   2.137   4.246
 4904TIP3   OH214656   3.521   1.386   6.539
 4904TIP3    H114657   3.513   1.437   6.458
 4904TIP3    H214658   3.508   1.295   6.512
 4905TIP3   OH214659   6.544   5.249   5.986
 4905TIP3    H114660   6.486   5.319   5.957
 4905TIP3    H214661   6.511   5.171   5.943
 4906TIP3   OH214662   4.187   0.466   4.553
 4906TIP3    H114663   4.274   0.505   4.567
 4906TIP3    H214664   4.182   0.455   4.458
 4907TIP3   OH214665   6.282   4.220   0.707
 4907TIP3    H114666   6.187   4.218   0.699
 4907TIP3    H214667   6.312   4.140   0.665
 4908TIP3   OH214668   3.820   0.868   4.235
 4908TIP3    H114669   3.780   0.916   4.308
 4908TIP3    H214670   3.907   0.906   4.226
 4909TIP3   OH214671   5.658   7.671   4.157
 4909TIP3    H114672   5.686   7.763   4.157
 4909TIP3    H214673   5.599   7.663   4.231
 4910TIP3   OH214674   2.661   2.770   1.489
 4910TIP3    H114675   2.631   2.701   1.548
 4910TIP3    H214676   2.713   2.829   1.544
 4911TIP3   OH214677   4.872   6.741   1.219
 4911TIP3    H114678   4.898   6.659   1.260
 4911TIP3    H214679   4.951   6.770   1.172
 4912TIP3   OH214680   5.052   0.371   4.563
 4912TIP3    H114681   5.060   0.371   4.658
 4912TIP3    H214682   5.140   0.391   4.531
 4913TIP3   OH214683   3.428   5.525   1.089
 4913TIP3    H114684   3.441   5.489   1.176
 4913TIP3    H214685   3.357   5.472   1.052
 4914TIP3   OH214686   3.590   6.411   0.509
 4914TIP3    H114687   3.663   6.352   0.523
 4914TIP3    H214688   3.601   6.442   0.419
 4915TIP3   OH214689   6.141   4.528   5.440
 4915TIP3    H114690   6.047   4.530   5.422
 4915TIP3    H214691   6.163   4.617   5.467
 4916TIP3   OH214692   5.625   3.641   2.710
 4916TIP3    H114693   5.618   3.547   2.692
 4916TIP3    H214694   5.612   3.648   2.805
 4917TIP3   OH214695   0.775   3.526   4.427
 4917TIP3    H114696   0.707   3.464   4.399
 4917TIP3    H214697   0.835   3.473   4.479
 4918TIP3   OH214698   4.628   5.827   1.079
 4918TIP3    H114699   4.671   5.751   1.117
 4918TIP3    H214700   4.699   5.878   1.040
 4919TIP3   OH214701   2.801   4.549   0.238
 4919TIP3    H114702   2.881   4.544   0.290
 4919TIP3    H214703   2.828   4.529   0.149
 4920TIP3   OH214704   0.336   6.158   3.549
 4920TIP3    H114705   0.422   6.127   3.575
 4920TIP3    H214706   0.353   6.217   3.475
 4921TIP3   OH214707   4.267   3.371   1.187
 4921TIP3    H114708   4.208   3.374   1.261
 4921TIP3    H214709   4.229   3.305   1.128
 4922TIP3   OH214710   6.174   4.927   5.907
 4922TIP3    H114711   6.224   4.887   5.835
 4922TIP3    H214712   6.131   4.853   5.950
 4923TIP3   OH214713   0.140   6.337   0.315
 4923TIP3    H114714   0.117   6.338   0.408
 4923TIP3    H214715   0.060   6.365   0.271
 4924TIP3   OH214716   3.048   6.762   3.195
 4924TIP3    H114717   3.065   6.848   3.156
 4924TIP3    H214718   3.134   6.733   3.227
 4925TIP3   OH214719   6.059   5.110   2.876
 4925TIP3    H114720   6.094   5.170   2.811
 4925TIP3    H214721   6.097   5.025   2.853
 4926TIP3   OH214722   7.401   0.694   6.516
 4926TIP3    H114723   7.487   0.725   6.487
 4926TIP3    H214724   7.339   0.753   6.474
 4927TIP3   OH214725   7.182   4.188   5.107
 4927TIP3    H114726   7.093   4.172   5.137
 4927TIP3    H214727   7.234   4.190   5.187
 4928TIP3   OH214728   3.250   7.677   1.041
 4928TIP3    H114729   3.330   7.722   1.070
 4928TIP3    H214730   3.252   7.684   0.946
 4929TIP3   OH214731   4.927   2.299   5.843
 4929TIP3    H114732   4.988   2.332   5.776
 4929TIP3    H214733   4.951   2.347   5.922
 4930TIP3   OH214734   3.678   5.617   4.865
 4930TIP3    H114735   3.594   5.571   4.857
 4930TIP3    H214736   3.670   5.668   4.946
 4931TIP3   OH214737   2.694   3.538   6.071
 4931TIP3    H114738   2.768   3.477   6.074
 4931TIP3    H214739   2.663   3.534   5.980
 4932TIP3   OH214740   5.546   0.198   3.724
 4932TIP3    H114741   5.623   0.145   3.706
 4932TIP3    H214742   5.537   0.195   3.819
 4933TIP3   OH214743   2.549   6.765   3.661
 4933TIP3    H114744   2.535   6.816   3.740
 4933TIP3    H214745   2.461   6.735   3.637
 4934TIP3   OH214746   4.417   6.191   0.732
 4934TIP3    H114747   4.501   6.156   0.761
 4934TIP3    H214748   4.434   6.226   0.645
 4935TIP3   OH214749   1.809   2.994   0.137
 4935TIP3    H114750   1.723   2.983   0.097
 4935TIP3    H214751   1.844   3.073   0.097
 4936TIP3   OH214752   1.393   3.762   2.011
 4936TIP3    H114753   1.486   3.761   2.035
 4936TIP3    H214754   1.348   3.788   2.091
 4937TIP3   OH214755   0.599   6.554   5.256
 4937TIP3    H114756   0.671   6.499   5.224
 4937TIP3    H214757   0.521   6.499   5.249
 4938TIP3   OH214758   6.885   3.166   5.866
 4938TIP3    H114759   6.949   3.146   5.934
 4938TIP3    H214760   6.816   3.100   5.879
 4939TIP3   OH214761   2.486   4.501   5.008
 4939TIP3    H114762   2.578   4.490   4.984
 4939TIP3    H214763   2.445   4.418   4.983
 4940TIP3   OH214764   7.325   2.212   5.198
 4940TIP3    H114765   7.393   2.265   5.239
 4940TIP3    H214766   7.245   2.234   5.246
 4941TIP3   OH214767   4.743   3.198   4.849
 4941TIP3    H114768   4.802   3.122   4.844
 4941TIP3    H214769   4.698   3.188   4.933
 4942TIP3   OH214770   7.952   6.372   1.802
 4942TIP3    H114771   8.029   6.417   1.768
 4942TIP3    H214772   7.894   6.443   1.830
 4943TIP3   OH214773  -0.004   6.683   2.772
 4943TIP3    H114774   0.072   6.647   2.817
 4943TIP3    H214775  -0.063   6.608   2.761
 4944TIP3   OH214776   8.264   6.633   1.083
 4944TIP3    H114777   8.315   6.704   1.122
 4944TIP3    H214778   8.202   6.677   1.024
 4945TIP3   OH214779   3.975   0.444   1.263
 4945TIP3    H114780   4.058   0.491   1.271
 4945TIP3    H214781   3.920   0.480   1.333
 4946TIP3   OH214782   8.016   2.362   4.950
 4946TIP3    H114783   8.075   2.307   5.002
 4946TIP3    H214784   7.937   2.309   4.939
 4947TIP3   OH214785   2.631   6.063  -0.008
 4947TIP3    H114786   2.646   6.075   0.086
 4947TIP3    H214787   2.711   6.094  -0.050
 4948TIP3   OH214788   2.969   5.333   2.026
 4948TIP3    H114789   2.888   5.284   2.011
 4948TIP3    H214790   3.019   5.279   2.087
 4949TIP3   OH214791   0.971   5.211   3.686
 4949TIP3    H114792   0.998   5.131   3.640
 4949TIP3    H214793   0.881   5.227   3.655
 4950TIP3   OH214794   3.511   0.504   3.195
 4950TIP3    H114795   3.500   0.511   3.290
 4950TIP3    H214796   3.457   0.575   3.159
 4951TIP3   OH214797   5.338   0.524   1.526
 4951TIP3    H114798   5.320   0.431   1.536
 4951TIP3    H214799   5.311   0.563   1.609
 4952TIP3   OH214800   4.895   5.153   0.204
 4952TIP3    H114801   4.812   5.108   0.188
 4952TIP3    H214802   4.871   5.229   0.256
 4953TIP3   OH214803   0.331   3.194   0.038
 4953TIP3    H114804   0.261   3.135   0.009
 4953TIP3    H214805   0.375   3.146   0.108
 4954TIP3   OH214806   7.115   0.943   3.558
 4954TIP3    H114807   7.065   0.958   3.639
 4954TIP3    H214808   7.060   0.980   3.489
 4955TIP3   OH214809   2.255   1.210   2.512
 4955TIP3    H114810   2.256   1.241   2.421
 4955TIP3    H214811   2.242   1.288   2.565
 4956TIP3   OH214812   3.820   6.869   6.440
 4956TIP3    H114813   3.800   6.915   6.359
 4956TIP3    H214814   3.825   6.777   6.414
 4957TIP3   OH214815   0.322   0.439   0.955
 4957TIP3    H114816   0.298   0.437   1.047
 4957TIP3    H214817   0.395   0.376   0.948
 4958TIP3   OH214818   4.200   2.454   1.093
 4958TIP3    H114819   4.177   2.368   1.058
 4958TIP3    H214820   4.247   2.435   1.174
 4959TIP3   OH214821   4.370   5.499   1.111
 4959TIP3    H114822   4.290   5.449   1.094
 4959TIP3    H214823   4.439   5.452   1.064
 4960TIP3   OH214824   1.359   2.158   0.828
 4960TIP3    H114825   1.444   2.121   0.850
 4960TIP3    H214826   1.338   2.121   0.742
 4961TIP3   OH214827   6.231   7.212   6.097
 4961TIP3    H114828   6.316   7.169   6.093
 4961TIP3    H214829   6.251   7.302   6.124
 4962TIP3   OH214830   1.446   1.802   0.778
 4962TIP3    H114831   1.361   1.821   0.738
 4962TIP3    H214832   1.445   1.707   0.794
 4963TIP3   OH214833   6.169   6.087   3.157
 4963TIP3    H114834   6.172   5.996   3.129
 4963TIP3    H214835   6.258   6.106   3.189
 4964TIP3   OH214836   8.044   1.942   6.623
 4964TIP3    H114837   7.966   1.940   6.678
 4964TIP3    H214838   8.097   2.014   6.658
 4965TIP3   OH214839   5.628   3.620   1.858
 4965TIP3    H114840   5.575   3.565   1.915
 4965TIP3    H214841   5.570   3.692   1.833
 4966TIP3   OH214842   4.249   1.075   2.476
 4966TIP3    H114843   4.180   1.011   2.489
 4966TIP3    H214844   4.325   1.040   2.523
 4967TIP3   OH214845   4.767   0.738   3.692
 4967TIP3    H114846   4.757   0.726   3.597
 4967TIP3    H214847   4.861   0.751   3.705
 4968TIP3   OH214848   6.051   7.248   6.632
 4968TIP3    H114849   6.122   7.192   6.600
 4968TIP3    H214850   6.043   7.317   6.566
 4969TIP3   OH214851   7.994   0.437   5.247
 4969TIP3    H114852   7.943   0.357   5.235
 4969TIP3    H214853   8.070   0.427   5.189
 4970TIP3   OH214854   0.974   0.278   0.043
 4970TIP3    H114855   0.957   0.348  -0.020
 4970TIP3    H214856   1.061   0.245   0.019
 4971TIP3   OH214857   4.834   1.020   0.665
 4971TIP3    H114858   4.796   0.934   0.683
 4971TIP3    H214859   4.887   1.007   0.587
 4972TIP3   OH214860   3.843   4.955   2.168
 4972TIP3    H114861   3.777   5.021   2.187
 4972TIP3    H214862   3.846   4.951   2.073
 4973TIP3   OH214863   0.733   7.626   1.600
 4973TIP3    H114864   0.672   7.681   1.551
 4973TIP3    H214865   0.745   7.548   1.546
 4974TIP3   OH214866   0.847   1.751   1.247
 4974TIP3    H114867   0.815   1.831   1.289
 4974TIP3    H214868   0.769   1.713   1.204
 4975TIP3   OH214869   3.379   5.265   3.944
 4975TIP3    H114870   3.464   5.220   3.943
 4975TIP3    H214871   3.334   5.232   3.866
 4976TIP3   OH214872   6.738   6.018   5.333
 4976TIP3    H114873   6.740   6.102   5.378
 4976TIP3    H214874   6.696   6.036   5.249
 4977TIP3   OH214875   1.737   7.322   5.007
 4977TIP3    H114876   1.802   7.349   4.942
 4977TIP3    H214877   1.662   7.293   4.955
 4978TIP3   OH214878   5.674   4.741   1.503
 4978TIP3    H114879   5.709   4.734   1.414
 4978TIP3    H214880   5.669   4.650   1.534
 4979TIP3   OH214881   7.102   6.197   0.577
 4979TIP3    H114882   7.024   6.174   0.628
 4979TIP3    H214883   7.080   6.281   0.536
 4980TIP3   OH214884   4.907   7.148   2.200
 4980TIP3    H114885   4.846   7.221   2.183
 4980TIP3    H214886   4.850   7.073   2.218
 4981TIP3   OH214887   2.101   5.976   6.452
 4981TIP3    H114888   2.188   5.966   6.491
 4981TIP3    H214889   2.041   5.943   6.519
 4982TIP3   OH214890   7.709   6.076   1.348
 4982TIP3    H114891   7.699   6.032   1.264
 4982TIP3    H214892   7.686   6.010   1.413
 4983TIP3   OH214893   0.874   3.494   6.317
 4983TIP3    H114894   0.807   3.426   6.323
 4983TIP3    H214895   0.940   3.458   6.258
 4984TIP3   OH214896   5.564   0.949   6.419
 4984TIP3    H114897   5.579   1.043   6.402
 4984TIP3    H214898   5.515   0.919   6.342
 4985TIP3   OH214899   0.440   3.888   6.385
 4985TIP3    H114900   0.410   3.798   6.374
 4985TIP3    H214901   0.514   3.896   6.325
 4986TIP3   OH214902   8.098   3.185   4.311
 4986TIP3    H114903   8.075   3.128   4.384
 4986TIP3    H214904   8.033   3.255   4.314
 4987TIP3   OH214905   1.078   2.881   0.871
 4987TIP3    H114906   1.043   2.819   0.936
 4987TIP3    H214907   1.146   2.832   0.826
 4988TIP3   OH214908   7.796   3.553   0.909
 4988TIP3    H114909   7.730   3.609   0.951
 4988TIP3    H214910   7.749   3.510   0.838
 4989TIP3   OH214911   1.074   7.023   1.468
 4989TIP3    H114912   1.158   7.069   1.459
 4989TIP3    H214913   1.014   7.089   1.501
 4990TIP3   OH214914   1.336   2.240   6.213
 4990TIP3    H114915   1.329   2.181   6.139
 4990TIP3    H214916   1.408   2.205   6.266
 4991TIP3   OH214917   3.337   1.436   6.712
 4991TIP3    H114918   3.386   1.472   6.786
 4991TIP3    H214919   3.404   1.407   6.650
 4992TIP3   OH214920   6.900   6.703   5.439
 4992TIP3    H114921   6.967   6.646   5.476
 4992TIP3    H214922   6.943   6.788   5.430
 4993TIP3   OH214923   2.304   7.857   4.257
 4993TIP3    H114924   2.387   7.859   4.210
 4993TIP3    H214925   2.328   7.833   4.347
 4994TIP3   OH214926   1.876   1.929   4.500
 4994TIP3    H114927   1.964   1.898   4.520
 4994TIP3    H214928   1.842   1.867   4.436
 4995TIP3   OH214929   8.163   1.632   6.037
 4995TIP3    H114930   8.192   1.722   6.053
 4995TIP3    H214931   8.106   1.639   5.960
 4996TIP3   OH214932   6.342   0.794   1.627
 4996TIP3    H114933   6.420   0.848   1.617
 4996TIP3    H214934   6.269   0.856   1.619
 4997TIP3   OH214935   1.741   0.881   3.529
 4997TIP3    H114936   1.796   0.810   3.562
 4997TIP3    H214937   1.769   0.893   3.439
 4998TIP3   OH214938   2.484   1.846   0.997
 4998TIP3    H114939   2.490   1.934   0.960
 4998TIP3    H214940   2.567   1.834   1.044
 4999TIP3   OH214941   6.234   2.571   4.016
 4999TIP3    H114942   6.304   2.600   3.956
 4999TIP3    H214943   6.235   2.635   4.087
 5000TIP3   OH214944   5.749   0.633   4.690
 5000TIP3    H114945   5.817   0.675   4.743
 5000TIP3    H214946   5.670   0.683   4.710
 5001TIP3   OH214947   0.368   5.314   5.333
 5001TIP3    H114948   0.389   5.362   5.413
 5001TIP3    H214949   0.361   5.223   5.360
 5002TIP3   OH214950  -0.028   0.977   0.755
 5002TIP3    H114951  -0.092   1.027   0.806
 5002TIP3    H214952   0.042   1.039   0.736
 5003TIP3   OH214953   8.112   1.066   0.376
 5003TIP3    H114954   8.174   0.994   0.365
 5003TIP3    H214955   8.030   1.033   0.338
 5004TIP3   OH214956   2.841   6.649   6.168
 5004TIP3    H114957   2.904   6.721   6.177
 5004TIP3    H214958   2.814   6.629   6.257
 5005TIP3   OH214959   2.272   0.904   1.041
 5005TIP3    H114960   2.365   0.899   1.017
 5005TIP3    H214961   2.272   0.901   1.137
 5006TIP3   OH214962   3.205   1.463   0.392
 5006TIP3    H114963   3.148   1.446   0.466
 5006TIP3    H214964   3.283   1.505   0.429
 5007TIP3   OH214965   1.221   4.320   4.862
 5007TIP3    H114966   1.268   4.403   4.871
 5007TIP3    H214967   1.283   4.254   4.892
 5008TIP3   OH214968   3.545   1.973   4.021
 5008TIP3    H114969   3.488   1.976   4.098
 5008TIP3    H214970   3.612   2.039   4.038
 5009TIP3   OH214971   2.671   3.290   3.911
 5009TIP3    H114972   2.627   3.351   3.851
 5009TIP3    H214973   2.636   3.204   3.888
 5010TIP3   OH214974   8.004   6.611   4.892
 5010TIP3    H114975   7.928   6.667   4.909
 5010TIP3    H214976   8.020   6.620   4.798
 5011TIP3   OH214977   6.467   3.223   4.897
 5011TIP3    H114978   6.554   3.203   4.862
 5011TIP3    H214979   6.415   3.247   4.819
 5012TIP3   OH214980   7.660   0.590   0.940
 5012TIP3    H114981   7.649   0.681   0.968
 5012TIP3    H214982   7.629   0.538   1.014
 5013TIP3   OH214983   3.792   2.968   1.414
 5013TIP3    H114984   3.835   3.054   1.412
 5013TIP3    H214985   3.845   2.913   1.357
 5014TIP3   OH214986   3.138   5.680   4.155
 5014TIP3    H114987   3.226   5.712   4.176
 5014TIP3    H214988   3.112   5.628   4.231
 5015TIP3   OH214989   1.593   7.158   5.176
 5015TIP3    H114990   1.640   7.214   5.114
 5015TIP3    H214991   1.657   7.143   5.246
 5016TIP3   OH214992   2.916   1.178   6.767
 5016TIP3    H114993   2.910   1.103   6.708
 5016TIP3    H214994   2.997   1.164   6.816
 5017TIP3   OH214995   5.669   6.645   2.703
 5017TIP3    H114996   5.666   6.589   2.626
 5017TIP3    H214997   5.583   6.635   2.744
 5018TIP3   OH214998   4.611   4.033   5.373
 5018TIP3    H114999   4.574   4.019   5.460
 5018TIP3    H215000   4.700   3.999   5.379
 5019TIP3   OH215001   7.240   2.608   3.302
 5019TIP3    H115002   7.182   2.626   3.228
 5019TIP3    H215003   7.192   2.638   3.379
 5020TIP3   OH215004   1.929   4.404   1.208
 5020TIP3    H115005   1.911   4.317   1.243
 5020TIP3    H215006   1.921   4.394   1.113
 5021TIP3   OH215007   6.223   4.600   3.030
 5021TIP3    H115008   6.318   4.587   3.024
 5021TIP3    H215009   6.187   4.550   2.957
 5022TIP3   OH215010   3.476   0.218   3.663
 5022TIP3    H115011   3.529   0.223   3.584
 5022TIP3    H215012   3.539   0.229   3.735
 5023TIP3   OH215013   7.768   6.584   1.590
 5023TIP3    H115014   7.795   6.609   1.678
 5023TIP3    H215015   7.675   6.605   1.585
 5024TIP3   OH215016   7.554   1.624   3.078
 5024TIP3    H115017   7.459   1.617   3.088
 5024TIP3    H215018   7.577   1.550   3.021
 5025TIP3   OH215019   1.776   2.624   0.589
 5025TIP3    H115020   1.713   2.675   0.640
 5025TIP3    H215021   1.769   2.535   0.623
 5026TIP3   OH215022   7.397   2.434   3.117
 5026TIP3    H115023   7.408   2.425   3.022
 5026TIP3    H215024   7.333   2.504   3.127
 5027TIP3   OH215025   1.937   4.592   4.361
 5027TIP3    H115026   1.853   4.615   4.321
 5027TIP3    H215027   2.001   4.646   4.315
 5028TIP3   OH215028   3.907   4.156   4.573
 5028TIP3    H115029   3.901   4.209   4.493
 5028TIP3    H215030   3.819   4.156   4.609
 5029TIP3   OH215031   2.869   3.360   2.699
 5029TIP3    H115032   2.883   3.270   2.669
 5029TIP3    H215033   2.910   3.414   2.631
 5030TIP3   OH215034   7.370   6.030   5.152
 5030TIP3    H115035   7.354   6.112   5.105
 5030TIP3    H215036   7.352   5.962   5.088
 5031TIP3   OH215037   6.394   2.404   3.352
 5031TIP3    H115038   6.316   2.453   3.328
 5031TIP3    H215039   6.396   2.407   3.448
 5032TIP3   OH215040   3.577   7.507   3.310
 5032TIP3    H115041   3.620   7.423   3.329
 5032TIP3    H215042   3.502   7.509   3.370
 5033TIP3   OH215043   2.295   4.705   1.323
 5033TIP3    H115044   2.290   4.654   1.404
 5033TIP3    H215045   2.204   4.716   1.296
 5034TIP3   OH215046   1.243   2.603   1.564
 5034TIP3    H115047   1.226   2.510   1.582
 5034TIP3    H215048   1.339   2.609   1.562
 5035TIP3   OH215049   0.156   6.517   3.351
 5035TIP3    H115050   0.164   6.479   3.438
 5035TIP3    H215051   0.065   6.499   3.325
 5036TIP3   OH215052   1.855   3.092   6.351
 5036TIP3    H115053   1.848   3.119   6.443
 5036TIP3    H215054   1.876   3.172   6.304
 5037TIP3   OH215055   2.957   2.478   4.767
 5037TIP3    H115056   2.914   2.563   4.765
 5037TIP3    H215057   2.957   2.453   4.860
 5038TIP3   OH215058   5.396   1.668   0.653
 5038TIP3    H115059   5.426   1.579   0.676
 5038TIP3    H215060   5.369   1.661   0.562
 5039TIP3   OH215061   0.583   2.628   0.779
 5039TIP3    H115062   0.630   2.576   0.714
 5039TIP3    H215063   0.510   2.667   0.730
 5040TIP3   OH215064   2.409   5.916   4.565
 5040TIP3    H115065   2.330   5.963   4.536
 5040TIP3    H215066   2.437   5.868   4.487
 5041TIP3   OH215067   0.500   1.212   3.638
 5041TIP3    H115068   0.492   1.295   3.592
 5041TIP3    H215069   0.446   1.222   3.717
 5042TIP3   OH215070   3.314   2.905   3.235
 5042TIP3    H115071   3.291   2.851   3.310
 5042TIP3    H215072   3.235   2.955   3.217
 5043TIP3   OH215073   6.020   7.009   2.519
 5043TIP3    H115074   5.992   7.030   2.430
 5043TIP3    H215075   5.938   7.001   2.568
 5044TIP3   OH215076   7.974   1.025   0.633
 5044TIP3    H115077   8.057   1.031   0.585
 5044TIP3    H215078   7.935   0.943   0.602
 5045TIP3   OH215079   7.353   1.079   3.672
 5045TIP3    H115080   7.264   1.056   3.646
 5045TIP3    H215081   7.407   1.058   3.596
 5046TIP3   OH215082   7.581   6.640   1.209
 5046TIP3    H115083   7.564   6.546   1.205
 5046TIP3    H215084   7.675   6.645   1.230
 5047TIP3   OH215085   0.169   7.241   1.030
 5047TIP3    H115086   0.087   7.241   0.981
 5047TIP3    H215087   0.174   7.327   1.070
 5048TIP3   OH215088   2.086   3.374   4.637
 5048TIP3    H115089   2.120   3.463   4.626
 5048TIP3    H215090   2.045   3.374   4.723
 5049TIP3   OH215091   4.092   2.569   1.795
 5049TIP3    H115092   4.002   2.572   1.764
 5049TIP3    H215093   4.099   2.485   1.839
 5050TIP3   OH215094   2.004   4.183   4.216
 5050TIP3    H115095   2.026   4.097   4.252
 5050TIP3    H215096   2.008   4.242   4.291
 5051TIP3   OH215097   6.893   5.677   1.306
 5051TIP3    H115098   6.856   5.632   1.230
 5051TIP3    H215099   6.987   5.659   1.301
 5052TIP3   OH215100   1.542   7.665   1.243
 5052TIP3    H115101   1.507   7.743   1.285
 5052TIP3    H215102   1.465   7.611   1.226
 5053TIP3   OH215103   2.313   5.167   6.587
 5053TIP3    H115104   2.400   5.144   6.553
 5053TIP3    H215105   2.322   5.160   6.682
 5054TIP3   OH215106   4.620   4.037   1.773
 5054TIP3    H115107   4.563   3.960   1.780
 5054TIP3    H215108   4.706   4.007   1.803
 5055TIP3   OH215109   7.260   5.780   2.497
 5055TIP3    H115110   7.316   5.706   2.521
 5055TIP3    H215111   7.286   5.850   2.557
 5056TIP3   OH215112   0.422   1.208   3.117
 5056TIP3    H115113   0.382   1.136   3.068
 5056TIP3    H215114   0.448   1.168   3.200
 5057TIP3   OH215115   2.917   0.162   5.032
 5057TIP3    H115116   3.012   0.157   5.045
 5057TIP3    H215117   2.905   0.230   4.967
 5058TIP3   OH215118   6.386   1.788   5.265
 5058TIP3    H115119   6.307   1.735   5.278
 5058TIP3    H215120   6.376   1.861   5.325
 5059TIP3   OH215121   5.171   0.248   6.551
 5059TIP3    H115122   5.098   0.202   6.510
 5059TIP3    H215123   5.249   0.213   6.507
 5060TIP3   OH215124   7.528   1.626   4.977
 5060TIP3    H115125   7.618   1.612   5.005
 5060TIP3    H215126   7.529   1.606   4.883
 5061TIP3   OH215127   5.117   4.556   5.228
 5061TIP3    H115128   5.107   4.509   5.311
 5061TIP3    H215129   5.182   4.505   5.179
 5062TIP3   OH215130   4.397   5.267   5.819
 5062TIP3    H115131   4.484   5.254   5.782
 5062TIP3    H215132   4.368   5.180   5.845
 5063TIP3   OH215133   6.775   5.865   1.856
 5063TIP3    H115134   6.849   5.834   1.908
 5063TIP3    H215135   6.804   5.856   1.765
 5064TIP3   OH215136   0.348   0.822   6.493
 5064TIP3    H115137   0.254   0.839   6.497
 5064TIP3    H215138   0.370   0.788   6.580
 5065TIP3   OH215139   1.714   6.639   5.200
 5065TIP3    H115140   1.697   6.602   5.287
 5065TIP3    H215141   1.715   6.733   5.214
 5066TIP3   OH215142   6.834   4.939   3.227
 5066TIP3    H115143   6.920   4.930   3.187
 5066TIP3    H215144   6.834   4.876   3.299
 5067TIP3   OH215145   1.378   3.008   4.801
 5067TIP3    H115146   1.293   3.047   4.819
 5067TIP3    H215147   1.430   3.024   4.879
 5068TIP3   OH215148   6.303   7.191   4.616
 5068TIP3    H115149   6.295   7.115   4.674
 5068TIP3    H215150   6.218   7.235   4.621
 5069TIP3   OH215151   2.046   4.477   0.389
 5069TIP3    H115152   2.028   4.497   0.481
 5069TIP3    H215153   2.130   4.432   0.390
 5070TIP3   OH215154   7.696   6.891   1.628
 5070TIP3    H115155   7.643   6.814   1.643
 5070TIP3    H215156   7.692   6.940   1.711
 5071TIP3   OH215157   2.394   2.289   5.810
 5071TIP3    H115158   2.386   2.219   5.745
 5071TIP3    H215159   2.353   2.253   5.889
 5072TIP3   OH215160   5.156   4.072   1.016
 5072TIP3    H115161   5.179   4.001   0.956
 5072TIP3    H215162   5.171   4.036   1.103
 5073TIP3   OH215163   2.231   4.281   0.732
 5073TIP3    H115164   2.245   4.268   0.826
 5073TIP3    H215165   2.163   4.347   0.727
 5074TIP3   OH215166   3.060   5.162   4.801
 5074TIP3    H115167   3.119   5.225   4.761
 5074TIP3    H215168   2.974   5.182   4.764
 5075TIP3   OH215169   0.902   6.525   4.851
 5075TIP3    H115170   0.972   6.517   4.786
 5075TIP3    H215171   0.947   6.531   4.935
 5076TIP3   OH215172   3.675   2.063   6.347
 5076TIP3    H115173   3.582   2.051   6.331
 5076TIP3    H215174   3.712   1.975   6.349
 5077TIP3   OH215175   1.153   7.775   0.846
 5077TIP3    H115176   1.243   7.789   0.816
 5077TIP3    H215177   1.099   7.816   0.779
 5078TIP3   OH215178   2.027   1.236   3.904
 5078TIP3    H115179   2.118   1.239   3.932
 5078TIP3    H215180   2.013   1.318   3.858
 5079TIP3   OH215181   3.824   1.463   2.350
 5079TIP3    H115182   3.858   1.535   2.402
 5079TIP3    H215183   3.901   1.417   2.319
 5080TIP3   OH215184   7.657   4.022   4.715
 5080TIP3    H115185   7.674   3.967   4.791
 5080TIP3    H215186   7.707   4.102   4.732
 5081TIP3   OH215187   5.289   4.064   0.682
 5081TIP3    H115188   5.289   4.034   0.772
 5081TIP3    H215189   5.266   3.986   0.631
 5082TIP3   OH215190   2.886   7.098   5.973
 5082TIP3    H115191   2.915   7.042   5.901
 5082TIP3    H215192   2.902   7.187   5.942
 5083TIP3   OH215193   5.105   5.952   4.386
 5083TIP3    H115194   5.167   6.008   4.339
 5083TIP3    H215195   5.080   6.003   4.463
 5084TIP3   OH215196   5.092   2.633   4.663
 5084TIP3    H115197   5.098   2.695   4.591
 5084TIP3    H215198   5.120   2.550   4.626
 5085TIP3   OH215199   0.446   5.834   1.927
 5085TIP3    H115200   0.480   5.793   1.847
 5085TIP3    H215201   0.504   5.804   1.996
 5086TIP3   OH215202   6.667   6.173   6.497
 5086TIP3    H115203   6.573   6.189   6.486
 5086TIP3    H215204   6.692   6.230   6.570
 5087TIP3   OH215205   1.347   5.896   5.162
 5087TIP3    H115206   1.350   5.906   5.067
 5087TIP3    H215207   1.341   5.801   5.175
 5088TIP3   OH215208   0.506   5.573   2.591
 5088TIP3    H115209   0.541   5.633   2.658
 5088TIP3    H215210   0.537   5.610   2.508
 5089TIP3   OH215211   5.459   7.764   1.827
 5089TIP3    H115212   5.389   7.795   1.770
 5089TIP3    H215213   5.537   7.810   1.797
 5090TIP3   OH215214   0.390   5.263   1.778
 5090TIP3    H115215   0.355   5.188   1.728
 5090TIP3    H215216   0.473   5.282   1.736
 5091TIP3   OH215217   5.405   1.873   2.315
 5091TIP3    H115218   5.405   1.915   2.401
 5091TIP3    H215219   5.388   1.944   2.254
 5092TIP3   OH215220   0.130   7.478   2.519
 5092TIP3    H115221   0.214   7.432   2.516
 5092TIP3    H215222   0.138   7.545   2.452
 5093TIP3   OH215223   2.423   3.590   1.767
 5093TIP3    H115224   2.459   3.586   1.678
 5093TIP3    H215225   2.480   3.533   1.818
 5094TIP3   OH215226   6.986   1.904   2.425
 5094TIP3    H115227   7.051   1.836   2.415
 5094TIP3    H215228   7.036   1.985   2.430
 5095TIP3   OH215229   4.291   2.262   0.719
 5095TIP3    H115230   4.348   2.316   0.774
 5095TIP3    H215231   4.293   2.175   0.761
 5096TIP3   OH215232   0.216   6.722   2.605
 5096TIP3    H115233   0.212   6.651   2.541
 5096TIP3    H215234   0.137   6.713   2.657
 5097TIP3   OH215235   4.489   0.121   5.437
 5097TIP3    H115236   4.508   0.187   5.503
 5097TIP3    H215237   4.551   0.050   5.456
 5098TIP3   OH215238   4.955   6.097   6.362
 5098TIP3    H115239   5.023   6.142   6.412
 5098TIP3    H215240   4.883   6.160   6.356
 5099TIP3   OH215241   0.578   1.637   2.519
 5099TIP3    H115242   0.646   1.569   2.519
 5099TIP3    H215243   0.504   1.597   2.473
 5100TIP3   OH215244   3.301   7.161   4.396
 5100TIP3    H115245   3.209   7.185   4.404
 5100TIP3    H215246   3.302   7.066   4.398
 5101TIP3   OH215247   3.392   5.629   1.562
 5101TIP3    H115248   3.305   5.624   1.601
 5101TIP3    H215249   3.375   5.652   1.470
 5102TIP3   OH215250   3.379   2.155   3.328
 5102TIP3    H115251   3.359   2.137   3.237
 5102TIP3    H215252   3.299   2.192   3.364
 5103TIP3   OH215253   6.828   2.720   6.330
 5103TIP3    H115254   6.896   2.731   6.263
 5103TIP3    H215255   6.762   2.665   6.289
 5104TIP3   OH215256   5.783   6.148   6.374
 5104TIP3    H115257   5.798   6.067   6.422
 5104TIP3    H215258   5.856   6.205   6.398
 5105TIP3   OH215259   0.875   1.139   6.463
 5105TIP3    H115260   0.946   1.106   6.408
 5105TIP3    H215261   0.795   1.108   6.421
 5106TIP3   OH215262   0.463   4.022   1.813
 5106TIP3    H115263   0.517   4.064   1.880
 5106TIP3    H215264   0.486   3.929   1.818
 5107TIP3   OH215265   0.530   2.776   0.291
 5107TIP3    H115266   0.441   2.788   0.259
 5107TIP3    H215267   0.581   2.757   0.212
 5108TIP3   OH215268   2.561   4.747   1.647
 5108TIP3    H115269   2.553   4.657   1.617
 5108TIP3    H215270   2.474   4.769   1.680
 5109TIP3   OH215271   3.537   4.324   4.918
 5109TIP3    H115272   3.580   4.406   4.943
 5109TIP3    H215273   3.608   4.259   4.915
 5110TIP3   OH215274   7.644   4.096   2.631
 5110TIP3    H115275   7.600   4.078   2.714
 5110TIP3    H215276   7.729   4.131   2.656
 5111TIP3   OH215277   2.144   6.080   2.364
 5111TIP3    H115278   2.221   6.119   2.323
 5111TIP3    H215279   2.106   6.024   2.296
 5112TIP3   OH215280   7.356   5.172   0.568
 5112TIP3    H115281   7.282   5.183   0.628
 5112TIP3    H215282   7.331   5.221   0.490
 5113TIP3   OH215283   5.954   1.735   5.077
 5113TIP3    H115284   6.021   1.768   5.017
 5113TIP3    H215285   5.964   1.640   5.074
 5114TIP3   OH215286   7.217   1.013   0.839
 5114TIP3    H115287   7.308   0.983   0.838
 5114TIP3    H215288   7.191   1.013   0.747
 5115TIP3   OH215289   6.675   1.868   4.360
 5115TIP3    H115290   6.647   1.946   4.312
 5115TIP3    H215291   6.623   1.797   4.322
 5116TIP3   OH215292   1.310   2.746   5.548
 5116TIP3    H115293   1.350   2.796   5.619
 5116TIP3    H215294   1.254   2.682   5.592
 5117TIP3   OH215295   0.107   3.404   2.869
 5117TIP3    H115296   0.154   3.384   2.950
 5117TIP3    H215297   0.126   3.497   2.854
 5118TIP3   OH215298   8.068   2.404   3.576
 5118TIP3    H115299   8.153   2.376   3.610
 5118TIP3    H215300   8.067   2.499   3.589
 5119TIP3   OH215301   1.179   5.080   6.250
 5119TIP3    H115302   1.101   5.074   6.304
 5119TIP3    H215303   1.189   5.174   6.230
 5120TIP3   OH215304   6.851   7.548   4.986
 5120TIP3    H115305   6.925   7.565   5.044
 5120TIP3    H215306   6.777   7.535   5.044
 5121TIP3   OH215307   5.055   7.307   3.773
 5121TIP3    H115308   5.119   7.236   3.765
 5121TIP3    H215309   5.091   7.377   3.718
 5122TIP3   OH215310   6.300   0.435   3.278
 5122TIP3    H115311   6.379   0.387   3.252
 5122TIP3    H215312   6.240   0.368   3.310
 5123TIP3   OH215313   3.561   7.758   2.688
 5123TIP3    H115314   3.494   7.690   2.691
 5123TIP3    H215315   3.604   7.752   2.774
 5124TIP3   OH215316   5.642   1.086   1.701
 5124TIP3    H115317   5.659   1.134   1.782
 5124TIP3    H215318   5.719   1.031   1.689
 5125TIP3   OH215319   7.181   4.118   0.498
 5125TIP3    H115320   7.139   4.117   0.412
 5125TIP3    H215321   7.212   4.208   0.508
 5126TIP3   OH215322   0.852   7.822   2.444
 5126TIP3    H115323   0.852   7.731   2.473
 5126TIP3    H215324   0.760   7.846   2.437
 5127TIP3   OH215325   1.097   1.764   0.414
 5127TIP3    H115326   1.053   1.686   0.381
 5127TIP3    H215327   1.035   1.835   0.395
 5128TIP3   OH215328   6.586   5.784   0.166
 5128TIP3    H115329   6.637   5.783   0.085
 5128TIP3    H215330   6.650   5.771   0.236
 5129TIP3   OH215331   6.548   0.878   3.261
 5129TIP3    H115332   6.618   0.894   3.198
 5129TIP3    H215333   6.536   0.962   3.306
 5130TIP3   OH215334   0.580   7.128   4.697
 5130TIP3    H115335   0.668   7.135   4.660
 5130TIP3    H215336   0.583   7.048   4.750
 5131TIP3   OH215337   3.522   1.155   3.235
 5131TIP3    H115338   3.586   1.163   3.307
 5131TIP3    H215339   3.494   1.064   3.239
 5132TIP3   OH215340   5.129   0.916   0.823
 5132TIP3    H115341   5.127   1.011   0.827
 5132TIP3    H215342   5.195   0.896   0.756
 5133TIP3   OH215343   3.581   1.960   0.417
 5133TIP3    H115344   3.637   1.955   0.340
 5133TIP3    H215345   3.499   1.920   0.390
 5134TIP3   OH215346   4.714   5.627   2.487
 5134TIP3    H115347   4.712   5.534   2.464
 5134TIP3    H215348   4.653   5.668   2.426
 5135TIP3   OH215349   3.976   2.815   4.859
 5135TIP3    H115350   3.966   2.776   4.772
 5135TIP3    H215351   4.065   2.851   4.859
 5136TIP3   OH215352   0.042   2.248   1.014
 5136TIP3    H115353   0.137   2.262   1.006
 5136TIP3    H215354   0.022   2.271   1.105
 5137TIP3   OH215355   7.400   6.762   3.312
 5137TIP3    H115356   7.343   6.757   3.388
 5137TIP3    H215357   7.359   6.827   3.255
 5138TIP3   OH215358   5.029   2.958   3.670
 5138TIP3    H115359   5.018   2.977   3.763
 5138TIP3    H215360   5.046   2.864   3.666
 5139TIP3   OH215361   7.744   1.746   4.679
 5139TIP3    H115362   7.671   1.792   4.637
 5139TIP3    H215363   7.799   1.816   4.714
 5140TIP3   OH215364   7.481   3.240  -0.017
 5140TIP3    H115365   7.481   3.328  -0.054
 5140TIP3    H215366   7.557   3.238   0.041
 5141TIP3   OH215367   7.901   1.926   4.804
 5141TIP3    H115368   7.996   1.918   4.799
 5141TIP3    H215369   7.879   1.998   4.746
 5142TIP3   OH215370   1.989   1.602   0.530
 5142TIP3    H115371   1.900   1.605   0.496
 5142TIP3    H215372   1.981   1.556   0.614
 5143TIP3   OH215373   1.853   3.186   5.355
 5143TIP3    H115374   1.774   3.185   5.410
 5143TIP3    H215375   1.852   3.101   5.311
 5144TIP3   OH215376   0.688   6.010   2.756
 5144TIP3    H115377   0.778   6.038   2.743
 5144TIP3    H215378   0.638   6.057   2.689
 5145TIP3   OH215379   7.147   7.304   1.033
 5145TIP3    H115380   7.073   7.337   1.084
 5145TIP3    H215381   7.124   7.214   1.013
 5146TIP3   OH215382   2.613   6.624   0.323
 5146TIP3    H115383   2.530   6.646   0.280
 5146TIP3    H215384   2.587   6.582   0.405
 5147TIP3   OH215385   3.068   2.131   1.517
 5147TIP3    H115386   3.078   2.041   1.548
 5147TIP3    H215387   3.136   2.140   1.450
 5148TIP3   OH215388   0.878   4.335   0.722
 5148TIP3    H115389   0.919   4.417   0.695
 5148TIP3    H215390   0.785   4.356   0.729
 5149TIP3   OH215391   3.463   6.573   0.711
 5149TIP3    H115392   3.502   6.506   0.655
 5149TIP3    H215393   3.537   6.609   0.760
 5150TIP3   OH215394   1.507   6.502   2.547
 5150TIP3    H115395   1.515   6.596   2.562
 5150TIP3    H215396   1.455   6.494   2.468
 5151TIP3   OH215397   1.031   4.600   5.146
 5151TIP3    H115398   1.010   4.692   5.158
 5151TIP3    H215399   0.980   4.574   5.069
 5152TIP3   OH215400   5.764   3.792   2.927
 5152TIP3    H115401   5.693   3.815   2.868
 5152TIP3    H215402   5.824   3.740   2.873
 5153TIP3   OH215403   1.797   7.168   1.485
 5153TIP3    H115404   1.819   7.101   1.550
 5153TIP3    H215405   1.877   7.177   1.433
 5154TIP3   OH215406   4.345   4.010   2.968
 5154TIP3    H115407   4.407   3.959   3.020
 5154TIP3    H215408   4.323   3.954   2.894
 5155TIP3   OH215409   3.646   1.190   3.736
 5155TIP3    H115410   3.564   1.143   3.750
 5155TIP3    H215411   3.687   1.193   3.822
 5156TIP3   OH215412   4.998   5.426   3.600
 5156TIP3    H115413   5.053   5.348   3.602
 5156TIP3    H215414   4.923   5.400   3.545
 5157TIP3   OH215415   3.527   0.414   5.248
 5157TIP3    H115416   3.432   0.411   5.235
 5157TIP3    H215417   3.560   0.334   5.208
 5158TIP3   OH215418   4.764   0.376   6.098
 5158TIP3    H115419   4.778   0.362   6.004
 5158TIP3    H215420   4.848   0.356   6.138
 5159TIP3   OH215421   1.886   3.483   1.339
 5159TIP3    H115422   1.977   3.454   1.348
 5159TIP3    H215423   1.835   3.402   1.343
 5160TIP3   OH215424   0.515   1.920   3.738
 5160TIP3    H115425   0.560   1.844   3.776
 5160TIP3    H215426   0.567   1.995   3.767
 5161TIP3   OH215427   0.418   6.752   2.279
 5161TIP3    H115428   0.420   6.759   2.183
 5161TIP3    H215429   0.332   6.786   2.304
 5162TIP3   OH215430   2.875   7.614   5.629
 5162TIP3    H115431   2.916   7.535   5.595
 5162TIP3    H215432   2.792   7.583   5.667
 5163TIP3   OH215433   2.909   3.690   1.326
 5163TIP3    H115434   3.004   3.683   1.325
 5163TIP3    H215435   2.879   3.605   1.360
 5164TIP3   OH215436   4.662   1.477   6.461
 5164TIP3    H115437   4.629   1.562   6.490
 5164TIP3    H215438   4.749   1.470   6.499
 5165TIP3   OH215439   6.808   7.383   5.584
 5165TIP3    H115440   6.728   7.334   5.602
 5165TIP3    H215441   6.869   7.317   5.551
 5166TIP3   OH215442   6.802   2.119   6.034
 5166TIP3    H115443   6.810   2.206   5.995
 5166TIP3    H215444   6.873   2.069   5.995
 5167TIP3   OH215445   0.891   6.012   0.377
 5167TIP3    H115446   0.985   6.026   0.366
 5167TIP3    H215447   0.853   6.100   0.375
 5168TIP3   OH215448   0.975   3.823   5.771
 5168TIP3    H115449   0.946   3.889   5.708
 5168TIP3    H215450   1.017   3.756   5.717
 5169TIP3   OH215451   2.815   4.297   4.413
 5169TIP3    H115452   2.759   4.317   4.488
 5169TIP3    H215453   2.904   4.310   4.445
 5170TIP3   OH215454   3.863   0.990   4.924
 5170TIP3    H115455   3.932   1.042   4.965
 5170TIP3    H215456   3.846   0.920   4.986
 5171TIP3   OH215457   6.435   1.846   0.556
 5171TIP3    H115458   6.458   1.895   0.477
 5171TIP3    H215459   6.519   1.817   0.592
 5172TIP3   OH215460   4.666   5.948   3.238
 5172TIP3    H115461   4.725   5.873   3.232
 5172TIP3    H215462   4.579   5.912   3.225
 5173TIP3   OH215463   4.063   2.531   3.525
 5173TIP3    H115464   4.038   2.465   3.460
 5173TIP3    H215465   4.076   2.611   3.474
 5174TIP3   OH215466   2.507   6.446   6.477
 5174TIP3    H115467   2.429   6.486   6.439
 5174TIP3    H215468   2.506   6.472   6.569
 5175TIP3   OH215469   3.301   0.585   4.634
 5175TIP3    H115470   3.250   0.553   4.559
 5175TIP3    H215471   3.309   0.679   4.619
 5176TIP3   OH215472   6.508   5.874   6.398
 5176TIP3    H115473   6.500   5.964   6.364
 5176TIP3    H215474   6.444   5.824   6.347
 5177TIP3   OH215475   1.793   0.609   5.870
 5177TIP3    H115476   1.877   0.601   5.824
 5177TIP3    H215477   1.776   0.522   5.906
 5178TIP3   OH215478   0.785   3.762   6.409
 5178TIP3    H115479   0.780   3.812   6.327
 5178TIP3    H215480   0.827   3.679   6.383
 5179TIP3   OH215481   0.710   4.161   2.339
 5179TIP3    H115482   0.791   4.185   2.295
 5179TIP3    H215483   0.727   4.074   2.376
 5180TIP3   OH215484   0.357   5.336   4.252
 5180TIP3    H115485   0.407   5.254   4.250
 5180TIP3    H215486   0.390   5.382   4.329
 5181TIP3   OH215487   7.817   1.370   3.427
 5181TIP3    H115488   7.843   1.405   3.513
 5181TIP3    H215489   7.742   1.424   3.401
 5182TIP3   OH215490   2.608   3.008   5.727
 5182TIP3    H115491   2.581   2.923   5.695
 5182TIP3    H215492   2.528   3.049   5.759
 5183TIP3   OH215493   3.757   2.648   0.043
 5183TIP3    H115494   3.671   2.609   0.030
 5183TIP3    H215495   3.760   2.721  -0.019
 5184TIP3   OH215496   5.829   4.595   5.944
 5184TIP3    H115497   5.777   4.550   6.011
 5184TIP3    H215498   5.887   4.653   5.994
 5185TIP3   OH215499   1.511   3.530   2.373
 5185TIP3    H115500   1.514   3.607   2.430
 5185TIP3    H215501   1.419   3.505   2.371
 5186TIP3   OH215502   4.669   4.491   0.728
 5186TIP3    H115503   4.715   4.407   0.719
 5186TIP3    H215504   4.727   4.554   0.685
 5187TIP3   OH215505   6.805   0.841   1.540
 5187TIP3    H115506   6.854   0.920   1.562
 5187TIP3    H215507   6.868   0.769   1.552
 5188TIP3   OH215508   4.181   3.637   0.229
 5188TIP3    H115509   4.219   3.655   0.143
 5188TIP3    H215510   4.256   3.631   0.288
 5189TIP3   OH215511   4.642   0.682   2.230
 5189TIP3    H115512   4.591   0.690   2.311
 5189TIP3    H215513   4.585   0.634   2.170
 5190TIP3   OH215514   7.982   1.932   0.091
 5190TIP3    H115515   8.070   1.909   0.121
 5190TIP3    H215516   7.923   1.877   0.144
 5191TIP3   OH215517   5.880   0.064   1.157
 5191TIP3    H115518   5.940   0.127   1.118
 5191TIP3    H215519   5.927  -0.019   1.154
 5192TIP3   OH215520   6.938   7.668   2.860
 5192TIP3    H115521   6.875   7.597   2.854
 5192TIP3    H215522   6.975   7.661   2.948
 5193TIP3   OH215523   3.510   2.608   5.732
 5193TIP3    H115524   3.482   2.555   5.657
 5193TIP3    H215525   3.593   2.646   5.704
 5194TIP3   OH215526   5.261   6.974   0.167
 5194TIP3    H115527   5.226   7.013   0.087
 5194TIP3    H215528   5.252   7.042   0.233
 5195TIP3   OH215529   5.435   2.487   1.738
 5195TIP3    H115530   5.472   2.575   1.746
 5195TIP3    H215531   5.459   2.443   1.819
 5196TIP3   OH215532   3.074   4.005   3.831
 5196TIP3    H115533   3.068   4.011   3.735
 5196TIP3    H215534   3.140   3.938   3.847
 5197TIP3   OH215535   7.100   5.365   3.026
 5197TIP3    H115536   7.089   5.364   3.121
 5197TIP3    H215537   7.099   5.273   3.000
 5198TIP3   OH215538   1.284   1.960   5.585
 5198TIP3    H115539   1.278   1.867   5.564
 5198TIP3    H215540   1.237   1.969   5.667
 5199TIP3   OH215541   7.362   6.152   1.185
 5199TIP3    H115542   7.288   6.111   1.139
 5199TIP3    H215543   7.430   6.085   1.186
 5200TIP3   OH215544   0.654   5.689   2.104
 5200TIP3    H115545   0.698   5.728   2.179
 5200TIP3    H215546   0.581   5.640   2.142
 5201TIP3   OH215547   0.121   6.468   4.338
 5201TIP3    H115548   0.090   6.481   4.428
 5201TIP3    H215549   0.179   6.542   4.321
 5202TIP3   OH215550   8.013   1.366   1.341
 5202TIP3    H115551   7.924   1.347   1.371
 5202TIP3    H215552   8.001   1.400   1.252
 5203TIP3   OH215553   0.451   2.213   3.565
 5203TIP3    H115554   0.392   2.153   3.610
 5203TIP3    H215555   0.418   2.216   3.475
 5204TIP3   OH215556   3.282   1.897   3.635
 5204TIP3    H115557   3.328   1.974   3.670
 5204TIP3    H215558   3.322   1.823   3.681
 5205TIP3   OH215559   6.251   2.335   3.858
 5205TIP3    H115560   6.221   2.362   3.771
 5205TIP3    H215561   6.227   2.407   3.915
 5206TIP3   OH215562   8.219   4.062   3.085
 5206TIP3    H115563   8.190   4.073   2.994
 5206TIP3    H215564   8.160   3.996   3.122
 5207TIP3   OH215565   1.496   4.421   5.185
 5207TIP3    H115566   1.409   4.462   5.189
 5207TIP3    H215567   1.557   4.494   5.189
 5208TIP3   OH215568   6.370   3.434   1.272
 5208TIP3    H115569   6.435   3.365   1.283
 5208TIP3    H215570   6.304   3.415   1.339
 5209TIP3   OH215571   3.742   6.157   0.459
 5209TIP3    H115572   3.802   6.085   0.438
 5209TIP3    H215573   3.738   6.157   0.555
 5210TIP3   OH215574   5.049   7.059   6.276
 5210TIP3    H115575   5.083   7.081   6.363
 5210TIP3    H215576   5.025   6.966   6.283
 5211TIP3   OH215577   7.610   7.008   3.221
 5211TIP3    H115578   7.585   6.953   3.147
 5211TIP3    H215579   7.643   6.947   3.287
 5212TIP3   OH215580   6.354   6.374   4.500
 5212TIP3    H115581   6.392   6.459   4.476
 5212TIP3    H215582   6.297   6.352   4.427
 5213TIP3   OH215583   3.565   2.189   0.575
 5213TIP3    H115584   3.565   2.111   0.520
 5213TIP3    H215585   3.578   2.262   0.514
 5214TIP3   OH215586   6.337   0.868   4.859
 5214TIP3    H115587   6.287   0.916   4.925
 5214TIP3    H215588   6.425   0.862   4.897
 5215TIP3   OH215589   2.590   4.023   0.744
 5215TIP3    H115590   2.678   3.987   0.749
 5215TIP3    H215591   2.565   4.015   0.652
 5216TIP3   OH215592   4.966   0.975   5.994
 5216TIP3    H115593   4.992   0.947   6.081
 5216TIP3    H215594   4.926   1.060   6.006
 5217TIP3   OH215595   2.694   4.625   6.228
 5217TIP3    H115596   2.775   4.605   6.274
 5217TIP3    H215597   2.718   4.690   6.163
 5218TIP3   OH215598   7.905   3.706   4.729
 5218TIP3    H115599   7.893   3.759   4.807
 5218TIP3    H215600   7.819   3.705   4.687
 5219TIP3   OH215601   7.220   0.219   2.400
 5219TIP3    H115602   7.245   0.198   2.310
 5219TIP3    H215603   7.127   0.240   2.395
 5220TIP3   OH215604   6.486   2.275   0.345
 5220TIP3    H115605   6.531   2.195   0.370
 5220TIP3    H215606   6.543   2.346   0.375
 5221TIP3   OH215607   6.279   1.671   0.324
 5221TIP3    H115608   6.343   1.603   0.345
 5221TIP3    H215609   6.216   1.627   0.266
 5222TIP3   OH215610   7.024   1.047   1.710
 5222TIP3    H115611   7.024   0.998   1.792
 5222TIP3    H215612   6.987   1.132   1.732
 5223TIP3   OH215613   1.719   1.512   5.803
 5223TIP3    H115614   1.814   1.498   5.812
 5223TIP3    H215615   1.701   1.493   5.711
 5224TIP3   OH215616   1.980   6.583   2.315
 5224TIP3    H115617   2.010   6.531   2.389
 5224TIP3    H215618   2.058   6.629   2.284
 5225TIP3   OH215619   2.670   1.055   3.066
 5225TIP3    H115620   2.685   0.993   2.994
 5225TIP3    H215621   2.612   1.008   3.126
 5226TIP3   OH215622   8.054   0.424   1.943
 5226TIP3    H115623   7.993   0.452   2.011
 5226TIP3    H215624   8.117   0.368   1.989
 5227TIP3   OH215625   4.748   5.731   4.071
 5227TIP3    H115626   4.737   5.815   4.025
 5227TIP3    H215627   4.665   5.686   4.057
 5228TIP3   OH215628   1.750   3.268   1.087
 5228TIP3    H115629   1.834   3.239   1.053
 5228TIP3    H215630   1.740   3.220   1.170
 5229TIP3   OH215631   7.404   0.692   3.254
 5229TIP3    H115632   7.495   0.661   3.253
 5229TIP3    H215633   7.386   0.712   3.346
 5230TIP3   OH215634   7.897   6.613   0.333
 5230TIP3    H115635   7.978   6.631   0.382
 5230TIP3    H215636   7.914   6.531   0.286
 5231TIP3   OH215637   2.607   7.510   3.182
 5231TIP3    H115638   2.555   7.430   3.193
 5231TIP3    H215639   2.548   7.571   3.137
 5232TIP3   OH215640   1.156   5.835   4.797
 5232TIP3    H115641   1.111   5.906   4.752
 5232TIP3    H215642   1.173   5.770   4.729
 5233TIP3   OH215643   0.680   3.603   1.540
 5233TIP3    H115644   0.666   3.515   1.506
 5233TIP3    H215645   0.705   3.590   1.632
 5234TIP3   OH215646   3.549   3.352   4.610
 5234TIP3    H115647   3.530   3.262   4.636
 5234TIP3    H215648   3.637   3.348   4.572
 5235TIP3   OH215649   1.283   1.067   4.215
 5235TIP3    H115650   1.355   1.004   4.223
 5235TIP3    H215651   1.311   1.143   4.267
 5236TIP3   OH215652   4.873   1.825   6.652
 5236TIP3    H115653   4.810   1.761   6.686
 5236TIP3    H215654   4.850   1.833   6.559
 5237TIP3   OH215655   1.901   2.667   6.625
 5237TIP3    H115656   1.977   2.655   6.568
 5237TIP3    H215657   1.851   2.586   6.615
 5238TIP3   OH215658   2.528   2.832   6.128
 5238TIP3    H115659   2.487   2.876   6.053
 5238TIP3    H215660   2.548   2.744   6.095
 5239TIP3   OH215661   3.882   3.863   5.059
 5239TIP3    H115662   3.947   3.824   5.001
 5239TIP3    H215663   3.933   3.918   5.118
 5240TIP3   OH215664   5.229   5.594   0.789
 5240TIP3    H115665   5.228   5.641   0.705
 5240TIP3    H215666   5.322   5.583   0.809
 5241TIP3   OH215667   5.046   5.747   2.447
 5241TIP3    H115668   5.082   5.720   2.531
 5241TIP3    H215669   4.952   5.729   2.454
 5242TIP3   OH215670   4.068   5.832   0.110
 5242TIP3    H115671   4.088   5.897   0.042
 5242TIP3    H215672   4.007   5.772   0.068
 5243TIP3   OH215673   1.493   7.355   0.847
 5243TIP3    H115674   1.424   7.415   0.819
 5243TIP3    H215675   1.566   7.412   0.873
 5244TIP3   OH215676   7.444   1.647   6.076
 5244TIP3    H115677   7.480   1.609   5.996
 5244TIP3    H215678   7.519   1.657   6.134
 5245TIP3   OH215679   8.195   1.114   2.419
 5245TIP3    H115680   8.183   1.192   2.364
 5245TIP3    H215681   8.211   1.043   2.357
 5246TIP3   OH215682   2.985   4.226   2.531
 5246TIP3    H115683   3.011   4.274   2.453
 5246TIP3    H215684   2.944   4.146   2.498
 5247TIP3   OH215685   4.205   1.152   1.352
 5247TIP3    H115686   4.194   1.246   1.370
 5247TIP3    H215687   4.293   1.145   1.314
 5248TIP3   OH215688   1.418   1.315   3.968
 5248TIP3    H115689   1.496   1.362   3.938
 5248TIP3    H215690   1.444   1.280   4.054
 5249TIP3   OH215691   2.566   0.119   6.698
 5249TIP3    H115692   2.512   0.118   6.619
 5249TIP3    H215693   2.645   0.167   6.673
 5250TIP3   OH215694   7.349   6.019   5.429
 5250TIP3    H115695   7.360   6.028   5.335
 5250TIP3    H215696   7.313   6.103   5.458
 5251TIP3   OH215697   6.005   3.451   6.571
 5251TIP3    H115698   5.952   3.524   6.603
 5251TIP3    H215699   5.948   3.374   6.581
 5252TIP3   OH215700   5.568   5.727   4.035
 5252TIP3    H115701   5.519   5.734   4.116
 5252TIP3    H215702   5.619   5.646   4.044
 5253TIP3   OH215703   1.540   3.771   1.593
 5253TIP3    H115704   1.561   3.707   1.524
 5253TIP3    H215705   1.584   3.737   1.671
 5254TIP3   OH215706   2.872   0.918   3.673
 5254TIP3    H115707   2.860   0.850   3.739
 5254TIP3    H215708   2.783   0.945   3.650
 5255TIP3   OH215709   4.798   2.205   1.792
 5255TIP3    H115710   4.848   2.285   1.775
 5255TIP3    H215711   4.800   2.195   1.887
 5256TIP3   OH215712   2.895   3.574   1.842
 5256TIP3    H115713   2.985   3.605   1.834
 5256TIP3    H215714   2.885   3.552   1.935
 5257TIP3   OH215715   3.042   5.412   5.840
 5257TIP3    H115716   3.067   5.438   5.928
 5257TIP3    H215717   2.951   5.383   5.847
 5258TIP3   OH215718   6.417   5.746   0.864
 5258TIP3    H115719   6.502   5.706   0.882
 5258TIP3    H215720   6.382   5.769   0.950
 5259TIP3   OH215721   7.370   2.649   1.091
 5259TIP3    H115722   7.460   2.678   1.078
 5259TIP3    H215723   7.355   2.655   1.185
 5260TIP3   OH215724   5.338   2.827   5.832
 5260TIP3    H115725   5.308   2.768   5.762
 5260TIP3    H215726   5.257   2.868   5.864
 5261TIP3   OH215727   4.520   7.467   1.076
 5261TIP3    H115728   4.566   7.451   1.159
 5261TIP3    H215729   4.490   7.381   1.048
 5262TIP3   OH215730   4.082   5.872   4.779
 5262TIP3    H115731   4.115   5.927   4.707
 5262TIP3    H215732   4.150   5.879   4.846
 5263TIP3   OH215733   1.492   5.927   0.339
 5263TIP3    H115734   1.554   5.951   0.408
 5263TIP3    H215735   1.479   6.008   0.290
 5264TIP3   OH215736   3.300   0.625   3.923
 5264TIP3    H115737   3.216   0.607   3.965
 5264TIP3    H215738   3.282   0.617   3.829
 5265TIP3   OH215739   0.273   3.602   1.479
 5265TIP3    H115740   0.200   3.619   1.420
 5265TIP3    H215741   0.344   3.572   1.422
 5266TIP3   OH215742   4.685   5.772   2.694
 5266TIP3    H115743   4.661   5.839   2.630
 5266TIP3    H215744   4.710   5.696   2.642
 5267TIP3   OH215745   4.504   6.433   3.584
 5267TIP3    H115746   4.447   6.473   3.650
 5267TIP3    H215747   4.576   6.496   3.574
 5268TIP3   OH215748   0.195   4.566   5.388
 5268TIP3    H115749   0.221   4.615   5.466
 5268TIP3    H215750   0.143   4.628   5.337
 5269TIP3   OH215751   6.279   7.698   3.092
 5269TIP3    H115752   6.192   7.734   3.077
 5269TIP3    H215753   6.284   7.684   3.187
 5270TIP3   OH215754   1.683   5.849   6.193
 5270TIP3    H115755   1.739   5.793   6.246
 5270TIP3    H215756   1.738   5.924   6.170
 5271TIP3   OH215757   8.064   1.463   4.166
 5271TIP3    H115758   8.050   1.532   4.101
 5271TIP3    H215759   8.059   1.382   4.116
 5272TIP3   OH215760   6.452   3.784   3.317
 5272TIP3    H115761   6.390   3.857   3.327
 5272TIP3    H215762   6.464   3.751   3.406
 5273TIP3   OH215763   4.217   3.498   5.518
 5273TIP3    H115764   4.167   3.475   5.439
 5273TIP3    H215765   4.154   3.492   5.589
 5274TIP3   OH215766   7.090   5.913   2.932
 5274TIP3    H115767   7.166   5.878   2.886
 5274TIP3    H215768   7.127   5.965   3.004
 5275TIP3   OH215769   3.611   1.730   0.861
 5275TIP3    H115770   3.573   1.771   0.784
 5275TIP3    H215771   3.659   1.654   0.827
 5276TIP3   OH215772   0.831   1.857   6.592
 5276TIP3    H115773   0.840   1.932   6.651
 5276TIP3    H215774   0.920   1.822   6.583
 5277TIP3   OH215775   4.794   0.659   6.673
 5277TIP3    H115776   4.825   0.737   6.720
 5277TIP3    H215777   4.702   0.652   6.696
 5278TIP3   OH215778   4.744   0.219   3.038
 5278TIP3    H115779   4.713   0.139   2.997
 5278TIP3    H215780   4.822   0.244   2.988
 5279TIP3   OH215781   4.935   1.701   6.095
 5279TIP3    H115782   4.958   1.713   6.003
 5279TIP3    H215783   4.978   1.619   6.120
 5280TIP3   OH215784   4.861   7.191   1.866
 5280TIP3    H115785   4.913   7.125   1.912
 5280TIP3    H215786   4.878   7.175   1.773
 5281TIP3   OH215787   5.663   3.152   1.207
 5281TIP3    H115788   5.602   3.188   1.143
 5281TIP3    H215789   5.624   3.173   1.292
 5282TIP3   OH215790   8.007   7.476   1.702
 5282TIP3    H115791   8.062   7.436   1.635
 5282TIP3    H215792   7.919   7.446   1.683
 5283TIP3   OH215793   1.591   3.226   4.143
 5283TIP3    H115794   1.586   3.291   4.073
 5283TIP3    H215795   1.500   3.204   4.162
 5284TIP3   OH215796   7.896   3.394   3.660
 5284TIP3    H115797   7.874   3.334   3.589
 5284TIP3    H215798   7.854   3.476   3.635
 5285TIP3   OH215799   3.362   3.096   6.614
 5285TIP3    H115800   3.282   3.148   6.621
 5285TIP3    H215801   3.404   3.105   6.700
 5286TIP3   OH215802   0.097   0.510   6.041
 5286TIP3    H115803   0.098   0.590   6.093
 5286TIP3    H215804   0.100   0.440   6.106
 5287TIP3   OH215805   6.811   6.254   3.421
 5287TIP3    H115806   6.828   6.174   3.370
 5287TIP3    H215807   6.790   6.222   3.509
 5288TIP3   OH215808   2.033   4.932   4.027
 5288TIP3    H115809   2.075   4.867   4.082
 5288TIP3    H215810   2.083   5.012   4.042
 5289TIP3   OH215811   7.084   0.614   2.329
 5289TIP3    H115812   7.069   0.519   2.327
 5289TIP3    H215813   7.023   0.649   2.264
 5290TIP3   OH215814   4.701   4.100   2.966
 5290TIP3    H115815   4.663   4.164   3.026
 5290TIP3    H215816   4.662   4.016   2.993
 5291TIP3   OH215817   7.482   3.242   3.658
 5291TIP3    H115818   7.523   3.156   3.647
 5291TIP3    H215819   7.389   3.223   3.669
 5292TIP3   OH215820   4.342   2.345   6.206
 5292TIP3    H115821   4.346   2.357   6.111
 5292TIP3    H215822   4.416   2.288   6.226
 5293TIP3   OH215823   7.118   5.422   6.716
 5293TIP3    H115824   7.172   5.452   6.789
 5293TIP3    H215825   7.180   5.378   6.658
 5294TIP3   OH215826   6.767   5.352   0.315
 5294TIP3    H115827   6.686   5.320   0.275
 5294TIP3    H215828   6.779   5.439   0.278
 5295TIP3   OH215829   5.319   1.757   3.234
 5295TIP3    H115830   5.299   1.821   3.166
 5295TIP3    H215831   5.248   1.694   3.231
 5296TIP3   OH215832   1.088   5.162   5.136
 5296TIP3    H115833   1.022   5.220   5.175
 5296TIP3    H215834   1.113   5.206   5.054
 5297TIP3   OH215835   6.830   0.760   5.049
 5297TIP3    H115836   6.869   0.835   5.004
 5297TIP3    H215837   6.905   0.711   5.082
 5298TIP3   OH215838   3.307   1.689   2.127
 5298TIP3    H115839   3.330   1.596   2.138
 5298TIP3    H215840   3.362   1.719   2.056
 5299TIP3   OH215841   4.164   2.908   4.259
 5299TIP3    H115842   4.229   2.918   4.328
 5299TIP3    H215843   4.157   2.813   4.246
 5300TIP3   OH215844   4.839   5.244   5.366
 5300TIP3    H115845   4.916   5.198   5.334
 5300TIP3    H215846   4.774   5.175   5.379
 5301TIP3   OH215847   4.339   2.965   4.470
 5301TIP3    H115848   4.430   2.991   4.453
 5301TIP3    H215849   4.345   2.906   4.546
 5302TIP3   OH215850   7.500   7.867   1.150
 5302TIP3    H115851   7.535   7.930   1.214
 5302TIP3    H215852   7.576   7.815   1.124
 5303TIP3   OH215853   6.260   2.923   3.102
 5303TIP3    H115854   6.209   2.857   3.056
 5303TIP3    H215855   6.318   2.872   3.159
 5304TIP3   OH215856   1.601   5.860   0.769
 5304TIP3    H115857   1.533   5.793   0.761
 5304TIP3    H215858   1.567   5.921   0.834
 5305TIP3   OH215859   4.103   0.601   3.711
 5305TIP3    H115860   4.079   0.609   3.803
 5305TIP3    H215861   4.035   0.545   3.673
 5306TIP3   OH215862   4.210   4.951   2.370
 5306TIP3    H115863   4.164   4.869   2.352
 5306TIP3    H215864   4.283   4.926   2.426
 5307TIP3   OH215865   0.116   3.283   6.199
 5307TIP3    H115866   0.036   3.231   6.195
 5307TIP3    H215867   0.088   3.370   6.227
 5308TIP3   OH215868   2.542   2.019   5.138
 5308TIP3    H115869   2.474   1.975   5.087
 5308TIP3    H215870   2.494   2.082   5.192
 5309TIP3   OH215871   2.770   7.692   3.052
 5309TIP3    H115872   2.704   7.623   3.057
 5309TIP3    H215873   2.735   7.763   3.105
 5310TIP3   OH215874   1.648   6.756   4.049
 5310TIP3    H115875   1.658   6.802   3.965
 5310TIP3    H215876   1.736   6.757   4.087
 5311TIP3   OH215877   4.921   5.922   1.036
 5311TIP3    H115878   4.978   5.975   0.980
 5311TIP3    H215879   4.932   5.959   1.123
 5312TIP3   OH215880   1.132   6.191   6.613
 5312TIP3    H115881   1.131   6.141   6.694
 5312TIP3    H215882   1.200   6.257   6.625
 5313TIP3   OH215883   4.075   1.443   4.289
 5313TIP3    H115884   4.080   1.375   4.222
 5313TIP3    H215885   4.054   1.523   4.239
 5314TIP3   OH215886   0.875   7.685   3.401
 5314TIP3    H115887   0.870   7.696   3.306
 5314TIP3    H215888   0.952   7.631   3.415
 5315TIP3   OH215889   1.619   4.041   1.633
 5315TIP3    H115890   1.712   4.017   1.632
 5315TIP3    H215891   1.573   3.959   1.616
 5316TIP3   OH215892   5.506   4.830   4.513
 5316TIP3    H115893   5.554   4.768   4.568
 5316TIP3    H215894   5.503   4.789   4.427
 5317TIP3   OH215895   0.739   6.517   3.429
 5317TIP3    H115896   0.748   6.610   3.407
 5317TIP3    H215897   0.650   6.508   3.462
 5318TIP3   OH215898   0.862   0.131   3.204
 5318TIP3    H115899   0.879   0.081   3.124
 5318TIP3    H215900   0.899   0.218   3.186
 5319TIP3   OH215901   5.449   3.456   1.375
 5319TIP3    H115902   5.457   3.531   1.433
 5319TIP3    H215903   5.385   3.482   1.309
 5320TIP3   OH215904   4.127   4.090   0.477
 5320TIP3    H115905   4.037   4.061   0.464
 5320TIP3    H215906   4.149   4.061   0.565
 5321TIP3   OH215907   6.907   1.232   2.686
 5321TIP3    H115908   6.834   1.181   2.651
 5321TIP3    H215909   6.930   1.292   2.615
 5322TIP3   OH215910   2.810   6.231   6.125
 5322TIP3    H115911   2.864   6.270   6.056
 5322TIP3    H215912   2.758   6.305   6.158
 5323TIP3   OH215913   3.911   5.304   0.950
 5323TIP3    H115914   3.918   5.333   1.041
 5323TIP3    H215915   3.958   5.370   0.899
 5324TIP3   OH215916   3.283   2.467   5.170
 5324TIP3    H115917   3.332   2.389   5.199
 5324TIP3    H215918   3.348   2.520   5.124
 5325TIP3   OH215919   0.650   4.197   2.632
 5325TIP3    H115920   0.635   4.104   2.646
 5325TIP3    H215921   0.641   4.209   2.537
 5326TIP3   OH215922   1.626   0.599   1.944
 5326TIP3    H115923   1.582   0.543   1.880
 5326TIP3    H215924   1.660   0.539   2.010
 5327TIP3   OH215925   4.692   2.097   5.329
 5327TIP3    H115926   4.774   2.050   5.313
 5327TIP3    H215927   4.678   2.090   5.423
 5328TIP3   OH215928   2.563   0.385   2.181
 5328TIP3    H115929   2.494   0.450   2.188
 5328TIP3    H215930   2.567   0.345   2.268
 5329TIP3   OH215931   5.610   2.339   6.745
 5329TIP3    H115932   5.659   2.421   6.731
 5329TIP3    H215933   5.525   2.355   6.704
 5330TIP3   OH215934   2.500   4.401  -0.009
 5330TIP3    H115935   2.476   4.318  -0.050
 5330TIP3    H215936   2.502   4.382   0.085
 5331TIP3   OH215937   2.713   4.261   2.331
 5331TIP3    H115938   2.750   4.184   2.372
 5331TIP3    H215939   2.663   4.227   2.257
 5332TIP3   OH215940   1.469   6.439   3.023
 5332TIP3    H115941   1.391   6.481   2.986
 5332TIP3    H215942   1.459   6.347   3.001
 5333TIP3   OH215943   7.159   3.831   1.103
 5333TIP3    H115944   7.114   3.792   1.178
 5333TIP3    H215945   7.106   3.908   1.080
 5334TIP3   OH215946   0.455   1.151   4.100
 5334TIP3    H115947   0.511   1.222   4.069
 5334TIP3    H215948   0.378   1.196   4.136
 5335TIP3   OH215949   6.825   2.109   5.727
 5335TIP3    H115950   6.839   2.197   5.692
 5335TIP3    H215951   6.911   2.068   5.724
 5336TIP3   OH215952   1.261   1.725   5.985
 5336TIP3    H115953   1.327   1.734   5.916
 5336TIP3    H215954   1.309   1.686   6.059
 5337TIP3   OH215955   2.441   7.070   2.592
 5337TIP3    H115956   2.431   7.084   2.687
 5337TIP3    H215957   2.457   6.976   2.583
 5338TIP3   OH215958   5.678   5.608   4.709
 5338TIP3    H115959   5.608   5.667   4.739
 5338TIP3    H215960   5.660   5.526   4.755
 5339TIP3   OH215961   6.942   1.333   1.975
 5339TIP3    H115962   7.019   1.385   1.999
 5339TIP3    H215963   6.932   1.346   1.881
 5340TIP3   OH215964   5.993   2.787   5.720
 5340TIP3    H115965   6.086   2.802   5.702
 5340TIP3    H215966   5.955   2.766   5.635
 5341TIP3   OH215967   3.961   7.171   4.222
 5341TIP3    H115968   3.934   7.091   4.178
 5341TIP3    H215969   4.009   7.221   4.156
 5342TIP3   OH215970   6.431   6.171   3.226
 5342TIP3    H115971   6.412   6.193   3.135
 5342TIP3    H215972   6.527   6.169   3.231
 5343TIP3   OH215973   7.107   6.341   3.799
 5343TIP3    H115974   7.172   6.295   3.744
 5343TIP3    H215975   7.078   6.275   3.862
 5344TIP3   OH215976   0.805   5.105   2.814
 5344TIP3    H115977   0.771   5.180   2.764
 5344TIP3    H215978   0.899   5.122   2.821
 5345TIP3   OH215979   0.294   1.434   4.912
 5345TIP3    H115980   0.336   1.497   4.854
 5345TIP3    H215981   0.313   1.348   4.873
 5346TIP3   OH215982   5.006   5.632   0.508
 5346TIP3    H115983   4.986   5.631   0.601
 5346TIP3    H215984   4.935   5.683   0.469
 5347TIP3   OH215985   2.649   5.141   5.091
 5347TIP3    H115986   2.619   5.102   5.009
 5347TIP3    H215987   2.570   5.182   5.127
 5348TIP3   OH215988   8.080   3.275   3.836
 5348TIP3    H115989   8.022   3.317   3.772
 5348TIP3    H215990   8.140   3.222   3.783
 5349TIP3   OH215991   5.704   4.847   2.639
 5349TIP3    H115992   5.622   4.894   2.631
 5349TIP3    H215993   5.698   4.776   2.575
 5350TIP3   OH215994   7.605   4.207   1.289
 5350TIP3    H115995   7.626   4.279   1.231
 5350TIP3    H215996   7.527   4.167   1.251
 5351TIP3   OH215997   2.914   2.542   1.043
 5351TIP3    H115998   2.854   2.557   1.116
 5351TIP3    H215999   2.860   2.499   0.976
 5352TIP3   OH216000   7.305   1.690   3.789
 5352TIP3    H116001   7.234   1.731   3.839
 5352TIP3    H216002   7.264   1.616   3.745
 5353TIP3   OH216003   6.729   7.439   5.214
 5353TIP3    H116004   6.682   7.492   5.279
 5353TIP3    H216005   6.758   7.362   5.262
 5354TIP3   OH216006   8.178   4.579   4.572
 5354TIP3    H116007   8.270   4.554   4.579
 5354TIP3    H216008   8.156   4.565   4.480
 5355TIP3   OH216009   4.354   7.661   1.107
 5355TIP3    H116010   4.419   7.592   1.099
 5355TIP3    H216011   4.399   7.739   1.073
 5356TIP3   OH216012   1.732   1.440   6.365
 5356TIP3    H116013   1.686   1.515   6.403
 5356TIP3    H216014   1.684   1.420   6.285
 5357TIP3   OH216015   1.363   4.559   2.040
 5357TIP3    H116016   1.456   4.581   2.031
 5357TIP3    H216017   1.324   4.585   1.957
 5358TIP3   OH216018   0.108   1.037   3.897
 5358TIP3    H116019   0.152   0.954   3.911
 5358TIP3    H216020   0.123   1.086   3.978
 5359TIP3   OH216021   2.427   0.418   4.186
 5359TIP3    H116022   2.521   0.431   4.190
 5359TIP3    H216023   2.416   0.338   4.134
 5360TIP3   OH216024   4.857   6.691   6.095
 5360TIP3    H116025   4.846   6.709   6.002
 5360TIP3    H216026   4.897   6.604   6.098
 5361TIP3   OH216027   0.183   2.249   3.120
 5361TIP3    H116028   0.124   2.174   3.121
 5361TIP3    H216029   0.204   2.264   3.212
 5362TIP3   OH216030   7.325   1.967   4.009
 5362TIP3    H116031   7.273   1.900   3.966
 5362TIP3    H216032   7.336   1.935   4.099
 5363TIP3   OH216033   0.155   3.994   5.944
 5363TIP3    H116034   0.199   4.066   5.989
 5363TIP3    H216035   0.226   3.934   5.920
 5364TIP3   OH216036   0.885   3.068   5.625
 5364TIP3    H116037   0.945   3.040   5.555
 5364TIP3    H216038   0.822   2.996   5.632
 5365TIP3   OH216039   3.692   3.216   0.942
 5365TIP3    H116040   3.688   3.300   0.896
 5365TIP3    H216041   3.601   3.198   0.967
 5366TIP3   OH216042   6.916   2.057   1.325
 5366TIP3    H116043   6.912   2.149   1.301
 5366TIP3    H216044   6.852   2.014   1.267
 5367TIP3   OH216045   5.834   0.236   5.482
 5367TIP3    H116046   5.745   0.258   5.508
 5367TIP3    H216047   5.831   0.142   5.464
 5368TIP3   OH216048   4.460   4.674   5.786
 5368TIP3    H116049   4.425   4.599   5.835
 5368TIP3    H216050   4.382   4.720   5.755
 5369TIP3   OH216051   5.036   5.234   3.246
 5369TIP3    H116052   5.014   5.143   3.224
 5369TIP3    H216053   5.120   5.249   3.202
 5370TIP3   OH216054   0.792   0.404   3.835
 5370TIP3    H116055   0.833   0.355   3.906
 5370TIP3    H216056   0.824   0.363   3.755
 5371TIP3   OH216057   6.129   3.921   5.182
 5371TIP3    H116058   6.062   3.968   5.131
 5371TIP3    H216059   6.109   3.828   5.167
 5372TIP3   OH216060   7.001   5.104   5.504
 5372TIP3    H116061   7.050   5.186   5.507
 5372TIP3    H216062   6.935   5.113   5.573
 5373TIP3   OH216063   4.032   5.225   4.882
 5373TIP3    H116064   4.054   5.180   4.801
 5373TIP3    H216065   4.098   5.295   4.890
 5374TIP3   OH216066   1.736   1.468   1.354
 5374TIP3    H116067   1.822   1.473   1.312
 5374TIP3    H216068   1.753   1.423   1.437
 5375TIP3   OH216069   2.199   5.255   3.484
 5375TIP3    H116070   2.281   5.302   3.496
 5375TIP3    H216071   2.135   5.323   3.462
 5376TIP3   OH216072   1.219   5.804   0.182
 5376TIP3    H116073   1.152   5.855   0.137
 5376TIP3    H216074   1.176   5.770   0.260
 5377TIP3   OH216075   1.534   1.715   0.506
 5377TIP3    H116076   1.547   1.753   0.592
 5377TIP3    H216077   1.452   1.665   0.514
 5378TIP3   OH216078   3.417   7.125   4.711
 5378TIP3    H116079   3.499   7.108   4.756
 5378TIP3    H216080   3.443   7.145   4.621
 5379TIP3   OH216081   1.140   3.041   3.190
 5379TIP3    H116082   1.220   3.093   3.195
 5379TIP3    H216083   1.123   3.014   3.280
 5380TIP3   OH216084   5.199   3.269   5.940
 5380TIP3    H116085   5.251   3.211   5.996
 5380TIP3    H216086   5.250   3.274   5.859
 5381TIP3   OH216087   0.899   2.544   1.895
 5381TIP3    H116088   0.809   2.576   1.901
 5381TIP3    H216089   0.944   2.609   1.840
 5382TIP3   OH216090   7.970   2.290   6.627
 5382TIP3    H116091   7.880   2.292   6.657
 5382TIP3    H216092   8.021   2.262   6.704
 5383TIP3   OH216093   3.078   5.415   4.664
 5383TIP3    H116094   3.128   5.496   4.655
 5383TIP3    H216095   2.991   5.443   4.691
 5384TIP3   OH216096   5.948   7.108   0.168
 5384TIP3    H116097   6.037   7.132   0.194
 5384TIP3    H216098   5.914   7.185   0.123
 5385TIP3   OH216099   1.462   0.406   0.820
 5385TIP3    H116100   1.494   0.329   0.866
 5385TIP3    H216101   1.532   0.471   0.829
 5386TIP3   OH216102   3.567   0.287   6.351
 5386TIP3    H116103   3.656   0.256   6.333
 5386TIP3    H216104   3.533   0.313   6.265
 5387TIP3   OH216105   1.120   3.986   2.126
 5387TIP3    H116106   1.166   3.919   2.177
 5387TIP3    H216107   1.179   4.061   2.127
 5388TIP3   OH216108   6.207   5.060   0.708
 5388TIP3    H116109   6.181   5.138   0.757
 5388TIP3    H216110   6.301   5.072   0.693
 5389TIP3   OH216111   3.662   1.258   3.439
 5389TIP3    H116112   3.618   1.271   3.522
 5389TIP3    H216113   3.749   1.225   3.462
 5390TIP3   OH216114   6.247   4.381   1.435
 5390TIP3    H116115   6.205   4.465   1.419
 5390TIP3    H216116   6.301   4.366   1.357
 5391TIP3   OH216117   6.786   1.817   2.758
 5391TIP3    H116118   6.741   1.842   2.677
 5391TIP3    H216119   6.863   1.769   2.729
 5392TIP3   OH216120   5.470   2.385   1.984
 5392TIP3    H116121   5.379   2.364   1.965
 5392TIP3    H216122   5.473   2.395   2.079
 5393TIP3   OH216123   0.865   6.360   2.970
 5393TIP3    H116124   0.796   6.426   2.961
 5393TIP3    H216125   0.906   6.379   3.054
 5394TIP3   OH216126   2.424   0.237   5.589
 5394TIP3    H116127   2.346   0.226   5.534
 5394TIP3    H216128   2.390   0.236   5.678
 5395TIP3   OH216129   6.375   3.330   5.161
 5395TIP3    H116130   6.300   3.276   5.186
 5395TIP3    H216131   6.386   3.314   5.067
 5396TIP3   OH216132   0.999   5.324   6.569
 5396TIP3    H116133   0.945   5.401   6.549
 5396TIP3    H216134   0.987   5.311   6.664
 5397TIP3   OH216135   5.838   4.870   0.937
 5397TIP3    H116136   5.843   4.930   1.012
 5397TIP3    H216137   5.753   4.890   0.897
 5398TIP3   OH216138   5.858   2.195   2.577
 5398TIP3    H116139   5.877   2.286   2.603
 5398TIP3    H216140   5.897   2.142   2.647
 5399TIP3   OH216141   3.197   2.085   5.676
 5399TIP3    H116142   3.102   2.078   5.682
 5399TIP3    H216143   3.229   2.000   5.706
 5400TIP3   OH216144   2.519   3.166   1.837
 5400TIP3    H116145   2.515   3.132   1.926
 5400TIP3    H216146   2.604   3.211   1.832
 5401TIP3   OH216147   0.071   7.644   1.280
 5401TIP3    H116148  -0.004   7.637   1.220
 5401TIP3    H216149   0.120   7.720   1.248
 5402TIP3   OH216150   1.318   3.587   1.841
 5402TIP3    H116151   1.334   3.665   1.894
 5402TIP3    H216152   1.248   3.613   1.781
 5403TIP3   OH216153   1.423   6.940   3.009
 5403TIP3    H116154   1.479   6.863   2.994
 5403TIP3    H216155   1.484   7.013   3.012
 5404TIP3   OH216156   8.249   4.242   0.864
 5404TIP3    H116157   8.291   4.270   0.945
 5404TIP3    H216158   8.320   4.204   0.812
 5405TIP3   OH216159   1.081   0.381   1.793
 5405TIP3    H116160   1.011   0.396   1.730
 5405TIP3    H216161   1.161   0.402   1.746
 5406TIP3   OH216162   3.774   3.066   6.263
 5406TIP3    H116163   3.724   3.143   6.234
 5406TIP3    H216164   3.865   3.088   6.244
 5407TIP3   OH216165   6.562   5.233   0.137
 5407TIP3    H116166   6.540   5.313   0.090
 5407TIP3    H216167   6.547   5.163   0.074
 5408TIP3   OH216168   8.106   4.743   3.354
 5408TIP3    H116169   8.031   4.790   3.390
 5408TIP3    H216170   8.076   4.708   3.270
 5409TIP3   OH216171   1.413   6.058   2.205
 5409TIP3    H116172   1.467   6.126   2.246
 5409TIP3    H216173   1.323   6.089   2.216
 5410TIP3   OH216174   6.216   7.486   0.973
 5410TIP3    H116175   6.308   7.506   0.991
 5410TIP3    H216176   6.183   7.453   1.057
 5411TIP3   OH216177   1.605   1.158   2.490
 5411TIP3    H116178   1.683   1.181   2.440
 5411TIP3    H216179   1.561   1.092   2.436
 5412TIP3   OH216180   6.808   1.333   3.382
 5412TIP3    H116181   6.769   1.245   3.384
 5412TIP3    H216182   6.864   1.336   3.460
 5413TIP3   OH216183   2.832   0.258   1.599
 5413TIP3    H116184   2.774   0.331   1.624
 5413TIP3    H216185   2.774   0.183   1.594
 5414TIP3   OH216186   0.793   4.571   4.998
 5414TIP3    H116187   0.786   4.506   4.929
 5414TIP3    H216188   0.726   4.636   4.978
 5415TIP3   OH216189   0.200   3.924   2.564
 5415TIP3    H116190   0.233   3.946   2.477
 5415TIP3    H216191   0.197   4.007   2.611
 5416TIP3   OH216192   1.101   7.487   3.456
 5416TIP3    H116193   1.139   7.462   3.372
 5416TIP3    H216194   1.105   7.408   3.509
 5417TIP3   OH216195   1.974   4.928   5.498
 5417TIP3    H116196   2.045   4.984   5.466
 5417TIP3    H216197   2.006   4.839   5.483
 5418TIP3   OH216198   6.625   3.422   0.992
 5418TIP3    H116199   6.609   3.335   0.955
 5418TIP3    H216200   6.538   3.463   0.996
 5419TIP3   OH216201   4.964   7.395   4.282
 5419TIP3    H116202   4.980   7.388   4.188
 5419TIP3    H216203   5.007   7.318   4.319
 5420TIP3   OH216204   3.997   2.292   3.681
 5420TIP3    H116205   4.002   2.374   3.632
 5420TIP3    H216206   3.948   2.233   3.623
 5421TIP3   OH216207   1.605   1.581   3.677
 5421TIP3    H116208   1.527   1.618   3.718
 5421TIP3    H216209   1.586   1.583   3.583
 5422TIP3   OH216210   8.171   6.334   5.684
 5422TIP3    H116211   8.260   6.366   5.671
 5422TIP3    H216212   8.115   6.407   5.657
 5423TIP3   OH216213   8.294   6.510   4.576
 5423TIP3    H116214   8.266   6.427   4.615
 5423TIP3    H216215   8.217   6.566   4.582
 5424TIP3   OH216216   6.298   2.873   1.085
 5424TIP3    H116217   6.389   2.886   1.115
 5424TIP3    H216218   6.306   2.812   1.011
 5425TIP3   OH216219   6.506   3.564   3.173
 5425TIP3    H116220   6.493   3.581   3.080
 5425TIP3    H216221   6.461   3.635   3.217
 5426TIP3   OH216222   2.175   6.246   4.190
 5426TIP3    H116223   2.183   6.332   4.231
 5426TIP3    H216224   2.093   6.211   4.223
 5427TIP3   OH216225   0.350   1.813   5.692
 5427TIP3    H116226   0.327   1.853   5.776
 5427TIP3    H216227   0.268   1.815   5.641
 5428TIP3   OH216228   3.214   6.186   3.276
 5428TIP3    H116229   3.301   6.147   3.289
 5428TIP3    H216230   3.161   6.113   3.245
 5429TIP3   OH216231   0.758   5.880   0.191
 5429TIP3    H116232   0.805   5.802   0.162
 5429TIP3    H216233   0.816   5.919   0.257
 5430TIP3   OH216234   1.495   2.047   1.822
 5430TIP3    H116235   1.468   2.104   1.750
 5430TIP3    H216236   1.415   2.032   1.872
 5431TIP3   OH216237   7.321   5.999   2.056
 5431TIP3    H116238   7.388   5.933   2.039
 5431TIP3    H216239   7.301   6.036   1.970
 5432TIP3   OH216240   5.640   4.636   5.594
 5432TIP3    H116241   5.570   4.590   5.548
 5432TIP3    H216242   5.596   4.686   5.662
 5433TIP3   OH216243   7.155   7.746   3.435
 5433TIP3    H116244   7.085   7.757   3.499
 5433TIP3    H216245   7.193   7.834   3.425
 5434TIP3   OH216246   0.439   2.161   4.321
 5434TIP3    H116247   0.369   2.220   4.350
 5434TIP3    H216248   0.435   2.163   4.226
 5435TIP3   OH216249   2.699   3.428   4.700
 5435TIP3    H116250   2.691   3.423   4.605
 5435TIP3    H216251   2.770   3.368   4.721
 5436TIP3   OH216252   2.438   5.158   2.858
 5436TIP3    H116253   2.480   5.105   2.926
 5436TIP3    H216254   2.450   5.109   2.777
 5437TIP3   OH216255   7.470   1.352   6.440
 5437TIP3    H116256   7.398   1.398   6.397
 5437TIP3    H216257   7.548   1.378   6.391
 5438TIP3   OH216258   1.577   6.870   2.253
 5438TIP3    H116259   1.531   6.916   2.183
 5438TIP3    H216260   1.669   6.895   2.242
 5439TIP3   OH216261   8.285   2.641   5.165
 5439TIP3    H116262   8.317   2.583   5.096
 5439TIP3    H216263   8.349   2.634   5.235
 5440TIP3   OH216264   2.104   7.204   0.886
 5440TIP3    H116265   2.072   7.147   0.816
 5440TIP3    H216266   2.141   7.280   0.840
 5441TIP3   OH216267   5.479   1.691   6.306
 5441TIP3    H116268   5.561   1.647   6.282
 5441TIP3    H216269   5.416   1.661   6.241
 5442TIP3   OH216270   1.975   1.450   3.744
 5442TIP3    H116271   1.926   1.421   3.666
 5442TIP3    H216272   1.968   1.545   3.742
 5443TIP3   OH216273   7.416   0.054   4.323
 5443TIP3    H116274   7.385   0.136   4.362
 5443TIP3    H216275   7.449   0.080   4.237
 5444TIP3   OH216276   6.177   3.072   0.163
 5444TIP3    H116277   6.129   2.989   0.162
 5444TIP3    H216278   6.170   3.103   0.253
 5445TIP3   OH216279   5.238   1.828   3.979
 5445TIP3    H116280   5.160   1.873   4.013
 5445TIP3    H216281   5.286   1.895   3.931
 5446TIP3   OH216282   4.964   2.988   1.177
 5446TIP3    H116283   4.940   2.950   1.092
 5446TIP3    H216284   4.996   3.076   1.155
 5447TIP3   OH216285   0.296   1.169   1.551
 5447TIP3    H116286   0.280   1.254   1.592
 5447TIP3    H216287   0.270   1.180   1.459
 5448TIP3   OH216288   5.867   3.987   6.073
 5448TIP3    H116289   5.812   4.013   5.999
 5448TIP3    H216290   5.914   4.066   6.097
 5449TIP3   OH216291   1.306   0.646   1.366
 5449TIP3    H116292   1.334   0.660   1.456
 5449TIP3    H216293   1.242   0.714   1.350
 5450TIP3   OH216294   5.390   1.570   6.537
 5450TIP3    H116295   5.347   1.503   6.483
 5450TIP3    H216296   5.429   1.630   6.474
 5451TIP3   OH216297   1.111   5.225   2.508
 5451TIP3    H116298   1.185   5.236   2.448
 5451TIP3    H216299   1.119   5.136   2.542
 5452TIP3   OH216300   8.100   4.324   5.179
 5452TIP3    H116301   8.175   4.377   5.153
 5452TIP3    H216302   8.042   4.385   5.224
 5453TIP3   OH216303   7.791   7.217   2.219
 5453TIP3    H116304   7.803   7.230   2.125
 5453TIP3    H216305   7.807   7.304   2.257
 5454TIP3   OH216306   6.182   0.400   1.660
 5454TIP3    H116307   6.236   0.321   1.653
 5454TIP3    H216308   6.118   0.391   1.590
 5455TIP3   OH216309   4.138   0.084   4.505
 5455TIP3    H116310   4.192   0.077   4.427
 5455TIP3    H216311   4.161   0.169   4.543
 5456TIP3   OH216312   6.381   0.130   0.318
 5456TIP3    H116313   6.313   0.160   0.258
 5456TIP3    H216314   6.336   0.069   0.377
 5457TIP3   OH216315   6.651   7.389   6.673
 5457TIP3    H116316   6.622   7.303   6.642
 5457TIP3    H216317   6.664   7.377   6.767
 5458TIP3   OH216318   7.158   7.321   3.949
 5458TIP3    H116319   7.063   7.317   3.954
 5458TIP3    H216320   7.188   7.236   3.980
 5459TIP3   OH216321   1.343   7.608   3.704
 5459TIP3    H116322   1.393   7.651   3.774
 5459TIP3    H216323   1.408   7.553   3.659
 5460TIP3   OH216324   1.883   5.857   0.718
 5460TIP3    H116325   1.921   5.784   0.767
 5460TIP3    H216326   1.789   5.845   0.725
 5461TIP3   OH216327   3.202   1.584   2.929
 5461TIP3    H116328   3.263   1.510   2.930
 5461TIP3    H216329   3.214   1.626   3.014
 5462TIP3   OH216330   5.508   3.460   0.763
 5462TIP3    H116331   5.515   3.528   0.696
 5462TIP3    H216332   5.474   3.384   0.716
 5463TIP3   OH216333   4.572   0.392   5.512
 5463TIP3    H116334   4.634   0.463   5.493
 5463TIP3    H216335   4.516   0.427   5.581
 5464TIP3   OH216336   1.011   6.243   4.688
 5464TIP3    H116337   0.938   6.276   4.636
 5464TIP3    H216338   1.035   6.160   4.646
 5465TIP3   OH216339   7.499   2.215   6.532
 5465TIP3    H116340   7.586   2.179   6.551
 5465TIP3    H216341   7.475   2.174   6.448
 5466TIP3   OH216342   0.309   3.473   6.057
 5466TIP3    H116343   0.258   3.409   6.106
 5466TIP3    H216344   0.283   3.459   5.966
 5467TIP3   OH216345  -0.042   5.311   1.676
 5467TIP3    H116346   0.023   5.328   1.743
 5467TIP3    H216347  -0.091   5.236   1.708
 5468TIP3   OH216348   6.856   7.473   1.567
 5468TIP3    H116349   6.918   7.400   1.574
 5468TIP3    H216350   6.910   7.547   1.540
 5469TIP3   OH216351   0.693   5.270   3.889
 5469TIP3    H116352   0.605   5.293   3.919
 5469TIP3    H216353   0.747   5.275   3.967
 5470TIP3   OH216354   4.826   2.677   2.417
 5470TIP3    H116355   4.833   2.740   2.345
 5470TIP3    H216356   4.743   2.631   2.401
 5471TIP3   OH216357   6.321   2.616   0.244
 5471TIP3    H116358   6.320   2.586   0.154
 5471TIP3    H216359   6.357   2.705   0.240
 5472TIP3   OH216360   0.312   5.846   2.860
 5472TIP3    H116361   0.301   5.940   2.869
 5472TIP3    H216362   0.244   5.819   2.799
 5473TIP3   OH216363   2.450   2.553   3.152
 5473TIP3    H116364   2.379   2.498   3.185
 5473TIP3    H216365   2.461   2.621   3.219
 5474TIP3   OH216366   7.164   2.023   6.548
 5474TIP3    H116367   7.142   2.114   6.567
 5474TIP3    H216368   7.151   2.014   6.454
 5475TIP3   OH216369   8.167   3.500   6.444
 5475TIP3    H116370   8.242   3.509   6.384
 5475TIP3    H216371   8.100   3.558   6.407
 5476TIP3   OH216372   1.418   3.011   0.775
 5476TIP3    H116373   1.371   3.095   0.772
 5476TIP3    H216374   1.403   2.979   0.864
 5477TIP3   OH216375   4.679   4.672   0.093
 5477TIP3    H116376   4.765   4.693   0.056
 5477TIP3    H216377   4.679   4.576   0.100
 5478TIP3   OH216378   1.441   6.880   0.115
 5478TIP3    H116379   1.442   6.853   0.206
 5478TIP3    H216380   1.376   6.823   0.074
 5479TIP3   OH216381   5.168   4.168   3.366
 5479TIP3    H116382   5.216   4.202   3.442
 5479TIP3    H216383   5.076   4.173   3.392
 5480TIP3   OH216384   7.066   6.950   4.527
 5480TIP3    H116385   6.986   6.931   4.479
 5480TIP3    H216386   7.099   7.031   4.488
 5481TIP3   OH216387   1.932   3.377   4.881
 5481TIP3    H116388   1.948   3.452   4.940
 5481TIP3    H216389   1.837   3.376   4.869
 5482TIP3   OH216390   3.637   5.904   6.248
 5482TIP3    H116391   3.565   5.849   6.281
 5482TIP3    H216392   3.596   5.958   6.180
 5483TIP3   OH216393   1.886   7.662   0.601
 5483TIP3    H116394   1.836   7.663   0.519
 5483TIP3    H216395   1.902   7.570   0.619
 5484TIP3   OH216396   6.063   0.810   3.148
 5484TIP3    H116397   6.022   0.729   3.118
 5484TIP3    H216398   6.150   0.784   3.177
 5485TIP3   OH216399   5.452   4.890   5.110
 5485TIP3    H116400   5.359   4.866   5.111
 5485TIP3    H216401   5.470   4.917   5.200
 5486TIP3   OH216402   5.328   4.985   1.151
 5486TIP3    H116403   5.393   5.042   1.191
 5486TIP3    H216404   5.303   4.923   1.220
 5487TIP3   OH216405   1.875   1.235   6.088
 5487TIP3    H116406   1.831   1.318   6.108
 5487TIP3    H216407   1.919   1.250   6.005
 5488TIP3   OH216408   0.150   2.224   2.477
 5488TIP3    H116409   0.220   2.179   2.429
 5488TIP3    H216410   0.069   2.188   2.441
 5489TIP3   OH216411   2.149   5.567   2.318
 5489TIP3    H116412   2.075   5.627   2.329
 5489TIP3    H216413   2.194   5.598   2.239
 5490TIP3   OH216414   1.255   5.040   1.342
 5490TIP3    H116415   1.170   5.047   1.299
 5490TIP3    H216416   1.235   5.040   1.435
 5491TIP3   OH216417   5.175   6.789   3.457
 5491TIP3    H116418   5.241   6.833   3.512
 5491TIP3    H216419   5.164   6.703   3.498
 5492TIP3   OH216420   7.452   0.099   1.541
 5492TIP3    H116421   7.494   0.014   1.527
 5492TIP3    H216422   7.525   0.161   1.542
 5493TIP3   OH216423   0.478   3.724   1.916
 5493TIP3    H116424   0.463   3.630   1.926
 5493TIP3    H216425   0.392   3.760   1.895
 5494TIP3   OH216426   0.309   3.491   2.316
 5494TIP3    H116427   0.318   3.422   2.251
 5494TIP3    H216428   0.371   3.467   2.385
 5495TIP3   OH216429   5.574   4.101   5.238
 5495TIP3    H116430   5.652   4.097   5.292
 5495TIP3    H216431   5.537   4.012   5.243
 5496TIP3   OH216432   7.573   7.408   6.063
 5496TIP3    H116433   7.571   7.313   6.076
 5496TIP3    H216434   7.633   7.440   6.130
 5497TIP3   OH216435   1.959   2.372   1.933
 5497TIP3    H116436   1.955   2.464   1.958
 5497TIP3    H216437   1.876   2.354   1.888
 5498TIP3   OH216438   5.712   1.831   5.177
 5498TIP3    H116439   5.787   1.776   5.155
 5498TIP3    H216440   5.636   1.774   5.168
 5499TIP3   OH216441   2.397   4.764   4.927
 5499TIP3    H116442   2.316   4.741   4.882
 5499TIP3    H216443   2.465   4.715   4.880
 5500TIP3   OH216444   3.916   0.243   5.266
 5500TIP3    H116445   3.996   0.248   5.213
 5500TIP3    H216446   3.895   0.150   5.268
 5501TIP3   OH216447   7.244   0.620   1.123
 5501TIP3    H116448   7.279   0.698   1.165
 5501TIP3    H216449   7.230   0.559   1.196
 5502TIP3   OH216450   4.562   3.876   4.894
 5502TIP3    H116451   4.554   3.867   4.989
 5502TIP3    H216452   4.607   3.797   4.866
 5503TIP3   OH216453   5.426   7.656   6.680
 5503TIP3    H116454   5.336   7.689   6.682
 5503TIP3    H216455   5.463   7.692   6.600
 5504TIP3   OH216456   6.155   6.503   1.920
 5504TIP3    H116457   6.134   6.415   1.951
 5504TIP3    H216458   6.228   6.491   1.859
 5505TIP3   OH216459   5.737   3.164   4.955
 5505TIP3    H116460   5.822   3.193   4.988
 5505TIP3    H216461   5.688   3.245   4.939
 5506TIP3   OH216462   2.830   4.507   5.311
 5506TIP3    H116463   2.918   4.522   5.276
 5506TIP3    H216464   2.797   4.595   5.331
 5507TIP3   OH216465   2.969   4.912   0.270
 5507TIP3    H116466   2.938   4.851   0.204
 5507TIP3    H216467   3.063   4.922   0.252
 5508TIP3   OH216468   0.594   2.686   5.098
 5508TIP3    H116469   0.653   2.690   5.173
 5508TIP3    H216470   0.644   2.639   5.031
 5509TIP3   OH216471   0.213   5.186   3.841
 5509TIP3    H116472   0.122   5.210   3.859
 5509TIP3    H216473   0.252   5.175   3.927
 5510TIP3   OH216474   7.753   3.176   3.947
 5510TIP3    H116475   7.816   3.145   4.013
 5510TIP3    H216476   7.786   3.263   3.922
 5511TIP3   OH216477   3.465   1.932   6.731
 5511TIP3    H116478   3.519   1.876   6.786
 5511TIP3    H216479   3.521   2.007   6.711
 5512TIP3   OH216480   6.194   0.565   1.071
 5512TIP3    H116481   6.279   0.572   1.029
 5512TIP3    H216482   6.151   0.649   1.052
 5513TIP3   OH216483   3.705   3.325   2.868
 5513TIP3    H116484   3.775   3.371   2.822
 5513TIP3    H216485   3.741   3.305   2.954
 5514TIP3   OH216486   0.533   1.276   5.844
 5514TIP3    H116487   0.533   1.330   5.923
 5514TIP3    H216488   0.533   1.339   5.771
 5515TIP3   OH216489   2.046   7.556   1.067
 5515TIP3    H116490   2.090   7.606   1.135
 5515TIP3    H216491   2.079   7.466   1.078
 5516TIP3   OH216492   1.776   2.602   2.937
 5516TIP3    H116493   1.767   2.635   2.847
 5516TIP3    H216494   1.814   2.674   2.985
 5517TIP3   OH216495   8.091   1.993   0.822
 5517TIP3    H116496   8.023   2.019   0.885
 5517TIP3    H216497   8.049   1.926   0.768
 5518TIP3   OH216498   6.694   5.758   5.717
 5518TIP3    H116499   6.679   5.666   5.692
 5518TIP3    H216500   6.771   5.784   5.666
 5519TIP3   OH216501   6.348   0.555   3.578
 5519TIP3    H116502   6.281   0.587   3.517
 5519TIP3    H216503   6.425   0.609   3.559
 5520TIP3   OH216504   6.158   4.834   5.435
 5520TIP3    H116505   6.252   4.838   5.448
 5520TIP3    H216506   6.147   4.814   5.342
 5521TIP3   OH216507   3.268   2.531   4.799
 5521TIP3    H116508   3.192   2.473   4.798
 5521TIP3    H216509   3.259   2.582   4.879
 5522TIP3   OH216510   8.186   0.261   3.808
 5522TIP3    H116511   8.159   0.194   3.870
 5522TIP3    H216512   8.185   0.342   3.858
 5523TIP3   OH216513   4.097   4.884   2.753
 5523TIP3    H116514   4.147   4.933   2.819
 5523TIP3    H216515   4.101   4.939   2.674
 5524TIP3   OH216516   0.153   2.363   3.537
 5524TIP3    H116517   0.145   2.456   3.554
 5524TIP3    H216518   0.243   2.351   3.506
 5525TIP3   OH216519   0.358   4.099   1.546
 5525TIP3    H116520   0.412   4.046   1.604
 5525TIP3    H216521   0.363   4.054   1.462
 5526TIP3   OH216522   5.208   6.207   6.164
 5526TIP3    H116523   5.117   6.179   6.175
 5526TIP3    H216524   5.252   6.176   6.244
 5527TIP3   OH216525   7.811   4.576   2.964
 5527TIP3    H116526   7.889   4.536   3.001
 5527TIP3    H216527   7.746   4.505   2.961
 5528TIP3   OH216528   3.605   6.597   4.541
 5528TIP3    H116529   3.600   6.675   4.595
 5528TIP3    H216530   3.619   6.525   4.603
 5529TIP3   OH216531   3.291   5.944   1.021
 5529TIP3    H116532   3.236   5.962   0.945
 5529TIP3    H216533   3.275   6.019   1.079
 5530TIP3   OH216534   3.465   1.045   1.342
 5530TIP3    H116535   3.404   1.029   1.271
 5530TIP3    H216536   3.495   0.959   1.369
 5531TIP3   OH216537   0.038   6.770   5.683
 5531TIP3    H116538  -0.012   6.851   5.694
 5531TIP3    H216539   0.121   6.798   5.645
 5532TIP3   OH216540   5.729   6.604   0.950
 5532TIP3    H116541   5.809   6.634   0.906
 5532TIP3    H216542   5.658   6.632   0.892
 5533TIP3   OH216543   7.188   5.396   5.208
 5533TIP3    H116544   7.279   5.392   5.180
 5533TIP3    H216545   7.161   5.486   5.188
 5534TIP3   OH216546   7.150   6.494   3.064
 5534TIP3    H116547   7.138   6.588   3.050
 5534TIP3    H216548   7.085   6.453   3.008
 5535TIP3   OH216549   1.509   7.361   3.867
 5535TIP3    H116550   1.509   7.372   3.771
 5535TIP3    H216551   1.596   7.327   3.886
 5536TIP3   OH216552   3.792   0.994   1.463
 5536TIP3    H116553   3.821   1.079   1.430
 5536TIP3    H216554   3.796   0.936   1.387
 5537TIP3   OH216555   0.306   7.050   1.383
 5537TIP3    H116556   0.377   7.003   1.428
 5537TIP3    H216557   0.340   7.065   1.295
 5538TIP3   OH216558   1.369   0.245   1.446
 5538TIP3    H116559   1.338   0.199   1.524
 5538TIP3    H216560   1.368   0.338   1.471
 5539TIP3   OH216561   6.670   4.026   4.635
 5539TIP3    H116562   6.728   4.102   4.641
 5539TIP3    H216563   6.638   4.013   4.725
 5540TIP3   OH216564   3.590   7.144   5.155
 5540TIP3    H116565   3.522   7.085   5.188
 5540TIP3    H216566   3.576   7.226   5.203
 5541TIP3   OH216567   3.119   7.116   2.697
 5541TIP3    H116568   3.024   7.105   2.696
 5541TIP3    H216569   3.153   7.038   2.654
 5542TIP3   OH216570   8.192   1.715   4.848
 5542TIP3    H116571   8.234   1.630   4.841
 5542TIP3    H216572   8.098   1.696   4.850
 5543TIP3   OH216573   2.481   6.283   0.360
 5543TIP3    H116574   2.489   6.320   0.272
 5543TIP3    H216575   2.509   6.353   0.419
 5544TIP3   OH216576   7.337   1.795   1.918
 5544TIP3    H116577   7.300   1.734   1.854
 5544TIP3    H216578   7.261   1.833   1.961
 5545TIP3   OH216579   0.306   4.724   1.730
 5545TIP3    H116580   0.299   4.740   1.824
 5545TIP3    H216581   0.260   4.641   1.716
 5546TIP3   OH216582   5.707   1.209   3.762
 5546TIP3    H116583   5.626   1.260   3.763
 5546TIP3    H216584   5.677   1.118   3.763
 5547TIP3   OH216585   2.714   6.907   6.712
 5547TIP3    H116586   2.738   6.975   6.649
 5547TIP3    H216587   2.663   6.954   6.778
 5548TIP3   OH216588   6.530   2.726   3.747
 5548TIP3    H116589   6.499   2.815   3.725
 5548TIP3    H216590   6.517   2.719   3.841
 5549TIP3   OH216591   2.501   3.295   5.223
 5549TIP3    H116592   2.442   3.368   5.243
 5549TIP3    H216593   2.445   3.218   5.228
 5550TIP3   OH216594   1.022   5.251   5.956
 5550TIP3    H116595   1.095   5.190   5.969
 5550TIP3    H216596   1.052   5.333   5.996
 5551TIP3   OH216597   0.598   6.050   3.546
 5551TIP3    H116598   0.627   6.075   3.458
 5551TIP3    H216599   0.675   6.009   3.585
 5552TIP3   OH216600   1.629   2.195   3.863
 5552TIP3    H116601   1.586   2.252   3.800
 5552TIP3    H216602   1.665   2.254   3.929
 5553TIP3   OH216603   0.331   4.695   5.813
 5553TIP3    H116604   0.390   4.750   5.864
 5553TIP3    H216605   0.360   4.705   5.722
 5554TIP3   OH216606   1.965   4.736   1.526
 5554TIP3    H116607   1.979   4.647   1.559
 5554TIP3    H216608   1.897   4.726   1.460
 5555TIP3   OH216609   4.226   7.320   1.248
 5555TIP3    H116610   4.174   7.377   1.192
 5555TIP3    H216611   4.259   7.252   1.189
 5556TIP3   OH216612   2.592   2.040   1.394
 5556TIP3    H116613   2.612   2.077   1.308
 5556TIP3    H216614   2.564   2.116   1.445
 5557TIP3   OH216615   2.686   1.157   1.334
 5557TIP3    H116616   2.708   1.068   1.306
 5557TIP3    H216617   2.609   1.146   1.389
 5558TIP3   OH216618   2.388   2.315   0.101
 5558TIP3    H116619   2.449   2.368   0.050
 5558TIP3    H216620   2.434   2.233   0.117
 5559TIP3   OH216621   8.287   0.557   4.818
 5559TIP3    H116622   8.280   0.511   4.734
 5559TIP3    H216623   8.373   0.532   4.852
 5560TIP3   OH216624   8.196   7.045   4.277
 5560TIP3    H116625   8.155   7.079   4.356
 5560TIP3    H216626   8.199   7.119   4.217
 5561TIP3   OH216627   3.714   2.776   4.472
 5561TIP3    H116628   3.635   2.792   4.524
 5561TIP3    H216629   3.693   2.813   4.386
 5562TIP3   OH216630   2.820   5.336   2.683
 5562TIP3    H116631   2.745   5.396   2.680
 5562TIP3    H216632   2.814   5.296   2.770
 5563TIP3   OH216633   8.221   1.908   6.058
 5563TIP3    H116634   8.186   1.973   5.998
 5563TIP3    H216635   8.233   1.955   6.140
 5564TIP3   OH216636   6.596   0.393   4.079
 5564TIP3    H116637   6.555   0.325   4.026
 5564TIP3    H216638   6.569   0.475   4.038
 5565TIP3   OH216639   7.905   2.161   0.280
 5565TIP3    H116640   7.953   2.240   0.306
 5565TIP3    H216641   7.953   2.127   0.205
 5566TIP3   OH216642   0.199   2.625   3.551
 5566TIP3    H116643   0.250   2.644   3.630
 5566TIP3    H216644   0.262   2.590   3.489
 5567TIP3   OH216645   0.930   4.302   3.547
 5567TIP3    H116646   0.923   4.240   3.618
 5567TIP3    H216647   1.003   4.269   3.493
 5568TIP3   OH216648   2.396   3.357   1.373
 5568TIP3    H116649   2.307   3.376   1.342
 5568TIP3    H216650   2.388   3.272   1.416
 5569TIP3   OH216651   5.369   1.433   2.667
 5569TIP3    H116652   5.363   1.340   2.647
 5569TIP3    H216653   5.463   1.452   2.663
 5570TIP3   OH216654   5.582   1.001   0.363
 5570TIP3    H116655   5.538   1.019   0.280
 5570TIP3    H216656   5.675   0.995   0.341
 5571TIP3   OH216657   1.980   6.595   4.596
 5571TIP3    H116658   1.904   6.575   4.651
 5571TIP3    H216659   2.042   6.639   4.655
 5572TIP3   OH216660   4.521   2.032   3.144
 5572TIP3    H116661   4.554   1.977   3.215
 5572TIP3    H216662   4.574   2.111   3.148
 5573TIP3   OH216663   7.946   1.508   2.385
 5573TIP3    H116664   7.957   1.589   2.435
 5573TIP3    H216665   7.883   1.531   2.317
 5574TIP3   OH216666   0.322   6.956   2.682
 5574TIP3    H116667   0.286   7.023   2.624
 5574TIP3    H216668   0.306   6.874   2.637
 5575TIP3   OH216669   4.630   1.508   4.544
 5575TIP3    H116670   4.667   1.423   4.566
 5575TIP3    H216671   4.687   1.543   4.477
 5576TIP3   OH216672   1.250   2.694   1.853
 5576TIP3    H116673   1.289   2.657   1.774
 5576TIP3    H216674   1.263   2.788   1.846
 5577TIP3   OH216675   1.549   1.232   4.208
 5577TIP3    H116676   1.552   1.149   4.256
 5577TIP3    H216677   1.631   1.234   4.159
 5578TIP3   OH216678   2.658   2.657   2.542
 5578TIP3    H116679   2.752   2.669   2.553
 5578TIP3    H216680   2.642   2.565   2.564
 5579TIP3   OH216681   7.999   6.046   0.976
 5579TIP3    H116682   7.922   6.012   1.022
 5579TIP3    H216683   8.047   6.095   1.042
 5580TIP3   OH216684   5.802   6.137   0.231
 5580TIP3    H116685   5.735   6.070   0.247
 5580TIP3    H216686   5.870   6.091   0.183
 5581TIP3   OH216687   3.850   6.734   4.414
 5581TIP3    H116688   3.766   6.698   4.440
 5581TIP3    H216689   3.856   6.715   4.320
 5582TIP3   OH216690   5.803   6.577   6.542
 5582TIP3    H116691   5.730   6.574   6.480
 5582TIP3    H216692   5.827   6.670   6.545
 5583TIP3   OH216693   3.988   2.243   0.710
 5583TIP3    H116694   4.083   2.245   0.706
 5583TIP3    H216695   3.967   2.256   0.802
 5584TIP3   OH216696   3.767   5.074   5.352
 5584TIP3    H116697   3.814   5.073   5.435
 5584TIP3    H216698   3.818   5.134   5.296
 5585TIP3   OH216699   4.893   3.605   4.377
 5585TIP3    H116700   4.908   3.577   4.467
 5585TIP3    H216701   4.981   3.611   4.338
 5586TIP3   OH216702   5.167   5.532   4.340
 5586TIP3    H116703   5.098   5.478   4.303
 5586TIP3    H216704   5.153   5.528   4.435
 5587TIP3   OH216705   1.222   7.738   5.895
 5587TIP3    H116706   1.313   7.735   5.864
 5587TIP3    H216707   1.224   7.689   5.978
 5588TIP3   OH216708   7.792   5.431   0.122
 5588TIP3    H116709   7.809   5.474   0.038
 5588TIP3    H216710   7.815   5.340   0.108
 5589TIP3   OH216711   6.513   2.751   3.010
 5589TIP3    H116712   6.537   2.659   3.005
 5589TIP3    H216713   6.425   2.755   2.973
 5590TIP3   OH216714   0.087   5.880   4.816
 5590TIP3    H116715   0.130   5.938   4.879
 5590TIP3    H216716   0.093   5.793   4.855
 5591TIP3   OH216717   6.447   3.666   6.394
 5591TIP3    H116718   6.415   3.673   6.304
 5591TIP3    H216719   6.396   3.595   6.432
 5592TIP3   OH216720   2.418   1.001   0.510
 5592TIP3    H116721   2.337   0.992   0.561
 5592TIP3    H216722   2.465   1.072   0.553
 5593TIP3   OH216723   7.934   5.789   5.121
 5593TIP3    H116724   7.999   5.853   5.150
 5593TIP3    H216725   7.850   5.833   5.137
 5594TIP3   OH216726   7.080   2.564   2.373
 5594TIP3    H116727   7.157   2.507   2.376
 5594TIP3    H216728   7.029   2.531   2.299
 5595TIP3   OH216729   6.210   1.491   4.799
 5595TIP3    H116730   6.272   1.543   4.749
 5595TIP3    H216731   6.233   1.400   4.779
 5596TIP3   OH216732   1.057   6.802   4.053
 5596TIP3    H116733   0.983   6.763   4.008
 5596TIP3    H216734   1.111   6.727   4.080
 5597TIP3   OH216735   5.902   5.880   5.316
 5597TIP3    H116736   5.972   5.942   5.296
 5597TIP3    H216737   5.946   5.795   5.325
 5598TIP3   OH216738   4.959   2.067   4.404
 5598TIP3    H116739   4.883   2.101   4.357
 5598TIP3    H216740   4.990   2.141   4.457
 5599TIP3   OH216741   5.495   3.912   4.051
 5599TIP3    H116742   5.489   4.007   4.047
 5599TIP3    H216743   5.439   3.887   4.124
 5600TIP3   OH216744   2.641   0.125   5.420
 5600TIP3    H116745   2.574   0.168   5.474
 5600TIP3    H216746   2.659   0.187   5.350
 5601TIP3   OH216747   2.160   4.599   5.178
 5601TIP3    H116748   2.243   4.601   5.225
 5601TIP3    H216749   2.159   4.680   5.127
 5602TIP3   OH216750   2.035   6.261   3.216
 5602TIP3    H116751   2.055   6.187   3.159
 5602TIP3    H216752   2.078   6.239   3.299
 5603TIP3   OH216753   4.744   1.277   6.280
 5603TIP3    H116754   4.751   1.185   6.306
 5603TIP3    H216755   4.722   1.324   6.360
 5604TIP3   OH216756   0.121   5.690   5.456
 5604TIP3    H116757   0.125   5.601   5.490
 5604TIP3    H216758   0.173   5.742   5.518
 5605TIP3   OH216759   3.259   2.784   6.175
 5605TIP3    H116760   3.180   2.811   6.128
 5605TIP3    H216761   3.227   2.726   6.245
 5606TIP3   OH216762   6.119   1.830   4.868
 5606TIP3    H116763   6.205   1.830   4.911
 5606TIP3    H216764   6.137   1.796   4.780
 5607TIP3   OH216765   0.222   3.248   5.315
 5607TIP3    H116766   0.266   3.331   5.297
 5607TIP3    H216767   0.283   3.200   5.370
 5608TIP3   OH216768   7.548   7.773   2.694
 5608TIP3    H116769   7.534   7.730   2.610
 5608TIP3    H216770   7.628   7.735   2.728
 5609TIP3   OH216771   0.707   2.575   3.299
 5609TIP3    H116772   0.624   2.620   3.281
 5609TIP3    H216773   0.684   2.482   3.304
 5610TIP3   OH216774   5.315   6.364   0.553
 5610TIP3    H116775   5.259   6.368   0.476
 5610TIP3    H216776   5.372   6.289   0.537
 5611TIP3   OH216777   0.409   4.650   3.013
 5611TIP3    H116778   0.477   4.619   3.073
 5611TIP3    H216779   0.456   4.705   2.951
 5612TIP3   OH216780   3.922   7.769   4.697
 5612TIP3    H116781   3.861   7.843   4.692
 5612TIP3    H216782   3.867   7.692   4.681
 5613TIP3   OH216783   6.708   0.195   0.117
 5613TIP3    H116784   6.672   0.118   0.161
 5613TIP3    H216785   6.632   0.243   0.085
 5614TIP3   OH216786   4.669   6.289   5.844
 5614TIP3    H116787   4.671   6.264   5.936
 5614TIP3    H216788   4.587   6.252   5.810
 5615TIP3   OH216789   5.197   1.006   1.148
 5615TIP3    H116790   5.293   1.000   1.149
 5615TIP3    H216791   5.175   1.018   1.055
 5616TIP3   OH216792   6.569   0.827   2.944
 5616TIP3    H116793   6.486   0.780   2.930
 5616TIP3    H216794   6.622   0.767   2.996
 5617TIP3   OH216795   3.453   2.979   6.120
 5617TIP3    H116796   3.391   2.910   6.140
 5617TIP3    H216797   3.400   3.059   6.117
 5618TIP3   OH216798   5.260   1.812   0.867
 5618TIP3    H116799   5.183   1.863   0.842
 5618TIP3    H216800   5.297   1.781   0.784
 5619TIP3   OH216801   6.164   1.481   0.198
 5619TIP3    H116802   6.082   1.451   0.237
 5619TIP3    H216803   6.172   1.431   0.117
 5620TIP3   OH216804   5.874   5.012   4.675
 5620TIP3    H116805   5.788   5.027   4.715
 5620TIP3    H216806   5.863   5.037   4.583
 5621TIP3   OH216807   2.369   2.056   2.450
 5621TIP3    H116808   2.385   2.026   2.360
 5621TIP3    H216809   2.297   2.119   2.441
 5622TIP3   OH216810   5.559   2.993   3.649
 5622TIP3    H116811   5.484   2.992   3.709
 5622TIP3    H216812   5.521   3.015   3.564
 5623TIP3   OH216813   5.389   7.536   1.264
 5623TIP3    H116814   5.434   7.604   1.214
 5623TIP3    H216815   5.413   7.553   1.355
 5624TIP3   OH216816   3.927   2.693   5.431
 5624TIP3    H116817   3.848   2.746   5.434
 5624TIP3    H216818   3.907   2.624   5.367
 5625TIP3   OH216819   3.131   5.472   1.370
 5625TIP3    H116820   3.173   5.397   1.329
 5625TIP3    H216821   3.058   5.494   1.312
 5626TIP3   OH216822   2.490   4.997   4.125
 5626TIP3    H116823   2.436   4.958   4.057
 5626TIP3    H216824   2.464   5.089   4.126
 5627TIP3   OH216825   5.974   4.012   2.154
 5627TIP3    H116826   5.965   4.099   2.194
 5627TIP3    H216827   6.069   3.997   2.152
 5628TIP3   OH216828   5.985   5.957   0.975
 5628TIP3    H116829   5.907   5.923   0.931
 5628TIP3    H216830   5.992   6.047   0.945
 5629TIP3   OH216831   8.246   3.523   0.659
 5629TIP3    H116832   8.241   3.471   0.739
 5629TIP3    H216833   8.223   3.612   0.687
 5630TIP3   OH216834   8.309   5.408   5.163
 5630TIP3    H116835   8.324   5.325   5.208
 5630TIP3    H216836   8.270   5.465   5.229
 5631TIP3   OH216837   0.632   4.830   5.583
 5631TIP3    H116838   0.697   4.857   5.649
 5631TIP3    H216839   0.608   4.911   5.540
 5632TIP3   OH216840   4.213   2.684   4.005
 5632TIP3    H116841   4.215   2.632   3.925
 5632TIP3    H216842   4.297   2.730   4.007
 5633TIP3   OH216843   2.136   6.946   4.521
 5633TIP3    H116844   2.110   6.915   4.434
 5633TIP3    H216845   2.122   7.040   4.518
 5634TIP3   OH216846   5.923   5.654   4.382
 5634TIP3    H116847   5.835   5.691   4.381
 5634TIP3    H216848   5.969   5.701   4.451
 5635TIP3   OH216849   3.662   2.638   6.575
 5635TIP3    H116850   3.589   2.647   6.637
 5635TIP3    H216851   3.729   2.592   6.625
 5636TIP3   OH216852   0.862   4.513   2.965
 5636TIP3    H116853   0.849   4.604   2.938
 5636TIP3    H216854   0.835   4.461   2.889
 5637TIP3   OH216855   2.042   4.496   3.294
 5637TIP3    H116856   2.136   4.480   3.289
 5637TIP3    H216857   2.029   4.538   3.379
 5638TIP3   OH216858   0.266   4.830   0.624
 5638TIP3    H116859   0.231   4.909   0.664
 5638TIP3    H216860   0.281   4.854   0.533
 5639TIP3   OH216861   7.528   0.455   0.311
 5639TIP3    H116862   7.565   0.377   0.352
 5639TIP3    H216863   7.577   0.466   0.230
 5640TIP3   OH216864   0.210   1.851   4.788
 5640TIP3    H116865   0.135   1.847   4.728
 5640TIP3    H216866   0.284   1.875   4.733
 5641TIP3   OH216867   4.830   0.409   3.495
 5641TIP3    H116868   4.748   0.427   3.540
 5641TIP3    H216869   4.855   0.492   3.455
 5642TIP3   OH216870   7.555   0.247   5.381
 5642TIP3    H116871   7.482   0.295   5.342
 5642TIP3    H216872   7.526   0.157   5.386
 5643TIP3   OH216873   4.815   5.047   1.517
 5643TIP3    H116874   4.734   5.008   1.485
 5643TIP3    H216875   4.822   5.018   1.608
 5644TIP3   OH216876   6.839   2.031   3.381
 5644TIP3    H116877   6.817   1.957   3.324
 5644TIP3    H216878   6.934   2.025   3.393
 5645TIP3   OH216879   4.926   5.009   3.167
 5645TIP3    H116880   4.844   5.016   3.118
 5645TIP3    H216881   4.968   4.931   3.132
 5646TIP3   OH216882   6.641   2.622   2.357
 5646TIP3    H116883   6.621   2.556   2.290
 5646TIP3    H216884   6.556   2.656   2.383
 5647TIP3   OH216885   0.377   1.835   3.012
 5647TIP3    H116886   0.357   1.907   2.953
 5647TIP3    H216887   0.394   1.760   2.955
 5648TIP3   OH216888   1.707   0.617   2.919
 5648TIP3    H116889   1.644   0.660   2.977
 5648TIP3    H216890   1.713   0.527   2.952
 5649TIP3   OH216891   1.516   1.862   2.049
 5649TIP3    H116892   1.602   1.827   2.023
 5649TIP3    H216893   1.453   1.810   1.999
 5650TIP3   OH216894   8.297   3.670   4.366
 5650TIP3    H116895   8.253   3.700   4.446
 5650TIP3    H216896   8.258   3.724   4.297
 5651TIP3   OH216897   5.818   2.106   4.581
 5651TIP3    H116898   5.789   2.197   4.589
 5651TIP3    H216899   5.899   2.103   4.632
 5652TIP3   OH216900   5.409   2.220   0.638
 5652TIP3    H116901   5.333   2.188   0.687
 5652TIP3    H216902   5.402   2.177   0.553
 5653TIP3   OH216903   2.184   6.507   2.059
 5653TIP3    H116904   2.270   6.469   2.043
 5653TIP3    H216905   2.138   6.500   1.976
 5654TIP3   OH216906   4.777   4.232   2.066
 5654TIP3    H116907   4.685   4.213   2.047
 5654TIP3    H216908   4.819   4.236   1.980
 5655TIP3   OH216909   6.466   3.154   5.817
 5655TIP3    H116910   6.406   3.223   5.843
 5655TIP3    H216911   6.496   3.180   5.730
 5656TIP3   OH216912   8.036   6.991   1.584
 5656TIP3    H116913   7.968   6.955   1.641
 5656TIP3    H216914   8.072   6.915   1.538
 5657TIP3   OH216915   4.215   3.226   3.331
 5657TIP3    H116916   4.286   3.163   3.321
 5657TIP3    H216917   4.225   3.260   3.420
 5658TIP3   OH216918   7.686   3.979   3.348
 5658TIP3    H116919   7.726   3.903   3.392
 5658TIP3    H216920   7.592   3.968   3.362
 5659TIP3   OH216921   5.015   2.072   2.775
 5659TIP3    H116922   5.055   1.986   2.772
 5659TIP3    H216923   4.953   2.067   2.848
 5660TIP3   OH216924   0.096   6.924   6.642
 5660TIP3    H116925   0.113   6.840   6.600
 5660TIP3    H216926   0.089   6.903   6.736
 5661TIP3   OH216927   6.362   7.545   5.469
 5661TIP3    H116928   6.335   7.618   5.525
 5661TIP3    H216929   6.446   7.574   5.432
 5662TIP3   OH216930   7.956   2.370   0.925
 5662TIP3    H116931   8.010   2.448   0.937
 5662TIP3    H216932   8.012   2.297   0.950
 5663TIP3   OH216933   4.181   6.114   2.675
 5663TIP3    H116934   4.217   6.146   2.593
 5663TIP3    H216935   4.221   6.170   2.743
 5664TIP3   OH216936   6.463   4.895   2.662
 5664TIP3    H116937   6.443   4.976   2.710
 5664TIP3    H216938   6.490   4.833   2.730
 5665TIP3   OH216939   6.249   0.423   0.545
 5665TIP3    H116940   6.319   0.375   0.501
 5665TIP3    H216941   6.170   0.402   0.495
 5666TIP3   OH216942   6.400   7.003   2.831
 5666TIP3    H116943   6.376   7.026   2.921
 5666TIP3    H216944   6.493   6.981   2.837
 5667TIP3   OH216945   2.457   3.036   2.414
 5667TIP3    H116946   2.368   3.068   2.400
 5667TIP3    H216947   2.497   3.103   2.470
 5668TIP3   OH216948   2.169   1.638   0.357
 5668TIP3    H116949   2.124   1.628   0.442
 5668TIP3    H216950   2.134   1.719   0.321
 5669TIP3   OH216951   8.137   3.255   1.432
 5669TIP3    H116952   8.153   3.346   1.408
 5669TIP3    H216953   8.219   3.211   1.413
 5670TIP3   OH216954   5.113   2.287   0.696
 5670TIP3    H116955   5.033   2.338   0.688
 5670TIP3    H216956   5.084   2.196   0.688
 5671TIP3   OH216957   0.225   6.231   4.445
 5671TIP3    H116958   0.205   6.285   4.369
 5671TIP3    H216959   0.148   6.237   4.501
 5672TIP3   OH216960   4.500   6.892   6.498
 5672TIP3    H116961   4.463   6.809   6.528
 5672TIP3    H216962   4.594   6.875   6.490
 5673TIP3   OH216963   1.279   4.685   4.636
 5673TIP3    H116964   1.248   4.776   4.633
 5673TIP3    H216965   1.207   4.633   4.601
 5674TIP3   OH216966   5.487   2.134   2.405
 5674TIP3    H116967   5.556   2.199   2.393
 5674TIP3    H216968   5.469   2.135   2.499
 5675TIP3   OH216969   4.794   1.640   3.362
 5675TIP3    H116970   4.841   1.638   3.279
 5675TIP3    H216971   4.716   1.587   3.346
 5676TIP3   OH216972   0.525   7.379   3.801
 5676TIP3    H116973   0.593   7.428   3.756
 5676TIP3    H216974   0.569   7.301   3.834
 5677TIP3   OH216975   7.865   2.548   1.244
 5677TIP3    H116976   7.905   2.632   1.268
 5677TIP3    H216977   7.776   2.570   1.219
 5678TIP3   OH216978   5.320   3.846   0.886
 5678TIP3    H116979   5.383   3.805   0.945
 5678TIP3    H216980   5.244   3.787   0.887
 5679TIP3   OH216981   5.439   1.406   3.365
 5679TIP3    H116982   5.474   1.447   3.443
 5679TIP3    H216983   5.493   1.328   3.351
 5680TIP3   OH216984   6.942   4.482   2.252
 5680TIP3    H116985   7.015   4.503   2.309
 5680TIP3    H216986   6.965   4.521   2.167
 5681TIP3   OH216987   4.784   5.873   2.122
 5681TIP3    H116988   4.720   5.815   2.163
 5681TIP3    H216989   4.778   5.855   2.028
 5682TIP3   OH216990   6.483   6.578   1.034
 5682TIP3    H116991   6.525   6.599   0.951
 5682TIP3    H216992   6.546   6.604   1.100
 5683TIP3   OH216993   3.510   3.267   3.808
 5683TIP3    H116994   3.448   3.339   3.792
 5683TIP3    H216995   3.579   3.280   3.743
 5684TIP3   OH216996   6.839   2.531   3.473
 5684TIP3    H116997   6.837   2.449   3.424
 5684TIP3    H216998   6.776   2.518   3.544
 5685TIP3   OH216999   7.711   5.940   2.604
 5685TIP3    H117000   7.615   5.943   2.597
 5685TIP3    H217001   7.728   5.862   2.658
 5686TIP3   OH217002   3.560   3.243   0.543
 5686TIP3    H117003   3.539   3.155   0.574
 5686TIP3    H217004   3.648   3.236   0.506
 5687TIP3   OH217005   0.618   3.233   6.015
 5687TIP3    H117006   0.554   3.249   6.085
 5687TIP3    H217007   0.605   3.304   5.953
 5688TIP3   OH217008   0.322   7.099   0.054
 5688TIP3    H117009   0.275   7.083  -0.029
 5688TIP3    H217010   0.268   7.056   0.120
 5689TIP3   OH217011   1.925   4.673   1.858
 5689TIP3    H117012   1.913   4.650   1.766
 5689TIP3    H217013   1.946   4.590   1.901
 5690TIP3   OH217014   4.468   1.642   6.024
 5690TIP3    H117015   4.527   1.580   6.067
 5690TIP3    H217016   4.475   1.620   5.931
 5691TIP3   OH217017   6.616   2.570   6.209
 5691TIP3    H117018   6.594   2.646   6.157
 5691TIP3    H217019   6.539   2.513   6.203
 5692TIP3   OH217020   1.102   7.651   3.978
 5692TIP3    H117021   1.039   7.599   4.027
 5692TIP3    H217022   1.105   7.609   3.891
 5693TIP3   OH217023   6.322   6.330   2.296
 5693TIP3    H117024   6.309   6.333   2.390
 5693TIP3    H217025   6.410   6.295   2.284
 5694TIP3   OH217026   6.620   0.769   1.063
 5694TIP3    H117027   6.622   0.798   1.154
 5694TIP3    H217028   6.661   0.840   1.014
 5695TIP3   OH217029   7.458   7.570   5.184
 5695TIP3    H117030   7.539   7.600   5.144
 5695TIP3    H217031   7.389   7.609   5.131
 5696TIP3   OH217032   6.828   5.713   2.131
 5696TIP3    H117033   6.904   5.673   2.174
 5696TIP3    H217034   6.753   5.671   2.172
 5697TIP3   OH217035   3.897   1.557   0.369
 5697TIP3    H117036   3.899   1.576   0.275
 5697TIP3    H217037   3.886   1.461   0.373
 5698TIP3   OH217038   2.502   0.158   3.473
 5698TIP3    H117039   2.407   0.145   3.485
 5698TIP3    H217040   2.511   0.253   3.462
 5699TIP3   OH217041   7.558   3.247   4.990
 5699TIP3    H117042   7.519   3.313   5.047
 5699TIP3    H217043   7.550   3.165   5.039
 5700TIP3   OH217044   7.420   3.862   1.442
 5700TIP3    H117045   7.353   3.870   1.509
 5700TIP3    H217046   7.499   3.899   1.482
 5701TIP3   OH217047   2.185   4.886   5.990
 5701TIP3    H117048   2.181   4.868   5.896
 5701TIP3    H217049   2.136   4.815   6.031
 5702TIP3   OH217050   6.553   4.111   2.619
 5702TIP3    H117051   6.636   4.094   2.575
 5702TIP3    H217052   6.498   4.036   2.596
 5703TIP3   OH217053   6.583   6.395   2.456
 5703TIP3    H117054   6.560   6.330   2.523
 5703TIP3    H217055   6.533   6.473   2.479
 5704TIP3   OH217056   0.676   6.520   1.494
 5704TIP3    H117057   0.703   6.428   1.496
 5704TIP3    H217058   0.733   6.563   1.558
 5705TIP3   OH217059   3.414   6.621   1.941
 5705TIP3    H117060   3.487   6.561   1.925
 5705TIP3    H217061   3.449   6.707   1.918
 5706TIP3   OH217062   6.820   4.383   2.587
 5706TIP3    H117063   6.868   4.305   2.558
 5706TIP3    H217064   6.754   4.397   2.520
 5707TIP3   OH217065   7.679   5.951   4.954
 5707TIP3    H117066   7.688   5.879   4.891
 5707TIP3    H217067   7.655   5.908   5.036
 5708TIP3   OH217068   2.313   6.360   3.301
 5708TIP3    H117069   2.314   6.266   3.285
 5708TIP3    H217070   2.378   6.374   3.369
 5709TIP3   OH217071   5.198   4.424   1.781
 5709TIP3    H117072   5.182   4.472   1.862
 5709TIP3    H217073   5.152   4.341   1.793
 5710TIP3   OH217074   1.045   3.119   2.739
 5710TIP3    H117075   1.083   3.060   2.804
 5710TIP3    H217076   1.115   3.130   2.674
 5711TIP3   OH217077   5.327   4.419   5.086
 5711TIP3    H117078   5.419   4.404   5.064
 5711TIP3    H217079   5.283   4.427   5.001
 5712TIP3   OH217080   7.541   0.505   6.325
 5712TIP3    H117081   7.563   0.598   6.334
 5712TIP3    H217082   7.466   0.492   6.383
 5713TIP3   OH217083   4.138   6.352   6.476
 5713TIP3    H117084   4.143   6.438   6.518
 5713TIP3    H217085   4.044   6.337   6.463
 5714TIP3   OH217086   1.314   2.908   0.260
 5714TIP3    H117087   1.314   2.922   0.354
 5714TIP3    H217088   1.228   2.941   0.231
 5715TIP3   OH217089   4.704   2.600   0.799
 5715TIP3    H117090   4.645   2.528   0.820
 5715TIP3    H217091   4.672   2.635   0.716
 5716TIP3   OH217092   4.788   6.710   2.766
 5716TIP3    H117093   4.784   6.686   2.674
 5716TIP3    H217094   4.811   6.629   2.811
 5717TIP3   OH217095   6.968   4.811   4.777
 5717TIP3    H117096   6.930   4.824   4.864
 5717TIP3    H217097   7.026   4.735   4.788
 5718TIP3   OH217098   3.968   5.488   5.877
 5718TIP3    H117099   4.014   5.503   5.794
 5718TIP3    H217100   3.978   5.570   5.925
 5719TIP3   OH217101   2.146   1.354   1.625
 5719TIP3    H117102   2.087   1.371   1.551
 5719TIP3    H217103   2.178   1.440   1.651
 5720TIP3   OH217104   1.276   1.617   1.048
 5720TIP3    H117105   1.248   1.545   1.105
 5720TIP3    H217106   1.326   1.575   0.979
 5721TIP3   OH217107   4.940   7.042   5.599
 5721TIP3    H117108   4.938   6.952   5.565
 5721TIP3    H217109   4.997   7.037   5.676
 5722TIP3   OH217110   5.783   2.732   6.466
 5722TIP3    H117111   5.691   2.755   6.468
 5722TIP3    H217112   5.803   2.724   6.372
 5723TIP3   OH217113   4.662   1.294   4.167
 5723TIP3    H117114   4.596   1.363   4.158
 5723TIP3    H217115   4.744   1.340   4.183
 5724TIP3   OH217116   7.456   6.491   0.638
 5724TIP3    H117117   7.433   6.399   0.625
 5724TIP3    H217118   7.552   6.492   0.636
 5725TIP3   OH217119   5.627   0.434   2.165
 5725TIP3    H117120   5.679   0.486   2.103
 5725TIP3    H217121   5.647   0.343   2.143
 5726TIP3   OH217122   0.624   0.630   3.891
 5726TIP3    H117123   0.594   0.608   3.979
 5726TIP3    H217124   0.650   0.546   3.853
 5727TIP3   OH217125   2.621   6.198   3.324
 5727TIP3    H117126   2.607   6.281   3.279
 5727TIP3    H217127   2.538   6.150   3.312
 5728TIP3   OH217128   4.534   0.787   2.997
 5728TIP3    H117129   4.542   0.770   2.903
 5728TIP3    H217130   4.446   0.758   3.019
 5729TIP3   OH217131   4.342   1.853   1.309
 5729TIP3    H117132   4.306   1.785   1.366
 5729TIP3    H217133   4.266   1.894   1.269
 5730TIP3   OH217134   1.513   4.840   4.035
 5730TIP3    H117135   1.462   4.771   3.994
 5730TIP3    H217136   1.453   4.913   4.044
 5731TIP3   OH217137   1.642   4.835   1.832
 5731TIP3    H117138   1.653   4.779   1.909
 5731TIP3    H217139   1.617   4.774   1.762
 5732TIP3   OH217140   1.913   0.135   1.701
 5732TIP3    H117141   1.911   0.105   1.610
 5732TIP3    H217142   1.957   0.220   1.697
 5733TIP3   OH217143   0.644   3.362   0.585
 5733TIP3    H117144   0.619   3.429   0.648
 5733TIP3    H217145   0.682   3.410   0.512
 5734TIP3   OH217146   6.781   2.135   4.259
 5734TIP3    H117147   6.853   2.081   4.293
 5734TIP3    H217148   6.766   2.201   4.326
 5735TIP3   OH217149   4.275   7.486   4.359
 5735TIP3    H117150   4.330   7.505   4.283
 5735TIP3    H217151   4.330   7.435   4.417
 5736TIP3   OH217152   3.610   1.018   2.820
 5736TIP3    H117153   3.672   1.087   2.797
 5736TIP3    H217154   3.644   0.981   2.901
 5737TIP3   OH217155   1.104   2.080   2.892
 5737TIP3    H117156   1.077   2.127   2.971
 5737TIP3    H217157   1.127   2.149   2.829
 5738TIP3   OH217158   2.218   7.435   0.368
 5738TIP3    H117159   2.281   7.375   0.329
 5738TIP3    H217160   2.260   7.521   0.364
 5739TIP3   OH217161   5.263   7.299   1.301
 5739TIP3    H117162   5.241   7.233   1.235
 5739TIP3    H217163   5.299   7.372   1.251
 5740TIP3   OH217164   0.291   3.810   1.714
 5740TIP3    H117165   0.230   3.869   1.671
 5740TIP3    H217166   0.305   3.739   1.651
 5741TIP3   OH217167   0.416   0.882   1.501
 5741TIP3    H117168   0.378   0.823   1.566
 5741TIP3    H217169   0.411   0.969   1.541
 5742TIP3   OH217170   6.432   2.738   5.416
 5742TIP3    H117171   6.471   2.654   5.392
 5742TIP3    H217172   6.337   2.721   5.418
 5743TIP3   OH217173   1.617   6.565   0.641
 5743TIP3    H117174   1.603   6.488   0.586
 5743TIP3    H217175   1.529   6.592   0.666
 5744TIP3   OH217176   3.280   4.335   0.490
 5744TIP3    H117177   3.281   4.240   0.501
 5744TIP3    H217178   3.188   4.360   0.501
 5745TIP3   OH217179   6.070   0.856   1.925
 5745TIP3    H117180   6.064   0.890   2.014
 5745TIP3    H217181   6.047   0.763   1.933
 5746TIP3   OH217182   4.857   7.354   2.553
 5746TIP3    H117183   4.882   7.266   2.583
 5746TIP3    H217184   4.937   7.389   2.513
 5747TIP3   OH217185   1.976   0.346   2.194
 5747TIP3    H117186   1.988   0.412   2.262
 5747TIP3    H217187   2.062   0.337   2.153
 5748TIP3   OH217188   3.018   3.169   5.223
 5748TIP3    H117189   2.931   3.208   5.235
 5748TIP3    H217190   3.055   3.167   5.311
 5749TIP3   OH217191   5.984   2.256   0.567
 5749TIP3    H117192   5.950   2.344   0.553
 5749TIP3    H217193   6.067   2.254   0.519
 5750TIP3   OH217194   6.378   2.079   0.881
 5750TIP3    H117195   6.468   2.063   0.908
 5750TIP3    H217196   6.369   2.174   0.882
 5751TIP3   OH217197   6.357   7.022   6.756
 5751TIP3    H117198   6.418   6.955   6.727
 5751TIP3    H217199   6.275   6.976   6.772
 5752TIP3   OH217200   5.243   4.766   4.210
 5752TIP3    H117201   5.184   4.841   4.201
 5752TIP3    H217202   5.328   4.800   4.181
 5753TIP3   OH217203   5.474   1.616   5.489
 5753TIP3    H117204   5.519   1.532   5.497
 5753TIP3    H217205   5.481   1.638   5.396
 5754TIP3   OH217206   8.220   4.440   1.646
 5754TIP3    H117207   8.288   4.472   1.704
 5754TIP3    H217208   8.154   4.402   1.705
 5755TIP3   OH217209   1.473   7.796   2.278
 5755TIP3    H117210   1.424   7.735   2.334
 5755TIP3    H217211   1.565   7.780   2.299
 5756TIP3   OH217212   8.078   6.766   0.790
 5756TIP3    H117213   8.136   6.813   0.850
 5756TIP3    H217214   7.991   6.775   0.829
 5757TIP3   OH217215   5.012   3.591   6.837
 5757TIP3    H117216   4.987   3.541   6.760
 5757TIP3    H217217   5.107   3.596   6.832
 5758TIP3   OH217218   5.473   5.929   1.354
 5758TIP3    H117219   5.488   5.839   1.325
 5758TIP3    H217220   5.430   5.971   1.280
 5759TIP3   OH217221   0.364   1.693   6.517
 5759TIP3    H117222   0.371   1.667   6.609
 5759TIP3    H217223   0.433   1.758   6.506
 5760TIP3   OH217224   5.091   6.324   4.475
 5760TIP3    H117225   5.072   6.248   4.529
 5760TIP3    H217226   5.133   6.387   4.534
 5761TIP3   OH217227   5.610   4.865   6.419
 5761TIP3    H117228   5.644   4.945   6.458
 5761TIP3    H217229   5.575   4.892   6.334
 5762TIP3   OH217230   3.514   7.510   4.629
 5762TIP3    H117231   3.430   7.488   4.670
 5762TIP3    H217232   3.523   7.444   4.559
 5763TIP3   OH217233   2.606   5.564   5.443
 5763TIP3    H117234   2.616   5.599   5.355
 5763TIP3    H217235   2.568   5.635   5.494
 5764TIP3   OH217236   1.176   0.420   3.996
 5764TIP3    H117237   1.242   0.482   4.029
 5764TIP3    H217238   1.172   0.437   3.902
 5765TIP3   OH217239   7.765   4.418   0.503
 5765TIP3    H117240   7.834   4.482   0.521
 5765TIP3    H217241   7.769   4.405   0.408
 5766TIP3   OH217242   7.607   3.269   6.159
 5766TIP3    H117243   7.562   3.341   6.114
 5766TIP3    H217244   7.690   3.260   6.112
 5767TIP3   OH217245   0.588   0.808   2.398
 5767TIP3    H117246   0.548   0.725   2.427
 5767TIP3    H217247   0.662   0.821   2.457
 5768TIP3   OH217248   3.612   6.510   0.044
 5768TIP3    H117249   3.670   6.530  -0.030
 5768TIP3    H217250   3.532   6.477   0.003
 5769TIP3   OH217251   0.474   1.848   6.216
 5769TIP3    H117252   0.501   1.873   6.305
 5769TIP3    H217253   0.391   1.803   6.228
 5770TIP3   OH217254   5.880   6.846   6.493
 5770TIP3    H117255   5.871   6.861   6.399
 5770TIP3    H217256   5.830   6.917   6.533
 5771TIP3   OH217257   3.731   3.487   1.910
 5771TIP3    H117258   3.706   3.571   1.948
 5771TIP3    H217259   3.774   3.440   1.981
 5772TIP3   OH217260   4.009   4.612   5.676
 5772TIP3    H117261   4.011   4.622   5.581
 5772TIP3    H217262   3.917   4.600   5.697
 5773TIP3   OH217263   7.398   7.710   3.674
 5773TIP3    H117264   7.363   7.645   3.735
 5773TIP3    H217265   7.332   7.779   3.672
 5774TIP3   OH217266   6.381   2.210   5.073
 5774TIP3    H117267   6.307   2.153   5.094
 5774TIP3    H217268   6.458   2.154   5.083
 5775TIP3   OH217269   3.096   0.651   5.303
 5775TIP3    H117270   3.041   0.726   5.280
 5775TIP3    H217271   3.037   0.576   5.299
 5776TIP3   OH217272   1.089   3.884   3.772
 5776TIP3    H117273   1.030   3.827   3.822
 5776TIP3    H217274   1.042   3.899   3.690
 5777TIP3   OH217275   3.285   1.144   1.107
 5777TIP3    H117276   3.340   1.131   1.030
 5777TIP3    H217277   3.277   1.239   1.115
 5778TIP3   OH217278   5.829   3.672   5.256
 5778TIP3    H117279   5.807   3.683   5.349
 5778TIP3    H217280   5.770   3.733   5.211
 5779TIP3   OH217281   7.033   2.855   0.280
 5779TIP3    H117282   7.096   2.783   0.292
 5779TIP3    H217283   6.992   2.836   0.195
 5780TIP3   OH217284   6.353   6.590   3.325
 5780TIP3    H117285   6.350   6.544   3.241
 5780TIP3    H217286   6.302   6.534   3.384
 5781TIP3   OH217287   4.757   2.408   2.966
 5781TIP3    H117288   4.727   2.337   2.909
 5781TIP3    H217289   4.824   2.453   2.914
 5782TIP3   OH217290   7.339   0.120   3.149
 5782TIP3    H117291   7.246   0.129   3.129
 5782TIP3    H217292   7.349   0.029   3.176
 5783TIP3   OH217293   1.393   1.718   2.861
 5783TIP3    H117294   1.430   1.782   2.801
 5783TIP3    H217295   1.307   1.753   2.884
 5784TIP3   OH217296   1.836   1.233   0.188
 5784TIP3    H117297   1.902   1.183   0.141
 5784TIP3    H217298   1.885   1.302   0.233
 5785TIP3   OH217299   3.817   5.322   2.233
 5785TIP3    H117300   3.838   5.375   2.310
 5785TIP3    H217301   3.839   5.233   2.258
 5786TIP3   OH217302   0.807   7.348   4.489
 5786TIP3    H117303   0.835   7.380   4.575
 5786TIP3    H217304   0.819   7.253   4.494
 5787TIP3   OH217305   6.442   6.106   3.890
 5787TIP3    H117306   6.379   6.067   3.950
 5787TIP3    H217307   6.391   6.169   3.839
 5788TIP3   OH217308   6.268   3.456   5.591
 5788TIP3    H117309   6.270   3.436   5.685
 5788TIP3    H217310   6.342   3.516   5.578
 5789TIP3   OH217311   5.778   7.070   6.600
 5789TIP3    H117312   5.851   7.132   6.602
 5789TIP3    H217313   5.734   7.081   6.684
 5790TIP3   OH217314   6.142   5.107   3.626
 5790TIP3    H117315   6.166   5.114   3.534
 5790TIP3    H217316   6.183   5.184   3.667
 5791TIP3   OH217317   2.530   1.651   4.706
 5791TIP3    H117318   2.589   1.577   4.695
 5791TIP3    H217319   2.502   1.672   4.617
 5792TIP3   OH217320   2.679   5.028   3.648
 5792TIP3    H117321   2.671   5.068   3.734
 5792TIP3    H217322   2.754   5.073   3.608
 5793TIP3   OH217323   0.075   0.107   3.312
 5793TIP3    H117324  -0.006   0.056   3.306
 5793TIP3    H217325   0.064   0.177   3.248
 5794TIP3   OH217326   7.077   0.490   1.808
 5794TIP3    H117327   7.046   0.550   1.741
 5794TIP3    H217328   7.113   0.415   1.759
 5795TIP3   OH217329   3.238   1.121   0.544
 5795TIP3    H117330   3.156   1.085   0.509
 5795TIP3    H217331   3.241   1.090   0.634
 5796TIP3   OH217332   3.137   1.117   0.826
 5796TIP3    H117333   3.044   1.092   0.828
 5796TIP3    H217334   3.136   1.212   0.834
 5797TIP3   OH217335   1.385   7.302   5.599
 5797TIP3    H117336   1.335   7.255   5.533
 5797TIP3    H217337   1.449   7.238   5.630
 5798TIP3   OH217338   7.729   5.095   1.645
 5798TIP3    H117339   7.721   5.061   1.556
 5798TIP3    H217340   7.793   5.037   1.687
 5799TIP3   OH217341   0.257   3.417   3.111
 5799TIP3    H117342   0.348   3.432   3.083
 5799TIP3    H217343   0.238   3.490   3.169
 5800TIP3   OH217344   4.665   4.382   5.523
 5800TIP3    H117345   4.667   4.300   5.474
 5800TIP3    H217346   4.613   4.441   5.468
 5801TIP3   OH217347   0.053   5.855   4.553
 5801TIP3    H117348  -0.003   5.777   4.554
 5801TIP3    H217349   0.092   5.857   4.640
 5802TIP3   OH217350   5.542   6.843   3.279
 5802TIP3    H117351   5.474   6.910   3.277
 5802TIP3    H217352   5.504   6.773   3.333
 5803TIP3   OH217353   6.994   7.821   5.985
 5803TIP3    H117354   6.935   7.886   5.947
 5803TIP3    H217355   7.041   7.783   5.910
 5804TIP3   OH217356   3.916   3.203   5.114
 5804TIP3    H117357   3.858   3.211   5.038
 5804TIP3    H217358   3.904   3.113   5.144
 5805TIP3   OH217359   0.313   0.368   2.053
 5805TIP3    H117360   0.353   0.355   1.967
 5805TIP3    H217361   0.337   0.457   2.078
 5806TIP3   OH217362   3.655   5.232   2.620
 5806TIP3    H117363   3.625   5.289   2.549
 5806TIP3    H217364   3.742   5.264   2.642
 5807TIP3   OH217365   4.044   0.911   1.210
 5807TIP3    H117366   4.107   0.950   1.270
 5807TIP3    H217367   4.051   0.962   1.130
 5808TIP3   OH217368   5.318   0.349   3.955
 5808TIP3    H117369   5.305   0.335   4.049
 5808TIP3    H217370   5.244   0.405   3.929
 5809TIP3   OH217371   0.641   1.899   3.452
 5809TIP3    H117372   0.646   1.804   3.448
 5809TIP3    H217373   0.612   1.918   3.541
 5810TIP3   OH217374   3.546   5.056   2.275
 5810TIP3    H117375   3.545   5.151   2.286
 5810TIP3    H217376   3.512   5.022   2.357
 5811TIP3   OH217377   7.370   0.706   0.635
 5811TIP3    H117378   7.334   0.732   0.550
 5811TIP3    H217379   7.357   0.611   0.639
 5812TIP3   OH217380   0.083   1.435   0.779
 5812TIP3    H117381   0.174   1.408   0.791
 5812TIP3    H217382   0.043   1.364   0.729
 5813TIP3   OH217383   2.386   1.408   6.252
 5813TIP3    H117384   2.411   1.353   6.326
 5813TIP3    H217385   2.327   1.354   6.200
 5814TIP3   OH217386   6.994   3.303   6.646
 5814TIP3    H117387   7.033   3.364   6.584
 5814TIP3    H217388   7.063   3.290   6.712
 5815TIP3   OH217389   5.986   6.568   5.009
 5815TIP3    H117390   5.949   6.637   5.065
 5815TIP3    H217391   6.077   6.561   5.035
 5816TIP3   OH217392   1.112   6.958   5.179
 5816TIP3    H117393   1.108   6.871   5.217
 5816TIP3    H217394   1.057   7.012   5.235
 5817TIP3   OH217395   2.060   6.083   0.705
 5817TIP3    H117396   1.991   6.017   0.699
 5817TIP3    H217397   2.089   6.079   0.796
 5818TIP3   OH217398   4.625   1.507   3.904
 5818TIP3    H117399   4.662   1.420   3.894
 5818TIP3    H217400   4.696   1.566   3.877
 5819TIP3   OH217401   5.343   6.618   1.781
 5819TIP3    H117402   5.295   6.585   1.856
 5819TIP3    H217403   5.421   6.563   1.777
 5820TIP3   OH217404   4.207   0.338   3.589
 5820TIP3    H117405   4.218   0.271   3.657
 5820TIP3    H217406   4.126   0.382   3.612
 5821TIP3   OH217407   3.473   1.829   0.653
 5821TIP3    H117408   3.477   1.861   0.563
 5821TIP3    H217409   3.395   1.772   0.655
 5822TIP3   OH217410   6.022   6.199   6.100
 5822TIP3    H117411   6.095   6.256   6.127
 5822TIP3    H217412   6.057   6.146   6.029
 5823TIP3   OH217413   5.959   5.982   0.042
 5823TIP3    H117414   6.022   5.958  -0.026
 5823TIP3    H217415   5.932   5.898   0.079
 5824TIP3   OH217416   3.855   1.311   6.371
 5824TIP3    H117417   3.765   1.282   6.387
 5824TIP3    H217418   3.868   1.296   6.277
 5825TIP3   OH217419   5.264   0.366   1.145
 5825TIP3    H117420   5.299   0.452   1.169
 5825TIP3    H217421   5.336   0.305   1.161
 5826TIP3   OH217422   2.626   4.386   3.581
 5826TIP3    H117423   2.707   4.367   3.628
 5826TIP3    H217424   2.642   4.357   3.492
 5827TIP3   OH217425   3.838   0.348   2.524
 5827TIP3    H117426   3.767   0.404   2.493
 5827TIP3    H217427   3.856   0.289   2.450
 5828TIP3   OH217428   1.118   1.539   2.381
 5828TIP3    H117429   1.187   1.571   2.323
 5828TIP3    H217430   1.146   1.565   2.468
 5829TIP3   OH217431   6.270   5.592   2.840
 5829TIP3    H117432   6.276   5.505   2.880
 5829TIP3    H217433   6.240   5.649   2.910
 5830TIP3   OH217434   2.562   0.584   0.470
 5830TIP3    H117435   2.650   0.549   0.456
 5830TIP3    H217436   2.568   0.676   0.442
 5831TIP3   OH217437   8.241   2.888   1.582
 5831TIP3    H117438   8.287   2.968   1.607
 5831TIP3    H217439   8.223   2.844   1.665
 5832TIP3   OH217440   3.648   7.288   0.189
 5832TIP3    H117441   3.623   7.276   0.098
 5832TIP3    H217442   3.733   7.246   0.197
 5833TIP3   OH217443   2.798   1.348   5.384
 5833TIP3    H117444   2.852   1.331   5.461
 5833TIP3    H217445   2.861   1.350   5.311
 5834TIP3   OH217446   1.407   4.542   4.851
 5834TIP3    H117447   1.387   4.605   4.920
 5834TIP3    H217448   1.372   4.582   4.771
 5835TIP3   OH217449   1.659   1.319   5.548
 5835TIP3    H117450   1.643   1.307   5.454
 5835TIP3    H217451   1.596   1.261   5.591
 5836TIP3   OH217452   5.864   0.346   5.784
 5836TIP3    H117453   5.844   0.426   5.735
 5836TIP3    H217454   5.956   0.328   5.764
 5837TIP3   OH217455   4.174   4.462   4.585
 5837TIP3    H117456   4.161   4.547   4.625
 5837TIP3    H217457   4.131   4.400   4.645
 5838TIP3   OH217458   4.694   1.785   1.202
 5838TIP3    H117459   4.690   1.714   1.137
 5838TIP3    H217460   4.654   1.748   1.280
 5839TIP3   OH217461   1.275   0.905   4.596
 5839TIP3    H117462   1.208   0.869   4.537
 5839TIP3    H217463   1.254   0.867   4.682
 5840TIP3   OH217464   7.163   5.425   4.546
 5840TIP3    H117465   7.162   5.370   4.624
 5840TIP3    H217466   7.251   5.414   4.510
 5841TIP3   OH217467   3.298   2.386   1.716
 5841TIP3    H117468   3.218   2.337   1.731
 5841TIP3    H217469   3.351   2.328   1.661
 5842TIP3   OH217470   5.765   7.431   5.069
 5842TIP3    H117471   5.787   7.375   5.143
 5842TIP3    H217472   5.835   7.497   5.067
 5843TIP3   OH217473   5.570   4.484   3.568
 5843TIP3    H117474   5.579   4.440   3.652
 5843TIP3    H217475   5.619   4.430   3.506
 5844TIP3   OH217476   0.003   1.357   6.537
 5844TIP3    H117477   0.080   1.388   6.490
 5844TIP3    H217478   0.022   1.378   6.629
 5845TIP3   OH217479   1.549   6.601   1.842
 5845TIP3    H117480   1.578   6.638   1.759
 5845TIP3    H217481   1.525   6.510   1.821
 5846TIP3   OH217482   4.458   3.607   5.219
 5846TIP3    H117483   4.411   3.649   5.291
 5846TIP3    H217484   4.467   3.516   5.246
 5847TIP3   OH217485   8.033   5.181   2.704
 5847TIP3    H117486   8.107   5.241   2.706
 5847TIP3    H217487   8.028   5.146   2.794
 5848TIP3   OH217488   4.323   0.822   1.401
 5848TIP3    H117489   4.333   0.912   1.372
 5848TIP3    H217490   4.407   0.799   1.442
 5849TIP3   OH217491   5.650   0.160   5.755
 5849TIP3    H117492   5.717   0.224   5.778
 5849TIP3    H217493   5.668   0.085   5.813
 5850TIP3   OH217494   3.253   5.131   4.171
 5850TIP3    H117495   3.331   5.128   4.115
 5850TIP3    H217496   3.252   5.221   4.206
 5851TIP3   OH217497   5.945   4.158   4.099
 5851TIP3    H117498   6.010   4.088   4.106
 5851TIP3    H217499   5.954   4.191   4.009
 5852TIP3   OH217500   0.088   5.182   5.286
 5852TIP3    H117501   0.173   5.164   5.327
 5852TIP3    H217502   0.046   5.096   5.281
 5853TIP3   OH217503   4.016   4.118   3.053
 5853TIP3    H117504   4.095   4.130   3.104
 5853TIP3    H217505   4.013   4.193   2.994
 5854TIP3   OH217506   3.202   1.353   6.479
 5854TIP3    H117507   3.186   1.260   6.464
 5854TIP3    H217508   3.221   1.360   6.572
 5855TIP3   OH217509   0.270   6.672   0.441
 5855TIP3    H117510   0.273   6.767   0.451
 5855TIP3    H217511   0.252   6.639   0.529
 5856TIP3   OH217512   1.578   5.216   4.171
 5856TIP3    H117513   1.547   5.178   4.253
 5856TIP3    H217514   1.638   5.151   4.134
 5857TIP3   OH217515   3.411   7.160   0.657
 5857TIP3    H117516   3.352   7.098   0.700
 5857TIP3    H217517   3.386   7.245   0.694
 5858TIP3   OH217518   2.504   2.791   2.329
 5858TIP3    H117519   2.514   2.748   2.414
 5858TIP3    H217520   2.474   2.879   2.351
 5859TIP3   OH217521   3.635   7.077   4.880
 5859TIP3    H117522   3.730   7.065   4.881
 5859TIP3    H217523   3.611   7.089   4.972
 5860TIP3   OH217524   5.560   2.583   6.161
 5860TIP3    H117525   5.477   2.578   6.113
 5860TIP3    H217526   5.623   2.614   6.097
 5861TIP3   OH217527   4.213   7.056   2.059
 5861TIP3    H117528   4.261   7.021   1.984
 5861TIP3    H217529   4.257   7.019   2.135
 5862TIP3   OH217530   0.107   0.693   1.536
 5862TIP3    H117531   0.079   0.748   1.609
 5862TIP3    H217532   0.200   0.676   1.553
 5863TIP3   OH217533   2.311   5.436   2.845
 5863TIP3    H117534   2.332   5.350   2.809
 5863TIP3    H217535   2.217   5.447   2.827
 5864TIP3   OH217536   2.127   7.234   0.062
 5864TIP3    H117537   2.077   7.301   0.015
 5864TIP3    H217538   2.092   7.235   0.151
 5865TIP3   OH217539   3.758   4.750   4.450
 5865TIP3    H117540   3.680   4.800   4.473
 5865TIP3    H217541   3.831   4.807   4.475
 5866TIP3   OH217542   0.283   0.873   0.685
 5866TIP3    H117543   0.359   0.854   0.740
 5866TIP3    H217544   0.214   0.897   0.746
 5867TIP3   OH217545   0.045   3.580   5.321
 5867TIP3    H117546   0.100   3.590   5.399
 5867TIP3    H217547  -0.038   3.545   5.354
 5868TIP3   OH217548   5.501   1.031   4.401
 5868TIP3    H117549   5.408   1.051   4.411
 5868TIP3    H217550   5.526   1.075   4.319
 5869TIP3   OH217551   2.723   4.394   1.784
 5869TIP3    H117552   2.669   4.429   1.713
 5869TIP3    H217553   2.746   4.306   1.755
 5870TIP3   OH217554   7.974   2.751   6.383
 5870TIP3    H117555   7.923   2.829   6.361
 5870TIP3    H217556   8.025   2.775   6.460
 5871TIP3   OH217557   2.883   7.537   3.692
 5871TIP3    H117558   2.858   7.550   3.600
 5871TIP3    H217559   2.970   7.575   3.699
 5872TIP3   OH217560   0.711   5.749   3.276
 5872TIP3    H117561   0.766   5.786   3.207
 5872TIP3    H217562   0.627   5.794   3.265
 5873TIP3   OH217563   2.705   2.672   3.974
 5873TIP3    H117564   2.737   2.624   4.051
 5873TIP3    H217565   2.611   2.678   3.987
 5874TIP3   OH217566   7.864   2.881   1.455
 5874TIP3    H117567   7.771   2.903   1.450
 5874TIP3    H217568   7.895   2.887   1.365
 5875TIP3   OH217569   0.952   7.564   6.207
 5875TIP3    H117570   1.014   7.524   6.146
 5875TIP3    H217571   0.907   7.631   6.155
 5876TIP3   OH217572   2.417   5.091   2.056
 5876TIP3    H117573   2.323   5.092   2.076
 5876TIP3    H217574   2.441   4.998   2.059
 5877TIP3   OH217575   5.989   1.620   4.073
 5877TIP3    H117576   6.023   1.632   3.984
 5877TIP3    H217577   5.958   1.707   4.099
 5878TIP3   OH217578   7.137   0.544   0.836
 5878TIP3    H117579   7.191   0.596   0.895
 5878TIP3    H217580   7.200   0.490   0.788
 5879TIP3   OH217581   4.584   3.627   0.161
 5879TIP3    H117582   4.674   3.636   0.192
 5879TIP3    H217583   4.530   3.639   0.239
 5880TIP3   OH217584   7.522   7.139   2.271
 5880TIP3    H117585   7.522   7.143   2.367
 5880TIP3    H217586   7.608   7.173   2.246
 5881TIP3   OH217587   6.517   7.664   6.006
 5881TIP3    H117588   6.456   7.715   6.060
 5881TIP3    H217589   6.510   7.704   5.919
 5882TIP3   OH217590   0.375   1.520   2.351
 5882TIP3    H117591   0.308   1.510   2.419
 5882TIP3    H217592   0.391   1.431   2.319
 5883TIP3   OH217593   5.977   0.204   2.275
 5883TIP3    H117594   5.883   0.195   2.257
 5883TIP3    H217595   5.982   0.225   2.368
 5884TIP3   OH217596   5.066   2.862   1.616
 5884TIP3    H117597   5.016   2.892   1.691
 5884TIP3    H217598   5.105   2.779   1.644
 5885TIP3   OH217599   7.076   2.072   5.624
 5885TIP3    H117600   7.145   2.106   5.567
 5885TIP3    H217601   7.095   1.978   5.631
 5886TIP3   OH217602   2.746   5.443   0.382
 5886TIP3    H117603   2.839   5.419   0.379
 5886TIP3    H217604   2.738   5.496   0.461
 5887TIP3   OH217605   7.350   3.639   2.045
 5887TIP3    H117606   7.396   3.641   1.961
 5887TIP3    H217607   7.419   3.647   2.110
 5888TIP3   OH217608   7.384   2.211   3.509
 5888TIP3    H117609   7.359   2.171   3.592
 5888TIP3    H217610   7.478   2.228   3.518
 5889TIP3   OH217611   1.529   3.943   4.600
 5889TIP3    H117612   1.481   3.879   4.548
 5889TIP3    H217613   1.603   3.968   4.545
 5890TIP3   OH217614   4.530   0.738   6.419
 5890TIP3    H117615   4.564   0.713   6.333
 5890TIP3    H217616   4.575   0.680   6.480
 5891TIP3   OH217617   2.802   4.142   5.088
 5891TIP3    H117618   2.764   4.056   5.070
 5891TIP3    H217619   2.895   4.132   5.068
 5892TIP3   OH217620   0.671   1.517   1.523
 5892TIP3    H117621   0.661   1.610   1.544
 5892TIP3    H217622   0.631   1.471   1.597
 5893TIP3   OH217623   7.335   2.220   0.711
 5893TIP3    H117624   7.366   2.157   0.776
 5893TIP3    H217625   7.394   2.294   0.719
 5894TIP3   OH217626   0.046   0.331   1.156
 5894TIP3    H117627   0.031   0.372   1.241
 5894TIP3    H217628   0.108   0.261   1.174
 5895TIP3   OH217629   0.059   6.346   0.585
 5895TIP3    H117630   0.001   6.415   0.617
 5895TIP3    H217631   0.144   6.367   0.623
 5896TIP3   OH217632   6.800   6.675   5.933
 5896TIP3    H117633   6.742   6.749   5.912
 5896TIP3    H217634   6.760   6.600   5.889
 5897TIP3   OH217635   7.592   4.995   2.529
 5897TIP3    H117636   7.582   5.052   2.605
 5897TIP3    H217637   7.682   4.964   2.533
 5898TIP3   OH217638   0.401   2.480   3.421
 5898TIP3    H117639   0.390   2.541   3.348
 5898TIP3    H217640   0.482   2.432   3.399
 5899TIP3   OH217641   2.200   4.958   6.444
 5899TIP3    H117642   2.260   4.925   6.377
 5899TIP3    H217643   2.245   5.033   6.482
 5900TIP3   OH217644   7.218   1.711   0.173
 5900TIP3    H117645   7.237   1.724   0.265
 5900TIP3    H217646   7.290   1.656   0.140
 5901TIP3   OH217647   5.740   3.986   5.827
 5901TIP3    H117648   5.779   4.057   5.775
 5901TIP3    H217649   5.786   3.907   5.798
 5902TIP3   OH217650   6.898   2.855   2.599
 5902TIP3    H117651   6.881   2.843   2.693
 5902TIP3    H217652   6.980   2.904   2.595
 5903TIP3   OH217653   5.180   5.720   6.169
 5903TIP3    H117654   5.137   5.798   6.135
 5903TIP3    H217655   5.266   5.751   6.198
 5904TIP3   OH217656   7.368   3.090   3.230
 5904TIP3    H117657   7.395   3.182   3.233
 5904TIP3    H217658   7.441   3.043   3.270
 5905TIP3   OH217659   0.555   1.716   5.539
 5905TIP3    H117660   0.508   1.753   5.615
 5905TIP3    H217661   0.550   1.785   5.473
 5906TIP3   OH217662   7.860   5.686   6.470
 5906TIP3    H117663   7.952   5.697   6.448
 5906TIP3    H217664   7.819   5.768   6.444
 5907TIP3   OH217665   0.250   7.114   3.665
 5907TIP3    H117666   0.334   7.072   3.684
 5907TIP3    H217667   0.185   7.045   3.681
 5908TIP3   OH217668   3.606   0.467   2.824
 5908TIP3    H117669   3.633   0.507   2.907
 5908TIP3    H217670   3.667   0.503   2.760
 5909TIP3   OH217671   5.681   2.195   1.925
 5909TIP3    H117672   5.724   2.242   1.854
 5909TIP3    H217673   5.600   2.244   1.940
 5910TIP3   OH217674   4.011   3.282   1.833
 5910TIP3    H117675   3.929   3.258   1.875
 5910TIP3    H217676   4.076   3.223   1.872
 5911TIP3   OH217677   0.190   3.692   4.743
 5911TIP3    H117678   0.167   3.720   4.655
 5911TIP3    H217679   0.178   3.597   4.743
 5912TIP3   OH217680   6.955   2.767   3.276
 5912TIP3    H117681   7.001   2.851   3.264
 5912TIP3    H217682   6.993   2.709   3.210
 5913TIP3   OH217683   4.949   7.149   4.441
 5913TIP3    H117684   4.995   7.092   4.379
 5913TIP3    H217685   4.859   7.152   4.408
 5914TIP3   OH217686   6.158   3.708   1.262
 5914TIP3    H117687   6.159   3.803   1.274
 5914TIP3    H217688   6.202   3.674   1.340
 5915TIP3   OH217689   2.810   6.390   5.205
 5915TIP3    H117690   2.903   6.411   5.204
 5915TIP3    H217691   2.803   6.309   5.154
 5916TIP3   OH217692   1.937   6.113   4.006
 5916TIP3    H117693   2.017   6.162   4.024
 5916TIP3    H217694   1.942   6.037   4.063
 5917TIP3   OH217695   0.998   1.293   2.427
 5917TIP3    H117696   1.025   1.286   2.519
 5917TIP3    H217697   1.040   1.372   2.395
 5918TIP3   OH217698   7.497   4.764   0.736
 5918TIP3    H117699   7.405   4.739   0.741
 5918TIP3    H217700   7.536   4.697   0.679
 5919TIP3   OH217701   5.955   3.159  -0.022
 5919TIP3    H117702   6.015   3.131   0.047
 5919TIP3    H217703   5.902   3.228   0.018
 5920TIP3   OH217704   3.548   2.253   1.900
 5920TIP3    H117705   3.500   2.232   1.820
 5920TIP3    H217706   3.514   2.192   1.965
 5921TIP3   OH217707   6.222   7.187   3.292
 5921TIP3    H117708   6.272   7.257   3.334
 5921TIP3    H217709   6.174   7.146   3.364
 5922TIP3   OH217710   3.654   0.518   2.396
 5922TIP3    H117711   3.624   0.567   2.472
 5922TIP3    H217712   3.617   0.566   2.321
 5923TIP3   OH217713   3.278   7.557   6.710
 5923TIP3    H117714   3.368   7.578   6.735
 5923TIP3    H217715   3.276   7.569   6.615
 5924TIP3   OH217716   7.691   1.213   3.145
 5924TIP3    H117717   7.669   1.208   3.238
 5924TIP3    H217718   7.608   1.197   3.100
 5925TIP3   OH217719   2.039   7.635   2.864
 5925TIP3    H117720   2.117   7.682   2.893
 5925TIP3    H217721   2.045   7.634   2.769
 5926TIP3   OH217722   3.646   6.412   6.145
 5926TIP3    H117723   3.665   6.338   6.202
 5926TIP3    H217724   3.732   6.442   6.114
 5927TIP3   OH217725   4.683   3.030   3.988
 5927TIP3    H117726   4.710   2.988   3.906
 5927TIP3    H217727   4.650   3.116   3.961
 5928TIP3   OH217728   1.106   6.233   0.499
 5928TIP3    H117729   1.097   6.196   0.586
 5928TIP3    H217730   1.038   6.300   0.493
 5929TIP3   OH217731   3.785   2.791   5.070
 5929TIP3    H117732   3.773   2.696   5.068
 5929TIP3    H217733   3.856   2.807   5.008
 5930TIP3   OH217734   7.130   0.233   5.352
 5930TIP3    H117735   7.047   0.187   5.342
 5930TIP3    H217736   7.185   0.173   5.402
 5931TIP3   OH217737   4.078   2.000   3.751
 5931TIP3    H117738   4.128   2.081   3.764
 5931TIP3    H217739   3.991   2.020   3.785
 5932TIP3   OH217740   3.962   6.093   2.528
 5932TIP3    H117741   4.005   6.080   2.612
 5932TIP3    H217742   3.938   6.186   2.527
 5933TIP3   OH217743   6.043   3.783   4.557
 5933TIP3    H117744   5.976   3.836   4.601
 5933TIP3    H217745   6.082   3.843   4.493
 5934TIP3   OH217746   2.311   3.415   4.872
 5934TIP3    H117747   2.288   3.464   4.793
 5934TIP3    H217748   2.301   3.478   4.943
 5935TIP3   OH217749   4.975   1.963   0.434
 5935TIP3    H117750   5.050   2.002   0.390
 5935TIP3    H217751   4.909   1.956   0.365
 5936TIP3   OH217752   3.602   0.216   2.905
 5936TIP3    H117753   3.671   0.234   2.968
 5936TIP3    H217754   3.579   0.302   2.869
 5937TIP3   OH217755   0.776   5.446   6.206
 5937TIP3    H117756   0.807   5.358   6.186
 5937TIP3    H217757   0.848   5.486   6.255
 5938TIP3   OH217758   0.961   4.920   0.713
 5938TIP3    H117759   1.045   4.918   0.667
 5938TIP3    H217760   0.954   5.009   0.748
 5939TIP3   OH217761   5.398   4.428   3.827
 5939TIP3    H117762   5.342   4.486   3.878
 5939TIP3    H217763   5.487   4.458   3.846
 5940TIP3   OH217764   3.229   4.365   4.808
 5940TIP3    H117765   3.237   4.402   4.896
 5940TIP3    H217766   3.292   4.414   4.756
 5941TIP3   OH217767   0.285   5.773   6.527
 5941TIP3    H117768   0.259   5.750   6.438
 5941TIP3    H217769   0.293   5.868   6.526
 5942TIP3   OH217770   5.161   0.212   3.356
 5942TIP3    H117771   5.150   0.305   3.334
 5942TIP3    H217772   5.238   0.209   3.412
 5943TIP3   OH217773   4.943   6.405   0.010
 5943TIP3    H117774   4.860   6.376  -0.027
 5943TIP3    H217775   4.955   6.351   0.088
 5944TIP3   OH217776   7.188   4.328   2.342
 5944TIP3    H117777   7.241   4.323   2.421
 5944TIP3    H217778   7.230   4.395   2.288
 5945TIP3   OH217779   0.008   6.118   2.895
 5945TIP3    H117780   0.080   6.157   2.846
 5945TIP3    H217781  -0.010   6.179   2.966
 5946TIP3   OH217782   2.478   6.642   6.777
 5946TIP3    H117783   2.547   6.675   6.721
 5946TIP3    H217784   2.487   6.691   6.859
 5947TIP3   OH217785   4.088   2.929   3.861
 5947TIP3    H117786   4.072   2.922   3.767
 5947TIP3    H217787   4.108   2.840   3.889
 5948TIP3   OH217788   0.491  -0.019   2.946
 5948TIP3    H117789   0.453   0.031   3.018
 5948TIP3    H217790   0.476   0.034   2.868
 5949TIP3   OH217791   4.875   7.105   2.720
 5949TIP3    H117792   4.862   7.039   2.788
 5949TIP3    H217793   4.878   7.055   2.638
 5950TIP3   OH217794   7.844   2.148   2.324
 5950TIP3    H117795   7.780   2.136   2.254
 5950TIP3    H217796   7.926   2.113   2.288
 5951TIP3   OH217797   4.193   0.274   6.549
 5951TIP3    H117798   4.210   0.186   6.513
 5951TIP3    H217799   4.245   0.332   6.494
 5952TIP3   OH217800   5.660   6.941   2.259
 5952TIP3    H117801   5.688   7.018   2.210
 5952TIP3    H217802   5.667   6.869   2.197
 5953TIP3   OH217803   4.934   3.925   1.895
 5953TIP3    H117804   4.992   3.891   1.827
 5953TIP3    H217805   4.916   3.850   1.951
 5954TIP3   OH217806   4.486   4.200   3.598
 5954TIP3    H117807   4.555   4.259   3.629
 5954TIP3    H217808   4.407   4.228   3.645
 5955TIP3   OH217809   7.758   0.050   2.485
 5955TIP3    H117810   7.795   0.137   2.495
 5955TIP3    H217811   7.684   0.061   2.425
 5956TIP3   OH217812   0.867   3.746   5.480
 5956TIP3    H117813   0.799   3.684   5.453
 5956TIP3    H217814   0.824   3.803   5.543
 5957TIP3   OH217815   7.171   3.317   5.648
 5957TIP3    H117816   7.210   3.242   5.603
 5957TIP3    H217817   7.120   3.278   5.719
 5958TIP3   OH217818   7.431   5.561   2.546
 5958TIP3    H117819   7.425   5.466   2.533
 5958TIP3    H217820   7.474   5.570   2.631
 5959TIP3   OH217821   1.336   3.212   3.278
 5959TIP3    H117822   1.338   3.219   3.374
 5959TIP3    H217823   1.318   3.301   3.248
 5960TIP3   OH217824   3.248   6.451   2.120
 5960TIP3    H117825   3.306   6.511   2.073
 5960TIP3    H217826   3.307   6.401   2.177
 5961TIP3   OH217827   3.762   4.366   1.319
 5961TIP3    H117828   3.811   4.302   1.370
 5961TIP3    H217829   3.679   4.322   1.298
 5962TIP3   OH217830   5.286   2.070   3.556
 5962TIP3    H117831   5.278   2.165   3.553
 5962TIP3    H217832   5.263   2.040   3.468
 5963TIP3   OH217833   0.173   0.863   4.308
 5963TIP3    H117834   0.188   0.936   4.369
 5963TIP3    H217835   0.261   0.830   4.289
 5964TIP3   OH217836   1.724   0.371   6.621
 5964TIP3    H117837   1.669   0.333   6.689
 5964TIP3    H217838   1.709   0.316   6.544
 5965TIP3   OH217839   7.717   3.298   0.147
 5965TIP3    H117840   7.795   3.351   0.132
 5965TIP3    H217841   7.717   3.281   0.241
 5966TIP3   OH217842   7.200   1.587   6.768
 5966TIP3    H117843   7.207   1.680   6.748
 5966TIP3    H217844   7.274   1.547   6.722
 5967TIP3   OH217845   4.293   3.596   4.511
 5967TIP3    H117846   4.320   3.646   4.589
 5967TIP3    H217847   4.360   3.617   4.445
 5968TIP3   OH217848   3.992   3.147   0.272
 5968TIP3    H117849   3.959   3.228   0.311
 5968TIP3    H217850   3.989   3.083   0.343
 5969TIP3   OH217851   4.021   5.397   1.849
 5969TIP3    H117852   3.986   5.417   1.763
 5969TIP3    H217853   3.949   5.418   1.910
 5970TIP3   OH217854   7.211   2.809   2.353
 5970TIP3    H117855   7.163   2.726   2.349
 5970TIP3    H217856   7.303   2.784   2.341
 5971TIP3   OH217857   2.855   7.671   1.592
 5971TIP3    H117858   2.912   7.692   1.518
 5971TIP3    H217859   2.898   7.597   1.635
 5972TIP3   OH217860   5.896   6.677   1.322
 5972TIP3    H117861   5.965   6.616   1.347
 5972TIP3    H217862   5.923   6.713   1.238
 5973TIP3   OH217863   2.857   5.329   6.432
 5973TIP3    H117864   2.900   5.285   6.359
 5973TIP3    H217865   2.773   5.360   6.396
 5974TIP3   OH217866   0.473   6.883   3.481
 5974TIP3    H117867   0.400   6.837   3.440
 5974TIP3    H217868   0.550   6.858   3.431
 5975TIP3   OH217869   6.598   2.360   2.611
 5975TIP3    H117870   6.668   2.422   2.627
 5975TIP3    H217871   6.637   2.274   2.627
 5976TIP3   OH217872   6.927   0.006   0.836
 5976TIP3    H117873   6.986   0.008   0.761
 5976TIP3    H217874   6.857   0.067   0.815
 5977TIP3   OH217875   6.692   3.154   3.025
 5977TIP3    H117876   6.677   3.237   3.069
 5977TIP3    H217877   6.716   3.093   3.095
 5978TIP3   OH217878   6.503   1.747   6.641
 5978TIP3    H117879   6.512   1.775   6.732
 5978TIP3    H217880   6.506   1.829   6.591
 5979TIP3   OH217881   3.674   7.420   2.710
 5979TIP3    H117882   3.607   7.471   2.755
 5979TIP3    H217883   3.671   7.334   2.752
 5980TIP3   OH217884   8.057   0.089   4.374
 5980TIP3    H117885   8.002   0.149   4.423
 5980TIP3    H217886   8.056   0.008   4.425
 5981TIP3   OH217887   0.864   6.995   2.250
 5981TIP3    H117888   0.805   6.953   2.312
 5981TIP3    H217889   0.827   7.083   2.237
 5982TIP3   OH217890   6.377   3.138   0.638
 5982TIP3    H117891   6.464   3.173   0.622
 5982TIP3    H217892   6.383   3.097   0.724
 5983TIP3   OH217893   1.254   2.290   1.134
 5983TIP3    H117894   1.343   2.327   1.127
 5983TIP3    H217895   1.264   2.198   1.110
 5984TIP3   OH217896   4.257   2.096   5.448
 5984TIP3    H117897   4.277   2.009   5.413
 5984TIP3    H217898   4.262   2.154   5.372
 5985TIP3   OH217899   0.214   3.837   5.010
 5985TIP3    H117900   0.251   3.924   4.993
 5985TIP3    H217901   0.247   3.783   4.939
 5986TIP3   OH217902   6.509   7.713   2.447
 5986TIP3    H117903   6.523   7.739   2.356
 5986TIP3    H217904   6.543   7.786   2.498
 5987TIP3   OH217905   5.578   6.879   0.574
 5987TIP3    H117906   5.570   6.851   0.483
 5987TIP3    H217907   5.506   6.941   0.587
 5988TIP3   OH217908   7.003   7.056   0.615
 5988TIP3    H117909   6.938   7.014   0.560
 5988TIP3    H217910   6.955   7.082   0.694
 5989TIP3   OH217911   4.966   3.353   4.935
 5989TIP3    H117912   4.890   3.310   4.896
 5989TIP3    H217913   4.940   3.369   5.026
 5990TIP3   OH217914   3.919   4.510   0.538
 5990TIP3    H117915   3.968   4.592   0.529
 5990TIP3    H217916   3.985   4.442   0.533
 5991TIP3   OH217917   0.424   1.114   3.384
 5991TIP3    H117918   0.369   1.043   3.414
 5991TIP3    H217919   0.440   1.168   3.462
 5992TIP3   OH217920   4.406   7.550   6.026
 5992TIP3    H117921   4.361   7.509   6.100
 5992TIP3    H217922   4.363   7.512   5.949
 5993TIP3   OH217923   0.284   4.152   4.039
 5993TIP3    H117924   0.291   4.152   4.134
 5993TIP3    H217925   0.204   4.202   4.021
 5994TIP3   OH217926   2.026   3.481   0.622
 5994TIP3    H117927   1.945   3.433   0.641
 5994TIP3    H217928   2.096   3.420   0.645
 5995TIP3   OH217929   6.788   6.956   4.127
 5995TIP3    H117930   6.840   7.029   4.161
 5995TIP3    H217931   6.836   6.927   4.049
 5996TIP3   OH217932   7.244   2.991   1.013
 5996TIP3    H117933   7.294   3.015   0.935
 5996TIP3    H217934   7.174   2.935   0.981
 5997TIP3   OH217935   5.435   1.963   0.116
 5997TIP3    H117936   5.410   1.984   0.026
 5997TIP3    H217937   5.526   1.992   0.123
 5998TIP3   OH217938   3.115   5.686   0.595
 5998TIP3    H117939   3.182   5.635   0.640
 5998TIP3    H217940   3.035   5.670   0.645
 5999TIP3   OH217941   7.315   7.014   1.653
 5999TIP3    H117942   7.288   7.104   1.671
 5999TIP3    H217943   7.351   6.983   1.736
 6000TIP3   OH217944   6.814   4.834   5.363
 6000TIP3    H117945   6.756   4.810   5.291
 6000TIP3    H217946   6.772   4.910   5.403
 6001TIP3   OH217947   6.627   4.042   4.910
 6001TIP3    H117948   6.647   4.124   4.954
 6001TIP3    H217949   6.537   4.022   4.935
 6002TIP3   OH217950   4.614   1.415   1.761
 6002TIP3    H117951   4.687   1.397   1.701
 6002TIP3    H217952   4.536   1.412   1.706
 6003TIP3   OH217953   3.713   0.249   1.154
 6003TIP3    H117954   3.637   0.306   1.155
 6003TIP3    H217955   3.733   0.235   1.247
 6004TIP3   OH217956   1.134   4.555   0.836
 6004TIP3    H117957   1.051   4.597   0.812
 6004TIP3    H217958   1.109   4.488   0.899
 6005TIP3   OH217959   0.616   5.907   6.508
 6005TIP3    H117960   0.565   5.947   6.579
 6005TIP3    H217961   0.580   5.945   6.428
 6006TIP3   OH217962   2.302   3.079   6.004
 6006TIP3    H117963   2.360   3.139   6.051
 6006TIP3    H217964   2.231   3.061   6.065
 6007TIP3   OH217965   5.890   2.709   6.212
 6007TIP3    H117966   5.919   2.799   6.220
 6007TIP3    H217967   5.858   2.702   6.122
 6008TIP3   OH217968   1.884   7.243   1.073
 6008TIP3    H117969   1.957   7.204   1.023
 6008TIP3    H217970   1.827   7.281   1.006
 6009TIP3   OH217971  -0.034   4.334   6.004
 6009TIP3    H117972   0.055   4.305   6.020
 6009TIP3    H217973  -0.025   4.428   5.983
 6010TIP3   OH217974   2.036   1.077   0.053
 6010TIP3    H117975   1.966   1.080  -0.012
 6010TIP3    H217976   2.052   0.984   0.067
 6011TIP3   OH217977   7.729   7.426   2.586
 6011TIP3    H117978   7.786   7.354   2.614
 6011TIP3    H217979   7.723   7.482   2.663
 6012TIP3   OH217980   6.555   7.716   3.062
 6012TIP3    H117981   6.605   7.635   3.056
 6012TIP3    H217982   6.469   7.688   3.094
 6013TIP3   OH217983   4.791   6.911   2.274
 6013TIP3    H117984   4.705   6.871   2.266
 6013TIP3    H217985   4.853   6.842   2.249
 6014TIP3   OH217986   2.449   5.007   1.496
 6014TIP3    H117987   2.355   4.999   1.480
 6014TIP3    H217988   2.485   4.921   1.473
 6015TIP3   OH217989   1.903   3.629   2.414
 6015TIP3    H117990   1.867   3.689   2.349
 6015TIP3    H217991   1.916   3.682   2.492
 6016TIP3   OH217992   0.768   7.725   0.081
 6016TIP3    H117993   0.800   7.645   0.121
 6016TIP3    H217994   0.815   7.732  -0.002
 6017TIP3   OH217995   0.852   6.442   2.698
 6017TIP3    H117996   0.921   6.502   2.725
 6017TIP3    H217997   0.889   6.355   2.715
 6018TIP3   OH217998   4.775   6.266   0.250
 6018TIP3    H117999   4.755   6.255   0.157
 6018TIP3    H218000   4.702   6.318   0.284
 6019TIP3   OH218001   0.770   5.333   4.554
 6019TIP3    H118002   0.847   5.285   4.585
 6019TIP3    H218003   0.769   5.318   4.460
 6020TIP3   OH218004   7.942   2.118   4.602
 6020TIP3    H118005   7.919   2.202   4.561
 6020TIP3    H218006   8.038   2.117   4.601
 6021TIP3   OH218007   6.804   0.557   4.750
 6021TIP3    H118008   6.710   0.563   4.768
 6021TIP3    H218009   6.816   0.605   4.668
 6022TIP3   OH218010   0.741   1.083   3.013
 6022TIP3    H118011   0.716   1.166   2.973
 6022TIP3    H218012   0.789   1.108   3.092
 6023TIP3   OH218013   4.594   7.680   4.073
 6023TIP3    H118014   4.542   7.751   4.035
 6023TIP3    H218015   4.672   7.723   4.106
 6024TIP3   OH218016   5.053   7.763   5.033
 6024TIP3    H118017   5.103   7.823   5.088
 6024TIP3    H218018   5.110   7.744   4.959
 6025TIP3   OH218019   1.444   4.345   6.093
 6025TIP3    H118020   1.438   4.338   5.998
 6025TIP3    H218021   1.457   4.438   6.110
 6026TIP3   OH218022   5.401   2.817   5.395
 6026TIP3    H118023   5.378   2.729   5.364
 6026TIP3    H218024   5.459   2.801   5.470
 6027TIP3   OH218025   1.875   2.242   4.971
 6027TIP3    H118026   1.905   2.224   4.882
 6027TIP3    H218027   1.953   2.271   5.017
 6028TIP3   OH218028   0.276   6.306   3.084
 6028TIP3    H118029   0.213   6.261   3.140
 6028TIP3    H218030   0.359   6.298   3.130
 6029TIP3   OH218031   1.893   5.528   1.385
 6029TIP3    H118032   1.977   5.490   1.411
 6029TIP3    H218033   1.912   5.619   1.365
 6030TIP3   OH218034   2.890   7.212   4.113
 6030TIP3    H118035   2.888   7.251   4.200
 6030TIP3    H218036   2.857   7.282   4.055
 6031TIP3   OH218037   4.583   4.901   1.450
 6031TIP3    H118038   4.514   4.966   1.464
 6031TIP3    H218039   4.601   4.905   1.356
 6032TIP3   OH218040   2.147   0.552   4.673
 6032TIP3    H118041   2.189   0.552   4.759
 6032TIP3    H218042   2.176   0.634   4.633
 6033TIP3   OH218043   2.758   5.992   3.257
 6033TIP3    H118044   2.696   6.064   3.267
 6033TIP3    H218045   2.758   5.972   3.163
 6034TIP3   OH218046   3.662   2.458   4.492
 6034TIP3    H118047   3.650   2.547   4.459
 6034TIP3    H218048   3.574   2.425   4.507
 6035TIP3   OH218049   5.211   5.162   5.286
 6035TIP3    H118050   5.144   5.133   5.224
 6035TIP3    H218051   5.180   5.131   5.371
 6036TIP3   OH218052   6.790   2.087   5.432
 6036TIP3    H118053   6.848   2.011   5.439
 6036TIP3    H218054   6.787   2.123   5.520
 6037TIP3   OH218055   7.769   6.882   3.402
 6037TIP3    H118056   7.779   6.795   3.441
 6037TIP3    H218057   7.854   6.900   3.361
 6038TIP3   OH218058   0.678   0.171   6.291
 6038TIP3    H118059   0.590   0.132   6.287
 6038TIP3    H218060   0.665   0.255   6.335
 6039TIP3   OH218061   3.143   3.830   2.206
 6039TIP3    H118062   3.048   3.833   2.192
 6039TIP3    H218063   3.160   3.740   2.235
 6040TIP3   OH218064   0.246   2.737   1.610
 6040TIP3    H118065   0.198   2.667   1.564
 6040TIP3    H218066   0.335   2.704   1.617
 6041TIP3   OH218067   5.301   5.227   3.176
 6041TIP3    H118068   5.380   5.236   3.123
 6041TIP3    H218069   5.285   5.132   3.180
 6042TIP3   OH218070   7.790   1.345   0.367
 6042TIP3    H118071   7.697   1.321   0.364
 6042TIP3    H218072   7.832   1.270   0.410
 6043TIP3   OH218073   5.747   4.257   2.861
 6043TIP3    H118074   5.811   4.191   2.834
 6043TIP3    H218075   5.730   4.238   2.953
 6044TIP3   OH218076   7.144   0.977   2.511
 6044TIP3    H118077   7.093   1.051   2.479
 6044TIP3    H218078   7.079   0.916   2.546
 6045TIP3   OH218079   5.432   3.861   4.892
 6045TIP3    H118080   5.401   3.949   4.875
 6045TIP3    H218081   5.493   3.871   4.965
 6046TIP3   OH218082   1.489   4.903   0.905
 6046TIP3    H118083   1.556   4.835   0.912
 6046TIP3    H218084   1.440   4.895   0.987
 6047TIP3   OH218085   6.982   2.007   0.066
 6047TIP3    H118086   6.971   2.081   0.126
 6047TIP3    H218087   6.959   1.930   0.118
 6048TIP3   OH218088   0.035   7.773   3.017
 6048TIP3    H118089   0.095   7.812   2.953
 6048TIP3    H218090   0.028   7.682   2.990
 6049TIP3   OH218091   7.812   3.993   5.506
 6049TIP3    H118092   7.790   4.085   5.491
 6049TIP3    H218093   7.896   3.995   5.551
 6050TIP3   OH218094   2.349   4.122   1.913
 6050TIP3    H118095   2.368   4.030   1.928
 6050TIP3    H218096   2.351   4.132   1.818
 6051TIP3   OH218097   2.712   1.812   1.154
 6051TIP3    H118098   2.807   1.807   1.163
 6051TIP3    H218099   2.693   1.905   1.143
 6052TIP3   OH218100   7.363   6.782   5.744
 6052TIP3    H118101   7.446   6.743   5.717
 6052TIP3    H218102   7.387   6.868   5.778
 6053TIP3   OH218103   0.938   3.626   4.225
 6053TIP3    H118104   0.866   3.596   4.280
 6053TIP3    H218105   0.992   3.680   4.284
 6054TIP3   OH218106   2.244   1.940   5.142
 6054TIP3    H118107   2.218   1.991   5.219
 6054TIP3    H218108   2.271   1.855   5.179
 6055TIP3   OH218109   3.936   2.308   1.228
 6055TIP3    H118110   4.022   2.295   1.269
 6055TIP3    H218111   3.952   2.296   1.135
 6056TIP3   OH218112   6.442   7.496   0.330
 6056TIP3    H118113   6.386   7.449   0.268
 6056TIP3    H218114   6.384   7.560   0.372
 6057TIP3   OH218115   7.435   6.978   3.863
 6057TIP3    H118116   7.490   6.944   3.793
 6057TIP3    H218117   7.396   6.900   3.903
 6058TIP3   OH218118   3.287   1.625   6.073
 6058TIP3    H118119   3.328   1.593   6.153
 6058TIP3    H218120   3.246   1.547   6.034
 6059TIP3   OH218121   7.732   7.407   1.707
 6059TIP3    H118122   7.659   7.366   1.661
 6059TIP3    H218123   7.742   7.493   1.667
 6060TIP3   OH218124   7.909   3.598   6.687
 6060TIP3    H118125   7.919   3.509   6.654
 6060TIP3    H218126   7.843   3.638   6.630
 6061TIP3   OH218127   5.199   6.660   0.995
 6061TIP3    H118128   5.208   6.699   0.909
 6061TIP3    H218129   5.105   6.656   1.010
 6062TIP3   OH218130   7.068   2.483   4.102
 6062TIP3    H118131   7.027   2.404   4.067
 6062TIP3    H218132   7.133   2.451   4.164
 6063TIP3   OH218133   7.880   4.778   4.560
 6063TIP3    H118134   7.943   4.825   4.505
 6063TIP3    H218135   7.823   4.733   4.497
 6064TIP3   OH218136   1.400   0.616   5.091
 6064TIP3    H118137   1.325   0.676   5.093
 6064TIP3    H218138   1.361   0.530   5.107
 6065TIP3   OH218139   3.324   6.799   3.337
 6065TIP3    H118140   3.360   6.755   3.413
 6065TIP3    H218141   3.342   6.892   3.351
 6066TIP3   OH218142   3.378   1.666   1.021
 6066TIP3    H118143   3.454   1.700   0.975
 6066TIP3    H218144   3.379   1.710   1.106
 6067TIP3   OH218145   7.216   3.997   0.749
 6067TIP3    H118146   7.210   4.029   0.659
 6067TIP3    H218147   7.217   4.076   0.803
 6068TIP3   OH218148   6.148   6.522   6.354
 6068TIP3    H118149   6.188   6.542   6.439
 6068TIP3    H218150   6.095   6.598   6.333
 6069TIP3   OH218151   6.073   4.319   6.583
 6069TIP3    H118152   6.000   4.258   6.572
 6069TIP3    H218153   6.035   4.405   6.567
 6070TIP3   OH218154   6.809   7.186   0.765
 6070TIP3    H118155   6.751   7.155   0.695
 6070TIP3    H218156   6.823   7.279   0.744
 6071TIP3   OH218157   4.596   6.350   2.986
 6071TIP3    H118158   4.549   6.283   2.937
 6071TIP3    H218159   4.628   6.304   3.064
 6072TIP3   OH218160   7.603   2.264   1.093
 6072TIP3    H118161   7.603   2.351   1.056
 6072TIP3    H218162   7.683   2.260   1.146
 6073TIP3   OH218163   3.389   1.793   0.313
 6073TIP3    H118164   3.310   1.808   0.364
 6073TIP3    H218165   3.423   1.710   0.346
 6074TIP3   OH218166   7.266   6.934   3.125
 6074TIP3    H118167   7.263   6.875   3.049
 6074TIP3    H218168   7.185   6.984   3.120
 6075TIP3   OH218169   2.028   6.118   2.000
 6075TIP3    H118170   2.051   6.118   1.907
 6075TIP3    H218171   2.042   6.208   2.028
 6076TIP3   OH218172   4.006   3.000   0.054
 6076TIP3    H118173   4.003   3.064   0.125
 6076TIP3    H218174   4.098   3.000   0.026
 6077TIP3   OH218175   2.943   0.963   6.151
 6077TIP3    H118176   2.957   0.907   6.228
 6077TIP3    H218177   2.865   0.927   6.110
 6078TIP3   OH218178   0.535   5.999   4.984
 6078TIP3    H118179   0.549   6.060   5.056
 6078TIP3    H218180   0.599   6.024   4.918
 6079TIP3   OH218181   4.680   7.168   0.613
 6079TIP3    H118182   4.773   7.162   0.591
 6079TIP3    H218183   4.639   7.101   0.559
 6080TIP3   OH218184   2.172   5.708   6.401
 6080TIP3    H118185   2.137   5.788   6.439
 6080TIP3    H218186   2.170   5.644   6.472
 6081TIP3   OH218187   6.896   5.975   4.270
 6081TIP3    H118188   6.857   5.897   4.231
 6081TIP3    H218189   6.821   6.024   4.305
 6082TIP3   OH218190   1.618   3.192   5.517
 6082TIP3    H118191   1.659   3.196   5.603
 6082TIP3    H218192   1.531   3.156   5.533
 6083TIP3   OH218193   2.147   1.205   1.852
 6083TIP3    H118194   2.151   1.250   1.768
 6083TIP3    H218195   2.224   1.236   1.900
 6084TIP3   OH218196   5.449   0.166   1.215
 6084TIP3    H118197   5.398   0.096   1.175
 6084TIP3    H218198   5.538   0.153   1.182
 6085TIP3   OH218199   7.006   0.028   5.095
 6085TIP3    H118200   6.950  -0.015   5.160
 6085TIP3    H218201   7.068  -0.040   5.068
 6086TIP3   OH218202   3.663   4.377   2.949
 6086TIP3    H118203   3.757   4.379   2.929
 6086TIP3    H218204   3.627   4.311   2.889
 6087TIP3   OH218205   5.981   2.368   5.998
 6087TIP3    H118206   6.009   2.327   5.916
 6087TIP3    H218207   5.997   2.461   5.985
 6088TIP3   OH218208   3.373   3.983   2.118
 6088TIP3    H118209   3.345   4.066   2.081
 6088TIP3    H218210   3.292   3.935   2.135
 6089TIP3   OH218211   1.095   6.833   4.697
 6089TIP3    H118212   1.111   6.763   4.633
 6089TIP3    H218213   1.177   6.882   4.698
 6090TIP3   OH218214   7.797   6.621   1.864
 6090TIP3    H118215   7.711   6.583   1.882
 6090TIP3    H218216   7.815   6.676   1.941
 6091TIP3   OH218217   3.600   0.286   6.699
 6091TIP3    H118218   3.592   0.259   6.607
 6091TIP3    H218219   3.694   0.294   6.713
 6092TIP3   OH218220   1.973   3.059   2.925
 6092TIP3    H118221   2.026   2.989   2.889
 6092TIP3    H218222   1.899   3.066   2.865
 6093TIP3   OH218223   2.861   1.979   6.055
 6093TIP3    H118224   2.936   2.036   6.033
 6093TIP3    H218225   2.786   2.038   6.057
 6094TIP3   OH218226   2.437   3.818   6.524
 6094TIP3    H118227   2.362   3.833   6.466
 6094TIP3    H218228   2.509   3.864   6.481
 6095TIP3   OH218229   4.920   2.412   6.550
 6095TIP3    H118230   4.872   2.451   6.623
 6095TIP3    H218231   4.991   2.472   6.532
 6096TIP3   OH218232   1.460   6.043   1.915
 6096TIP3    H118233   1.366   6.058   1.909
 6096TIP3    H218234   1.475   6.021   2.007
 6097TIP3   OH218235   5.568   6.857   1.622
 6097TIP3    H118236   5.649   6.876   1.670
 6097TIP3    H218237   5.552   6.764   1.638
 6098TIP3   OH218238   2.284   4.348   0.480
 6098TIP3    H118239   2.308   4.440   0.478
 6098TIP3    H218240   2.264   4.330   0.571
 6099TIP3   OH218241   7.927   1.370   3.174
 6099TIP3    H118242   7.887   1.373   3.260
 6099TIP3    H218243   8.017   1.401   3.188
 6100TIP3   OH218244   3.556   1.458   3.996
 6100TIP3    H118245   3.478   1.427   3.951
 6100TIP3    H218246   3.525   1.534   4.047
 6101TIP3   OH218247   1.268   7.523   2.245
 6101TIP3    H118248   1.285   7.536   2.338
 6101TIP3    H218249   1.178   7.553   2.233
 6102TIP3   OH218250   5.699   7.555   3.020
 6102TIP3    H118251   5.784   7.553   2.976
 6102TIP3    H218252   5.693   7.471   3.065
 6103TIP3   OH218253   3.866   5.764   1.922
 6103TIP3    H118254   3.853   5.675   1.954
 6103TIP3    H218255   3.791   5.813   1.956
 6104TIP3   OH218256   7.430   6.881   4.827
 6104TIP3    H118257   7.412   6.927   4.746
 6104TIP3    H218258   7.383   6.931   4.894
 6105TIP3   OH218259   6.632   4.943   1.653
 6105TIP3    H118260   6.690   5.019   1.662
 6105TIP3    H218261   6.558   4.964   1.709
 6106TIP3   OH218262   4.016   1.365   1.720
 6106TIP3    H118263   4.079   1.296   1.702
 6106TIP3    H218264   3.991   1.399   1.634
 6107TIP3   OH218265   7.094   1.042   3.910
 6107TIP3    H118266   7.157   1.001   3.968
 6107TIP3    H218267   7.109   1.136   3.919
 6108TIP3   OH218268   5.838   7.462   4.058
 6108TIP3    H118269   5.777   7.530   4.088
 6108TIP3    H218270   5.791   7.380   4.073
 6109TIP3   OH218271   7.727   3.311   4.745
 6109TIP3    H118272   7.819   3.338   4.747
 6109TIP3    H218273   7.727   3.221   4.776
 6110TIP3   OH218274   5.725   6.727   5.441
 6110TIP3    H118275   5.679   6.644   5.452
 6110TIP3    H218276   5.655   6.792   5.429
 6111TIP3   OH218277   0.380   4.979   0.360
 6111TIP3    H118278   0.346   5.031   0.433
 6111TIP3    H218279   0.441   5.038   0.315
 6112TIP3   OH218280   1.596   4.829   0.234
 6112TIP3    H118281   1.503   4.822   0.258
 6112TIP3    H218282   1.622   4.916   0.264
 6113TIP3   OH218283   2.181   4.770   6.673
 6113TIP3    H118284   2.199   4.842   6.613
 6113TIP3    H218285   2.229   4.696   6.637
 6114TIP3   OH218286   4.274   5.860   5.520
 6114TIP3    H118287   4.293   5.954   5.516
 6114TIP3    H218288   4.315   5.831   5.601
 6115TIP3   OH218289   0.715   2.228   5.865
 6115TIP3    H118290   0.652   2.283   5.911
 6115TIP3    H218291   0.788   2.286   5.844
 6116TIP3   OH218292   5.304   3.781   3.807
 6116TIP3    H118293   5.384   3.788   3.859
 6116TIP3    H218294   5.250   3.854   3.837
 6117TIP3   OH218295   2.734   5.849   0.586
 6117TIP3    H118296   2.800   5.796   0.630
 6117TIP3    H218297   2.729   5.812   0.498
 6118TIP3   OH218298   4.928   4.641   4.779
 6118TIP3    H118299   4.926   4.547   4.795
 6118TIP3    H218300   4.863   4.655   4.709
 6119TIP3   OH218301   5.718   4.446   2.670
 6119TIP3    H118302   5.788   4.432   2.606
 6119TIP3    H218303   5.739   4.386   2.741
 6120TIP3   OH218304   5.522   6.268   0.952
 6120TIP3    H118305   5.460   6.216   0.901
 6120TIP3    H218306   5.468   6.333   0.998
 6121TIP3   OH218307   4.762   6.466   6.395
 6121TIP3    H118308   4.731   6.375   6.398
 6121TIP3    H218309   4.856   6.460   6.410
 6122TIP3   OH218310   1.086   3.149   1.092
 6122TIP3    H118311   1.029   3.111   1.026
 6122TIP3    H218312   1.030   3.159   1.169
 6123TIP3   OH218313   7.430   1.688   4.029
 6123TIP3    H118314   7.373   1.704   3.953
 6123TIP3    H218315   7.518   1.680   3.992
 6124TIP3   OH218316   1.944   2.424   1.083
 6124TIP3    H118317   1.881   2.480   1.129
 6124TIP3    H218318   1.911   2.335   1.098
 6125TIP3   OH218319   4.460   6.146   4.366
 6125TIP3    H118320   4.535   6.199   4.337
 6125TIP3    H218321   4.488   6.056   4.350
 6126TIP3   OH218322   2.614   1.959   5.657
 6126TIP3    H118323   2.648   2.047   5.674
 6126TIP3    H218324   2.544   1.973   5.594
 6127TIP3   OH218325   2.390   2.078   0.538
 6127TIP3    H118326   2.478   2.055   0.566
 6127TIP3    H218327   2.334   2.009   0.572
 6128TIP3   OH218328   6.666   5.904   2.779
 6128TIP3    H118329   6.713   5.820   2.782
 6128TIP3    H218330   6.573   5.879   2.781
 6129TIP3   OH218331   1.712   5.869   1.985
 6129TIP3    H118332   1.698   5.888   1.892
 6129TIP3    H218333   1.803   5.838   1.990
 6130TIP3   OH218334   4.467   3.930   5.571
 6130TIP3    H118335   4.524   3.864   5.612
 6130TIP3    H218336   4.399   3.880   5.527
 6131TIP3   OH218337   5.420   0.034   2.339
 6131TIP3    H118338   5.387  -0.054   2.322
 6131TIP3    H218339   5.372   0.063   2.416
 6132TIP3   OH218340   5.406   7.152   6.162
 6132TIP3    H118341   5.393   7.066   6.202
 6132TIP3    H218342   5.494   7.178   6.188
 6133TIP3   OH218343   5.888   1.644   6.705
 6133TIP3    H118344   5.793   1.654   6.713
 6133TIP3    H218345   5.913   1.705   6.636
 6134TIP3   OH218346   2.673   2.725   0.728
 6134TIP3    H118347   2.645   2.768   0.647
 6134TIP3    H218348   2.731   2.788   0.770
 6135TIP3   OH218349   7.755   2.262   4.879
 6135TIP3    H118350   7.678   2.280   4.933
 6135TIP3    H218351   7.720   2.249   4.791
 6136TIP3   OH218352   0.806   5.016   2.288
 6136TIP3    H118353   0.834   5.000   2.378
 6136TIP3    H218354   0.868   4.967   2.234
 6137TIP3   OH218355   6.764   3.935   1.616
 6137TIP3    H118356   6.736   3.863   1.560
 6137TIP3    H218357   6.826   3.895   1.677
 6138TIP3   OH218358   1.342   4.184   1.816
 6138TIP3    H118359   1.313   4.094   1.798
 6138TIP3    H218360   1.426   4.173   1.860
 6139TIP3   OH218361   3.489   2.377   1.351
 6139TIP3    H118362   3.517   2.467   1.370
 6139TIP3    H218363   3.527   2.359   1.265
 6140TIP3   OH218364   8.108   3.287   2.771
 6140TIP3    H118365   8.156   3.209   2.741
 6140TIP3    H218366   8.050   3.255   2.839
 6141TIP3   OH218367   4.704   4.406   0.110
 6141TIP3    H118368   4.785   4.371   0.149
 6141TIP3    H218369   4.696   4.360   0.027
 6142TIP3   OH218370   5.476   6.445   2.985
 6142TIP3    H118371   5.528   6.365   2.990
 6142TIP3    H218372   5.413   6.437   3.056
 6143TIP3   OH218373   0.788   0.006   6.110
 6143TIP3    H118374   0.728  -0.069   6.104
 6143TIP3    H218375   0.747   0.063   6.176
 6144TIP3   OH218376   7.035   5.958   1.140
 6144TIP3    H118377   7.048   6.041   1.185
 6144TIP3    H218378   6.944   5.935   1.158
 6145TIP3   OH218379   3.167   6.492   0.648
 6145TIP3    H118380   3.195   6.400   0.647
 6145TIP3    H218381   3.248   6.542   0.647
 6146TIP3   OH218382   2.172   6.480   5.070
 6146TIP3    H118383   2.246   6.474   5.010
 6146TIP3    H218384   2.120   6.553   5.037
 6147TIP3   OH218385   2.114   6.050   4.863
 6147TIP3    H118386   2.046   5.994   4.825
 6147TIP3    H218387   2.121   6.020   4.954
 6148TIP3   OH218388   1.409   5.438   1.094
 6148TIP3    H118389   1.438   5.520   1.132
 6148TIP3    H218390   1.376   5.387   1.168
 6149TIP3   OH218391   1.245   3.962   6.091
 6149TIP3    H118392   1.315   3.896   6.088
 6149TIP3    H218393   1.276   4.026   6.155
 6150TIP3   OH218394   5.929   0.570   0.740
 6150TIP3    H118395   5.915   0.489   0.692
 6150TIP3    H218396   6.017   0.598   0.714
 6151TIP3   OH218397   6.480   0.590   0.923
 6151TIP3    H118398   6.529   0.632   0.993
 6151TIP3    H218399   6.528   0.509   0.905
 6152TIP3   OH218400   7.241   6.021   0.941
 6152TIP3    H118401   7.250   5.950   0.878
 6152TIP3    H218402   7.170   5.994   0.999
 6153TIP3   OH218403   3.120   5.119   6.022
 6153TIP3    H118404   3.189   5.091   6.082
 6153TIP3    H218405   3.142   5.209   6.000
 6154TIP3   OH218406   4.811   1.894   0.208
 6154TIP3    H118407   4.748   1.965   0.191
 6154TIP3    H218408   4.772   1.817   0.167
 6155TIP3   OH218409   0.816   6.228   5.682
 6155TIP3    H118410   0.857   6.272   5.757
 6155TIP3    H218411   0.807   6.296   5.616
 6156TIP3   OH218412   6.960   7.709   1.462
 6156TIP3    H118413   7.041   7.678   1.501
 6156TIP3    H218414   6.981   7.720   1.369
 6157TIP3   OH218415   8.021   7.699   1.866
 6157TIP3    H118416   8.025   7.629   1.801
 6157TIP3    H218417   8.095   7.756   1.845
 6158TIP3   OH218418   5.690   5.573   0.997
 6158TIP3    H118419   5.765   5.521   1.023
 6158TIP3    H218420   5.620   5.547   1.058
 6159TIP3   OH218421   0.288   1.629   2.004
 6159TIP3    H118422   0.372   1.612   2.048
 6159TIP3    H218423   0.242   1.545   2.007
 6160TIP3   OH218424   7.322   0.211   0.785
 6160TIP3    H118425   7.314   0.124   0.823
 6160TIP3    H218426   7.345   0.268   0.858
 6161TIP3   OH218427   6.323   4.041   3.534
 6161TIP3    H118428   6.400   4.065   3.482
 6161TIP3    H218429   6.343   3.953   3.567
 6162TIP3   OH218430   0.365   2.061   2.764
 6162TIP3    H118431   0.396   2.151   2.753
 6162TIP3    H218432   0.274   2.064   2.734
 6163TIP3   OH218433   0.360   1.464   3.196
 6163TIP3    H118434   0.362   1.383   3.145
 6163TIP3    H218435   0.426   1.519   3.157
 6164TIP3   OH218436   2.581   4.357   6.231
 6164TIP3    H118437   2.610   4.447   6.241
 6164TIP3    H218438   2.645   4.318   6.171
 6165TIP3   OH218439   5.909   3.247   1.693
 6165TIP3    H118440   5.994   3.204   1.702
 6165TIP3    H218441   5.912   3.288   1.607
 6166TIP3   OH218442  -0.006   0.507   1.759
 6166TIP3    H118443   0.082   0.498   1.722
 6166TIP3    H218444  -0.021   0.602   1.760
 6167TIP3   OH218445   7.688   3.696   6.464
 6167TIP3    H118446   7.736   3.620   6.431
 6167TIP3    H218447   7.752   3.767   6.463
 6168TIP3   OH218448   3.120   7.742   5.708
 6168TIP3    H118449   3.077   7.720   5.625
 6168TIP3    H218450   3.089   7.676   5.770
 6169TIP3   OH218451   7.985   0.668   2.547
 6169TIP3    H118452   8.070   0.710   2.547
 6169TIP3    H218453   7.970   0.643   2.638
 6170TIP3   OH218454   5.033   6.908   0.528
 6170TIP3    H118455   4.990   6.987   0.496
 6170TIP3    H218456   5.035   6.918   0.623
 6171TIP3   OH218457   0.473   5.318   4.570
 6171TIP3    H118458   0.487   5.226   4.546
 6171TIP3    H218459   0.378   5.329   4.569
 6172TIP3   OH218460   0.705   5.309   5.023
 6172TIP3    H118461   0.689   5.246   4.953
 6172TIP3    H218462   0.748   5.258   5.092
 6173TIP3   OH218463   6.588   6.753   5.016
 6173TIP3    H118464   6.674   6.736   4.976
 6173TIP3    H218465   6.536   6.675   4.993
 6174TIP3   OH218466   4.281   0.215   1.669
 6174TIP3    H118467   4.268   0.235   1.762
 6174TIP3    H218468   4.245   0.127   1.659
 6175TIP3   OH218469   5.626   0.361   0.376
 6175TIP3    H118470   5.565   0.290   0.389
 6175TIP3    H218471   5.586   0.436   0.420
 6176TIP3   OH218472   0.610   5.666   3.700
 6176TIP3    H118473   0.567   5.751   3.698
 6176TIP3    H218474   0.603   5.637   3.792
 6177TIP3   OH218475   4.379   2.229   4.413
 6177TIP3    H118476   4.336   2.148   4.441
 6177TIP3    H218477   4.350   2.295   4.476
 6178TIP3   OH218478   3.579  -0.041   1.980
 6178TIP3    H118479   3.647  -0.004   1.923
 6178TIP3    H218480   3.622  -0.053   2.065
 6179TIP3   OH218481   4.270   1.530   0.238
 6179TIP3    H118482   4.232   1.553   0.153
 6179TIP3    H218483   4.331   1.459   0.218
 6180TIP3   OH218484   1.856   3.618   1.670
 6180TIP3    H118485   1.851   3.622   1.575
 6180TIP3    H218486   1.770   3.584   1.697
 6181TIP3   OH218487   5.336   5.944   1.587
 6181TIP3    H118488   5.394   5.953   1.512
 6181TIP3    H218489   5.373   6.002   1.653
 6182TIP3   OH218490   3.530   5.833   2.934
 6182TIP3    H118491   3.615   5.791   2.948
 6182TIP3    H218492   3.542   5.923   2.964
 6183TIP3   OH218493   3.031   1.719   3.720
 6183TIP3    H118494   3.072   1.801   3.692
 6183TIP3    H218495   3.097   1.676   3.774
 6184TIP3   OH218496   6.977   0.425   6.737
 6184TIP3    H118497   6.959   0.357   6.802
 6184TIP3    H218498   6.907   0.490   6.751
 6185TIP3   OH218499   6.323   6.456   0.734
 6185TIP3    H118500   6.233   6.442   0.706
 6185TIP3    H218501   6.342   6.383   0.792
 6186TIP3   OH218502   8.007   3.448   4.754
 6186TIP3    H118503   8.089   3.471   4.797
 6186TIP3    H218504   7.957   3.530   4.753
 6187TIP3   OH218505   6.387   5.676   1.837
 6187TIP3    H118506   6.442   5.754   1.832
 6187TIP3    H218507   6.410   5.636   1.922
 6188TIP3   OH218508   5.553   6.351   3.331
 6188TIP3    H118509   5.621   6.343   3.264
 6188TIP3    H218510   5.600   6.377   3.410
 6189TIP3   OH218511   5.718   6.823   2.004
 6189TIP3    H118512   5.732   6.826   1.909
 6189TIP3    H218513   5.630   6.786   2.014
 6190TIP3   OH218514   4.718   5.204   5.088
 6190TIP3    H118515   4.678   5.203   5.175
 6190TIP3    H218516   4.653   5.248   5.032
 6191TIP3   OH218517   3.107   7.481   1.199
 6191TIP3    H118518   3.042   7.533   1.246
 6191TIP3    H218519   3.161   7.546   1.154
 6192TIP3   OH218520   7.707   6.457   3.066
 6192TIP3    H118521   7.675   6.510   3.138
 6192TIP3    H218522   7.628   6.428   3.021
 6193TIP3   OH218523   4.565   1.519   3.318
 6193TIP3    H118524   4.580   1.443   3.261
 6193TIP3    H218525   4.514   1.484   3.390
 6194TIP3   OH218526   4.421   0.281   4.477
 6194TIP3    H118527   4.463   0.360   4.511
 6194TIP3    H218528   4.484   0.211   4.496
 6195TIP3   OH218529   3.701   7.790   4.117
 6195TIP3    H118530   3.666   7.731   4.183
 6195TIP3    H218531   3.721   7.871   4.164
 6196TIP3   OH218532   6.581   4.127   5.653
 6196TIP3    H118533   6.576   4.166   5.740
 6196TIP3    H218534   6.673   4.108   5.640
 6197TIP3   OH218535   2.812   0.534   1.895
 6197TIP3    H118536   2.841   0.621   1.868
 6197TIP3    H218537   2.891   0.481   1.895
 6198TIP3   OH218538   5.904   6.392   0.257
 6198TIP3    H118539   5.876   6.307   0.222
 6198TIP3    H218540   5.831   6.421   0.311
 6199TIP3   OH218541   7.338   0.999   5.623
 6199TIP3    H118542   7.354   1.062   5.553
 6199TIP3    H218543   7.259   1.031   5.666
 6200TIP3   OH218544   6.313   3.195   3.151
 6200TIP3    H118545   6.293   3.102   3.151
 6200TIP3    H218546   6.287   3.225   3.063
 6201TIP3   OH218547   7.653   6.778   4.082
 6201TIP3    H118548   7.705   6.786   4.003
 6201TIP3    H218549   7.679   6.693   4.119
 6202TIP3   OH218550   0.609   6.901   5.462
 6202TIP3    H118551   0.664   6.837   5.506
 6202TIP3    H218552   0.575   6.956   5.533
 6203TIP3   OH218553   0.896   1.927   0.601
 6203TIP3    H118554   0.885   2.005   0.547
 6203TIP3    H218555   0.933   1.959   0.683
 6204TIP3   OH218556   3.977   6.895   4.582
 6204TIP3    H118557   4.059   6.928   4.544
 6204TIP3    H218558   3.948   6.827   4.521
 6205TIP3   OH218559   7.800   6.629   3.499
 6205TIP3    H118560   7.757   6.605   3.581
 6205TIP3    H218561   7.884   6.584   3.501
 6206TIP3   OH218562   6.557   0.917   2.227
 6206TIP3    H118563   6.609   0.880   2.299
 6206TIP3    H218564   6.620   0.929   2.156
 6207TIP3   OH218565   3.683   7.399   5.983
 6207TIP3    H118566   3.719   7.381   5.896
 6207TIP3    H218567   3.757   7.384   6.043
 6208TIP3   OH218568   4.207   7.252   0.890
 6208TIP3    H118569   4.212   7.207   0.806
 6208TIP3    H218570   4.182   7.342   0.867
 6209TIP3   OH218571   7.231   1.519   0.696
 6209TIP3    H118572   7.187   1.449   0.647
 6209TIP3    H218573   7.241   1.484   0.784
 6210TIP3   OH218574   0.275   7.085   4.988
 6210TIP3    H118575   0.326   7.143   4.932
 6210TIP3    H218576   0.236   7.022   4.928
 6211TIP3   OH218577   8.130   1.200   4.001
 6211TIP3    H118578   8.179   1.180   3.922
 6211TIP3    H218579   8.184   1.168   4.072
 6212TIP3   OH218580   0.024   7.515   2.896
 6212TIP3    H118581   0.042   7.451   2.965
 6212TIP3    H218582   0.093   7.500   2.831
 6213TIP3   OH218583   0.333   0.277   0.165
 6213TIP3    H118584   0.345   0.355   0.112
 6213TIP3    H218585   0.275   0.304   0.236
 6214TIP3   OH218586   1.519   1.199   2.174
 6214TIP3    H118587   1.435   1.234   2.202
 6214TIP3    H218588   1.537   1.126   2.234
 6215TIP3   OH218589   4.647   3.416   6.479
 6215TIP3    H118590   4.613   3.461   6.402
 6215TIP3    H218591   4.650   3.484   6.547
 6216TIP3   OH218592   5.557   7.210   3.344
 6216TIP3    H118593   5.481   7.152   3.334
 6216TIP3    H218594   5.567   7.221   3.439
 6217TIP3   OH218595   8.154   6.444   2.460
 6217TIP3    H118596   8.072   6.411   2.423
 6217TIP3    H218597   8.217   6.373   2.445
 6218TIP3   OH218598   5.111   7.741   5.631
 6218TIP3    H118599   5.045   7.684   5.669
 6218TIP3    H218600   5.164   7.682   5.576
 6219TIP3   OH218601   3.863   6.795   0.516
 6219TIP3    H118602   3.769   6.784   0.523
 6219TIP3    H218603   3.900   6.716   0.556
 6220TIP3   OH218604   5.606   7.311   3.075
 6220TIP3    H118605   5.544   7.253   3.030
 6220TIP3    H218606   5.677   7.253   3.102
 6221TIP3   OH218607   3.137   2.797   2.741
 6221TIP3    H118608   3.173   2.883   2.722
 6221TIP3    H218609   3.098   2.769   2.658
 6222TIP3   OH218610   4.813   1.317   1.994
 6222TIP3    H118611   4.821   1.234   1.947
 6222TIP3    H218612   4.745   1.365   1.946
 6223TIP3   OH218613   0.094   1.635   5.831
 6223TIP3    H118614   0.176   1.599   5.797
 6223TIP3    H218615   0.048   1.559   5.867
 6224TIP3   OH218616   3.277   1.880   5.847
 6224TIP3    H118617   3.280   1.793   5.809
 6224TIP3    H218618   3.368   1.911   5.846
 6225TIP3   OH218619   0.143   2.422   2.664
 6225TIP3    H118620   0.147   2.334   2.628
 6225TIP3    H218621   0.147   2.479   2.587
 6226TIP3   OH218622   6.316   4.524   2.755
 6226TIP3    H118623   6.378   4.495   2.822
 6226TIP3    H218624   6.260   4.447   2.740
 6227TIP3   OH218625   2.951   2.033   2.448
 6227TIP3    H118626   2.859   2.039   2.473
 6227TIP3    H218627   2.983   1.954   2.491
 6228TIP3   OH218628   7.444   2.714   2.244
 6228TIP3    H118629   7.520   2.761   2.210
 6228TIP3    H218630   7.383   2.710   2.170
 6229TIP3   OH218631   6.687   6.505   5.449
 6229TIP3    H118632   6.712   6.598   5.446
 6229TIP3    H218633   6.597   6.504   5.414
 6230TIP3   OH218634   4.057   5.978   6.371
 6230TIP3    H118635   4.005   6.057   6.389
 6230TIP3    H218636   3.994   5.906   6.378
 6231TIP3   OH218637   6.074   1.314   4.179
 6231TIP3    H118638   6.167   1.325   4.199
 6231TIP3    H218639   6.039   1.403   4.177
 6232TIP3   OH218640   4.312   5.927   2.286
 6232TIP3    H118641   4.310   5.898   2.195
 6232TIP3    H218642   4.265   5.860   2.334
 6233TIP3   OH218643   2.873   7.285   1.261
 6233TIP3    H118644   2.802   7.344   1.284
 6233TIP3    H218645   2.942   7.341   1.227
 6234TIP3   OH218646   1.209   5.753   1.102
 6234TIP3    H118647   1.122   5.732   1.068
 6234TIP3    H218648   1.227   5.683   1.165
 6235TIP3   OH218649   3.599   2.628   1.289
 6235TIP3    H118650   3.690   2.621   1.263
 6235TIP3    H218651   3.584   2.722   1.301
 6236TIP3   OH218652   7.938   2.395   4.245
 6236TIP3    H118653   7.886   2.346   4.309
 6236TIP3    H218654   8.018   2.342   4.234
 6237TIP3   OH218655   2.059   1.115   1.048
 6237TIP3    H118656   2.037   1.162   0.968
 6237TIP3    H218657   2.143   1.073   1.030
 6238TIP3   OH218658   3.509   2.470   4.995
 6238TIP3    H118659   3.575   2.401   4.987
 6238TIP3    H218660   3.529   2.530   4.924
 6239TIP3   OH218661   4.730   5.216   2.205
 6239TIP3    H118662   4.681   5.171   2.274
 6239TIP3    H218663   4.706   5.171   2.125
 6240TIP3   OH218664   4.744   1.265   4.609
 6240TIP3    H118665   4.809   1.214   4.560
 6240TIP3    H218666   4.676   1.202   4.631
 6241TIP3   OH218667   8.135   2.589   3.070
 6241TIP3    H118668   8.143   2.558   3.161
 6241TIP3    H218669   8.205   2.542   3.023
 6242TIP3   OH218670   5.552   3.061   2.241
 6242TIP3    H118671   5.518   3.076   2.153
 6242TIP3    H218672   5.596   3.143   2.264
 6243TIP3   OH218673   2.975   2.302   6.221
 6243TIP3    H118674   2.933   2.386   6.203
 6243TIP3    H218675   2.903   2.244   6.247
 6244TIP3   OH218676   3.971   3.651   4.230
 6244TIP3    H118677   3.994   3.638   4.322
 6244TIP3    H218678   4.045   3.614   4.181
 6245TIP3   OH218679   0.506   2.650   2.532
 6245TIP3    H118680   0.459   2.724   2.494
 6245TIP3    H218681   0.461   2.573   2.500
 6246TIP3   OH218682   1.400   2.491   0.260
 6246TIP3    H118683   1.460   2.441   0.204
 6246TIP3    H218684   1.444   2.492   0.346
 6247TIP3   OH218685   4.362   3.651   3.059
 6247TIP3    H118686   4.326   3.738   3.077
 6247TIP3    H218687   4.366   3.608   3.144
 6248TIP3   OH218688   8.125   3.587   0.275
 6248TIP3    H118689   8.032   3.566   0.268
 6248TIP3    H218690   8.139   3.653   0.207
 6249TIP3   OH218691   7.395   1.687   5.527
 6249TIP3    H118692   7.338   1.650   5.460
 6249TIP3    H218693   7.433   1.765   5.485
 6250TIP3   OH218694   5.597   1.466   0.520
 6250TIP3    H118695   5.585   1.437   0.430
 6250TIP3    H218696   5.615   1.559   0.514
 6251TIP3   OH218697   3.677   3.498   1.644
 6251TIP3    H118698   3.705   3.491   1.735
 6251TIP3    H218699   3.746   3.549   1.601
 6252TIP3   OH218700   0.633   4.130   1.990
 6252TIP3    H118701   0.589   4.172   2.064
 6252TIP3    H218702   0.710   4.185   1.974
 6253TIP3   OH218703   4.341   5.789   5.759
 6253TIP3    H118704   4.347   5.702   5.798
 6253TIP3    H218705   4.322   5.847   5.833
 6254TIP3   OH218706   5.597   2.162   1.541
 6254TIP3    H118707   5.537   2.177   1.615
 6254TIP3    H218708   5.548   2.104   1.482
 6255TIP3   OH218709   1.371   4.727   2.300
 6255TIP3    H118710   1.379   4.657   2.235
 6255TIP3    H218711   1.396   4.807   2.253
 6256TIP3   OH218712   4.285   2.857   2.865
 6256TIP3    H118713   4.282   2.950   2.886
 6256TIP3    H218714   4.208   2.842   2.810
 6257TIP3   OH218715   4.380   1.117   4.907
 6257TIP3    H118716   4.349   1.077   4.988
 6257TIP3    H218717   4.415   1.045   4.856
 6258TIP3   OH218718   2.200   5.628   6.659
 6258TIP3    H118719   2.242   5.555   6.705
 6258TIP3    H218720   2.253   5.704   6.680
 6259TIP3   OH218721   0.751   3.490   1.171
 6259TIP3    H118722   0.812   3.466   1.101
 6259TIP3    H218723   0.664   3.482   1.131
 6260TIP3   OH218724   6.655   5.115   6.564
 6260TIP3    H118725   6.736   5.063   6.563
 6260TIP3    H218726   6.607   5.083   6.641
 6261TIP3   OH218727   3.111   2.879   5.184
 6261TIP3    H118728   3.070   2.965   5.181
 6261TIP3    H218729   3.147   2.871   5.272
 6262TIP3   OH218730   1.786   7.538   6.136
 6262TIP3    H118731   1.797   7.450   6.172
 6262TIP3    H218732   1.840   7.594   6.192
 6263TIP3   OH218733   0.181   5.993   2.228
 6263TIP3    H118734   0.202   6.085   2.212
 6263TIP3    H218735   0.215   5.976   2.316
 6264TIP3   OH218736   7.022   7.286   6.142
 6264TIP3    H118737   7.011   7.214   6.204
 6264TIP3    H218738   6.975   7.258   6.064
 6265TIP3   OH218739   2.694   0.615   3.633
 6265TIP3    H118740   2.741   0.641   3.712
 6265TIP3    H218741   2.649   0.695   3.605
 6266TIP3   OH218742   5.936   1.160   2.041
 6266TIP3    H118743   5.974   1.073   2.048
 6266TIP3    H218744   5.999   1.217   2.084
 6267TIP3   OH218745   7.709   7.707   3.701
 6267TIP3    H118746   7.737   7.641   3.764
 6267TIP3    H218747   7.624   7.676   3.670
 6268TIP3   OH218748   2.575   1.247   3.414
 6268TIP3    H118749   2.628   1.218   3.487
 6268TIP3    H218750   2.556   1.168   3.364
 6269TIP3   OH218751   1.164   0.711   2.469
 6269TIP3    H118752   1.218   0.740   2.541
 6269TIP3    H218753   1.103   0.647   2.508
 6270TIP3   OH218754   6.093   0.266   5.495
 6270TIP3    H118755   6.002   0.266   5.525
 6270TIP3    H218756   6.108   0.355   5.465
 6271TIP3   OH218757   8.194   2.461   5.975
 6271TIP3    H118758   8.098   2.459   5.986
 6271TIP3    H218759   8.228   2.448   6.063
 6272TIP3   OH218760   2.400   6.356   1.466
 6272TIP3    H118761   2.342   6.426   1.438
 6272TIP3    H218762   2.384   6.348   1.560
 6273TIP3   OH218763   5.740   0.264   4.847
 6273TIP3    H118764   5.763   0.198   4.782
 6273TIP3    H218765   5.820   0.314   4.861
 6274TIP3   OH218766   0.572   2.644   3.967
 6274TIP3    H118767   0.579   2.577   3.900
 6274TIP3    H218768   0.638   2.621   4.032
 6275TIP3   OH218769   2.942   0.110   1.270
 6275TIP3    H118770   2.970   0.147   1.354
 6275TIP3    H218771   2.860   0.155   1.251
 6276TIP3   OH218772   1.258   5.301   0.768
 6276TIP3    H118773   1.211   5.379   0.797
 6276TIP3    H218774   1.349   5.329   0.760
 6277TIP3   OH218775   6.958   2.922   2.980
 6277TIP3    H118776   7.024   2.883   2.921
 6277TIP3    H218777   7.003   2.931   3.064
 6278TIP3   OH218778   0.328   1.542   5.723
 6278TIP3    H118779   0.353   1.632   5.742
 6278TIP3    H218780   0.410   1.497   5.703
 6279TIP3   OH218781   0.394   0.280   4.707
 6279TIP3    H118782   0.427   0.221   4.639
 6279TIP3    H218783   0.312   0.240   4.737
 6280TIP3   OH218784   6.097   1.540   1.759
 6280TIP3    H118785   6.004   1.519   1.768
 6280TIP3    H218786   6.138   1.457   1.732
 6281TIP3   OH218787   7.395   4.385   0.204
 6281TIP3    H118788   7.488   4.411   0.204
 6281TIP3    H218789   7.349   4.465   0.179
 6282TIP3   OH218790   8.126   7.328   0.116
 6282TIP3    H118791   8.047   7.290   0.155
 6282TIP3    H218792   8.129   7.292   0.028
 6283TIP3   OH218793   5.830   7.736   4.736
 6283TIP3    H118794   5.915   7.709   4.772
 6283TIP3    H218795   5.828   7.699   4.648
 6284TIP3   OH218796   5.843   6.964   6.247
 6284TIP3    H118797   5.750   6.956   6.266
 6284TIP3    H218798   5.861   7.058   6.257
 6285TIP3   OH218799   6.052   7.545   5.165
 6285TIP3    H118800   6.051   7.465   5.112
 6285TIP3    H218801   6.135   7.587   5.143
 6286TIP3   OH218802   2.691   0.953   2.508
 6286TIP3    H118803   2.599   0.977   2.518
 6286TIP3    H218804   2.736   1.035   2.488
 6287TIP3   OH218805   0.223   2.472   6.363
 6287TIP3    H118806   0.240   2.381   6.385
 6287TIP3    H218807   0.306   2.517   6.379
 6288TIP3   OH218808   2.779   0.236   1.038
 6288TIP3    H118809   2.709   0.171   1.028
 6288TIP3    H218810   2.759   0.280   1.120
 6289TIP3   OH218811   1.839   6.783   4.842
 6289TIP3    H118812   1.752   6.820   4.853
 6289TIP3    H218813   1.824   6.690   4.828
 6290TIP3   OH218814   3.795   3.604   0.612
 6290TIP3    H118815   3.700   3.616   0.617
 6290TIP3    H218816   3.830   3.691   0.593
 6291TIP3   OH218817   1.252   1.546   2.639
 6291TIP3    H118818   1.254   1.628   2.688
 6291TIP3    H218819   1.330   1.548   2.584
 6292TIP3   OH218820   3.709   6.926   1.512
 6292TIP3    H118821   3.785   6.916   1.569
 6292TIP3    H218822   3.686   7.019   1.517
 6293TIP3   OH218823   3.948   4.178   1.083
 6293TIP3    H118824   3.859   4.163   1.115
 6293TIP3    H218825   3.981   4.250   1.137
 6294TIP3   OH218826   1.490   7.457   6.275
 6294TIP3    H118827   1.427   7.454   6.347
 6294TIP3    H218828   1.560   7.398   6.303
 6295TIP3   OH218829   2.142   3.393   0.017
 6295TIP3    H118830   2.060   3.431   0.048
 6295TIP3    H218831   2.123   3.365  -0.072
 6296TIP3   OH218832   4.493   4.003   1.467
 6296TIP3    H118833   4.549   4.072   1.500
 6296TIP3    H218834   4.416   4.048   1.432
 6297TIP3   OH218835   6.777   3.346   2.377
 6297TIP3    H118836   6.767   3.274   2.439
 6297TIP3    H218837   6.691   3.354   2.336
 6298TIP3   OH218838   7.886   0.671   4.881
 6298TIP3    H118839   7.804   0.647   4.924
 6298TIP3    H218840   7.949   0.677   4.953
 6299TIP3   OH218841   5.512   5.289   3.385
 6299TIP3    H118842   5.496   5.211   3.332
 6299TIP3    H218843   5.594   5.325   3.351
 6300TIP3   OH218844   8.116   5.792   2.623
 6300TIP3    H118845   8.064   5.870   2.604
 6300TIP3    H218846   8.093   5.769   2.713
 6301TIP3   OH218847   2.363   3.883   2.518
 6301TIP3    H118848   2.310   3.952   2.556
 6301TIP3    H218849   2.404   3.840   2.594
 6302TIP3   OH218850   4.987   0.346   4.273
 6302TIP3    H118851   4.982   0.323   4.366
 6302TIP3    H218852   4.931   0.423   4.264
 6303TIP3   OH218853   3.925   2.125   5.162
 6303TIP3    H118854   3.894   2.056   5.103
 6303TIP3    H218855   4.020   2.114   5.163
 6304TIP3   OH218856   3.075   3.081   1.773
 6304TIP3    H118857   3.048   2.998   1.812
 6304TIP3    H218858   3.110   3.057   1.687
 6305TIP3   OH218859   8.213   0.356   2.581
 6305TIP3    H118860   8.121   0.335   2.565
 6305TIP3    H218861   8.227   0.331   2.673
 6306TIP3   OH218862   6.689   6.768   2.272
 6306TIP3    H118863   6.602   6.730   2.259
 6306TIP3    H218864   6.743   6.730   2.203
 6307TIP3   OH218865   3.885   1.129   2.421
 6307TIP3    H118866   3.933   1.193   2.474
 6307TIP3    H218867   3.831   1.081   2.484
 6308TIP3   OH218868   6.265   6.254   0.059
 6308TIP3    H118869   6.303   6.327   0.009
 6308TIP3    H218870   6.170   6.265   0.049
 6309TIP3   OH218871   6.991   4.448   3.907
 6309TIP3    H118872   7.045   4.522   3.936
 6309TIP3    H218873   6.986   4.458   3.812
 6310TIP3   OH218874   7.612   5.157   4.594
 6310TIP3    H118875   7.683   5.190   4.649
 6310TIP3    H218876   7.548   5.123   4.656
 6311TIP3   OH218877   7.013   6.790   2.584
 6311TIP3    H118878   7.003   6.712   2.639
 6311TIP3    H218879   6.923   6.816   2.563
 6312TIP3   OH218880   6.054   1.277   4.701
 6312TIP3    H118881   5.969   1.251   4.737
 6312TIP3    H218882   6.032   1.311   4.613
 6313TIP3   OH218883   1.751   2.202   3.073
 6313TIP3    H118884   1.812   2.253   3.019
 6313TIP3    H218885   1.806   2.136   3.115
 6314TIP3   OH218886   7.736   7.131   0.139
 6314TIP3    H118887   7.657   7.161   0.183
 6314TIP3    H218888   7.713   7.132   0.046
 6315TIP3   OH218889   0.129   7.343   3.598
 6315TIP3    H118890   0.153   7.286   3.671
 6315TIP3    H218891   0.206   7.343   3.541
 6316TIP3   OH218892   6.390   0.265   0.743
 6316TIP3    H118893   6.476   0.306   0.752
 6316TIP3    H218894   6.335   0.334   0.705
 6317TIP3   OH218895   6.813   2.394   6.244
 6317TIP3    H118896   6.754   2.469   6.245
 6317TIP3    H218897   6.824   2.374   6.151
 6318TIP3   OH218898   7.358   0.405   1.557
 6318TIP3    H118899   7.432   0.357   1.520
 6318TIP3    H218900   7.397   0.480   1.601
 6319TIP3   OH218901   7.294   3.452   4.962
 6319TIP3    H118902   7.249   3.445   5.047
 6319TIP3    H218903   7.343   3.534   4.969
 6320TIP3   OH218904   1.930   2.062   0.575
 6320TIP3    H118905   2.014   2.097   0.545
 6320TIP3    H218906   1.945   2.041   0.668
 6321TIP3   OH218907   0.658   5.054   0.250
 6321TIP3    H118908   0.726   5.038   0.316
 6321TIP3    H218909   0.706   5.056   0.167
 6322TIP3   OH218910   1.760   4.829   6.396
 6322TIP3    H118911   1.715   4.747   6.376
 6322TIP3    H218912   1.715   4.862   6.474
 6323TIP3   OH218913   6.353   3.032   3.740
 6323TIP3    H118914   6.305   3.041   3.658
 6323TIP3    H218915   6.428   3.091   3.731
 6324TIP3   OH218916   5.983   5.887   0.554
 6324TIP3    H118917   5.978   5.947   0.629
 6324TIP3    H218918   6.056   5.921   0.501
 6325TIP3   OH218919   3.804   7.449   5.734
 6325TIP3    H118920   3.857   7.512   5.782
 6325TIP3    H218921   3.868   7.393   5.689
 6326TIP3   OH218922   4.452   4.908   6.437
 6326TIP3    H118923   4.473   4.904   6.344
 6326TIP3    H218924   4.379   4.847   6.449
 6327TIP3   OH218925   6.761   6.561   4.206
 6327TIP3    H118926   6.741   6.513   4.286
 6327TIP3    H218927   6.690   6.624   4.196
 6328TIP3   OH218928   4.437   1.036   1.282
 6328TIP3    H118929   4.442   1.002   1.193
 6328TIP3    H218930   4.499   1.109   1.284
 6329TIP3   OH218931   0.053   0.894   0.106
 6329TIP3    H118932  -0.008   0.867   0.174
 6329TIP3    H218933   0.133   0.845   0.126
 6330TIP3   OH218934   5.291   3.584   1.171
 6330TIP3    H118935   5.199   3.607   1.181
 6330TIP3    H218936   5.316   3.619   1.086
 6331TIP3   OH218937   8.120   6.083   4.873
 6331TIP3    H118938   8.101   5.994   4.844
 6331TIP3    H218939   8.188   6.073   4.940
 6332TIP3   OH218940   0.410   1.023   2.444
 6332TIP3    H118941   0.488   0.997   2.395
 6332TIP3    H218942   0.411   1.119   2.442
 6333TIP3   OH218943   7.554   3.526   0.762
 6333TIP3    H118944   7.540   3.597   0.699
 6333TIP3    H218945   7.486   3.539   0.828
 6334TIP3   OH218946   3.356   3.818   0.283
 6334TIP3    H118947   3.318   3.747   0.336
 6334TIP3    H218948   3.356   3.784   0.194
 6335TIP3   OH218949   1.356   6.639   6.119
 6335TIP3    H118950   1.319   6.664   6.034
 6335TIP3    H218951   1.342   6.545   6.124
 6336TIP3   OH218952   5.360   7.332   5.955
 6336TIP3    H118953   5.284   7.318   6.012
 6336TIP3    H218954   5.413   7.253   5.967
 6337TIP3   OH218955   6.057   6.646   4.416
 6337TIP3    H118956   6.094   6.641   4.504
 6337TIP3    H218957   6.079   6.561   4.377
 6338TIP3   OH218958   7.540   3.255   1.132
 6338TIP3    H118959   7.484   3.303   1.070
 6338TIP3    H218960   7.606   3.319   1.160
 6339TIP3   OH218961   2.394   6.158   5.663
 6339TIP3    H118962   2.360   6.070   5.651
 6339TIP3    H218963   2.328   6.215   5.625
 6340TIP3   OH218964   0.216   2.958   1.435
 6340TIP3    H118965   0.281   2.920   1.376
 6340TIP3    H218966   0.185   2.884   1.487
 6341TIP3   OH218967   1.870   0.952   1.577
 6341TIP3    H118968   1.861   0.866   1.538
 6341TIP3    H218969   1.780   0.982   1.592
 6342TIP3   OH218970   6.479   5.570   0.397
 6342TIP3    H118971   6.485   5.474   0.400
 6342TIP3    H218972   6.533   5.599   0.470
 6343TIP3   OH218973   6.169   3.233   2.615
 6343TIP3    H118974   6.223   3.293   2.564
 6343TIP3    H218975   6.083   3.236   2.573
 6344TIP3   OH218976   4.440   3.969   0.954
 6344TIP3    H118977   4.430   4.062   0.932
 6344TIP3    H218978   4.499   3.968   1.029
 6345TIP3   OH218979   6.663   2.880   2.086
 6345TIP3    H118980   6.680   2.786   2.089
 6345TIP3    H218981   6.702   2.915   2.167
 6346TIP3   OH218982   5.377   7.582   2.261
 6346TIP3    H118983   5.292   7.564   2.300
 6346TIP3    H218984   5.358   7.612   2.172
 6347TIP3   OH218985   6.112   6.829   6.701
 6347TIP3    H118986   6.080   6.832   6.791
 6347TIP3    H218987   6.043   6.873   6.650
 6348TIP3   OH218988   0.474   1.434   3.465
 6348TIP3    H118989   0.403   1.424   3.402
 6348TIP3    H218990   0.462   1.522   3.501
 6349TIP3   OH218991   1.551   2.909   1.788
 6349TIP3    H118992   1.595   2.884   1.869
 6349TIP3    H218993   1.459   2.916   1.812
 6350TIP3   OH218994   1.285   5.252   2.301
 6350TIP3    H118995   1.249   5.208   2.224
 6350TIP3    H218996   1.316   5.337   2.268
 6351TIP3   OH218997   2.185   0.099   4.804
 6351TIP3    H118998   2.223   0.162   4.743
 6351TIP3    H218999   2.119   0.149   4.853
 6352TIP3   OH219000   2.191   4.837   5.682
 6352TIP3    H119001   2.198   4.780   5.606
 6352TIP3    H219002   2.262   4.899   5.672
 6353TIP3   OH219003   2.825   6.536   4.248
 6353TIP3    H119004   2.828   6.513   4.341
 6353TIP3    H219005   2.917   6.549   4.224
 6354TIP3   OH219006   3.794   3.050   6.568
 6354TIP3    H119007   3.828   2.981   6.510
 6354TIP3    H219008   3.724   3.092   6.517
 6355TIP3   OH219009   7.545   2.585   0.220
 6355TIP3    H119010   7.478   2.653   0.227
 6355TIP3    H219011   7.595   2.609   0.142
 6356TIP3   OH219012   7.733   2.878   5.492
 6356TIP3    H119013   7.761   2.786   5.487
 6356TIP3    H219014   7.644   2.878   5.457
 6357TIP3   OH219015   3.052   0.572   2.449
 6357TIP3    H119016   2.988   0.614   2.391
 6357TIP3    H219017   3.136   0.583   2.404
 6358TIP3   OH219018   5.767   7.281   2.483
 6358TIP3    H119019   5.787   7.334   2.561
 6358TIP3    H219020   5.801   7.332   2.410
 6359TIP3   OH219021   5.761   0.857   4.337
 6359TIP3    H119022   5.744   0.898   4.422
 6359TIP3    H219023   5.802   0.926   4.285
 6360TIP3   OH219024   0.525   2.893   3.477
 6360TIP3    H119025   0.456   2.958   3.494
 6360TIP3    H219026   0.497   2.848   3.397
 6361TIP3   OH219027   4.871   0.396   6.659
 6361TIP3    H119028   4.840   0.486   6.672
 6361TIP3    H219029   4.954   0.392   6.707
 6362TIP3   OH219030   8.034   5.530   4.206
 6362TIP3    H119031   8.086   5.549   4.128
 6362TIP3    H219032   8.093   5.480   4.263
 6363TIP3   OH219033   4.802   4.231   0.754
 6363TIP3    H119034   4.824   4.212   0.846
 6363TIP3    H219035   4.811   4.147   0.709
 6364TIP3   OH219036   7.771   5.046   3.967
 6364TIP3    H119037   7.804   5.003   4.046
 6364TIP3    H219038   7.755   4.975   3.905
 6365TIP3   OH219039   7.251   4.289  -0.041
 6365TIP3    H119040   7.298   4.280   0.041
 6365TIP3    H219041   7.240   4.384  -0.053
 6366TIP3   OH219042   0.113   1.546   6.141
 6366TIP3    H119043   0.024   1.567   6.114
 6366TIP3    H219044   0.103   1.501   6.225
 6367TIP3   OH219045   7.658   1.599   3.847
 6367TIP3    H119046   7.730   1.562   3.796
 6367TIP3    H219047   7.582   1.548   3.822
 6368TIP3   OH219048   2.176   0.231   5.452
 6368TIP3    H119049   2.134   0.238   5.366
 6368TIP3    H219050   2.142   0.150   5.489
 6369TIP3   OH219051   4.012   0.864   6.654
 6369TIP3    H119052   3.946   0.867   6.585
 6369TIP3    H219053   4.039   0.955   6.666
 6370TIP3   OH219054   6.653   5.789   5.088
 6370TIP3    H119055   6.686   5.872   5.054
 6370TIP3    H219056   6.616   5.744   5.012
 6371TIP3   OH219057   8.049   2.032   1.350
 6371TIP3    H119058   8.102   1.954   1.368
 6371TIP3    H219059   7.976   2.001   1.297
 6372TIP3   OH219060   4.849   3.792   3.767
 6372TIP3    H119061   4.827   3.700   3.780
 6372TIP3    H219062   4.780   3.840   3.813
 6373TIP3   OH219063   0.113   2.623   3.203
 6373TIP3    H119064   0.123   2.582   3.289
 6373TIP3    H219065   0.203   2.643   3.176
 6374TIP3   OH219066   3.706   6.160   3.383
 6374TIP3    H119067   3.684   6.254   3.384
 6374TIP3    H219068   3.626   6.117   3.355
 6375TIP3   OH219069   0.584   7.184   0.342
 6375TIP3    H119070   0.533   7.225   0.272
 6375TIP3    H219071   0.597   7.253   0.407
 6376TIP3   OH219072   7.390   4.201   0.904
 6376TIP3    H119073   7.377   4.182   0.997
 6376TIP3    H219074   7.351   4.288   0.891
 6377TIP3   OH219075   5.159   2.002   5.998
 6377TIP3    H119076   5.081   1.993   6.053
 6377TIP3    H219077   5.134   1.964   5.914
 6378TIP3   OH219078   3.797   7.280   0.814
 6378TIP3    H119079   3.731   7.299   0.746
 6378TIP3    H219080   3.788   7.352   0.876
 6379TIP3   OH219081   6.227   5.512   4.110
 6379TIP3    H119082   6.137   5.544   4.101
 6379TIP3    H219083   6.221   5.418   4.096
 6380TIP3   OH219084   5.625   0.531   4.112
 6380TIP3    H119085   5.629   0.500   4.021
 6380TIP3    H219086   5.535   0.513   4.139
 6381TIP3   OH219087   6.667   0.257   6.837
 6381TIP3    H119088   6.733   0.317   6.870
 6381TIP3    H219089   6.669   0.183   6.899
 6382TIP3   OH219090   7.412   5.111   6.058
 6382TIP3    H119091   7.377   5.101   5.970
 6382TIP3    H219092   7.340   5.085   6.116
 6383TIP3   OH219093   2.093   5.047   1.151
 6383TIP3    H119094   2.074   5.113   1.219
 6383TIP3    H219095   2.179   5.013   1.176
 6384TIP3   OH219096   1.382   5.864   2.482
 6384TIP3    H119097   1.335   5.794   2.437
 6384TIP3    H219098   1.320   5.937   2.485
 6385TIP3   OH219099   7.494   7.827   0.331
 6385TIP3    H119100   7.588   7.808   0.330
 6385TIP3    H219101   7.484   7.906   0.278
 6386TIP3   OH219102   3.254   4.305   4.290
 6386TIP3    H119103   3.177   4.344   4.331
 6386TIP3    H219104   3.328   4.348   4.333
 6387TIP3   OH219105   1.004   3.243   4.367
 6387TIP3    H119106   1.047   3.167   4.406
 6387TIP3    H219107   1.032   3.317   4.420
 6388TIP3   OH219108   5.896   5.076   4.133
 6388TIP3    H119109   5.927   5.049   4.220
 6388TIP3    H219110   5.923   5.168   4.126
 6389TIP3   OH219111   4.090   5.555   2.371
 6389TIP3    H119112   4.089   5.502   2.291
 6389TIP3    H219113   4.177   5.542   2.408
 6390TIP3   OH219114   2.668   2.236   5.578
 6390TIP3    H119115   2.715   2.253   5.496
 6390TIP3    H219116   2.578   2.219   5.551
 6391TIP3   OH219117   6.503   7.162   0.903
 6391TIP3    H119118   6.440   7.179   0.973
 6391TIP3    H219119   6.583   7.205   0.932
 6392TIP3   OH219120   5.876   7.388   5.763
 6392TIP3    H119121   5.906   7.322   5.825
 6392TIP3    H219122   5.946   7.454   5.762
 6393TIP3   OH219123   0.418   2.107   4.033
 6393TIP3    H119124   0.395   2.033   3.976
 6393TIP3    H219125   0.508   2.129   4.007
 6394TIP3   OH219126   5.055   5.358   0.652
 6394TIP3    H119127   5.121   5.409   0.699
 6394TIP3    H219128   4.982   5.350   0.714
 6395TIP3   OH219129   6.252   7.725   5.111
 6395TIP3    H119130   6.337   7.720   5.066
 6395TIP3    H219131   6.260   7.802   5.168
 6396TIP3   OH219132   4.958   5.536   2.030
 6396TIP3    H119133   4.964   5.615   1.977
 6396TIP3    H219134   4.977   5.566   2.119
 6397TIP3   OH219135   1.519   0.232   4.533
 6397TIP3    H119136   1.524   0.179   4.612
 6397TIP3    H219137   1.455   0.187   4.478
 6398TIP3   OH219138   3.941   7.396   4.791
 6398TIP3    H119139   3.977   7.409   4.878
 6398TIP3    H219140   3.938   7.301   4.779
 6399TIP3   OH219141   0.159   6.111   3.260
 6399TIP3    H119142   0.127   6.026   3.229
 6399TIP3    H219143   0.135   6.114   3.352
 6400TIP3   OH219144   3.586   5.862   1.489
 6400TIP3    H119145   3.657   5.824   1.541
 6400TIP3    H219146   3.548   5.788   1.442
 6401TIP3   OH219147   0.209   5.689   1.920
 6401TIP3    H119148   0.288   5.744   1.920
 6401TIP3    H219149   0.154   5.727   1.989
 6402TIP3   OH219150   4.291   2.438   2.681
 6402TIP3    H119151   4.207   2.439   2.635
 6402TIP3    H219152   4.350   2.393   2.621
 6403TIP3   OH219153   2.011   6.966   3.481
 6403TIP3    H119154   1.952   7.035   3.512
 6403TIP3    H219155   2.091   7.012   3.456
 6404TIP3   OH219156   1.903   0.950   3.258
 6404TIP3    H119157   1.848   0.966   3.181
 6404TIP3    H219158   1.918   1.037   3.295
 6405TIP3   OH219159   7.837   1.883   1.223
 6405TIP3    H119160   7.823   1.797   1.184
 6405TIP3    H219161   7.872   1.936   1.151
 6406TIP3   OH219162   7.601   6.828   2.439
 6406TIP3    H119163   7.570   6.873   2.360
 6406TIP3    H219164   7.667   6.767   2.408
 6407TIP3   OH219165   5.146   5.377   2.882
 6407TIP3    H119166   5.109   5.290   2.901
 6407TIP3    H219167   5.118   5.396   2.793
 6408TIP3   OH219168   0.278   7.413   5.669
 6408TIP3    H119169   0.331   7.386   5.744
 6408TIP3    H219170   0.201   7.356   5.673
 6409TIP3   OH219171   6.678   7.048   4.476
 6409TIP3    H119172   6.691   7.009   4.562
 6409TIP3    H219173   6.678   7.143   4.492
 6410TIP3   OH219174   6.624   4.698   4.585
 6410TIP3    H119175   6.585   4.776   4.544
 6410TIP3    H219176   6.709   4.688   4.542
 6411TIP3   OH219177   4.039   1.029   2.092
 6411TIP3    H119178   3.987   1.109   2.098
 6411TIP3    H219179   4.078   1.019   2.180
 6412TIP3   OH219180   0.944   2.034   1.122
 6412TIP3    H119181   0.969   2.103   1.182
 6412TIP3    H219182   0.978   1.954   1.161
 6413TIP3   OH219183   6.727   0.168   0.734
 6413TIP3    H119184   6.654   0.123   0.691
 6413TIP3    H219185   6.764   0.225   0.666
 6414TIP3   OH219186   5.145   4.566   6.159
 6414TIP3    H119187   5.160   4.473   6.171
 6414TIP3    H219188   5.226   4.599   6.120
 6415TIP3   OH219189   7.793   3.877   2.056
 6415TIP3    H119190   7.777   3.878   1.962
 6415TIP3    H219191   7.731   3.941   2.091
 6416TIP3   OH219192   2.839   4.989   2.456
 6416TIP3    H119193   2.835   4.897   2.484
 6416TIP3    H219194   2.923   5.020   2.491
 6417TIP3   OH219195   2.238   0.857   1.313
 6417TIP3    H119196   2.290   0.806   1.375
 6417TIP3    H219197   2.200   0.926   1.366
 6418TIP3   OH219198   2.849   4.531   3.327
 6418TIP3    H119199   2.852   4.470   3.253
 6418TIP3    H219200   2.799   4.606   3.293
 6419TIP3   OH219201   3.485   2.049   5.881
 6419TIP3    H119202   3.558   2.027   5.939
 6419TIP3    H219203   3.459   2.137   5.909
 6420TIP3   OH219204   5.734   1.640   1.324
 6420TIP3    H119205   5.820   1.674   1.350
 6420TIP3    H219206   5.672   1.687   1.380
 6421TIP3   OH219207   4.573   6.755   2.283
 6421TIP3    H119208   4.539   6.673   2.246
 6421TIP3    H219209   4.525   6.766   2.365
 6422TIP3   OH219210   0.355   6.722   5.371
 6422TIP3    H119211   0.444   6.754   5.363
 6422TIP3    H219212   0.361   6.628   5.353
 6423TIP3   OH219213   1.132   4.151   2.483
 6423TIP3    H119214   1.142   4.163   2.577
 6423TIP3    H219215   1.112   4.239   2.450
 6424TIP3   OH219216   3.627   6.550   4.909
 6424TIP3    H119217   3.627   6.528   5.002
 6424TIP3    H219218   3.697   6.615   4.899
 6425TIP3   OH219219   2.741   4.713   1.863
 6425TIP3    H119220   2.687   4.728   1.786
 6425TIP3    H219221   2.738   4.618   1.876
 6426TIP3   OH219222   3.268   6.074   4.478
 6426TIP3    H119223   3.297   6.058   4.568
 6426TIP3    H219224   3.173   6.082   4.484
 6427TIP3   OH219225   6.464   6.088   6.258
 6427TIP3    H119226   6.531   6.154   6.239
 6427TIP3    H219227   6.413   6.081   6.178
 6428TIP3   OH219228   2.346   3.754   4.178
 6428TIP3    H119229   2.280   3.747   4.247
 6428TIP3    H219230   2.428   3.727   4.219
 6429TIP3   OH219231   4.330   3.417   0.374
 6429TIP3    H119232   4.368   3.505   0.385
 6429TIP3    H219233   4.277   3.424   0.295
 6430TIP3   OH219234   0.189   1.174   1.283
 6430TIP3    H119235   0.212   1.224   1.205
 6430TIP3    H219236   0.093   1.174   1.285
 6431TIP3   OH219237   2.972   0.229   3.267
 6431TIP3    H119238   3.055   0.255   3.229
 6431TIP3    H219239   2.963   0.136   3.242
 6432TIP3   OH219240   7.088   7.136   2.785
 6432TIP3    H119241   7.173   7.099   2.764
 6432TIP3    H219242   7.079   7.212   2.727
 6433TIP3   OH219243   7.577   7.088   2.537
 6433TIP3    H119244   7.601   6.996   2.537
 6433TIP3    H219245   7.660   7.135   2.526
 6434TIP3   OH219246   5.809   5.924   4.105
 6434TIP3    H119247   5.816   5.941   4.199
 6434TIP3    H219248   5.730   5.870   4.097
 6435TIP3   OH219249   1.051   0.899   0.374
 6435TIP3    H119250   1.124   0.913   0.314
 6435TIP3    H219251   0.985   0.853   0.322
 6436TIP3   OH219252   4.912   1.487   2.188
 6436TIP3    H119253   4.880   1.415   2.134
 6436TIP3    H219254   4.969   1.537   2.129
 6437TIP3   OH219255   1.076   3.751   6.311
 6437TIP3    H119256   1.122   3.726   6.231
 6437TIP3    H219257   1.095   3.680   6.373
 6438TIP3   OH219258   7.092   1.832   3.878
 6438TIP3    H119259   7.023   1.889   3.913
 6438TIP3    H219260   7.049   1.778   3.812
 6439TIP3   OH219261   5.585   2.453   4.280
 6439TIP3    H119262   5.655   2.500   4.326
 6439TIP3    H219263   5.624   2.370   4.255
 6440TIP3   OH219264   6.798   4.850   6.567
 6440TIP3    H119265   6.738   4.799   6.514
 6440TIP3    H219266   6.820   4.794   6.641
 6441TIP3   OH219267   0.728   7.239   3.929
 6441TIP3    H119268   0.769   7.161   3.890
 6441TIP3    H219269   0.752   7.235   4.021
 6442TIP3   OH219270   0.539   1.922   2.587
 6442TIP3    H119271   0.503   1.923   2.676
 6442TIP3    H219272   0.559   1.830   2.569
 6443TIP3   OH219273   3.525   5.199   6.147
 6443TIP3    H119274   3.598   5.252   6.113
 6443TIP3    H219275   3.489   5.251   6.218
 6444TIP3   OH219276   6.362   6.515   0.281
 6444TIP3    H119277   6.425   6.443   0.267
 6444TIP3    H219278   6.373   6.539   0.373
 6445TIP3   OH219279   6.342   5.107   6.809
 6445TIP3    H119280   6.280   5.110   6.736
 6445TIP3    H219281   6.409   5.046   6.780
 6446TIP3   OH219282   6.437   5.504   4.319
 6446TIP3    H119283   6.386   5.499   4.238
 6446TIP3    H219284   6.520   5.545   4.292
 6447TIP3   OH219285   2.903   4.096   0.829
 6447TIP3    H119286   2.953   4.063   0.904
 6447TIP3    H219287   2.879   4.017   0.780
 6448TIP3   OH219288   7.361   6.444   4.112
 6448TIP3    H119289   7.343   6.496   4.190
 6448TIP3    H219290   7.333   6.356   4.134
 6449TIP3   OH219291   4.865   6.189   0.652
 6449TIP3    H119292   4.885   6.153   0.566
 6449TIP3    H219293   4.881   6.283   0.644
 6450TIP3   OH219294   3.260   1.148   3.505
 6450TIP3    H119295   3.168   1.131   3.487
 6450TIP3    H219296   3.287   1.209   3.435
 6451TIP3   OH219297   0.345   4.341   6.527
 6451TIP3    H119298   0.412   4.398   6.490
 6451TIP3    H219299   0.327   4.378   6.614
 6452TIP3   OH219300   3.515   0.538   2.132
 6452TIP3    H119301   3.570   0.617   2.127
 6452TIP3    H219302   3.497   0.516   2.041
 6453TIP3   OH219303   3.442   0.302   0.016
 6453TIP3    H119304   3.365   0.325  -0.037
 6453TIP3    H219305   3.423   0.215   0.051
 6454TIP3   OH219306   5.065   4.123   6.453
 6454TIP3    H119307   5.067   4.162   6.541
 6454TIP3    H219308   4.973   4.108   6.436
 6455TIP3   OH219309   2.241   1.028   6.391
 6455TIP3    H119310   2.207   0.965   6.454
 6455TIP3    H219311   2.284   1.095   6.445
 6456TIP3   OH219312   0.417   1.425   1.395
 6456TIP3    H119313   0.392   1.503   1.445
 6456TIP3    H219314   0.350   1.418   1.328
 6457TIP3   OH219315   2.945   1.172   0.420
 6457TIP3    H119316   2.972   1.091   0.378
 6457TIP3    H219317   2.853   1.182   0.395
 6458TIP3   OH219318   3.783   1.617   4.531
 6458TIP3    H119319   3.874   1.591   4.524
 6458TIP3    H219320   3.781   1.708   4.500
 6459TIP3   OH219321   2.613   6.983   4.735
 6459TIP3    H119322   2.565   6.906   4.766
 6459TIP3    H219323   2.667   7.010   4.810
 6460TIP3   OH219324   4.584   5.482   2.144
 6460TIP3    H119325   4.659   5.436   2.106
 6460TIP3    H219326   4.520   5.487   2.072
 6461TIP3   OH219327   3.902   1.568   5.417
 6461TIP3    H119328   3.891   1.475   5.398
 6461TIP3    H219329   3.817   1.595   5.451
 6462TIP3   OH219330   5.031   6.458   6.294
 6462TIP3    H119331   4.959   6.446   6.233
 6462TIP3    H219332   5.081   6.531   6.257
 6463TIP3   OH219333   3.920   6.993   6.674
 6463TIP3    H119334   3.835   7.012   6.713
 6463TIP3    H219335   3.903   6.921   6.613
 6464TIP3   OH219336   5.468   2.139   0.373
 6464TIP3    H119337   5.539   2.185   0.418
 6464TIP3    H219338   5.477   2.166   0.281
 6465TIP3   OH219339   4.721   1.361   6.816
 6465TIP3    H119340   4.645   1.322   6.773
 6465TIP3    H219341   4.795   1.311   6.783
 6466TIP3   OH219342   3.466   7.337   2.140
 6466TIP3    H119343   3.489   7.379   2.057
 6466TIP3    H219344   3.545   7.287   2.164
 6467TIP3   OH219345   3.841   6.321   6.471
 6467TIP3    H119346   3.832   6.260   6.545
 6467TIP3    H219347   3.784   6.284   6.403
 6468TIP3   OH219348   6.121   1.177   3.796
 6468TIP3    H119349   6.095   1.092   3.760
 6468TIP3    H219350   6.047   1.203   3.852
 6469TIP3   OH219351   6.885   6.354   4.373
 6469TIP3    H119352   6.942   6.376   4.447
 6469TIP3    H219353   6.942   6.312   4.310
 6470TIP3   OH219354   6.380   6.462   1.430
 6470TIP3    H119355   6.374   6.422   1.343
 6470TIP3    H219356   6.380   6.388   1.490
 6471TIP3   OH219357   4.323   1.308   4.366
 6471TIP3    H119358   4.259   1.350   4.308
 6471TIP3    H219359   4.330   1.368   4.441
 6472TIP3   OH219360   1.970   2.164   6.101
 6472TIP3    H119361   1.943   2.151   6.010
 6472TIP3    H219362   2.065   2.169   6.097
 6473TIP3   OH219363   5.467   5.709   2.456
 6473TIP3    H119364   5.502   5.716   2.545
 6473TIP3    H219365   5.395   5.772   2.453
 6474TIP3   OH219366   5.724   5.330   1.588
 6474TIP3    H119367   5.665   5.285   1.526
 6474TIP3    H219368   5.806   5.281   1.582
 6475TIP3   OH219369   3.138   4.872   1.417
 6475TIP3    H119370   3.132   4.900   1.326
 6475TIP3    H219371   3.102   4.944   1.468
 6476TIP3   OH219372   5.699   3.574   2.400
 6476TIP3    H119373   5.627   3.632   2.424
 6476TIP3    H219374   5.766   3.632   2.363
 6477TIP3   OH219375   7.429   2.745   6.796
 6477TIP3    H119376   7.434   2.822   6.852
 6477TIP3    H219377   7.390   2.777   6.715
 6478TIP3   OH219378   5.292   5.463   3.325
 6478TIP3    H119379   5.367   5.454   3.384
 6478TIP3    H219380   5.291   5.381   3.275
 6479TIP3   OH219381   3.731   6.296   5.440
 6479TIP3    H119382   3.782   6.374   5.464
 6479TIP3    H219383   3.738   6.239   5.517
 6480TIP3   OH219384   2.111   2.238   2.140
 6480TIP3    H119385   2.204   2.230   2.117
 6480TIP3    H219386   2.070   2.273   2.061
 6481TIP3   OH219387   2.974   1.798   1.243
 6481TIP3    H119388   3.026   1.836   1.172
 6481TIP3    H219389   3.015   1.831   1.323
 6482TIP3   OH219390   6.819   2.352   4.089
 6482TIP3    H119391   6.771   2.274   4.117
 6482TIP3    H219392   6.776   2.424   4.135
 6483TIP3   OH219393   0.833   2.414   0.041
 6483TIP3    H119394   0.807   2.375  -0.042
 6483TIP3    H219395   0.881   2.493   0.017
 6484TIP3   OH219396   6.732   3.769   6.370
 6484TIP3    H119397   6.749   3.751   6.278
 6484TIP3    H219398   6.637   3.757   6.380
 6485TIP3   OH219399   2.467   5.499   3.653
 6485TIP3    H119400   2.494   5.461   3.737
 6485TIP3    H219401   2.386   5.547   3.673
 6486TIP3   OH219402   4.621   6.215   3.238
 6486TIP3    H119403   4.550   6.207   3.302
 6486TIP3    H219404   4.659   6.127   3.233
 6487TIP3   OH219405   1.804   0.551   5.340
 6487TIP3    H119406   1.836   0.630   5.382
 6487TIP3    H219407   1.743   0.512   5.403
 6488TIP3   OH219408   4.884   1.226   6.058
 6488TIP3    H119409   4.844   1.272   5.984
 6488TIP3    H219410   4.829   1.249   6.133
 6489TIP3   OH219411   4.434   4.657   3.918
 6489TIP3    H119412   4.464   4.746   3.900
 6489TIP3    H219413   4.429   4.652   4.013
 6490TIP3   OH219414   1.926   5.294   5.854
 6490TIP3    H119415   1.954   5.215   5.808
 6490TIP3    H219416   1.976   5.293   5.936
 6491TIP3   OH219417   2.003   0.629   0.359
 6491TIP3    H119418   1.913   0.637   0.327
 6491TIP3    H219419   2.048   0.575   0.295
 6492TIP3   OH219420   3.521   3.780   6.583
 6492TIP3    H119421   3.605   3.811   6.548
 6492TIP3    H219422   3.455   3.818   6.525
 6493TIP3   OH219423   1.231   7.198   6.001
 6493TIP3    H119424   1.223   7.196   6.096
 6493TIP3    H219425   1.186   7.119   5.971
 6494TIP3   OH219426   8.046   4.053   5.631
 6494TIP3    H119427   8.053   4.146   5.610
 6494TIP3    H219428   8.112   4.039   5.699
 6495TIP3   OH219429   7.352   7.055   2.678
 6495TIP3    H119430   7.419   7.095   2.622
 6495TIP3    H219431   7.402   7.012   2.748
 6496TIP3   OH219432   8.216   0.858   5.215
 6496TIP3    H119433   8.245   0.804   5.289
 6496TIP3    H219434   8.237   0.948   5.240
 6497TIP3   OH219435   4.246   7.139   4.398
 6497TIP3    H119436   4.280   7.222   4.432
 6497TIP3    H219437   4.213   7.160   4.311
 6498TIP3   OH219438   0.412   3.405   5.442
 6498TIP3    H119439   0.377   3.343   5.506
 6498TIP3    H219440   0.492   3.363   5.409
 6499TIP3   OH219441   8.173   4.074   6.405
 6499TIP3    H119442   8.261   4.096   6.373
 6499TIP3    H219443   8.169   3.979   6.401
 6500TIP3   OH219444   5.087   7.075   5.300
 6500TIP3    H119445   5.130   6.997   5.336
 6500TIP3    H219446   5.017   7.040   5.245
 6501TIP3   OH219447   5.013   4.344   3.630
 6501TIP3    H119448   4.950   4.293   3.579
 6501TIP3    H219449   5.067   4.388   3.564
 6502TIP3   OH219450   1.982   0.458   3.556
 6502TIP3    H119451   1.979   0.553   3.566
 6502TIP3    H219452   1.991   0.425   3.645
 6503TIP3   OH219453   4.644   2.538   1.692
 6503TIP3    H119454   4.657   2.465   1.632
 6503TIP3    H219455   4.579   2.594   1.648
 6504TIP3   OH219456   2.631   4.088   3.053
 6504TIP3    H119457   2.604   4.002   3.084
 6504TIP3    H219458   2.562   4.112   2.990
 6505TIP3   OH219459   3.557   3.956   1.529
 6505TIP3    H119460   3.647   3.965   1.560
 6505TIP3    H219461   3.554   3.868   1.491
 6506TIP3   OH219462   8.065   7.578   2.833
 6506TIP3    H119463   8.155   7.607   2.848
 6506TIP3    H219464   8.072   7.488   2.804
 6507TIP3   OH219465   2.525   5.024   6.456
 6507TIP3    H119466   2.564   5.032   6.369
 6507TIP3    H219467   2.542   4.933   6.481
 6508TIP3   OH219468   3.100   1.916   1.031
 6508TIP3    H119469   3.178   1.937   0.980
 6508TIP3    H219470   3.080   1.997   1.079
 6509TIP3   OH219471   2.897   0.126   5.489
 6509TIP3    H119472   2.809   0.117   5.453
 6509TIP3    H219473   2.936   0.040   5.476
 6510TIP3   OH219474   6.060   2.644   5.967
 6510TIP3    H119475   6.098   2.715   6.020
 6510TIP3    H219476   6.039   2.685   5.884
 6511TIP3   OH219477   4.104   1.533   5.123
 6511TIP3    H119478   4.171   1.468   5.149
 6511TIP3    H219479   4.094   1.521   5.029
 6512TIP3   OH219480   5.998   3.196   5.062
 6512TIP3    H119481   6.056   3.129   5.027
 6512TIP3    H219482   6.033   3.214   5.150
 6513TIP3   OH219483   4.416   5.323   1.379
 6513TIP3    H119484   4.389   5.233   1.362
 6513TIP3    H219485   4.483   5.341   1.312
 6514TIP3   OH219486   0.835   0.466   4.521
 6514TIP3    H119487   0.803   0.385   4.560
 6514TIP3    H219488   0.846   0.526   4.595
 6515TIP3   OH219489   4.419   3.497   1.572
 6515TIP3    H119490   4.467   3.534   1.646
 6515TIP3    H219491   4.362   3.569   1.543
 6516TIP3   OH219492   4.019   1.721   4.141
 6516TIP3    H119493   4.090   1.760   4.090
 6516TIP3    H219494   3.954   1.696   4.075
 6517TIP3   OH219495   2.188   2.754   4.611
 6517TIP3    H119496   2.188   2.837   4.563
 6517TIP3    H219497   2.147   2.691   4.551
 6518TIP3   OH219498   0.939   1.410   2.869
 6518TIP3    H119499   0.851   1.375   2.879
 6518TIP3    H219500   0.926   1.505   2.859
 6519TIP3   OH219501   8.208   7.196   0.903
 6519TIP3    H119502   8.135   7.255   0.921
 6519TIP3    H219503   8.202   7.178   0.809
 6520TIP3   OH219504   1.096   2.566   5.535
 6520TIP3    H119505   1.155   2.497   5.563
 6520TIP3    H219506   1.096   2.561   5.439
 6521TIP3   OH219507   0.161   6.440   6.655
 6521TIP3    H119508   0.190   6.527   6.629
 6521TIP3    H219509   0.234   6.403   6.705
 6522TIP3   OH219510   6.037   7.679   4.172
 6522TIP3    H119511   6.132   7.673   4.160
 6522TIP3    H219512   6.001   7.615   4.110
 6523TIP3   OH219513   2.412   3.808   1.959
 6523TIP3    H119514   2.347   3.772   2.019
 6523TIP3    H219515   2.420   3.742   1.889
 6524TIP3   OH219516   6.608   5.120   1.337
 6524TIP3    H119517   6.513   5.110   1.325
 6524TIP3    H219518   6.620   5.118   1.432
 6525TIP3   OH219519   4.343   5.764   2.584
 6525TIP3    H119520   4.359   5.674   2.611
 6525TIP3    H219521   4.261   5.788   2.627
 6526TIP3   OH219522   4.100   2.846   1.467
 6526TIP3    H119523   4.072   2.852   1.376
 6526TIP3    H219524   4.101   2.937   1.497
 6527TIP3   OH219525   0.178   3.567   3.322
 6527TIP3    H119526   0.209   3.632   3.386
 6527TIP3    H219527   0.158   3.489   3.374
 6528TIP3   OH219528   7.000   6.972   5.815
 6528TIP3    H119529   7.034   7.058   5.794
 6528TIP3    H219530   6.948   6.947   5.738
 6529TIP3   OH219531   5.391   4.240   1.068
 6529TIP3    H119532   5.357   4.152   1.083
 6529TIP3    H219533   5.331   4.278   1.005
 6530TIP3   OH219534   4.701   1.451   0.084
 6530TIP3    H119535   4.638   1.521   0.074
 6530TIP3    H219536   4.761   1.481   0.152
 6531TIP3   OH219537   4.190   3.158   0.732
 6531TIP3    H119538   4.284   3.176   0.732
 6531TIP3    H219539   4.150   3.244   0.746
 6532TIP3   OH219540   2.013   0.007   1.971
 6532TIP3    H119541   1.958   0.074   1.931
 6532TIP3    H219542   2.096   0.013   1.925
 6533TIP3   OH219543   7.894   3.544   5.329
 6533TIP3    H119544   7.946   3.501   5.262
 6533TIP3    H219545   7.932   3.632   5.336
 6534TIP3   OH219546   8.139   0.692   3.429
 6534TIP3    H119547   8.106   0.777   3.400
 6534TIP3    H219548   8.102   0.630   3.366
 6535TIP3   OH219549   1.511   0.659   0.062
 6535TIP3    H119550   1.590   0.605   0.066
 6535TIP3    H219551   1.448   0.604   0.016
 6536TIP3   OH219552   7.757   0.222   0.071
 6536TIP3    H119553   7.847   0.189   0.069
 6536TIP3    H219554   7.704   0.143   0.078
 6537TIP3   OH219555   1.978   1.460   0.226
 6537TIP3    H119556   2.026   1.471   0.144
 6537TIP3    H219557   2.028   1.512   0.290
 6538TIP3   OH219558   2.752   2.334   5.334
 6538TIP3    H119559   2.672   2.333   5.282
 6538TIP3    H219560   2.809   2.396   5.290
 6539TIP3   OH219561   3.591   5.165   6.601
 6539TIP3    H119562   3.592   5.085   6.653
 6539TIP3    H219563   3.582   5.235   6.665
 6540TIP3   OH219564   5.328   2.513   1.261
 6540TIP3    H119565   5.288   2.426   1.256
 6540TIP3    H219566   5.255   2.573   1.247
 6541TIP3   OH219567   0.850   6.441   1.159
 6541TIP3    H119568   0.784   6.496   1.118
 6541TIP3    H219569   0.811   6.353   1.160
 6542TIP3   OH219570   5.642   7.715   1.475
 6542TIP3    H119571   5.683   7.649   1.531
 6542TIP3    H219572   5.706   7.786   1.472
 6543TIP3   OH219573   0.555   6.090   3.897
 6543TIP3    H119574   0.526   6.029   3.829
 6543TIP3    H219575   0.641   6.057   3.923
 6544TIP3   OH219576   0.535   6.943   1.481
 6544TIP3    H119577   0.486   6.910   1.556
 6544TIP3    H219578   0.620   6.899   1.488
 6545TIP3   OH219579   0.598   6.951   4.898
 6545TIP3    H119580   0.576   7.002   4.976
 6545TIP3    H219581   0.564   6.864   4.916
 6546TIP3   OH219582   6.672   1.169   2.338
 6546TIP3    H119583   6.647   1.261   2.329
 6546TIP3    H219584   6.642   1.128   2.257
 6547TIP3   OH219585   3.518   0.899   6.728
 6547TIP3    H119586   3.462   0.922   6.654
 6547TIP3    H219587   3.506   0.805   6.739
 6548TIP3   OH219588   7.258   1.242   3.444
 6548TIP3    H119589   7.298   1.160   3.415
 6548TIP3    H219590   7.171   1.242   3.404
 6549TIP3   OH219591   3.445   5.562   6.458
 6549TIP3    H119592   3.493   5.577   6.539
 6549TIP3    H219593   3.379   5.631   6.455
 6550TIP3   OH219594   2.557   6.745   2.847
 6550TIP3    H119595   2.505   6.706   2.916
 6550TIP3    H219596   2.605   6.816   2.889
 6551TIP3   OH219597   3.578   3.285   5.096
 6551TIP3    H119598   3.621   3.200   5.082
 6551TIP3    H219599   3.550   3.312   5.008
 6552TIP3   OH219600   0.686   7.225   5.786
 6552TIP3    H119601   0.746   7.300   5.784
 6552TIP3    H219602   0.741   7.152   5.814
 6553TIP3   OH219603   1.407   5.790   5.623
 6553TIP3    H119604   1.441   5.776   5.711
 6553TIP3    H219605   1.471   5.847   5.581
 6554TIP3   OH219606   2.481   5.430   5.986
 6554TIP3    H119607   2.448   5.504   5.934
 6554TIP3    H219608   2.538   5.471   6.051
 6555TIP3   OH219609   8.169   5.970   1.950
 6555TIP3    H119610   8.235   6.039   1.950
 6555TIP3    H219611   8.189   5.918   1.872
 6556TIP3   OH219612   0.482   0.098   4.504
 6556TIP3    H119613   0.479   0.103   4.409
 6556TIP3    H219614   0.468   0.005   4.524
 6557TIP3   OH219615   5.125   7.246   0.735
 6557TIP3    H119616   5.193   7.313   0.740
 6557TIP3    H219617   5.172   7.163   0.742
 6558TIP3   OH219618   5.238   1.058   4.513
 6558TIP3    H119619   5.242   1.153   4.508
 6558TIP3    H219620   5.147   1.036   4.493
 6559TIP3   OH219621   3.238   2.985   1.146
 6559TIP3    H119622   3.293   2.934   1.205
 6559TIP3    H219623   3.169   2.924   1.118
 6560TIP3   OH219624   5.347   5.041   2.819
 6560TIP3    H119625   5.365   5.135   2.809
 6560TIP3    H219626   5.346   5.027   2.914
 6561TIP3   OH219627   4.922   2.182   3.355
 6561TIP3    H119628   4.903   2.110   3.414
 6561TIP3    H219629   4.969   2.142   3.282
 6562TIP3   OH219630   3.942   4.157   1.422
 6562TIP3    H119631   3.912   4.112   1.501
 6562TIP3    H219632   4.017   4.209   1.450
 6563TIP3   OH219633   6.619   0.321   4.354
 6563TIP3    H119634   6.569   0.241   4.370
 6563TIP3    H219635   6.616   0.333   4.259
 6564TIP3   OH219636   5.583   1.100   2.573
 6564TIP3    H119637   5.556   1.107   2.482
 6564TIP3    H219638   5.644   1.026   2.574
 6565TIP3   OH219639   3.616   1.362   2.510
 6565TIP3    H119640   3.590   1.278   2.470
 6565TIP3    H219641   3.691   1.391   2.457
 6566TIP3   OH219642   7.425   2.667   5.987
 6566TIP3    H119643   7.446   2.676   5.893
 6566TIP3    H219644   7.510   2.659   6.029
 6567TIP3   OH219645   2.848   3.802   3.537
 6567TIP3    H119646   2.920   3.749   3.503
 6567TIP3    H219647   2.821   3.756   3.618
 6568TIP3   OH219648   0.576   6.216   6.659
 6568TIP3    H119649   0.535   6.235   6.575
 6568TIP3    H219650   0.510   6.238   6.725
 6569TIP3   OH219651   1.132   5.822   5.563
 6569TIP3    H119652   1.228   5.830   5.565
 6569TIP3    H219653   1.112   5.789   5.475
 6570TIP3   OH219654   4.586   1.004   0.476
 6570TIP3    H119655   4.646   1.074   0.448
 6570TIP3    H219656   4.540   1.040   0.552
 6571TIP3   OH219657   4.561   5.874   2.471
 6571TIP3    H119658   4.468   5.855   2.486
 6571TIP3    H219659   4.586   5.816   2.399
 6572TIP3   OH219660   4.652   2.017   0.871
 6572TIP3    H119661   4.679   2.043   0.958
 6572TIP3    H219662   4.643   1.921   0.875
 6573TIP3   OH219663   5.536   2.342   5.982
 6573TIP3    H119664   5.446   2.310   5.977
 6573TIP3    H219665   5.529   2.436   5.962
 6574TIP3   OH219666   0.992   2.353   4.064
 6574TIP3    H119667   0.897   2.353   4.052
 6574TIP3    H219668   1.013   2.263   4.091
 6575TIP3   OH219669   5.340   6.372   5.560
 6575TIP3    H119670   5.360   6.357   5.653
 6575TIP3    H219671   5.252   6.337   5.549
 6576TIP3   OH219672   3.206   3.070   2.731
 6576TIP3    H119673   3.171   3.113   2.809
 6576TIP3    H219674   3.301   3.074   2.742
 6577TIP3   OH219675   4.579   4.009   1.187
 6577TIP3    H119676   4.565   3.978   1.277
 6577TIP3    H219677   4.516   4.080   1.176
 6578TIP3   OH219678   7.208   5.380   5.985
 6578TIP3    H119679   7.222   5.305   5.927
 6578TIP3    H219680   7.127   5.359   6.031
 6579TIP3   OH219681   7.672   7.795   5.825
 6579TIP3    H119682   7.712   7.801   5.911
 6579TIP3    H219683   7.726   7.732   5.777
 6580TIP3   OH219684   3.812   2.566   1.783
 6580TIP3    H119685   3.782   2.523   1.703
 6580TIP3    H219686   3.747   2.541   1.849
 6581TIP3   OH219687   3.203   2.337   6.765
 6581TIP3    H119688   3.201   2.244   6.786
 6581TIP3    H219689   3.138   2.347   6.695
 6582TIP3   OH219690   5.802   1.346   1.292
 6582TIP3    H119691   5.767   1.309   1.211
 6582TIP3    H219692   5.788   1.440   1.283
 6583TIP3   OH219693   4.345   6.380   1.792
 6583TIP3    H119694   4.287   6.320   1.839
 6583TIP3    H219695   4.323   6.367   1.700
 6584TIP3   OH219696   6.460   4.359   0.119
 6584TIP3    H119697   6.528   4.307   0.161
 6584TIP3    H219698   6.400   4.294   0.081
 6585TIP3   OH219699   3.228   3.375   6.254
 6585TIP3    H119700   3.267   3.329   6.179
 6585TIP3    H219701   3.142   3.335   6.264
 6586TIP3   OH219702   3.780   1.544   0.769
 6586TIP3    H119703   3.809   1.544   0.678
 6586TIP3    H219704   3.860   1.556   0.820
 6587TIP3   OH219705   6.279   4.876   2.255
 6587TIP3    H119706   6.271   4.841   2.166
 6587TIP3    H219707   6.373   4.889   2.267
 6588TIP3   OH219708   2.157   2.686   2.966
 6588TIP3    H119709   2.128   2.731   3.045
 6588TIP3    H219710   2.171   2.755   2.902
 6589TIP3   OH219711   1.840   7.628   5.871
 6589TIP3    H119712   1.771   7.568   5.845
 6589TIP3    H219713   1.862   7.603   5.961
 6590TIP3   OH219714   2.919   3.484   5.042
 6590TIP3    H119715   2.849   3.548   5.025
 6590TIP3    H219716   2.873   3.402   5.058
 6591TIP3   OH219717   1.838   6.331   5.670
 6591TIP3    H119718   1.901   6.277   5.719
 6591TIP3    H219719   1.819   6.280   5.591
 6592TIP3   OH219720   4.620   1.756   0.884
 6592TIP3    H119721   4.651   1.691   0.947
 6592TIP3    H219722   4.560   1.709   0.827
 6593TIP3   OH219723   4.865   3.131   3.057
 6593TIP3    H119724   4.773   3.156   3.059
 6593TIP3    H219725   4.895   3.140   3.148
 6594TIP3   OH219726   0.518   2.289   1.526
 6594TIP3    H119727   0.567   2.273   1.607
 6594TIP3    H219728   0.428   2.265   1.547
 6595TIP3   OH219729   6.118   0.221   1.032
 6595TIP3    H119730   6.127   0.280   1.107
 6595TIP3    H219731   6.190   0.244   0.974
 6596TIP3   OH219732   7.442   1.986   5.099
 6596TIP3    H119733   7.362   1.939   5.074
 6596TIP3    H219734   7.410   2.072   5.127
 6597TIP3   OH219735   5.373   0.077   6.208
 6597TIP3    H119736   5.347   0.023   6.282
 6597TIP3    H219737   5.342   0.030   6.131
 6598TIP3   OH219738   5.507   7.081   2.941
 6598TIP3    H119739   5.599   7.061   2.960
 6598TIP3    H219740   5.505   7.095   2.846
 6599TIP3   OH219741   3.136   2.379   5.967
 6599TIP3    H119742   3.207   2.381   5.903
 6599TIP3    H219743   3.120   2.286   5.983
 6600TIP3   OH219744   2.665   6.497   1.317
 6600TIP3    H119745   2.720   6.546   1.255
 6600TIP3    H219746   2.599   6.455   1.261
 6601TIP3   OH219747   5.359   4.069   3.816
 6601TIP3    H119748   5.270   4.034   3.829
 6601TIP3    H219749   5.378   4.116   3.897
 6602TIP3   OH219750   4.053   2.208   2.432
 6602TIP3    H119751   4.131   2.156   2.413
 6602TIP3    H219752   3.980   2.155   2.397
 6603TIP3   OH219753   0.842   0.838   3.638
 6603TIP3    H119754   0.879   0.806   3.555
 6603TIP3    H219755   0.782   0.908   3.612
 6604TIP3   OH219756   6.224   2.625   4.999
 6604TIP3    H119757   6.214   2.536   4.966
 6604TIP3    H219758   6.149   2.638   5.056
 6605TIP3   OH219759   5.969   2.358   1.133
 6605TIP3    H119760   5.993   2.307   1.055
 6605TIP3    H219761   5.874   2.357   1.135
 6606TIP3   OH219762   1.245   4.490   1.320
 6606TIP3    H119763   1.235   4.400   1.354
 6606TIP3    H219764   1.339   4.499   1.305
 6607TIP3   OH219765   7.150   1.328   5.054
 6607TIP3    H119766   7.068   1.281   5.072
 6607TIP3    H219767   7.194   1.334   5.139
 6608TIP3   OH219768   4.242   0.442   0.921
 6608TIP3    H119769   4.294   0.418   0.997
 6608TIP3    H219770   4.215   0.532   0.937
 6609TIP3   OH219771   5.836   5.104   5.136
 6609TIP3    H119772   5.812   5.074   5.224
 6609TIP3    H219773   5.808   5.034   5.078
 6610TIP3   OH219774   7.870   7.769   1.243
 6610TIP3    H119775   7.858   7.846   1.188
 6610TIP3    H219776   7.839   7.696   1.190
 6611TIP3   OH219777   1.588   4.942   6.571
 6611TIP3    H119778   1.534   4.890   6.630
 6611TIP3    H219779   1.527   5.002   6.528
 6612TIP3   OH219780   7.260   5.621   1.877
 6612TIP3    H119781   7.353   5.641   1.892
 6612TIP3    H219782   7.234   5.571   1.954
 6613TIP3   OH219783   5.342   0.763   5.136
 6613TIP3    H119784   5.371   0.843   5.180
 6613TIP3    H219785   5.412   0.700   5.154
 6614TIP3   OH219786   7.731   0.590   1.858
 6614TIP3    H119787   7.817   0.629   1.838
 6614TIP3    H219788   7.748   0.534   1.933
 6615TIP3   OH219789   5.307   5.507   1.916
 6615TIP3    H119790   5.342   5.524   1.829
 6615TIP3    H219791   5.251   5.431   1.906
 6616TIP3   OH219792   1.382   6.167   0.223
 6616TIP3    H119793   1.293   6.189   0.251
 6616TIP3    H219794   1.388   6.203   0.134
 6617TIP3   OH219795   5.259   6.976   5.038
 6617TIP3    H119796   5.263   7.055   5.093
 6617TIP3    H219797   5.233   6.907   5.099
 6618TIP3   OH219798   6.374   1.695   4.213
 6618TIP3    H119799   6.354   1.745   4.291
 6618TIP3    H219800   6.456   1.649   4.233
 6619TIP3   OH219801   2.512   4.774   5.950
 6619TIP3    H119802   2.463   4.853   5.925
 6619TIP3    H219803   2.498   4.714   5.877
 6620TIP3   OH219804   5.939   4.060   2.743
 6620TIP3    H119805   5.889   4.002   2.684
 6620TIP3    H219806   6.015   4.086   2.691
 6621TIP3   OH219807   4.106   2.971   6.226
 6621TIP3    H119808   4.061   3.017   6.155
 6621TIP3    H219809   4.168   3.035   6.261
 6622TIP3   OH219810   4.228   0.064   5.521
 6622TIP3    H119811   4.322   0.060   5.502
 6622TIP3    H219812   4.211   0.158   5.534
 6623TIP3   OH219813   4.173   3.707   6.168
 6623TIP3    H119814   4.118   3.758   6.227
 6623TIP3    H219815   4.116   3.689   6.093
 6624TIP3   OH219816   3.049   3.246   2.934
 6624TIP3    H119817   3.014   3.296   2.860
 6624TIP3    H219818   3.031   3.301   3.010
 6625TIP3   OH219819   2.901   7.408   4.375
 6625TIP3    H119820   2.975   7.382   4.430
 6625TIP3    H219821   2.857   7.478   4.424
 6626TIP3   OH219822   3.479   2.896   2.049
 6626TIP3    H119823   3.532   2.817   2.050
 6626TIP3    H219824   3.389   2.865   2.063
 6627TIP3   OH219825   3.725   0.071   0.325
 6627TIP3    H119826   3.765  -0.008   0.289
 6627TIP3    H219827   3.688   0.116   0.249
 6628TIP3   OH219828   6.413   2.592   2.704
 6628TIP3    H119829   6.359   2.584   2.625
 6628TIP3    H219830   6.441   2.503   2.724
 6629TIP3   OH219831   4.436   2.489   2.015
 6629TIP3    H119832   4.509   2.433   2.041
 6629TIP3    H219833   4.405   2.451   1.933
 6630TIP3   OH219834   7.651   0.486   0.080
 6630TIP3    H119835   7.684   0.513  -0.006
 6630TIP3    H219836   7.694   0.402   0.097
 6631TIP3   OH219837   4.105   2.203   5.963
 6631TIP3    H119838   4.084   2.227   6.053
 6631TIP3    H219839   4.125   2.286   5.920
 6632TIP3   OH219840   0.190   6.483   2.468
 6632TIP3    H119841   0.162   6.512   2.382
 6632TIP3    H219842   0.139   6.404   2.485
 6633TIP3   OH219843   3.062   7.160   6.187
 6633TIP3    H119844   3.077   7.254   6.172
 6633TIP3    H219845   3.020   7.129   6.107
 6634TIP3   OH219846   7.002   4.125   6.028
 6634TIP3    H119847   6.927   4.066   6.032
 6634TIP3    H219848   7.019   4.137   5.935
 6635TIP3   OH219849   1.941   1.015   2.007
 6635TIP3    H119850   2.005   1.066   1.959
 6635TIP3    H219851   1.933   0.934   1.957
 6636TIP3   OH219852   3.939   1.510   6.554
 6636TIP3    H119853   4.031   1.485   6.542
 6636TIP3    H219854   3.892   1.460   6.487
 6637TIP3   OH219855   1.967   5.302   2.548
 6637TIP3    H119856   1.918   5.281   2.627
 6637TIP3    H219857   2.046   5.247   2.553
 6638TIP3   OH219858   5.042   1.320   1.755
 6638TIP3    H119859   4.953   1.313   1.790
 6638TIP3    H219860   5.033   1.373   1.676
 6639TIP3   OH219861   4.335   5.416   0.341
 6639TIP3    H119862   4.273   5.392   0.410
 6639TIP3    H219863   4.393   5.481   0.382
 6640TIP3   OH219864   2.642   7.133   0.932
 6640TIP3    H119865   2.559   7.132   0.885
 6640TIP3    H219866   2.620   7.099   1.019
 6641TIP3   OH219867   7.513   7.248   6.440
 6641TIP3    H119868   7.573   7.174   6.430
 6641TIP3    H219869   7.559   7.310   6.496
 6642TIP3   OH219870   5.129   1.168   0.941
 6642TIP3    H119871   5.040   1.198   0.920
 6642TIP3    H219872   5.162   1.234   1.002
 6643TIP3   OH219873   4.894   7.016   1.277
 6643TIP3    H119874   4.843   6.937   1.259
 6643TIP3    H219875   4.969   6.985   1.327
 6644TIP3   OH219876   5.873   1.709   4.327
 6644TIP3    H119877   5.948   1.674   4.375
 6644TIP3    H219878   5.912   1.750   4.249
 6645TIP3   OH219879   2.371   0.494   2.604
 6645TIP3    H119880   2.365   0.497   2.509
 6645TIP3    H219881   2.401   0.405   2.624
 6646TIP3   OH219882   3.714   7.327   4.292
 6646TIP3    H119883   3.772   7.285   4.227
 6646TIP3    H219884   3.626   7.316   4.257
 6647TIP3   OH219885   3.767   1.809   2.987
 6647TIP3    H119886   3.809   1.727   3.013
 6647TIP3    H219887   3.837   1.874   2.992
 6648TIP3   OH219888   0.222   2.348   4.349
 6648TIP3    H119889   0.133   2.314   4.339
 6648TIP3    H219890   0.226   2.424   4.291
 6649TIP3   OH219891   4.791   7.598   2.146
 6649TIP3    H119892   4.874   7.622   2.105
 6649TIP3    H219893   4.788   7.503   2.139
 6650TIP3   OH219894   7.913   4.912   4.818
 6650TIP3    H119895   7.834   4.920   4.871
 6650TIP3    H219896   7.883   4.869   4.738
 6651TIP3   OH219897   2.638   7.155   1.212
 6651TIP3    H119898   2.631   7.102   1.292
 6651TIP3    H219899   2.729   7.148   1.185
 6652TIP3   OH219900   5.863   1.913   2.002
 6652TIP3    H119901   5.861   1.998   2.045
 6652TIP3    H219902   5.853   1.932   1.909
 6653TIP3   OH219903   8.220   3.137   3.569
 6653TIP3    H119904   8.283   3.078   3.528
 6653TIP3    H219905   8.260   3.160   3.653
 6654TIP3   OH219906   3.100   4.233   0.249
 6654TIP3    H119907   3.073   4.287   0.175
 6654TIP3    H219908   3.078   4.287   0.326
 6655TIP3   OH219909   5.115   6.035   0.104
 6655TIP3    H119910   5.173   6.111   0.111
 6655TIP3    H219911   5.110   6.018   0.010
 6656TIP3   OH219912   2.288   5.413   5.454
 6656TIP3    H119913   2.318   5.403   5.364
 6656TIP3    H219914   2.239   5.495   5.455
 6657TIP3   OH219915   0.348   7.799   2.084
 6657TIP3    H119916   0.349   7.861   2.011
 6657TIP3    H219917   0.439   7.769   2.090
 6658TIP3   OH219918   4.971   3.035   6.468
 6658TIP3    H119919   4.925   3.043   6.384
 6658TIP3    H219920   5.061   3.011   6.444
 6659TIP3   OH219921   5.345   4.781   0.439
 6659TIP3    H119922   5.432   4.765   0.474
 6659TIP3    H219923   5.332   4.875   0.450
 6660TIP3   OH219924   1.894   3.159   6.629
 6660TIP3    H119925   1.875   3.235   6.684
 6660TIP3    H219926   1.909   3.088   6.691
 6661TIP3   OH219927   4.380   3.541   0.693
 6661TIP3    H119928   4.371   3.626   0.735
 6661TIP3    H219929   4.439   3.556   0.619
 6662TIP3   OH219930   4.154   4.399   1.195
 6662TIP3    H119931   4.080   4.459   1.201
 6662TIP3    H219932   4.208   4.435   1.124
 6663TIP3   OH219933   1.759   1.803   0.356
 6663TIP3    H119934   1.705   1.791   0.434
 6663TIP3    H219935   1.754   1.718   0.311
 6664TIP3   OH219936   1.276   1.624   5.533
 6664TIP3    H119937   1.311   1.539   5.510
 6664TIP3    H219938   1.351   1.684   5.529
 6665TIP3   OH219939   7.846   5.145   5.179
 6665TIP3    H119940   7.815   5.127   5.268
 6665TIP3    H219941   7.887   5.231   5.184
 6666TIP3   OH219942   2.715   4.724   0.801
 6666TIP3    H119943   2.704   4.691   0.712
 6666TIP3    H219944   2.628   4.721   0.839
 6667TIP3   OH219945   0.841   6.698   3.136
 6667TIP3    H119946   0.856   6.765   3.069
 6667TIP3    H219947   0.766   6.649   3.105
 6668TIP3   OH219948   6.519   0.422   1.913
 6668TIP3    H119949   6.607   0.460   1.905
 6668TIP3    H219950   6.463   0.479   1.861
 6669TIP3   OH219951   0.647   2.090   4.469
 6669TIP3    H119952   0.675   2.169   4.516
 6669TIP3    H219953   0.577   2.120   4.411
 6670TIP3   OH219954   3.354   0.453   4.876
 6670TIP3    H119955   3.441   0.412   4.871
 6670TIP3    H219956   3.344   0.497   4.792
 6671TIP3   OH219957   6.785   3.072   2.772
 6671TIP3    H119958   6.746   3.018   2.841
 6671TIP3    H219959   6.816   3.150   2.819
 6672TIP3   OH219960   7.864   4.557   2.085
 6672TIP3    H119961   7.769   4.554   2.097
 6672TIP3    H219962   7.882   4.646   2.057
 6673TIP3   OH219963   4.845   3.450   5.176
 6673TIP3    H119964   4.918   3.462   5.236
 6673TIP3    H219965   4.783   3.394   5.223
 6674TIP3   OH219966   3.034   6.306   0.917
 6674TIP3    H119967   3.045   6.401   0.927
 6674TIP3    H219968   3.100   6.281   0.852
 6675TIP3   OH219969   3.785   6.463   3.201
 6675TIP3    H119970   3.706   6.453   3.148
 6675TIP3    H219971   3.850   6.497   3.140
 6676TIP3   OH219972   1.877   5.627   0.478
 6676TIP3    H119973   1.858   5.593   0.391
 6676TIP3    H219974   1.797   5.674   0.503
 6677TIP3   OH219975   5.517   0.690   2.035
 6677TIP3    H119976   5.515   0.778   2.073
 6677TIP3    H219977   5.602   0.687   1.990
 6678TIP3   OH219978   0.754   0.197   4.577
 6678TIP3    H119979   0.693   0.124   4.578
 6678TIP3    H219980   0.802   0.189   4.660
 6679TIP3   OH219981   7.769   3.608   3.271
 6679TIP3    H119982   7.859   3.639   3.262
 6679TIP3    H219983   7.777   3.518   3.302
 6680TIP3   OH219984   6.171   1.880   5.796
 6680TIP3    H119985   6.110   1.869   5.870
 6680TIP3    H219986   6.181   1.975   5.787
 6681TIP3   OH219987   5.981   3.391   3.627
 6681TIP3    H119988   6.071   3.375   3.599
 6681TIP3    H219989   5.951   3.462   3.570
 6682TIP3   OH219990   7.392   2.792   4.285
 6682TIP3    H119991   7.316   2.838   4.249
 6682TIP3    H219992   7.362   2.760   4.370
 6683TIP3   OH219993   0.056   3.198   3.793
 6683TIP3    H119994   0.127   3.261   3.781
 6683TIP3    H219995   0.064   3.171   3.885
 6684TIP3   OH219996   4.832   5.663   6.579
 6684TIP3    H119997   4.779   5.743   6.577
 6684TIP3    H219998   4.830   5.630   6.490
 6685TIP3   OH219999   2.945   3.955   0.264
 6685TIP3    H120000   3.024   4.004   0.242
 6685TIP3    H220001   2.933   3.894   0.191
 6686TIP3   OH220002   7.065   7.043   1.006
 6686TIP3    H120003   6.973   7.017   1.003
 6686TIP3    H220004   7.113   6.968   0.971
 6687TIP3   OH220005   5.750   4.596   1.983
 6687TIP3    H120006   5.742   4.503   2.003
 6687TIP3    H220007   5.672   4.617   1.932
 6688TIP3   OH220008   3.351   2.013   0.910
 6688TIP3    H120009   3.391   2.096   0.885
 6688TIP3    H220010   3.408   1.946   0.870
 6689TIP3   OH220011   7.423   1.503   6.665
 6689TIP3    H120012   7.482   1.578   6.658
 6689TIP3    H220013   7.454   1.442   6.597
 6690TIP3   OH220014   4.214   6.958   1.606
 6690TIP3    H120015   4.234   6.869   1.576
 6690TIP3    H220016   4.211   7.010   1.525
 6691TIP3   OH220017   0.853   1.980   2.435
 6691TIP3    H120018   0.867   1.956   2.527
 6691TIP3    H220019   0.907   2.058   2.422
 6692TIP3   OH220020   4.954   0.750   3.966
 6692TIP3    H120021   5.027   0.758   4.028
 6692TIP3    H220022   4.894   0.688   4.008
 6693TIP3   OH220023   5.915   5.102   3.471
 6693TIP3    H120024   5.989   5.135   3.523
 6693TIP3    H220025   5.904   5.168   3.402
 6694TIP3   OH220026   0.980   2.389   1.002
 6694TIP3    H120027   1.070   2.389   1.033
 6694TIP3    H220028   0.976   2.315   0.941
 6695TIP3   OH220029   2.751   2.343   4.155
 6695TIP3    H120030   2.688   2.309   4.218
 6695TIP3    H220031   2.834   2.348   4.203
 6696TIP3   OH220032   3.100   6.542   6.154
 6696TIP3    H120033   3.009   6.570   6.151
 6696TIP3    H220034   3.146   6.614   6.197
 6697TIP3   OH220035   0.954   1.616   3.996
 6697TIP3    H120036   0.868   1.615   3.953
 6697TIP3    H220037   0.991   1.530   3.978
 6698TIP3   OH220038   2.857   6.171   5.739
 6698TIP3    H120039   2.770   6.198   5.708
 6698TIP3    H220040   2.886   6.244   5.794
 6699TIP3   OH220041   1.852   5.251   5.281
 6699TIP3    H120042   1.790   5.218   5.346
 6699TIP3    H220043   1.822   5.340   5.264
 6700TIP3   OH220044   3.223   7.640   6.042
 6700TIP3    H120045   3.294   7.597   5.995
 6700TIP3    H220046   3.163   7.569   6.065
 6701TIP3   OH220047   0.843   4.812   4.010
 6701TIP3    H120048   0.937   4.823   4.021
 6701TIP3    H220049   0.824   4.846   3.923
 6702TIP3   OH220050   4.946   5.447   6.066
 6702TIP3    H120051   4.939   5.530   6.019
 6702TIP3    H220052   5.038   5.441   6.092
 6703TIP3   OH220053   5.274   7.471   0.796
 6703TIP3    H120054   5.256   7.545   0.854
 6703TIP3    H220055   5.354   7.496   0.749
 6704TIP3   OH220056   4.773   2.618   0.493
 6704TIP3    H120057   4.747   2.710   0.492
 6704TIP3    H220058   4.692   2.571   0.514
 6705TIP3   OH220059   5.939   5.582   4.712
 6705TIP3    H120060   5.845   5.591   4.723
 6705TIP3    H220061   5.969   5.670   4.687
 6706TIP3   OH220062   7.536   2.651   2.612
 6706TIP3    H120063   7.575   2.683   2.530
 6706TIP3    H220064   7.583   2.697   2.681
 6707TIP3   OH220065   5.414   5.236   6.710
 6707TIP3    H120066   5.472   5.312   6.717
 6707TIP3    H220067   5.376   5.243   6.622
 6708TIP3   OH220068   8.079   7.738   5.765
 6708TIP3    H120069   8.165   7.734   5.724
 6708TIP3    H220070   8.069   7.829   5.793
 6709TIP3   OH220071   4.785   3.945   0.058
 6709TIP3    H120072   4.844   3.890   0.006
 6709TIP3    H220073   4.787   4.030   0.013
 6710TIP3   OH220074   6.307   0.704   3.221
 6710TIP3    H120075   6.331   0.612   3.214
 6710TIP3    H220076   6.389   0.752   3.209
 6711TIP3   OH220077   4.266   1.385   3.597
 6711TIP3    H120078   4.356   1.353   3.588
 6711TIP3    H220079   4.213   1.305   3.604
 6712TIP3   OH220080   3.198   1.425   2.036
 6712TIP3    H120081   3.189   1.369   2.113
 6712TIP3    H220082   3.109   1.439   2.006
 6713TIP3   OH220083   1.110   0.457   5.892
 6713TIP3    H120084   1.163   0.518   5.942
 6713TIP3    H220085   1.082   0.392   5.956
 6714TIP3   OH220086   4.096   7.167   6.526
 6714TIP3    H120087   4.016   7.161   6.578
 6714TIP3    H220088   4.166   7.142   6.586
 6715TIP3   OH220089   5.474   7.112   0.484
 6715TIP3    H120090   5.540   7.180   0.467
 6715TIP3    H220091   5.488   7.048   0.415
 6716TIP3   OH220092   5.959   2.670   2.955
 6716TIP3    H120093   5.930   2.717   2.877
 6716TIP3    H220094   6.053   2.655   2.939
 6717TIP3   OH220095   6.524   1.279   3.617
 6717TIP3    H120096   6.448   1.316   3.660
 6717TIP3    H220097   6.597   1.336   3.642
 6718TIP3   OH220098   1.596   2.544   4.919
 6718TIP3    H120099   1.504   2.527   4.899
 6718TIP3    H220100   1.616   2.625   4.872
 6719TIP3   OH220101  -0.015   0.092   2.079
 6719TIP3    H120102  -0.006   0.058   1.991
 6719TIP3    H220103   0.073   0.122   2.102
 6720TIP3   OH220104   7.963   3.028   6.562
 6720TIP3    H120105   8.013   2.997   6.637
 6720TIP3    H220106   8.028   3.060   6.499
 6721TIP3   OH220107   2.096   0.837   5.346
 6721TIP3    H120108   2.126   0.765   5.290
 6721TIP3    H220109   2.020   0.801   5.392
 6722TIP3   OH220110   5.282   3.068   4.897
 6722TIP3    H120111   5.334   3.137   4.856
 6722TIP3    H220112   5.347   3.005   4.929
 6723TIP3   OH220113   4.316   5.473   2.566
 6723TIP3    H120114   4.361   5.433   2.491
 6723TIP3    H220115   4.308   5.403   2.630
 6724TIP3   OH220116   2.653   6.687   5.787
 6724TIP3    H120117   2.631   6.631   5.861
 6724TIP3    H220118   2.638   6.776   5.818
 6725TIP3   OH220119   2.815   6.565   2.450
 6725TIP3    H120120   2.871   6.495   2.484
 6725TIP3    H220121   2.726   6.529   2.453
 6726TIP3   OH220122  -0.011   6.171   4.639
 6726TIP3    H120123  -0.025   6.081   4.612
 6726TIP3    H220124  -0.022   6.169   4.734
 6727TIP3   OH220125   7.024   7.599   4.362
 6727TIP3    H120126   7.081   7.636   4.429
 6727TIP3    H220127   7.068   7.620   4.279
 6728TIP3   OH220128   4.585   7.582   6.228
 6728TIP3    H120129   4.537   7.609   6.150
 6728TIP3    H220130   4.584   7.486   6.224
 6729TIP3   OH220131   6.214   5.914   3.522
 6729TIP3    H120132   6.172   5.999   3.539
 6729TIP3    H220133   6.297   5.936   3.481
 6730TIP3   OH220134   4.664   6.192   6.436
 6730TIP3    H120135   4.614   6.234   6.506
 6730TIP3    H220136   4.606   6.122   6.404
 6731TIP3   OH220137   0.625   4.926   0.727
 6731TIP3    H120138   0.719   4.940   0.738
 6731TIP3    H220139   0.586   4.957   0.809
 6732TIP3   OH220140   5.734   1.932   6.443
 6732TIP3    H120141   5.706   2.024   6.447
 6732TIP3    H220142   5.674   1.886   6.502
 6733TIP3   OH220143   3.250   5.983   4.157
 6733TIP3    H120144   3.233   5.920   4.227
 6733TIP3    H220145   3.165   6.027   4.144
 6734TIP3   OH220146   1.650   1.669   1.124
 6734TIP3    H120147   1.583   1.602   1.137
 6734TIP3    H220148   1.691   1.647   1.040
 6735TIP3   OH220149   6.105   5.715   1.052
 6735TIP3    H120150   6.065   5.795   1.017
 6735TIP3    H220151   6.173   5.747   1.112
 6736TIP3   OH220152   5.606   0.675   0.086
 6736TIP3    H120153   5.548   0.601   0.103
 6736TIP3    H220154   5.619   0.716   0.172
 6737TIP3   OH220155   0.768   3.876   3.361
 6737TIP3    H120156   0.825   3.909   3.291
 6737TIP3    H220157   0.818   3.891   3.441
 6738TIP3   OH220158   6.420   5.652   4.923
 6738TIP3    H120159   6.336   5.621   4.890
 6738TIP3    H220160   6.449   5.585   4.984
 6739TIP3   OH220161   1.879   2.785   3.116
 6739TIP3    H120162   1.931   2.810   3.192
 6739TIP3    H220163   1.791   2.818   3.136
 6740TIP3   OH220164   4.418   3.135   4.957
 6740TIP3    H120165   4.367   3.215   4.972
 6740TIP3    H220166   4.451   3.144   4.868
 6741TIP3   OH220167   0.334   2.124   2.310
 6741TIP3    H120168   0.284   2.135   2.229
 6741TIP3    H220169   0.366   2.034   2.306
 6742TIP3   OH220170   2.630   0.660   4.238
 6742TIP3    H120171   2.609   0.631   4.150
 6742TIP3    H220172   2.701   0.723   4.226
 6743TIP3   OH220173   1.783   2.280   6.269
 6743TIP3    H120174   1.757   2.370   6.249
 6743TIP3    H220175   1.852   2.260   6.206
 6744TIP3   OH220176   8.065   0.639   1.298
 6744TIP3    H120177   8.014   0.719   1.313
 6744TIP3    H220178   8.072   0.634   1.202
 6745TIP3   OH220179   0.937   2.522   6.094
 6745TIP3    H120180   0.949   2.430   6.116
 6745TIP3    H220181   0.870   2.553   6.156
 6746TIP3   OH220182   3.848   2.210   1.889
 6746TIP3    H120183   3.817   2.128   1.927
 6746TIP3    H220184   3.771   2.266   1.885
 6747TIP3   OH220185   5.742   5.250   5.951
 6747TIP3    H120186   5.809   5.198   5.907
 6747TIP3    H220187   5.659   5.217   5.917
 6748TIP3   OH220188   6.661   2.490   5.760
 6748TIP3    H120189   6.581   2.467   5.807
 6748TIP3    H220190   6.671   2.584   5.775
 6749TIP3   OH220191   5.950   2.915   3.290
 6749TIP3    H120192   5.961   3.007   3.268
 6749TIP3    H220193   6.024   2.895   3.347
 6750TIP3   OH220194   4.982   2.482   3.191
 6750TIP3    H120195   5.026   2.535   3.124
 6750TIP3    H220196   4.921   2.542   3.233
 6751TIP3   OH220197   4.207   6.266   2.399
 6751TIP3    H120198   4.283   6.235   2.350
 6751TIP3    H220199   4.131   6.235   2.349
 6752TIP3   OH220200   4.995   1.543   0.824
 6752TIP3    H120201   4.928   1.476   0.813
 6752TIP3    H220202   5.071   1.510   0.775
 6753TIP3   OH220203   2.284   3.668   0.286
 6753TIP3    H120204   2.294   3.700   0.376
 6753TIP3    H220205   2.326   3.734   0.232
 6754TIP3   OH220206   4.894   4.195   5.259
 6754TIP3    H120207   4.841   4.121   5.287
 6754TIP3    H220208   4.985   4.166   5.270
 6755TIP3   OH220209   0.555   0.120   0.313
 6755TIP3    H120210   0.627   0.168   0.272
 6755TIP3    H220211   0.480   0.179   0.306
 6756TIP3   OH220212   6.918   2.430   2.967
 6756TIP3    H120213   6.932   2.357   3.028
 6756TIP3    H220214   6.949   2.396   2.883
 6757TIP3   OH220215   6.723   6.312   1.847
 6757TIP3    H120216   6.799   6.314   1.788
 6757TIP3    H220217   6.749   6.256   1.919
 6758TIP3   OH220218   4.790   0.278   4.033
 6758TIP3    H120219   4.832   0.361   4.055
 6758TIP3    H220220   4.700   0.288   4.065
 6759TIP3   OH220221   1.542   5.811   5.872
 6759TIP3    H120222   1.548   5.906   5.883
 6759TIP3    H220223   1.629   5.779   5.894
 6760TIP3   OH220224   4.777   3.522   3.847
 6760TIP3    H120225   4.714   3.520   3.919
 6760TIP3    H220226   4.812   3.433   3.842
 6761TIP3   OH220227   4.234   3.305   3.993
 6761TIP3    H120228   4.154   3.354   3.973
 6761TIP3    H220229   4.239   3.239   3.925
 6762TIP3   OH220230   0.494   4.049   0.471
 6762TIP3    H120231   0.462   4.127   0.516
 6762TIP3    H220232   0.572   4.079   0.424
 6763TIP3   OH220233   6.686   4.554   0.346
 6763TIP3    H120234   6.673   4.622   0.412
 6763TIP3    H220235   6.655   4.593   0.264
 6764TIP3   OH220236   2.053   0.351   3.991
 6764TIP3    H120237   2.060   0.360   4.086
 6764TIP3    H220238   1.960   0.333   3.975
 6765TIP3   OH220239   0.921   2.522   1.422
 6765TIP3    H120240   0.855   2.559   1.480
 6765TIP3    H220241   0.878   2.516   1.336
 6766TIP3   OH220242   1.067   0.114   2.587
 6766TIP3    H120243   1.084   0.203   2.555
 6766TIP3    H220244   1.102   0.113   2.675
 6767TIP3   OH220245   0.547   3.939   2.580
 6767TIP3    H120246   0.504   3.876   2.638
 6767TIP3    H220247   0.598   3.884   2.520
 6768TIP3   OH220248   2.794   2.383   0.279
 6768TIP3    H120249   2.815   2.379   0.372
 6768TIP3    H220250   2.771   2.293   0.256
 6769TIP3   OH220251   6.917   6.623   1.041
 6769TIP3    H120252   6.925   6.655   0.952
 6769TIP3    H220253   6.999   6.650   1.084
 6770TIP3   OH220254   1.072   2.971   1.569
 6770TIP3    H120255   0.986   2.947   1.604
 6770TIP3    H220256   1.094   2.900   1.509
 6771TIP3   OH220257   6.617   4.238   0.856
 6771TIP3    H120258   6.557   4.304   0.822
 6771TIP3    H220259   6.568   4.156   0.851
 6772TIP3   OH220260   2.984   0.199   0.231
 6772TIP3    H120261   2.921   0.271   0.224
 6772TIP3    H220262   3.043   0.212   0.156
 6773TIP3   OH220263   4.533   2.690   4.593
 6773TIP3    H120264   4.582   2.652   4.666
 6773TIP3    H220265   4.567   2.779   4.584
 6774TIP3   OH220266   2.847   4.919   1.621
 6774TIP3    H120267   2.900   4.976   1.677
 6774TIP3    H220268   2.868   4.830   1.651
 6775TIP3   OH220269   2.994   5.548   3.579
 6775TIP3    H120270   3.044   5.628   3.563
 6775TIP3    H220271   2.968   5.553   3.670
 6776TIP3   OH220272   3.530   3.675   0.700
 6776TIP3    H120273   3.453   3.620   0.684
 6776TIP3    H220274   3.549   3.662   0.793
 6777TIP3   OH220275   0.456   6.086   4.180
 6777TIP3    H120276   0.368   6.067   4.146
 6777TIP3    H220277   0.515   6.050   4.115
 6778TIP3   OH220278   6.470   6.991   5.001
 6778TIP3    H120279   6.442   7.010   5.091
 6778TIP3    H220280   6.520   6.910   5.008
 6779TIP3   OH220281   0.614   1.521   0.510
 6779TIP3    H120282   0.546   1.578   0.475
 6779TIP3    H220283   0.635   1.559   0.595
 6780TIP3   OH220284   6.686   7.787   3.440
 6780TIP3    H120285   6.680   7.709   3.386
 6780TIP3    H220286   6.596   7.820   3.444
 6781TIP3   OH220287   4.153   5.423   2.109
 6781TIP3    H120288   4.177   5.336   2.138
 6781TIP3    H220289   4.126   5.411   2.018
 6782TIP3   OH220290   4.639   6.090   1.942
 6782TIP3    H120291   4.686   6.075   2.024
 6782TIP3    H220292   4.702   6.134   1.885
 6783TIP3   OH220293   3.640   1.469   2.148
 6783TIP3    H120294   3.731   1.464   2.177
 6783TIP3    H220295   3.598   1.524   2.213
 6784TIP3   OH220296   7.344   7.541   4.765
 6784TIP3    H120297   7.421   7.537   4.708
 6784TIP3    H220298   7.292   7.613   4.730
 6785TIP3   OH220299   7.255   2.718   2.020
 6785TIP3    H120300   7.296   2.632   2.008
 6785TIP3    H220301   7.272   2.765   1.938
 6786TIP3   OH220302   2.502   3.650   4.715
 6786TIP3    H120303   2.562   3.577   4.728
 6786TIP3    H220304   2.544   3.703   4.647
 6787TIP3   OH220305   8.212   5.581   4.859
 6787TIP3    H120306   8.194   5.495   4.897
 6787TIP3    H220307   8.272   5.622   4.921
 6788TIP3   OH220308   7.819   5.727   3.216
 6788TIP3    H120309   7.891   5.667   3.197
 6788TIP3    H220310   7.819   5.735   3.312
 6789TIP3   OH220311   3.509   5.383   1.524
 6789TIP3    H120312   3.426   5.425   1.503
 6789TIP3    H220313   3.484   5.296   1.554
 6790TIP3   OH220314   0.298   4.290   4.299
 6790TIP3    H120315   0.249   4.371   4.309
 6790TIP3    H220316   0.270   4.236   4.373
 6791TIP3   OH220317   4.552   7.150   5.214
 6791TIP3    H120318   4.613   7.133   5.142
 6791TIP3    H220319   4.605   7.135   5.293
 6792TIP3   OH220320   0.970   1.685   5.999
 6792TIP3    H120321   0.927   1.607   5.963
 6792TIP3    H220322   1.063   1.670   5.983
 6793TIP3   OH220323   3.446   4.998   3.454
 6793TIP3    H120324   3.503   5.049   3.512
 6793TIP3    H220325   3.435   4.914   3.499
 6794TIP3   OH220326   4.409   1.774   2.260
 6794TIP3    H120327   4.362   1.691   2.259
 6794TIP3    H220328   4.487   1.757   2.311
 6795TIP3   OH220329   0.879   4.290   0.114
 6795TIP3    H120330   0.928   4.352   0.168
 6795TIP3    H220331   0.926   4.289   0.030
 6796TIP3   OH220332   0.024   4.351   3.075
 6796TIP3    H120333   0.002   4.258   3.078
 6796TIP3    H220334   0.118   4.354   3.093
 6797TIP3   OH220335   3.741   3.287   5.373
 6797TIP3    H120336   3.822   3.331   5.349
 6797TIP3    H220337   3.689   3.286   5.293
 6798TIP3   OH220338   2.971   0.873   0.617
 6798TIP3    H120339   3.000   0.942   0.557
 6798TIP3    H220340   3.052   0.838   0.655
 6799TIP3   OH220341   3.157   6.608   3.894
 6799TIP3    H120342   3.209   6.689   3.901
 6799TIP3    H220343   3.130   6.590   3.984
 6800TIP3   OH220344   0.647   2.707   4.609
 6800TIP3    H120345   0.726   2.659   4.636
 6800TIP3    H220346   0.579   2.639   4.603
 6801TIP3   OH220347   3.863   7.091   1.850
 6801TIP3    H120348   3.896   7.168   1.804
 6801TIP3    H220349   3.886   7.018   1.793
 6802TIP3   OH220350   1.092   5.470   6.114
 6802TIP3    H120351   1.161   5.510   6.168
 6802TIP3    H220352   1.060   5.542   6.060
 6803TIP3   OH220353   0.932   6.841   0.056
 6803TIP3    H120354   0.858   6.791   0.091
 6803TIP3    H220355   0.954   6.903   0.125
 6804TIP3   OH220356   5.270   5.716   5.807
 6804TIP3    H120357   5.193   5.682   5.761
 6804TIP3    H220358   5.340   5.655   5.783
 6805TIP3   OH220359   6.488   6.798   5.281
 6805TIP3    H120360   6.501   6.891   5.302
 6805TIP3    H220361   6.545   6.783   5.206
 6806TIP3   OH220362   5.884   3.147   0.575
 6806TIP3    H120363   5.956   3.100   0.617
 6806TIP3    H220364   5.912   3.239   0.577
 6807TIP3   OH220365   1.510   4.537   4.198
 6807TIP3    H120366   1.506   4.447   4.230
 6807TIP3    H220367   1.420   4.558   4.173
 6808TIP3   OH220368   2.891   6.335   4.918
 6808TIP3    H120369   2.856   6.419   4.948
 6808TIP3    H220370   2.816   6.276   4.922
 6809TIP3   OH220371   7.905   1.502  -0.002
 6809TIP3    H120372   7.888   1.422   0.049
 6809TIP3    H220373   7.898   1.573   0.062
 6810TIP3   OH220374   1.300   2.203   4.798
 6810TIP3    H120375   1.315   2.266   4.868
 6810TIP3    H220376   1.388   2.186   4.763
 6811TIP3   OH220377   5.952   3.773   5.937
 6811TIP3    H120378   6.032   3.786   5.886
 6811TIP3    H220379   5.952   3.844   6.001
 6812TIP3   OH220380   4.285   7.730   2.945
 6812TIP3    H120381   4.267   7.770   3.031
 6812TIP3    H220382   4.238   7.646   2.948
 6813TIP3   OH220383   2.353   1.471   1.343
 6813TIP3    H120384   2.389   1.528   1.276
 6813TIP3    H220385   2.286   1.420   1.298
 6814TIP3   OH220386   1.100   0.181   1.988
 6814TIP3    H120387   1.194   0.169   1.980
 6814TIP3    H220388   1.078   0.246   1.922
 6815TIP3   OH220389   8.216   1.574   1.833
 6815TIP3    H120390   8.147   1.563   1.898
 6815TIP3    H220391   8.174   1.553   1.750
 6816TIP3   OH220392   1.612   2.855   2.274
 6816TIP3    H120393   1.613   2.808   2.358
 6816TIP3    H220394   1.635   2.945   2.297
 6817TIP3   OH220395   1.275   4.208   2.786
 6817TIP3    H120396   1.364   4.197   2.822
 6817TIP3    H220397   1.288   4.257   2.705
 6818TIP3   OH220398   7.603   4.319   0.746
 6818TIP3    H120399   7.555   4.341   0.666
 6818TIP3    H220400   7.545   4.258   0.792
 6819TIP3   OH220401   4.253   4.608   2.595
 6819TIP3    H120402   4.247   4.598   2.500
 6819TIP3    H220403   4.331   4.662   2.608
 6820TIP3   OH220404   7.763   5.935   1.129
 6820TIP3    H120405   7.724   5.946   1.042
 6820TIP3    H220406   7.744   5.845   1.153
 6821TIP3   OH220407   0.368   5.248   5.827
 6821TIP3    H120408   0.461   5.236   5.809
 6821TIP3    H220409   0.352   5.195   5.905
 6822TIP3   OH220410   3.569   5.613   1.788
 6822TIP3    H120411   3.576   5.707   1.771
 6822TIP3    H220412   3.533   5.577   1.707
 6823TIP3   OH220413   3.868   4.574   2.138
 6823TIP3    H120414   3.810   4.508   2.098
 6823TIP3    H220415   3.875   4.643   2.071
 6824TIP3   OH220416   4.064   5.359   5.619
 6824TIP3    H120417   4.124   5.429   5.592
 6824TIP3    H220418   4.109   5.278   5.594
 6825TIP3   OH220419   6.153   1.336   6.152
 6825TIP3    H120420   6.127   1.417   6.195
 6825TIP3    H220421   6.077   1.279   6.158
 6826TIP3   OH220422   4.603   5.865   6.778
 6826TIP3    H120423   4.666   5.938   6.774
 6826TIP3    H220424   4.518   5.906   6.763
 6827TIP3   OH220425   0.286   5.114   2.012
 6827TIP3    H120426   0.242   5.104   1.927
 6827TIP3    H220427   0.349   5.185   1.998
 6828TIP3   OH220428   7.831   4.483   6.022
 6828TIP3    H120429   7.862   4.527   5.942
 6828TIP3    H220430   7.903   4.493   6.084
 6829TIP3   OH220431   0.519   1.791   1.574
 6829TIP3    H120432   0.545   1.855   1.641
 6829TIP3    H220433   0.478   1.720   1.624
 6830TIP3   OH220434   0.956   0.381   3.151
 6830TIP3    H120435   1.024   0.426   3.101
 6830TIP3    H220436   0.896   0.450   3.179
 6831TIP3   OH220437   2.898   5.182   3.499
 6831TIP3    H120438   2.853   5.227   3.428
 6831TIP3    H220439   2.982   5.156   3.462
 6832TIP3   OH220440   3.832   5.509   2.470
 6832TIP3    H120441   3.763   5.573   2.453
 6832TIP3    H220442   3.913   5.555   2.446
 6833TIP3   OH220443   4.903   2.703   0.258
 6833TIP3    H120444   4.997   2.689   0.261
 6833TIP3    H220445   4.869   2.654   0.333
 6834TIP3   OH220446   7.026   6.652   6.569
 6834TIP3    H120447   7.113   6.617   6.547
 6834TIP3    H220448   7.008   6.617   6.656
 6835TIP3   OH220449   3.614   7.599   5.065
 6835TIP3    H120450   3.626   7.579   5.158
 6835TIP3    H220451   3.535   7.550   5.040
 6836TIP3   OH220452   2.898   5.713   0.761
 6836TIP3    H120453   2.911   5.772   0.835
 6836TIP3    H220454   2.834   5.649   0.793
 6837TIP3   OH220455   1.142   6.088   2.283
 6837TIP3    H120456   1.059   6.047   2.259
 6837TIP3    H220457   1.151   6.072   2.377
 6838TIP3   OH220458   0.427   4.527   2.093
 6838TIP3    H120459   0.402   4.617   2.072
 6838TIP3    H220460   0.523   4.528   2.093
 6839TIP3   OH220461   1.270   1.867   4.121
 6839TIP3    H120462   1.310   1.889   4.205
 6839TIP3    H220463   1.308   1.783   4.097
 6840TIP3   OH220464   6.078   1.328   1.189
 6840TIP3    H120465   6.072   1.343   1.284
 6840TIP3    H220466   5.987   1.314   1.162
 6841TIP3   OH220467   0.803   4.401   5.234
 6841TIP3    H120468   0.735   4.416   5.168
 6841TIP3    H220469   0.872   4.463   5.211
 6842TIP3   OH220470   1.392   0.264   3.701
 6842TIP3    H120471   1.422   0.275   3.611
 6842TIP3    H220472   1.425   0.341   3.747
 6843TIP3   OH220473   2.109   5.365   1.872
 6843TIP3    H120474   2.129   5.310   1.797
 6843TIP3    H220475   2.083   5.303   1.941
 6844TIP3   OH220476   6.657   2.124   0.086
 6844TIP3    H120477   6.567   2.110   0.057
 6844TIP3    H220478   6.660   2.087   0.174
 6845TIP3   OH220479   2.276   4.110   6.053
 6845TIP3    H120480   2.256   4.049   5.982
 6845TIP3    H220481   2.364   4.086   6.081
 6846TIP3   OH220482   3.823   7.761   6.070
 6846TIP3    H120483   3.814   7.764   6.165
 6846TIP3    H220484   3.820   7.853   6.043
 6847TIP3   OH220485   3.067   6.107   2.834
 6847TIP3    H120486   3.064   6.059   2.917
 6847TIP3    H220487   3.006   6.179   2.846
 6848TIP3   OH220488   3.970   3.027   0.525
 6848TIP3    H120489   3.965   3.095   0.592
 6848TIP3    H220490   3.880   2.996   0.515
 6849TIP3   OH220491   5.918   1.804   0.373
 6849TIP3    H120492   5.890   1.757   0.451
 6849TIP3    H220493   6.003   1.840   0.397
 6850TIP3   OH220494   7.825   6.888   5.400
 6850TIP3    H120495   7.768   6.948   5.447
 6850TIP3    H220496   7.900   6.876   5.458
 6851TIP3   OH220497   6.139   5.557   2.582
 6851TIP3    H120498   6.202   5.504   2.532
 6851TIP3    H220499   6.184   5.578   2.663
 6852TIP3   OH220500   1.360   1.187   0.861
 6852TIP3    H120501   1.327   1.109   0.907
 6852TIP3    H220502   1.349   1.167   0.768
 6853TIP3   OH220503   3.350   0.151   2.687
 6853TIP3    H120504   3.440   0.170   2.659
 6853TIP3    H220505   3.295   0.201   2.626
 6854TIP3   OH220506   7.031   5.888   5.205
 6854TIP3    H120507   6.944   5.881   5.244
 6854TIP3    H220508   7.068   5.968   5.242
 6855TIP3   OH220509   1.447   3.528   0.772
 6855TIP3    H120510   1.518   3.476   0.808
 6855TIP3    H220511   1.491   3.595   0.719
 6856TIP3   OH220512   1.743   7.635   5.245
 6856TIP3    H120513   1.737   7.556   5.298
 6856TIP3    H220514   1.654   7.672   5.246
 6857TIP3   OH220515   2.125   4.324   2.577
 6857TIP3    H120516   2.183   4.318   2.653
 6857TIP3    H220517   2.155   4.256   2.517
 6858TIP3   OH220518   8.027   0.200   6.700
 6858TIP3    H120519   7.991   0.115   6.725
 6858TIP3    H220520   8.103   0.211   6.758
 6859TIP3   OH220521   0.736   1.104   3.859
 6859TIP3    H120522   0.661   1.054   3.827
 6859TIP3    H220523   0.734   1.186   3.809
 6860TIP3   OH220524   1.132   1.783   3.847
 6860TIP3    H120525   1.142   1.836   3.926
 6860TIP3    H220526   1.075   1.711   3.874
 6861TIP3   OH220527   0.906   4.643   0.704
 6861TIP3    H120528   0.825   4.635   0.754
 6861TIP3    H220529   0.923   4.737   0.702
 6862TIP3   OH220530   3.415   7.630   1.690
 6862TIP3    H120531   3.472   7.677   1.630
 6862TIP3    H220532   3.368   7.698   1.738
 6863TIP3   OH220533   6.485   3.266   6.127
 6863TIP3    H120534   6.414   3.272   6.191
 6863TIP3    H220535   6.447   3.299   6.046
 6864TIP3   OH220536   7.969   3.883   4.367
 6864TIP3    H120537   7.925   3.943   4.428
 6864TIP3    H220538   7.941   3.912   4.281
 6865TIP3   OH220539   6.566   3.052   1.572
 6865TIP3    H120540   6.632   3.107   1.614
 6865TIP3    H220541   6.613   2.972   1.550
 6866TIP3   OH220542   6.606   4.954   5.680
 6866TIP3    H120543   6.573   5.032   5.636
 6866TIP3    H220544   6.621   4.891   5.609
 6867TIP3   OH220545   3.538   5.886   1.839
 6867TIP3    H120546   3.454   5.883   1.792
 6867TIP3    H220547   3.565   5.977   1.833
 6868TIP3   OH220548   1.284   1.577   4.077
 6868TIP3    H120549   1.359   1.561   4.135
 6868TIP3    H220550   1.266   1.492   4.037
 6869TIP3   OH220551   4.135   0.543   3.412
 6869TIP3    H120552   4.040   0.547   3.410
 6869TIP3    H220553   4.155   0.453   3.438
 6870TIP3   OH220554   7.244   2.419   4.698
 6870TIP3    H120555   7.240   2.370   4.781
 6870TIP3    H220556   7.286   2.358   4.637
 6871TIP3   OH220557   4.905   2.490   1.768
 6871TIP3    H120558   4.817   2.524   1.751
 6871TIP3    H220559   4.928   2.525   1.854
 6872TIP3   OH220560   2.399   7.301   0.206
 6872TIP3    H120561   2.359   7.315   0.120
 6872TIP3    H220562   2.409   7.206   0.212
 6873TIP3   OH220563   4.182   4.275   1.959
 6873TIP3    H120564   4.193   4.189   1.917
 6873TIP3    H220565   4.256   4.326   1.926
 6874TIP3   OH220566   5.882   7.352   0.067
 6874TIP3    H120567   5.900   7.444   0.048
 6874TIP3    H220568   5.890   7.308  -0.018
 6875TIP3   OH220569   2.227   0.928   5.800
 6875TIP3    H120570   2.158   0.890   5.855
 6875TIP3    H220571   2.308   0.897   5.839
 6876TIP3   OH220572   8.261   6.567   5.352
 6876TIP3    H120573   8.308   6.646   5.325
 6876TIP3    H220574   8.171   6.582   5.324
 6877TIP3   OH220575   3.911   6.470   1.446
 6877TIP3    H120576   3.852   6.544   1.434
 6877TIP3    H220577   3.993   6.498   1.405
 6878TIP3   OH220578   4.559   0.725   1.923
 6878TIP3    H120579   4.574   0.787   1.995
 6878TIP3    H220580   4.549   0.640   1.967
 6879TIP3   OH220581   1.534   2.701   6.249
 6879TIP3    H120582   1.620   2.671   6.218
 6879TIP3    H220583   1.496   2.623   6.290
 6880TIP3   OH220584   0.996   7.475   0.579
 6880TIP3    H120585   1.076   7.519   0.550
 6880TIP3    H220586   0.998   7.391   0.535
 6881TIP3   OH220587   7.984   0.316   4.514
 6881TIP3    H120588   7.932   0.307   4.594
 6881TIP3    H220589   8.004   0.409   4.508
 6882TIP3   OH220590   5.619   1.204   6.655
 6882TIP3    H120591   5.557   1.193   6.582
 6882TIP3    H220592   5.669   1.281   6.633
 6883TIP3   OH220593   6.639   4.736   1.876
 6883TIP3    H120594   6.634   4.662   1.936
 6883TIP3    H220595   6.589   4.708   1.799
 6884TIP3   OH220596   2.950   0.948   2.567
 6884TIP3    H120597   2.863   0.924   2.537
 6884TIP3    H220598   2.946   1.043   2.579
 6885TIP3   OH220599   5.974   5.641   0.676
 6885TIP3    H120600   5.918   5.586   0.621
 6885TIP3    H220601   5.996   5.716   0.620
 6886TIP3   OH220602   1.417   1.454   2.990
 6886TIP3    H120603   1.402   1.535   2.942
 6886TIP3    H220604   1.330   1.423   3.014
 6887TIP3   OH220605   3.526   4.281   3.778
 6887TIP3    H120606   3.518   4.288   3.873
 6887TIP3    H220607   3.536   4.187   3.762
 6888TIP3   OH220608   3.634   4.981   5.126
 6888TIP3    H120609   3.646   5.020   5.212
 6888TIP3    H220610   3.541   4.957   5.123
 6889TIP3   OH220611   0.915   5.740   2.660
 6889TIP3    H120612   0.850   5.736   2.730
 6889TIP3    H220613   0.934   5.648   2.640
 6890TIP3   OH220614   5.661   1.968   2.709
 6890TIP3    H120615   5.575   1.928   2.724
 6890TIP3    H220616   5.664   1.982   2.614
 6891TIP3   OH220617   1.202   0.446   5.219
 6891TIP3    H120618   1.201   0.484   5.307
 6891TIP3    H220619   1.260   0.370   5.227
 6892TIP3   OH220620   2.029   0.252   0.222
 6892TIP3    H120621   2.026   0.340   0.184
 6892TIP3    H220622   2.044   0.266   0.315
 6893TIP3   OH220623   4.974   0.931   2.978
 6893TIP3    H120624   4.945   0.922   2.887
 6893TIP3    H220625   4.901   0.973   3.023
 6894TIP3   OH220626   5.559   1.637   3.181
 6894TIP3    H120627   5.463   1.634   3.180
 6894TIP3    H220628   5.580   1.687   3.259
 6895TIP3   OH220629   0.738   5.588   5.336
 6895TIP3    H120630   0.725   5.678   5.308
 6895TIP3    H220631   0.660   5.542   5.308
 6896TIP3   OH220632   5.093   7.118   6.522
 6896TIP3    H120633   5.023   7.178   6.547
 6896TIP3    H220634   5.169   7.148   6.573
 6897TIP3   OH220635   1.205   3.524   0.587
 6897TIP3    H120636   1.177   3.495   0.674
 6897TIP3    H220637   1.246   3.447   0.548
 6898TIP3   OH220638   5.441   1.889   6.016
 6898TIP3    H120639   5.442   1.894   5.920
 6898TIP3    H220640   5.375   1.953   6.042
 6899TIP3   OH220641   8.212   1.526   6.332
 6899TIP3    H120642   8.219   1.487   6.419
 6899TIP3    H220643   8.193   1.452   6.273
 6900TIP3   OH220644   7.622   3.701   4.710
 6900TIP3    H120645   7.575   3.618   4.719
 6900TIP3    H220646   7.589   3.756   4.781
 6901TIP3   OH220647   1.333   2.459   6.034
 6901TIP3    H120648   1.328   2.417   6.120
 6901TIP3    H220649   1.371   2.392   5.977
 6902TIP3   OH220650   8.213   5.602   4.571
 6902TIP3    H120651   8.138   5.542   4.572
 6902TIP3    H220652   8.246   5.600   4.660
 6903TIP3   OH220653   3.743   3.227   4.877
 6903TIP3    H120654   3.782   3.236   4.789
 6903TIP3    H220655   3.702   3.141   4.876
 6904TIP3   OH220656   3.873   5.946   2.222
 6904TIP3    H120657   3.804   5.982   2.166
 6904TIP3    H220658   3.906   5.871   2.174
 6905TIP3   OH220659   0.516   1.980   5.446
 6905TIP3    H120660   0.534   2.037   5.371
 6905TIP3    H220661   0.427   1.949   5.432
 6906TIP3   OH220662   0.278   2.986   0.425
 6906TIP3    H120663   0.202   3.044   0.418
 6906TIP3    H220664   0.340   3.034   0.481
 6907TIP3   OH220665   7.749   6.523   3.747
 6907TIP3    H120666   7.814   6.525   3.817
 6907TIP3    H220667   7.674   6.479   3.786
 6908TIP3   OH220668   8.112   3.755   5.925
 6908TIP3    H120669   8.056   3.784   5.997
 6908TIP3    H220670   8.051   3.726   5.857
 6909TIP3   OH220671   5.281   0.572   4.942
 6909TIP3    H120672   5.295   0.650   4.996
 6909TIP3    H220673   5.346   0.580   4.872
 6910TIP3   OH220674   1.089   4.688   0.178
 6910TIP3    H120675   1.030   4.691   0.253
 6910TIP3    H220676   1.060   4.760   0.122
 6911TIP3   OH220677   0.998   4.372   0.344
 6911TIP3    H120678   1.058   4.385   0.417
 6911TIP3    H220679   0.912   4.400   0.377
 6912TIP3   OH220680   5.982   1.191   2.395
 6912TIP3    H120681   5.975   1.099   2.422
 6912TIP3    H220682   5.997   1.187   2.301
 6913TIP3   OH220683   2.921   6.287   0.070
 6913TIP3    H120684   2.980   6.230   0.119
 6913TIP3    H220685   2.881   6.344   0.135
 6914TIP3   OH220686   7.138   2.346   5.373
 6914TIP3    H120687   7.050   2.311   5.388
 6914TIP3    H220688   7.128   2.404   5.298
 6915TIP3   OH220689   0.404   4.465   5.935
 6915TIP3    H120690   0.407   4.537   5.873
 6915TIP3    H220691   0.492   4.426   5.932
 6916TIP3   OH220692   2.142   3.517   1.842
 6916TIP3    H120693   2.125   3.609   1.823
 6916TIP3    H220694   2.233   3.514   1.871
 6917TIP3   OH220695   2.194   2.200   4.954
 6917TIP3    H120696   2.230   2.136   5.015
 6917TIP3    H220697   2.270   2.248   4.922
 6918TIP3   OH220698   4.201   1.901   2.690
 6918TIP3    H120699   4.193   1.820   2.741
 6918TIP3    H220700   4.127   1.955   2.718
 6919TIP3   OH220701   7.662   0.199   6.028
 6919TIP3    H120702   7.618   0.134   5.973
 6919TIP3    H220703   7.660   0.160   6.116
 6920TIP3   OH220704   6.112   6.885   1.345
 6920TIP3    H120705   6.059   6.957   1.379
 6920TIP3    H220706   6.056   6.840   1.283
 6921TIP3   OH220707   3.873   5.698   5.256
 6921TIP3    H120708   3.935   5.771   5.267
 6921TIP3    H220709   3.859   5.665   5.344
 6922TIP3   OH220710   0.835   6.248   4.470
 6922TIP3    H120711   0.781   6.285   4.400
 6922TIP3    H220712   0.921   6.237   4.430
 6923TIP3   OH220713   5.176   3.883   2.203
 6923TIP3    H120714   5.155   3.944   2.274
 6923TIP3    H220715   5.092   3.848   2.175
 6924TIP3   OH220716   0.189   1.708   3.668
 6924TIP3    H120717   0.175   1.802   3.683
 6924TIP3    H220718   0.111   1.666   3.705
 6925TIP3   OH220719   5.830   6.561   6.077
 6925TIP3    H120720   5.755   6.617   6.098
 6925TIP3    H220721   5.802   6.473   6.102
 6926TIP3   OH220722   7.079   3.657   2.777
 6926TIP3    H120723   7.167   3.693   2.769
 6926TIP3    H220724   7.061   3.618   2.692
 6927TIP3   OH220725   4.155   1.466   0.481
 6927TIP3    H120726   4.074   1.456   0.431
 6927TIP3    H220727   4.225   1.462   0.415
 6928TIP3   OH220728   1.450   4.137   3.977
 6928TIP3    H120729   1.475   4.054   3.935
 6928TIP3    H220730   1.422   4.193   3.906
 6929TIP3   OH220731   6.713   1.024   2.021
 6929TIP3    H120732   6.674   0.971   1.951
 6929TIP3    H220733   6.675   1.111   2.010
 6930TIP3   OH220734   7.216   6.325   3.325
 6930TIP3    H120735   7.185   6.405   3.281
 6930TIP3    H220736   7.160   6.318   3.402
 6931TIP3   OH220737   0.742   5.636   6.046
 6931TIP3    H120738   0.744   5.568   6.114
 6931TIP3    H220739   0.692   5.596   5.974
 6932TIP3   OH220740   0.199   4.585   1.265
 6932TIP3    H120741   0.273   4.527   1.279
 6932TIP3    H220742   0.213   4.658   1.326
 6933TIP3   OH220743   7.997   3.105   4.072
 6933TIP3    H120744   8.039   3.163   4.007
 6933TIP3    H220745   8.038   3.130   4.155
 6934TIP3   OH220746   1.427   6.306   5.601
 6934TIP3    H120747   1.362   6.361   5.643
 6934TIP3    H220748   1.406   6.217   5.629
 6935TIP3   OH220749   4.116   4.860   1.087
 6935TIP3    H120750   4.080   4.910   1.160
 6935TIP3    H220751   4.200   4.902   1.068
 6936TIP3   OH220752   1.875   3.173   3.403
 6936TIP3    H120753   1.796   3.134   3.441
 6936TIP3    H220754   1.927   3.099   3.373
 6937TIP3   OH220755   3.890   6.161   1.910
 6937TIP3    H120756   3.823   6.120   1.965
 6937TIP3    H220757   3.904   6.247   1.950
 6938TIP3   OH220758   4.660   1.976   3.903
 6938TIP3    H120759   4.658   2.059   3.854
 6938TIP3    H220760   4.619   1.997   3.987
 6939TIP3   OH220761   3.138   5.969   0.729
 6939TIP3    H120762   3.128   5.884   0.687
 6939TIP3    H220763   3.049   6.006   0.732
 6940TIP3   OH220764   0.881   6.611   5.148
 6940TIP3    H120765   0.809   6.674   5.138
 6940TIP3    H220766   0.956   6.665   5.173
 6941TIP3   OH220767   2.956   4.482   3.561
 6941TIP3    H120768   2.889   4.514   3.622
 6941TIP3    H220769   2.927   4.514   3.476
 6942TIP3   OH220770   6.678   4.364   1.342
 6942TIP3    H120771   6.618   4.380   1.414
 6942TIP3    H220772   6.621   4.337   1.269
 6943TIP3   OH220773   1.968   7.331   4.766
 6943TIP3    H120774   1.983   7.239   4.788
 6943TIP3    H220775   2.035   7.378   4.815
 6944TIP3   OH220776   5.883   0.270   3.837
 6944TIP3    H120777   5.830   0.252   3.915
 6944TIP3    H220778   5.840   0.222   3.767
 6945TIP3   OH220779   0.914   4.218   4.990
 6945TIP3    H120780   1.005   4.245   4.993
 6945TIP3    H220781   0.893   4.215   4.896
 6946TIP3   OH220782   0.259   0.048   5.409
 6946TIP3    H120783   0.220  -0.019   5.354
 6946TIP3    H220784   0.212   0.041   5.492
 6947TIP3   OH220785   4.554   5.248   1.127
 6947TIP3    H120786   4.561   5.265   1.033
 6947TIP3    H220787   4.621   5.182   1.145
 6948TIP3   OH220788   8.343   1.659   3.948
 6948TIP3    H120789   8.280   1.665   3.877
 6948TIP3    H220790   8.290   1.658   4.028
 6949TIP3   OH220791   0.084   7.162   2.438
 6949TIP3    H120792   0.064   7.233   2.377
 6949TIP3    H220793   0.116   7.206   2.517
 6950TIP3   OH220794   5.421   3.931   0.159
 6950TIP3    H120795   5.401   3.935   0.066
 6950TIP3    H220796   5.341   3.964   0.201
 6951TIP3   OH220797   6.210   6.570   2.218
 6951TIP3    H120798   6.234   6.478   2.231
 6951TIP3    H220799   6.176   6.573   2.129
 6952TIP3   OH220800   6.420   3.889   2.557
 6952TIP3    H120801   6.358   3.864   2.488
 6952TIP3    H220802   6.475   3.812   2.570
 6953TIP3   OH220803   1.615   5.205   2.658
 6953TIP3    H120804   1.703   5.194   2.694
 6953TIP3    H220805   1.584   5.286   2.697
 6954TIP3   OH220806   2.473   0.662   4.676
 6954TIP3    H120807   2.469   0.710   4.759
 6954TIP3    H220808   2.404   0.701   4.622
 6955TIP3   OH220809   6.559   6.340   6.074
 6955TIP3    H120810   6.472   6.344   6.114
 6955TIP3    H220811   6.605   6.416   6.110
 6956TIP3   OH220812   7.103   5.161   6.460
 6956TIP3    H120813   7.183   5.213   6.469
 6956TIP3    H220814   7.032   5.222   6.479
 6957TIP3   OH220815   7.388   5.524   0.795
 6957TIP3    H120816   7.452   5.557   0.733
 6957TIP3    H220817   7.311   5.505   0.742
 6958TIP3   OH220818   2.809   7.635   6.454
 6958TIP3    H120819   2.869   7.702   6.486
 6958TIP3    H220820   2.736   7.685   6.415
 6959TIP3   OH220821   5.867   5.086   0.192
 6959TIP3    H120822   5.858   5.180   0.178
 6959TIP3    H220823   5.961   5.069   0.185
 6960TIP3   OH220824   6.586   4.522   3.669
 6960TIP3    H120825   6.501   4.490   3.641
 6960TIP3    H220826   6.649   4.481   3.610
 6961TIP3   OH220827   1.404   6.997   4.365
 6961TIP3    H120828   1.436   6.925   4.419
 6961TIP3    H220829   1.308   6.987   4.367
 6962TIP3   OH220830   7.303   5.240   0.223
 6962TIP3    H120831   7.247   5.285   0.160
 6962TIP3    H220832   7.388   5.232   0.180
 6963TIP3   OH220833   5.461   2.010   1.375
 6963TIP3    H120834   5.401   1.944   1.411
 6963TIP3    H220835   5.435   2.018   1.283
 6964TIP3   OH220836   1.320   4.879   1.627
 6964TIP3    H120837   1.305   4.792   1.590
 6964TIP3    H220838   1.297   4.871   1.719
 6965TIP3   OH220839   2.529   6.095   4.750
 6965TIP3    H120840   2.497   6.090   4.840
 6965TIP3    H220841   2.489   6.020   4.707
 6966TIP3   OH220842   6.574   0.892   4.014
 6966TIP3    H120843   6.645   0.938   4.057
 6966TIP3    H220844   6.553   0.945   3.937
 6967TIP3   OH220845   7.631   3.790   4.440
 6967TIP3    H120846   7.657   3.820   4.527
 6967TIP3    H220847   7.710   3.795   4.387
 6968TIP3   OH220848   1.354   1.853   0.290
 6968TIP3    H120849   1.394   1.782   0.339
 6968TIP3    H220850   1.270   1.868   0.333
 6969TIP3   OH220851   4.147   0.995   0.687
 6969TIP3    H120852   4.053   0.998   0.667
 6969TIP3    H220853   4.188   1.032   0.609
 6970TIP3   OH220854   6.135   5.457   3.417
 6970TIP3    H120855   6.156   5.374   3.375
 6970TIP3    H220856   6.050   5.442   3.458
 6971TIP3   OH220857   5.542   7.157   3.911
 6971TIP3    H120858   5.625   7.154   3.862
 6971TIP3    H220859   5.569   7.152   4.003
 6972TIP3   OH220860   2.125   3.934   3.053
 6972TIP3    H120861   2.087   3.847   3.061
 6972TIP3    H220862   2.215   3.919   3.027
 6973TIP3   OH220863   2.319   2.590   1.588
 6973TIP3    H120864   2.291   2.508   1.628
 6973TIP3    H220865   2.388   2.623   1.646
 6974TIP3   OH220866   7.773   3.133   3.104
 6974TIP3    H120867   7.704   3.169   3.049
 6974TIP3    H220868   7.851   3.184   3.081
 6975TIP3   OH220869   0.461   3.764   3.173
 6975TIP3    H120870   0.499   3.732   3.091
 6975TIP3    H220871   0.488   3.700   3.239
 6976TIP3   OH220872   1.836   0.342   1.932
 6976TIP3    H120873   1.859   0.352   2.024
 6976TIP3    H220874   1.753   0.295   1.934
 6977TIP3   OH220875   0.595   0.127   6.603
 6977TIP3    H120876   0.650   0.197   6.638
 6977TIP3    H220877   0.517   0.172   6.571
 6978TIP3   OH220878   5.287   7.132   3.781
 6978TIP3    H120879   5.302   7.042   3.751
 6978TIP3    H220880   5.350   7.144   3.852
 6979TIP3   OH220881   7.877   1.227   1.053
 6979TIP3    H120882   7.922   1.151   1.016
 6979TIP3    H220883   7.875   1.290   0.981
 6980TIP3   OH220884   3.274   5.396   2.114
 6980TIP3    H120885   3.255   5.330   2.181
 6980TIP3    H220886   3.198   5.454   2.116
 6981TIP3   OH220887   4.972   1.358   4.707
 6981TIP3    H120888   4.944   1.325   4.793
 6981TIP3    H220889   4.897   1.343   4.650
 6982TIP3   OH220890   4.729   1.440   3.042
 6982TIP3    H120891   4.814   1.411   3.010
 6982TIP3    H220892   4.685   1.359   3.069
 6983TIP3   OH220893   3.598   5.213   2.909
 6983TIP3    H120894   3.599   5.303   2.939
 6983TIP3    H220895   3.682   5.201   2.864
 6984TIP3   OH220896   1.007   0.812   6.529
 6984TIP3    H120897   1.019   0.803   6.624
 6984TIP3    H220898   1.056   0.891   6.507
 6985TIP3   OH220899   3.678   0.534   3.692
 6985TIP3    H120900   3.642   0.500   3.774
 6985TIP3    H220901   3.715   0.619   3.715
 6986TIP3   OH220902   1.325   5.644   1.352
 6986TIP3    H120903   1.295   5.553   1.359
 6986TIP3    H220904   1.263   5.694   1.404
 6987TIP3   OH220905   4.501   7.258   0.358
 6987TIP3    H120906   4.456   7.214   0.430
 6987TIP3    H220907   4.481   7.351   0.370
 6988TIP3   OH220908   0.888   7.179   3.142
 6988TIP3    H120909   0.851   7.217   3.221
 6988TIP3    H220910   0.965   7.131   3.171
 6989TIP3   OH220911   2.680   7.165   0.639
 6989TIP3    H120912   2.705   7.171   0.731
 6989TIP3    H220913   2.632   7.245   0.622
 6990TIP3   OH220914   7.713   3.035   1.980
 6990TIP3    H120915   7.697   3.030   2.074
 6990TIP3    H220916   7.679   3.121   1.954
 6991TIP3   OH220917   4.295   6.527   4.104
 6991TIP3    H120918   4.316   6.480   4.184
 6991TIP3    H220919   4.215   6.485   4.072
 6992TIP3   OH220920   2.735   5.909   4.882
 6992TIP3    H120921   2.784   5.831   4.911
 6992TIP3    H220922   2.650   5.875   4.855
 6993TIP3   OH220923   2.574   1.387   4.264
 6993TIP3    H120924   2.642   1.392   4.196
 6993TIP3    H220925   2.503   1.442   4.232
 6994TIP3   OH220926   2.599   6.952   5.787
 6994TIP3    H120927   2.615   7.033   5.835
 6994TIP3    H220928   2.636   6.969   5.700
 6995TIP3   OH220929   0.238   4.972   5.030
 6995TIP3    H120930   0.283   5.043   4.985
 6995TIP3    H220931   0.290   4.956   5.108
 6996TIP3   OH220932   0.274   0.493   3.998
 6996TIP3    H120933   0.278   0.497   3.902
 6996TIP3    H220934   0.351   0.442   4.023
 6997TIP3   OH220935   7.843   3.261   5.068
 6997TIP3    H120936   7.776   3.281   5.003
 6997TIP3    H220937   7.873   3.346   5.099
 6998TIP3   OH220938   3.691   4.057   4.980
 6998TIP3    H120939   3.741   3.988   5.023
 6998TIP3    H220940   3.691   4.032   4.887
 6999TIP3   OH220941   2.523   5.736   6.529
 6999TIP3    H120942   2.616   5.720   6.548
 6999TIP3    H220943   2.492   5.653   6.493
 7000TIP3   OH220944   1.946   5.792   2.364
 7000TIP3    H120945   1.942   5.767   2.272
 7000TIP3    H220946   1.885   5.866   2.372
 7001TIP3   OH220947   4.056   5.638   3.614
 7001TIP3    H120948   4.106   5.659   3.694
 7001TIP3    H220949   3.990   5.707   3.608
 7002TIP3   OH220950   1.502   1.789   5.491
 7002TIP3    H120951   1.587   1.825   5.515
 7002TIP3    H220952   1.492   1.811   5.398
 7003TIP3   OH220953   0.905   3.757   2.142
 7003TIP3    H120954   0.923   3.831   2.084
 7003TIP3    H220955   0.809   3.749   2.142
 7004TIP3   OH220956   2.764   4.797   6.618
 7004TIP3    H120957   2.768   4.806   6.713
 7004TIP3    H220958   2.845   4.839   6.587
 7005TIP3   OH220959   6.866   6.531   2.430
 7005TIP3    H120960   6.823   6.607   2.391
 7005TIP3    H220961   6.793   6.476   2.461
 7006TIP3   OH220962   7.785   6.363   1.443
 7006TIP3    H120963   7.786   6.439   1.502
 7006TIP3    H220964   7.737   6.296   1.492
 7007TIP3   OH220965   1.011   1.624   3.516
 7007TIP3    H120966   1.095   1.591   3.484
 7007TIP3    H220967   0.986   1.562   3.585
 7008TIP3   OH220968   1.907   6.176   0.958
 7008TIP3    H120969   1.956   6.103   0.918
 7008TIP3    H220970   1.897   6.239   0.887
 7009TIP3   OH220971   0.078   6.819   3.983
 7009TIP3    H120972   0.027   6.743   3.954
 7009TIP3    H220973   0.074   6.817   4.078
 7010TIP3   OH220974   2.543   4.480   1.585
 7010TIP3    H120975   2.558   4.427   1.507
 7010TIP3    H220976   2.449   4.498   1.584
 7011TIP3   OH220977   3.497   7.790   4.720
 7011TIP3    H120978   3.448   7.850   4.664
 7011TIP3    H220979   3.506   7.710   4.668
 7012TIP3   OH220980   2.248   2.855   1.504
 7012TIP3    H120981   2.303   2.778   1.515
 7012TIP3    H220982   2.213   2.847   1.415
 7013TIP3   OH220983   4.831   3.522   0.576
 7013TIP3    H120984   4.789   3.503   0.660
 7013TIP3    H220985   4.924   3.517   0.594
 7014TIP3   OH220986   1.368   0.642   5.953
 7014TIP3    H120987   1.430   0.571   5.939
 7014TIP3    H220988   1.352   0.678   5.866
 7015TIP3   OH220989   6.883   5.948   6.717
 7015TIP3    H120990   6.880   5.973   6.625
 7015TIP3    H220991   6.922   5.861   6.718
 7016TIP3   OH220992   7.553   0.675   4.354
 7016TIP3    H120993   7.496   0.748   4.329
 7016TIP3    H220994   7.556   0.619   4.277
 7017TIP3   OH220995   4.245   4.479   3.461
 7017TIP3    H120996   4.256   4.488   3.556
 7017TIP3    H220997   4.234   4.569   3.430
 7018TIP3   OH220998   2.337   1.635   3.533
 7018TIP3    H120999   2.297   1.559   3.492
 7018TIP3    H221000   2.431   1.622   3.522
 7019TIP3   OH221001   0.925   4.191   3.793
 7019TIP3    H121002   1.013   4.162   3.816
 7019TIP3    H221003   0.869   4.118   3.817
 7020TIP3   OH221004   2.214   1.813   2.570
 7020TIP3    H121005   2.257   1.887   2.527
 7020TIP3    H221006   2.258   1.736   2.534
 7021TIP3   OH221007   6.598   1.184   5.067
 7021TIP3    H121008   6.636   1.168   4.981
 7021TIP3    H221009   6.540   1.259   5.055
 7022TIP3   OH221010   2.073   6.764   1.487
 7022TIP3    H121011   2.070   6.827   1.415
 7022TIP3    H221012   2.101   6.815   1.563
 7023TIP3   OH221013   5.846   1.879   3.815
 7023TIP3    H121014   5.856   1.788   3.789
 7023TIP3    H221015   5.848   1.928   3.733
 7024TIP3   OH221016   1.231   7.075   6.480
 7024TIP3    H121017   1.174   7.062   6.556
 7024TIP3    H221018   1.301   7.011   6.492
 7025TIP3   OH221019   2.058   2.858   5.359
 7025TIP3    H121020   2.082   2.901   5.277
 7025TIP3    H221021   2.080   2.766   5.346
 7026TIP3   OH221022   4.862   2.745   1.028
 7026TIP3    H121023   4.779   2.750   0.982
 7026TIP3    H221024   4.912   2.679   0.982
 7027TIP3   OH221025   1.368   7.013   0.756
 7027TIP3    H121026   1.375   7.075   0.829
 7027TIP3    H221027   1.316   6.941   0.791
 7028TIP3   OH221028   4.626   2.195   2.815
 7028TIP3    H121029   4.655   2.245   2.738
 7028TIP3    H221030   4.531   2.192   2.808
 7029TIP3   OH221031   1.901   6.361   3.630
 7029TIP3    H121032   1.996   6.356   3.622
 7029TIP3    H221033   1.877   6.279   3.674
 7030TIP3   OH221034   5.347   6.021   0.910
 7030TIP3    H121035   5.253   6.028   0.891
 7030TIP3    H221036   5.383   5.977   0.833
 7031TIP3   OH221037   5.282   1.678   1.954
 7031TIP3    H121038   5.262   1.759   1.907
 7031TIP3    H221039   5.374   1.660   1.934
 7032TIP3   OH221040   0.352   7.687   6.442
 7032TIP3    H121041   0.353   7.601   6.483
 7032TIP3    H221042   0.412   7.679   6.368
 7033TIP3   OH221043   3.603   6.705   0.451
 7033TIP3    H121044   3.562   6.645   0.514
 7033TIP3    H221045   3.663   6.649   0.402
 7034TIP3   OH221046   3.434   3.892   5.162
 7034TIP3    H121047   3.492   3.871   5.235
 7034TIP3    H221048   3.473   3.847   5.087
 7035TIP3   OH221049   3.596   3.886   4.243
 7035TIP3    H121050   3.531   3.835   4.195
 7035TIP3    H221051   3.668   3.897   4.182
 7036TIP3   OH221052   2.025   0.883   4.069
 7036TIP3    H121053   1.962   0.935   4.120
 7036TIP3    H221054   2.083   0.845   4.135
 7037TIP3   OH221055   5.831   1.817   0.917
 7037TIP3    H121056   5.886   1.867   0.857
 7037TIP3    H221057   5.758   1.786   0.863
 7038TIP3   OH221058   4.594   4.466   2.799
 7038TIP3    H121059   4.505   4.496   2.820
 7038TIP3    H221060   4.581   4.385   2.751
 7039TIP3   OH221061   2.034   7.379   4.119
 7039TIP3    H121062   1.962   7.410   4.173
 7039TIP3    H221063   2.007   7.291   4.091
 7040TIP3   OH221064   2.164   2.513   2.281
 7040TIP3    H121065   2.115   2.492   2.201
 7040TIP3    H221066   2.252   2.534   2.250
 7041TIP3   OH221067   5.188   3.466   4.827
 7041TIP3    H121068   5.114   3.430   4.875
 7041TIP3    H221069   5.226   3.531   4.886
 7042TIP3   OH221070   4.662   2.451   2.369
 7042TIP3    H121071   4.717   2.387   2.325
 7042TIP3    H221072   4.574   2.413   2.367
 7043TIP3   OH221073   0.054   6.175   1.955
 7043TIP3    H121074   0.110   6.130   1.891
 7043TIP3    H221075   0.092   6.263   1.961
 7044TIP3   OH221076   4.139   4.275   4.985
 7044TIP3    H121077   4.235   4.276   4.993
 7044TIP3    H221078   4.123   4.242   4.897
 7045TIP3   OH221079   1.391   6.216   4.301
 7045TIP3    H121080   1.377   6.122   4.315
 7045TIP3    H221081   1.475   6.234   4.343
 7046TIP3   OH221082   0.352   5.739   5.291
 7046TIP3    H121083   0.292   5.713   5.361
 7046TIP3    H221084   0.368   5.659   5.242
 7047TIP3   OH221085   0.109   1.510   1.200
 7047TIP3    H121086   0.070   1.575   1.143
 7047TIP3    H221087   0.123   1.434   1.144
 7048TIP3   OH221088   3.581   4.132   6.008
 7048TIP3    H121089   3.489   4.158   6.000
 7048TIP3    H221090   3.584   4.043   5.975
 7049TIP3   OH221091   0.370   3.389   6.464
 7049TIP3    H121092   0.412   3.376   6.549
 7049TIP3    H221093   0.297   3.448   6.482
 7050TIP3   OH221094   0.400   6.444   4.073
 7050TIP3    H121095   0.314   6.427   4.034
 7050TIP3    H221096   0.421   6.363   4.120
 7051TIP3   OH221097   5.512   4.941   5.384
 7051TIP3    H121098   5.488   5.027   5.420
 7051TIP3    H221099   5.605   4.948   5.367
 7052TIP3   OH221100   6.488   2.333   2.889
 7052TIP3    H121101   6.513   2.242   2.903
 7052TIP3    H221102   6.570   2.382   2.897
 7053TIP3   OH221103   0.337   2.222   6.418
 7053TIP3    H121104   0.431   2.227   6.407
 7053TIP3    H221105   0.312   2.142   6.371
 7054TIP3   OH221106   0.853   3.177   3.594
 7054TIP3    H121107   0.896   3.092   3.604
 7054TIP3    H221108   0.812   3.173   3.508
 7055TIP3   OH221109   6.958   1.151   0.142
 7055TIP3    H121110   6.894   1.204   0.189
 7055TIP3    H221111   6.988   1.208   0.071
 7056TIP3   OH221112   1.231   2.710   0.672
 7056TIP3    H121113   1.288   2.732   0.598
 7056TIP3    H221114   1.291   2.689   0.743
 7057TIP3   OH221115   5.237   1.144   1.511
 7057TIP3    H121116   5.188   1.108   1.437
 7057TIP3    H221117   5.242   1.238   1.493
 7058TIP3   OH221118   1.093   7.215   4.391
 7058TIP3    H121119   1.093   7.307   4.415
 7058TIP3    H221120   1.135   7.212   4.305
 7059TIP3   OH221121   0.828   4.906   2.602
 7059TIP3    H121122   0.882   4.948   2.670
 7059TIP3    H221123   0.888   4.847   2.557
 7060TIP3   OH221124   3.451   4.134   0.121
 7060TIP3    H121125   3.536   4.172   0.099
 7060TIP3    H221126   3.388   4.204   0.106
 7061TIP3   OH221127   7.267   3.601   0.693
 7061TIP3    H121128   7.253   3.648   0.611
 7061TIP3    H221129   7.238   3.663   0.761
 7062TIP3   OH221130   4.969   0.961   4.791
 7062TIP3    H121131   4.938   1.004   4.711
 7062TIP3    H221132   5.056   0.929   4.768
 7063TIP3   OH221133   0.169   1.427   5.316
 7063TIP3    H121134   0.230   1.431   5.242
 7063TIP3    H221135   0.087   1.397   5.278
 7064TIP3   OH221136   3.125   4.430   5.201
 7064TIP3    H121137   3.214   4.448   5.230
 7064TIP3    H221138   3.122   4.336   5.187
 7065TIP3   OH221139   3.288   5.012   0.560
 7065TIP3    H121140   3.330   5.020   0.474
 7065TIP3    H221141   3.355   4.976   0.617
 7066TIP3   OH221142   5.430   2.538   0.348
 7066TIP3    H121143   5.497   2.600   0.374
 7066TIP3    H221144   5.441   2.463   0.407
 7067TIP3   OH221145   6.792   4.413   4.547
 7067TIP3    H121146   6.827   4.502   4.549
 7067TIP3    H221147   6.847   4.367   4.484
 7068TIP3   OH221148   1.950   6.776   5.840
 7068TIP3    H121149   1.866   6.738   5.866
 7068TIP3    H221150   1.933   6.816   5.755
 7069TIP3   OH221151   1.970   1.524   3.166
 7069TIP3    H121152   1.905   1.515   3.236
 7069TIP3    H221153   1.922   1.500   3.086
 7070TIP3   OH221154   7.825   3.862   6.233
 7070TIP3    H121155   7.825   3.901   6.146
 7070TIP3    H221156   7.821   3.937   6.293
 7071TIP3   OH221157   7.336   2.715   1.367
 7071TIP3    H121158   7.286   2.695   1.446
 7071TIP3    H221159   7.413   2.762   1.398
 7072TIP3   OH221160   8.051   4.841   0.558
 7072TIP3    H121161   8.000   4.922   0.552
 7072TIP3    H221162   8.005   4.779   0.501
 7073TIP3   OH221163   7.547   6.157   5.721
 7073TIP3    H121164   7.610   6.138   5.652
 7073TIP3    H221165   7.577   6.107   5.797
 7074TIP3   OH221166   5.101   5.046   6.783
 7074TIP3    H121167   5.012   5.011   6.776
 7074TIP3    H221168   5.157   4.968   6.781
 7075TIP3   OH221169   7.140   6.049   0.284
 7075TIP3    H121170   7.155   6.143   0.273
 7075TIP3    H221171   7.054   6.043   0.326
 7076TIP3   OH221172   2.357   4.740   0.212
 7076TIP3    H121173   2.338   4.726   0.120
 7076TIP3    H221174   2.390   4.830   0.217
 7077TIP3   OH221175   3.712   5.567   1.073
 7077TIP3    H121176   3.708   5.539   1.164
 7077TIP3    H221177   3.669   5.496   1.024
 7078TIP3   OH221178   2.612   5.962   2.201
 7078TIP3    H121179   2.646   6.051   2.197
 7078TIP3    H221180   2.613   5.932   2.110
 7079TIP3   OH221181   8.205   0.055   0.694
 7079TIP3    H121182   8.169   0.012   0.772
 7079TIP3    H221183   8.177  -0.002   0.622
 7080TIP3   OH221184   2.382   5.239   5.093
 7080TIP3    H121185   2.289   5.226   5.111
 7080TIP3    H221186   2.391   5.217   5.000
 7081TIP3   OH221187   4.929   4.389   1.260
 7081TIP3    H121188   4.842   4.361   1.287
 7081TIP3    H221189   4.967   4.430   1.338
 7082TIP3   OH221190   1.697   0.908   2.060
 7082TIP3    H121191   1.733   0.819   2.066
 7082TIP3    H221192   1.774   0.963   2.041
 7083TIP3   OH221193   4.497   3.612   2.348
 7083TIP3    H121194   4.544   3.668   2.287
 7083TIP3    H221195   4.435   3.564   2.294
 7084TIP3   OH221196   5.743   6.761   5.714
 7084TIP3    H121197   5.670   6.808   5.755
 7084TIP3    H221198   5.725   6.764   5.620
 7085TIP3   OH221199   2.104   6.011   3.094
 7085TIP3    H121200   2.184   5.958   3.097
 7085TIP3    H221201   2.035   5.950   3.120
 7086TIP3   OH221202   0.210   2.035   0.030
 7086TIP3    H121203   0.229   1.966   0.094
 7086TIP3    H221204   0.116   2.052   0.040
 7087TIP3   OH221205   7.327   2.621   5.490
 7087TIP3    H121206   7.401   2.566   5.516
 7087TIP3    H221207   7.250   2.569   5.512
 7088TIP3   OH221208   5.549   2.446   0.599
 7088TIP3    H121209   5.644   2.455   0.597
 7088TIP3    H221210   5.533   2.352   0.610
 7089TIP3   OH221211   1.759   3.538   6.084
 7089TIP3    H121212   1.673   3.566   6.053
 7089TIP3    H221213   1.781   3.601   6.153
 7090TIP3   OH221214   4.490   4.366   3.354
 7090TIP3    H121215   4.400   4.400   3.347
 7090TIP3    H221216   4.498   4.339   3.445
 7091TIP3   OH221217   2.439   0.814   6.545
 7091TIP3    H121218   2.365   0.780   6.495
 7091TIP3    H221219   2.407   0.897   6.582
 7092TIP3   OH221220   6.836   4.249   2.966
 7092TIP3    H121221   6.886   4.168   2.958
 7092TIP3    H221222   6.744   4.221   2.968
 7093TIP3   OH221223   2.920   2.156   5.731
 7093TIP3    H121224   2.842   2.194   5.692
 7093TIP3    H221225   2.925   2.197   5.818
 7094TIP3   OH221226   0.691   1.301   2.885
 7094TIP3    H121227   0.677   1.295   2.791
 7094TIP3    H221228   0.618   1.353   2.918
 7095TIP3   OH221229   0.435   4.656   5.567
 7095TIP3    H121230   0.487   4.737   5.569
 7095TIP3    H221231   0.499   4.586   5.555
 7096TIP3   OH221232   5.630   6.594   0.209
 7096TIP3    H121233   5.636   6.614   0.116
 7096TIP3    H221234   5.536   6.591   0.227
 7097TIP3   OH221235   1.405   2.739   3.226
 7097TIP3    H121236   1.319   2.759   3.263
 7097TIP3    H221237   1.386   2.700   3.141
 7098TIP3   OH221238   7.291   3.880   3.570
 7098TIP3    H121239   7.274   3.807   3.510
 7098TIP3    H221240   7.358   3.848   3.629
 7099TIP3   OH221241   2.199   3.964   5.829
 7099TIP3    H121242   2.256   4.023   5.780
 7099TIP3    H221243   2.144   3.923   5.762
 7100TIP3   OH221244   7.683   3.832   3.773
 7100TIP3    H121245   7.707   3.800   3.686
 7100TIP3    H221246   7.751   3.896   3.794
 7101TIP3   OH221247   6.564   2.667   3.383
 7101TIP3    H121248   6.659   2.673   3.389
 7101TIP3    H221249   6.548   2.583   3.340
 7102TIP3   OH221250   2.293   5.370   3.206
 7102TIP3    H121251   2.265   5.282   3.230
 7102TIP3    H221252   2.383   5.376   3.238
 7103TIP3   OH221253   0.696   1.568   5.357
 7103TIP3    H121254   0.645   1.617   5.421
 7103TIP3    H221255   0.769   1.626   5.334
 7104TIP3   OH221256   1.785   5.150   6.681
 7104TIP3    H121257   1.880   5.156   6.668
 7104TIP3    H221258   1.756   5.086   6.616
 7105TIP3   OH221259   7.098   7.713   4.133
 7105TIP3    H121260   7.192   7.715   4.119
 7105TIP3    H221261   7.075   7.804   4.157
 7106TIP3   OH221262   0.910   1.708   3.022
 7106TIP3    H121263   0.836   1.767   3.037
 7106TIP3    H221264   0.907   1.647   3.096
 7107TIP3   OH221265   2.987   2.088   5.393
 7107TIP3    H121266   2.973   2.040   5.475
 7107TIP3    H221267   2.906   2.075   5.344
 7108TIP3   OH221268   0.448   2.678   2.828
 7108TIP3    H121269   0.444   2.679   2.733
 7108TIP3    H221270   0.358   2.665   2.857
 7109TIP3   OH221271   3.108   7.414   6.423
 7109TIP3    H121272   3.167   7.367   6.482
 7109TIP3    H221273   3.024   7.417   6.470
 7110TIP3   OH221274   0.919   6.196   3.460
 7110TIP3    H121275   0.957   6.279   3.431
 7110TIP3    H221276   0.845   6.181   3.401
 7111TIP3   OH221277   1.039   2.547   5.266
 7111TIP3    H121278   1.087   2.556   5.184
 7111TIP3    H221279   0.949   2.529   5.239
 7112TIP3   OH221280   4.148   2.370   5.704
 7112TIP3    H121281   4.109   2.304   5.648
 7112TIP3    H221282   4.096   2.449   5.689
 7113TIP3   OH221283   1.321   2.184   5.407
 7113TIP3    H121284   1.339   2.101   5.453
 7113TIP3    H221285   1.261   2.230   5.465
 7114TIP3   OH221286   0.423   4.663   0.883
 7114TIP3    H121287   0.361   4.670   0.956
 7114TIP3    H221288   0.420   4.748   0.840
 7115TIP3   OH221289   4.800  -0.015   5.836
 7115TIP3    H121290   4.722  -0.070   5.835
 7115TIP3    H221291   4.769   0.071   5.807
 7116TIP3   OH221292   0.558   1.453   4.003
 7116TIP3    H121293   0.593   1.514   3.938
 7116TIP3    H221294   0.497   1.399   3.953
 7117TIP3   OH221295   0.451   7.294   4.873
 7117TIP3    H121296   0.441   7.385   4.846
 7117TIP3    H221297   0.499   7.252   4.802
 7118TIP3   OH221298   1.583   6.388   0.312
 7118TIP3    H121299   1.493   6.363   0.290
 7118TIP3    H221300   1.623   6.409   0.228
 7119TIP3   OH221301   0.278   3.058   6.542
 7119TIP3    H121302   0.200   3.096   6.504
 7119TIP3    H221303   0.292   2.977   6.493
 7120TIP3   OH221304   4.654   6.652   6.622
 7120TIP3    H121305   4.689   6.609   6.543
 7120TIP3    H221306   4.673   6.589   6.692
 7121TIP3   OH221307   5.902   3.463   3.201
 7121TIP3    H121308   5.958   3.535   3.230
 7121TIP3    H221309   5.962   3.396   3.171
 7122TIP3   OH221310   6.553   0.848   6.254
 7122TIP3    H121311   6.568   0.789   6.328
 7122TIP3    H221312   6.571   0.795   6.176
 7123TIP3   OH221313   4.306   6.496   5.836
 7123TIP3    H121314   4.360   6.426   5.874
 7123TIP3    H221315   4.328   6.573   5.889
 7124TIP3   OH221316   5.103   1.728   5.857
 7124TIP3    H121317   5.022   1.730   5.806
 7124TIP3    H221318   5.170   1.764   5.799
 7125TIP3   OH221319   0.690   7.421   1.382
 7125TIP3    H121320   0.745   7.364   1.328
 7125TIP3    H221321   0.649   7.362   1.445
 7126TIP3   OH221322   5.453   4.226   0.130
 7126TIP3    H121323   5.526   4.191   0.182
 7126TIP3    H221324   5.390   4.154   0.127
 7127TIP3   OH221325   1.821   3.919   3.708
 7127TIP3    H121326   1.871   3.869   3.643
 7127TIP3    H221327   1.786   3.853   3.768
 7128TIP3   OH221328   0.861   4.290   1.934
 7128TIP3    H121329   0.955   4.295   1.922
 7128TIP3    H221330   0.828   4.372   1.896
 7129TIP3   OH221331   7.420   3.534   3.260
 7129TIP3    H121332   7.504   3.575   3.278
 7129TIP3    H221333   7.362   3.607   3.239
 7130TIP3   OH221334   3.176   2.886   5.442
 7130TIP3    H121335   3.253   2.831   5.431
 7130TIP3    H221336   3.201   2.951   5.507
 7131TIP3   OH221337   2.827   1.085   2.170
 7131TIP3    H121338   2.775   1.005   2.163
 7131TIP3    H221339   2.909   1.064   2.124
 7132TIP3   OH221340   6.328   4.340   6.505
 7132TIP3    H121341   6.373   4.310   6.584
 7132TIP3    H221342   6.237   4.315   6.519
 7133TIP3   OH221343   2.181   4.506   2.258
 7133TIP3    H121344   2.266   4.462   2.254
 7133TIP3    H221345   2.175   4.540   2.347
 7134TIP3   OH221346   3.940   0.183   3.392
 7134TIP3    H121347   3.957   0.089   3.399
 7134TIP3    H221348   4.028   0.222   3.385
 7135TIP3   OH221349   5.910   2.682   2.391
 7135TIP3    H121350   5.818   2.687   2.419
 7135TIP3    H221351   5.906   2.645   2.303
 7136TIP3   OH221352   3.245   4.624   0.333
 7136TIP3    H121353   3.313   4.558   0.320
 7136TIP3    H221354   3.165   4.573   0.345
 7137TIP3   OH221355   2.158   3.790   2.725
 7137TIP3    H121356   2.182   3.882   2.734
 7137TIP3    H221357   2.067   3.787   2.755
 7138TIP3   OH221358   4.879   3.329   5.845
 7138TIP3    H121359   4.946   3.260   5.845
 7138TIP3    H221360   4.802   3.287   5.885
 7139TIP3   OH221361   0.549   6.204   5.626
 7139TIP3    H121362   0.634   6.176   5.660
 7139TIP3    H221363   0.539   6.293   5.659
 7140TIP3   OH221364   8.117   0.745   6.804
 7140TIP3    H121365   8.066   0.664   6.807
 7140TIP3    H221366   8.100   0.781   6.717
 7141TIP3   OH221367   5.595   1.643   1.094
 7141TIP3    H121368   5.609   1.738   1.090
 7141TIP3    H221369   5.630   1.618   1.179
 7142TIP3   OH221370   1.020   2.135   5.610
 7142TIP3    H121371   0.990   2.112   5.698
 7142TIP3    H221372   1.111   2.162   5.623
 7143TIP3   OH221373   6.301   2.212   5.832
 7143TIP3    H121374   6.337   2.147   5.892
 7143TIP3    H221375   6.376   2.241   5.780
 7144TIP3   OH221376   4.913   3.567   2.290
 7144TIP3    H121377   4.883   3.489   2.335
 7144TIP3    H221378   4.873   3.640   2.338
 7145TIP3   OH221379   7.237   7.612   6.345
 7145TIP3    H121380   7.226   7.664   6.425
 7145TIP3    H221381   7.156   7.562   6.337
 7146TIP3   OH221382   2.750   2.718   2.874
 7146TIP3    H121383   2.729   2.809   2.853
 7146TIP3    H221384   2.797   2.723   2.957
 7147TIP3   OH221385   3.096   0.060   2.499
 7147TIP3    H121386   3.041   0.007   2.442
 7147TIP3    H221387   3.060   0.148   2.492
 7148TIP3   OH221388   8.292   5.559   4.015
 7148TIP3    H121389   8.347   5.516   4.080
 7148TIP3    H221390   8.302   5.652   4.033
 7149TIP3   OH221391   1.829   7.472   3.811
 7149TIP3    H121392   1.914   7.491   3.771
 7149TIP3    H221393   1.840   7.385   3.850
 7150TIP3   OH221394   2.622   1.569   3.395
 7150TIP3    H121395   2.591   1.519   3.320
 7150TIP3    H221396   2.604   1.660   3.372
 7151TIP3   OH221397   5.496   1.267   1.312
 7151TIP3    H121398   5.542   1.300   1.389
 7151TIP3    H221399   5.544   1.303   1.238
 7152TIP3   OH221400   0.267   3.456   1.121
 7152TIP3    H121401   0.206   3.389   1.090
 7152TIP3    H221402   0.212   3.523   1.161
 7153TIP3   OH221403   7.102   5.865   6.176
 7153TIP3    H121404   7.033   5.889   6.114
 7153TIP3    H221405   7.109   5.941   6.235
 7154TIP3   OH221406   1.607   4.483   1.206
 7154TIP3    H121407   1.696   4.496   1.171
 7154TIP3    H221408   1.615   4.410   1.266
 7155TIP3   OH221409   2.043   6.732   5.038
 7155TIP3    H121410   2.007   6.737   4.949
 7155TIP3    H221411   1.969   6.709   5.093
 7156TIP3   OH221412   1.914   5.851   3.214
 7156TIP3    H121413   1.857   5.781   3.183
 7156TIP3    H221414   1.961   5.812   3.288
 7157TIP3   OH221415   2.206   0.535   4.983
 7157TIP3    H121416   2.168   0.622   4.994
 7157TIP3    H221417   2.285   0.536   5.036
 7158TIP3   OH221418   7.757   7.053   1.130
 7158TIP3    H121419   7.744   7.026   1.221
 7158TIP3    H221420   7.690   7.005   1.081
 7159TIP3   OH221421   4.850   1.753   5.739
 7159TIP3    H121422   4.873   1.728   5.650
 7159TIP3    H221423   4.783   1.821   5.729
 7160TIP3   OH221424   6.903   7.476   0.424
 7160TIP3    H121425   6.992   7.512   0.428
 7160TIP3    H221426   6.916   7.382   0.419
 7161TIP3   OH221427   7.884   1.517   6.443
 7161TIP3    H121428   7.928   1.588   6.490
 7161TIP3    H221429   7.930   1.438   6.471
 7162TIP3   OH221430   6.055   4.924   4.882
 7162TIP3    H121431   5.991   4.956   4.818
 7162TIP3    H221432   6.006   4.914   4.963
 7163TIP3   OH221433   3.651   1.887   0.177
 7163TIP3    H121434   3.603   1.815   0.136
 7163TIP3    H221435   3.728   1.899   0.121
 7164TIP3   OH221436   7.542   4.788   6.086
 7164TIP3    H121437   7.572   4.834   6.164
 7164TIP3    H221438   7.447   4.799   6.087
 7165TIP3   OH221439   1.464   3.978   3.762
 7165TIP3    H121440   1.398   4.022   3.708
 7165TIP3    H221441   1.466   3.888   3.728
 7166TIP3   OH221442   6.093   7.667   6.619
 7166TIP3    H121443   6.163   7.726   6.593
 7166TIP3    H221444   6.125   7.625   6.699
 7167TIP3   OH221445   4.560   1.115   1.623
 7167TIP3    H121446   4.511   1.041   1.658
 7167TIP3    H221447   4.497   1.188   1.625
 7168TIP3   OH221448   6.234   4.973   2.501
 7168TIP3    H121449   6.226   4.919   2.422
 7168TIP3    H221450   6.327   4.969   2.523
 7169TIP3   OH221451   5.091   5.177   3.527
 7169TIP3    H121452   5.100   5.160   3.433
 7169TIP3    H221453   5.066   5.092   3.563
 7170TIP3   OH221454   4.305   4.635   3.133
 7170TIP3    H121455   4.216   4.664   3.152
 7170TIP3    H221456   4.302   4.604   3.043
 7171TIP3   OH221457   6.672   1.917   6.199
 7171TIP3    H121458   6.745   1.855   6.197
 7171TIP3    H221459   6.697   1.986   6.138
 7172TIP3   OH221460   3.278   3.692   3.027
 7172TIP3    H121461   3.194   3.672   2.985
 7172TIP3    H221462   3.262   3.683   3.120
 7173TIP3   OH221463   1.753   3.752   5.465
 7173TIP3    H121464   1.757   3.737   5.559
 7173TIP3    H221465   1.820   3.818   5.448
 7174TIP3   OH221466   3.941   5.950   5.185
 7174TIP3    H121467   3.903   6.037   5.195
 7174TIP3    H221468   3.901   5.915   5.105
 7175TIP3   OH221469   2.027   0.566   0.644
 7175TIP3    H121470   2.002   0.639   0.588
 7175TIP3    H221471   2.122   0.559   0.634
 7176TIP3   OH221472   1.693   7.418   5.441
 7176TIP3    H121473   1.740   7.371   5.371
 7176TIP3    H221474   1.682   7.353   5.510
 7177TIP3   OH221475   2.853   0.796   1.825
 7177TIP3    H121476   2.947   0.811   1.813
 7177TIP3    H221477   2.812   0.873   1.785
 7178TIP3   OH221478   5.084   0.527   5.156
 7178TIP3    H121479   5.168   0.532   5.111
 7178TIP3    H221480   5.055   0.618   5.163
 7179TIP3   OH221481   1.914   4.805   2.098
 7179TIP3    H121482   1.906   4.711   2.081
 7179TIP3    H221483   1.944   4.842   2.015
 7180TIP3   OH221484   0.083   0.920   2.855
 7180TIP3    H121485  -0.009   0.924   2.879
 7180TIP3    H221486   0.088   0.956   2.766
 7181TIP3   OH221487   8.075   0.287   6.230
 7181TIP3    H121488   8.017   0.306   6.157
 7181TIP3    H221489   8.017   0.254   6.299
 7182TIP3   OH221490   6.181   6.610   2.855
 7182TIP3    H121491   6.259   6.599   2.910
 7182TIP3    H221492   6.150   6.521   2.839
 7183TIP3   OH221493   3.888   6.976   2.853
 7183TIP3    H121494   3.883   6.881   2.844
 7183TIP3    H221495   3.904   7.008   2.764
 7184TIP3   OH221496   2.699   2.493   1.885
 7184TIP3    H121497   2.660   2.421   1.935
 7184TIP3    H221498   2.774   2.520   1.937
 7185TIP3   OH221499   1.745   7.738   2.351
 7185TIP3    H121500   1.755   7.644   2.364
 7185TIP3    H221501   1.815   7.777   2.404
 7186TIP3   OH221502   3.310   0.444   3.648
 7186TIP3    H121503   3.283   0.435   3.556
 7186TIP3    H221504   3.351   0.360   3.669
 7187TIP3   OH221505   6.616   2.603   0.877
 7187TIP3    H121506   6.693   2.656   0.854
 7187TIP3    H221507   6.639   2.564   0.961
 7188TIP3   OH221508   1.717   5.394   4.950
 7188TIP3    H121509   1.743   5.486   4.959
 7188TIP3    H221510   1.624   5.398   4.929
 7189TIP3   OH221511   7.855   4.627   1.059
 7189TIP3    H121512   7.907   4.668   0.991
 7189TIP3    H221513   7.918   4.600   1.126
 7190TIP3   OH221514   2.795   3.561   2.932
 7190TIP3    H121515   2.813   3.543   3.025
 7190TIP3    H221516   2.747   3.483   2.902
 7191TIP3   OH221517   5.667   7.691   6.257
 7191TIP3    H121518   5.749   7.645   6.272
 7191TIP3    H221519   5.679   7.734   6.172
 7192TIP3   OH221520   7.038   6.596   4.211
 7192TIP3    H121521   6.943   6.596   4.224
 7192TIP3    H221522   7.056   6.512   4.168
 7193TIP3   OH221523   3.304   6.080   5.035
 7193TIP3    H121524   3.394   6.063   5.006
 7193TIP3    H221525   3.308   6.074   5.131
 7194TIP3   OH221526   1.066   6.511   1.621
 7194TIP3    H121527   1.035   6.509   1.530
 7194TIP3    H221528   1.129   6.583   1.624
 7195TIP3   OH221529   2.838   2.525   2.302
 7195TIP3    H121530   2.775   2.481   2.244
 7195TIP3    H221531   2.804   2.614   2.311
 7196TIP3   OH221532   2.872   5.631   2.049
 7196TIP3    H121533   2.812   5.564   2.017
 7196TIP3    H221534   2.888   5.608   2.140
 7197TIP3   OH221535   5.114   7.656   6.119
 7197TIP3    H121536   5.115   7.688   6.209
 7197TIP3    H221537   5.021   7.651   6.096
 7198TIP3   OH221538   5.759   4.429   0.225
 7198TIP3    H121539   5.836   4.434   0.281
 7198TIP3    H221540   5.743   4.336   0.214
 7199TIP3   OH221541   0.586   5.054   3.712
 7199TIP3    H121542   0.503   5.095   3.688
 7199TIP3    H221543   0.631   5.120   3.765
 7200TIP3   OH221544   4.868   1.230   0.407
 7200TIP3    H121545   4.880   1.192   0.320
 7200TIP3    H221546   4.937   1.189   0.460
 7201TIP3   OH221547   0.507   7.132   2.236
 7201TIP3    H121548   0.429   7.187   2.241
 7201TIP3    H221549   0.554   7.164   2.159
 7202TIP3   OH221550   1.152   2.280   1.954
 7202TIP3    H121551   1.235   2.317   1.924
 7202TIP3    H221552   1.128   2.332   2.030
 7203TIP3   OH221553   3.432   7.223   1.651
 7203TIP3    H121554   3.358   7.176   1.688
 7203TIP3    H221555   3.397   7.267   1.573
 7204TIP3   OH221556   4.035   1.747   1.334
 7204TIP3    H121557   3.977   1.670   1.339
 7204TIP3    H221558   4.078   1.750   1.419
 7205TIP3   OH221559   7.604   4.963   6.525
 7205TIP3    H121560   7.571   5.052   6.508
 7205TIP3    H221561   7.693   4.977   6.559
 7206TIP3   OH221562   2.113   3.175   5.674
 7206TIP3    H121563   2.087   3.095   5.629
 7206TIP3    H221564   2.035   3.231   5.669
 7207TIP3   OH221565   7.295   4.165   5.855
 7207TIP3    H121566   7.388   4.167   5.832
 7207TIP3    H221567   7.274   4.072   5.860
 7208TIP3   OH221568   4.918   5.889   2.809
 7208TIP3    H121569   4.829   5.869   2.780
 7208TIP3    H221570   4.963   5.805   2.810
 7209TIP3   OH221571   3.705   2.398   4.764
 7209TIP3    H121572   3.728   2.461   4.833
 7209TIP3    H221573   3.753   2.429   4.687
 7210TIP3   OH221574   4.367   4.066   1.922
 7210TIP3    H121575   4.431   4.014   1.874
 7210TIP3    H221576   4.384   4.156   1.896
 7211TIP3   OH221577   0.137   1.958   3.816
 7211TIP3    H121578   0.118   1.918   3.901
 7211TIP3    H221579   0.066   2.019   3.801
 7212TIP3   OH221580   2.810   3.595   0.321
 7212TIP3    H121581   2.736   3.605   0.381
 7212TIP3    H221582   2.861   3.523   0.358
 7213TIP3   OH221583   8.229   1.832   5.434
 7213TIP3    H121584   8.157   1.828   5.371
 7213TIP3    H221585   8.296   1.884   5.390
 7214TIP3   OH221586   3.313   5.465   2.394
 7214TIP3    H121587   3.249   5.416   2.447
 7214TIP3    H221588   3.324   5.548   2.440
 7215TIP3   OH221589   6.586   5.697   1.576
 7215TIP3    H121590   6.492   5.681   1.562
 7215TIP3    H221591   6.604   5.659   1.662
 7216TIP3   OH221592   0.865   1.791   5.241
 7216TIP3    H121593   0.885   1.819   5.330
 7216TIP3    H221594   0.893   1.864   5.186
 7217TIP3   OH221595   0.664   2.735   5.852
 7217TIP3    H121596   0.593   2.731   5.787
 7217TIP3    H221597   0.620   2.724   5.936
 7218TIP3   OH221598   0.746   1.387   4.175
 7218TIP3    H121599   0.700   1.415   4.096
 7218TIP3    H221600   0.742   1.292   4.173
 7219TIP3   OH221601   6.562   1.656   6.211
 7219TIP3    H121602   6.636   1.622   6.161
 7219TIP3    H221603   6.573   1.751   6.210
 7220TIP3   OH221604   8.246   3.070   5.219
 7220TIP3    H121605   8.319   3.041   5.164
 7220TIP3    H221606   8.169   3.026   5.183
 7221TIP3   OH221607   0.059   5.379   2.675
 7221TIP3    H121608   0.029   5.380   2.584
 7221TIP3    H221609   0.125   5.310   2.678
 7222TIP3   OH221610   0.955   7.733   5.815
 7222TIP3    H121611   1.048   7.731   5.837
 7222TIP3    H221612   0.910   7.717   5.898
 7223TIP3   OH221613   4.507   0.797   3.331
 7223TIP3    H121614   4.594   0.828   3.356
 7223TIP3    H221615   4.472   0.758   3.411
 7224TIP3   OH221616   1.121   3.223   4.731
 7224TIP3    H121617   1.080   3.308   4.714
 7224TIP3    H221618   1.125   3.218   4.827
 7225TIP3   OH221619   5.998   1.101   6.197
 7225TIP3    H121620   5.957   1.120   6.281
 7225TIP3    H221621   6.065   1.036   6.217
 7226TIP3   OH221622   2.545   6.379   4.790
 7226TIP3    H121623   2.618   6.406   4.736
 7226TIP3    H221624   2.533   6.286   4.771
 7227TIP3   OH221625   7.768   0.261   3.945
 7227TIP3    H121626   7.846   0.311   3.966
 7227TIP3    H221627   7.706   0.325   3.909
 7228TIP3   OH221628   4.469   1.914   6.490
 7228TIP3    H121629   4.491   1.894   6.399
 7228TIP3    H221630   4.464   2.010   6.492
 7229TIP3   OH221631   7.569   7.337   0.239
 7229TIP3    H121632   7.622   7.412   0.213
 7229TIP3    H221633   7.560   7.346   0.334
 7230TIP3   OH221634   4.358   3.588   3.316
 7230TIP3    H121635   4.318   3.674   3.326
 7230TIP3    H221636   4.315   3.534   3.383
 7231TIP3   OH221637   0.245   3.472   0.055
 7231TIP3    H121638   0.278   3.384   0.074
 7231TIP3    H221639   0.324   3.524   0.039
 7232TIP3   OH221640   4.166   7.729   6.220
 7232TIP3    H121641   4.134   7.660   6.277
 7232TIP3    H221642   4.094   7.792   6.216
 7233TIP3   OH221643   4.223   6.833   2.824
 7233TIP3    H121644   4.298   6.781   2.797
 7233TIP3    H221645   4.154   6.770   2.842
 7234TIP3   OH221646   6.264   4.521   5.920
 7234TIP3    H121647   6.176   4.496   5.893
 7234TIP3    H221648   6.311   4.438   5.929
 7235TIP3   OH221649   7.410   4.603   3.678
 7235TIP3    H121650   7.439   4.566   3.761
 7235TIP3    H221651   7.489   4.642   3.640
 7236TIP3   OH221652   7.011   5.032   2.188
 7236TIP3    H121653   6.927   4.988   2.200
 7236TIP3    H221654   7.067   4.994   2.256
 7237TIP3   OH221655   3.941   4.921   0.888
 7237TIP3    H121656   3.853   4.934   0.921
 7237TIP3    H221657   3.991   4.892   0.964
 7238TIP3   OH221658   3.657   0.635   6.385
 7238TIP3    H121659   3.694   0.598   6.305
 7238TIP3    H221660   3.568   0.663   6.360
 7239TIP3   OH221661   3.636   3.607   4.735
 7239TIP3    H121662   3.543   3.629   4.725
 7239TIP3    H221663   3.678   3.648   4.660
 7240TIP3   OH221664   8.079   3.450   5.107
 7240TIP3    H121665   8.127   3.494   5.037
 7240TIP3    H221666   8.148   3.423   5.169
 7241TIP3   OH221667   4.860   5.930   6.151
 7241TIP3    H121668   4.881   5.966   6.237
 7241TIP3    H221669   4.938   5.949   6.098
 7242TIP3   OH221670   5.100   4.019   2.417
 7242TIP3    H121671   5.148   4.036   2.499
 7242TIP3    H221672   5.012   3.994   2.446
 7243TIP3   OH221673   5.106   1.804   6.427
 7243TIP3    H121674   5.158   1.880   6.402
 7243TIP3    H221675   5.015   1.828   6.409
 7244TIP3   OH221676   5.282   1.324   4.586
 7244TIP3    H121677   5.296   1.330   4.680
 7244TIP3    H221678   5.259   1.414   4.560
 7245TIP3   OH221679   0.101   7.252   6.259
 7245TIP3    H121680   0.165   7.252   6.187
 7245TIP3    H221681   0.129   7.180   6.315
 7246TIP3   OH221682   0.107   0.639   3.514
 7246TIP3    H121683   0.020   0.678   3.511
 7246TIP3    H221684   0.128   0.621   3.422
 7247TIP3   OH221685   6.990   7.325   4.432
 7247TIP3    H121686   7.009   7.346   4.523
 7247TIP3    H221687   7.028   7.397   4.382
 7248TIP3   OH221688   0.797   5.623   3.511
 7248TIP3    H121689   0.768   5.672   3.434
 7248TIP3    H221690   0.753   5.665   3.585
 7249TIP3   OH221691   2.370   3.443   0.155
 7249TIP3    H121692   2.340   3.510   0.217
 7249TIP3    H221693   2.292   3.420   0.105
 7250TIP3   OH221694   7.493   4.087   5.081
 7250TIP3    H121695   7.530   4.107   5.167
 7250TIP3    H221696   7.459   4.171   5.050
 7251TIP3   OH221697   4.329   3.575   5.801
 7251TIP3    H121698   4.345   3.650   5.858
 7251TIP3    H221699   4.280   3.611   5.727
 7252TIP3   OH221700   6.106   7.762   3.846
 7252TIP3    H121701   6.168   7.815   3.897
 7252TIP3    H221702   6.161   7.714   3.784
 7253TIP3   OH221703   1.175   0.393   2.986
 7253TIP3    H121704   1.258   0.411   3.029
 7253TIP3    H221705   1.198   0.343   2.907
 7254TIP3   OH221706   1.380   0.179   3.148
 7254TIP3    H121707   1.327   0.178   3.227
 7254TIP3    H221708   1.427   0.263   3.151
 7255TIP3   OH221709   7.991   2.635   1.489
 7255TIP3    H121710   7.986   2.729   1.502
 7255TIP3    H221711   7.901   2.604   1.496
 7256TIP3   OH221712   5.299   1.839   5.041
 7256TIP3    H121713   5.229   1.900   5.063
 7256TIP3    H221714   5.376   1.894   5.028
 7257TIP3   OH221715   6.467   4.419   0.714
 7257TIP3    H121716   6.494   4.425   0.622
 7257TIP3    H221717   6.389   4.363   0.711
 7258TIP3   OH221718   6.537   7.110   2.568
 7258TIP3    H121719   6.519   7.200   2.541
 7258TIP3    H221720   6.470   7.091   2.633
 7259TIP3   OH221721   3.190   3.629   1.363
 7259TIP3    H121722   3.270   3.583   1.339
 7259TIP3    H221723   3.171   3.600   1.452
 7260TIP3   OH221724   5.981   4.843   3.356
 7260TIP3    H121725   5.993   4.934   3.383
 7260TIP3    H221726   6.069   4.811   3.337
 7261TIP3   OH221727   7.292   4.855   4.585
 7261TIP3    H121728   7.226   4.924   4.594
 7261TIP3    H221729   7.312   4.853   4.491
 7262TIP3   OH221730   3.205   6.059   6.118
 7262TIP3    H121731   3.288   6.043   6.074
 7262TIP3    H221732   3.143   5.999   6.075
 7263TIP3   OH221733   2.806   6.433   0.272
 7263TIP3    H121734   2.743   6.503   0.288
 7263TIP3    H221735   2.876   6.447   0.335
 7264TIP3   OH221736   0.563   7.621   2.684
 7264TIP3    H121737   0.623   7.669   2.741
 7264TIP3    H221738   0.619   7.584   2.616
 7265TIP3   OH221739   2.066   1.795   5.438
 7265TIP3    H121740   2.118   1.722   5.405
 7265TIP3    H221741   2.120   1.872   5.421
 7266TIP3   OH221742   7.512   4.946   2.940
 7266TIP3    H121743   7.587   4.930   2.884
 7266TIP3    H221744   7.542   4.923   3.028
 7267TIP3   OH221745   5.177   3.794   0.593
 7267TIP3    H121746   5.118   3.758   0.660
 7267TIP3    H221747   5.237   3.722   0.574
 7268TIP3   OH221748   1.346   5.917   1.318
 7268TIP3    H121749   1.338   5.900   1.412
 7268TIP3    H221750   1.325   5.833   1.277
 7269TIP3   OH221751   4.115   4.168   3.754
 7269TIP3    H121752   4.078   4.257   3.750
 7269TIP3    H221753   4.196   4.178   3.803
 7270TIP3   OH221754   5.901   6.240   1.309
 7270TIP3    H121755   5.851   6.260   1.230
 7270TIP3    H221756   5.865   6.157   1.340
 7271TIP3   OH221757   0.819   6.601   1.701
 7271TIP3    H121758   0.811   6.638   1.789
 7271TIP3    H221759   0.902   6.554   1.702
 7272TIP3   OH221760   1.150   0.028   6.173
 7272TIP3    H121761   1.126   0.121   6.166
 7272TIP3    H221762   1.152  -0.003   6.083
 7273TIP3   OH221763   8.280   5.475   4.344
 7273TIP3    H121764   8.267   5.531   4.420
 7273TIP3    H221765   8.347   5.520   4.292
 7274TIP3   OH221766   6.205   3.961   1.389
 7274TIP3    H121767   6.163   3.919   1.464
 7274TIP3    H221768   6.156   4.042   1.376
 7275TIP3   OH221769   8.143   3.360   0.869
 7275TIP3    H121770   8.070   3.387   0.925
 7275TIP3    H221771   8.217   3.353   0.928
 7276TIP3   OH221772   1.609   7.151   2.967
 7276TIP3    H121773   1.702   7.159   2.988
 7276TIP3    H221774   1.586   7.236   2.930
 7277TIP3   OH221775   7.388   4.994   2.182
 7277TIP3    H121776   7.350   5.040   2.107
 7277TIP3    H221777   7.390   4.902   2.155
 7278TIP3   OH221778   5.115   7.049   2.359
 7278TIP3    H121779   5.192   7.105   2.361
 7278TIP3    H221780   5.060   7.086   2.290
 7279TIP3   OH221781   1.729   5.644   1.587
 7279TIP3    H121782   1.739   5.590   1.508
 7279TIP3    H221783   1.785   5.602   1.652
 7280TIP3   OH221784   7.385   4.853   2.447
 7280TIP3    H121785   7.457   4.893   2.497
 7280TIP3    H221786   7.371   4.913   2.374
 7281TIP3   OH221787   4.975   3.234   3.841
 7281TIP3    H121788   5.068   3.256   3.840
 7281TIP3    H221789   4.972   3.146   3.879
 7282TIP3   OH221790   3.595   2.455   2.851
 7282TIP3    H121791   3.514   2.440   2.800
 7282TIP3    H221792   3.577   2.414   2.936
 7283TIP3   OH221793   7.291   0.325   3.788
 7283TIP3    H121794   7.210   0.375   3.778
 7283TIP3    H221795   7.293   0.266   3.713
 7284TIP3   OH221796   0.684   1.339   2.590
 7284TIP3    H121797   0.702   1.247   2.569
 7284TIP3    H221798   0.750   1.388   2.540
 7285TIP3   OH221799   0.890   0.124   0.534
 7285TIP3    H121800   0.855   0.065   0.468
 7285TIP3    H221801   0.978   0.090   0.552
 7286TIP3   OH221802   1.918   5.670   3.454
 7286TIP3    H121803   1.827   5.656   3.478
 7286TIP3    H221804   1.953   5.582   3.440
 7287TIP3   OH221805   6.707   5.058   6.131
 7287TIP3    H121806   6.624   5.011   6.137
 7287TIP3    H221807   6.687   5.148   6.157
 7288TIP3   OH221808   5.339   5.356   4.665
 7288TIP3    H121809   5.333   5.262   4.649
 7288TIP3    H221810   5.258   5.379   4.709
 7289TIP3   OH221811   2.043   6.651   6.083
 7289TIP3    H121812   2.072   6.696   6.003
 7289TIP3    H221813   2.076   6.705   6.154
 7290TIP3   OH221814   2.566   5.654   5.186
 7290TIP3    H121815   2.487   5.601   5.179
 7290TIP3    H221816   2.630   5.609   5.130
 7291TIP3   OH221817   1.001   3.907   3.513
 7291TIP3    H121818   1.063   3.979   3.507
 7291TIP3    H221819   1.036   3.840   3.453
 7292TIP3   OH221820   6.032   6.368   2.779
 7292TIP3    H121821   6.021   6.397   2.869
 7292TIP3    H221822   6.058   6.277   2.786
 7293TIP3   OH221823   2.595   1.496   0.673
 7293TIP3    H121824   2.552   1.531   0.751
 7293TIP3    H221825   2.525   1.491   0.608
 7294TIP3   OH221826   2.987   4.851   2.753
 7294TIP3    H121827   3.012   4.799   2.830
 7294TIP3    H221828   3.015   4.798   2.678
 7295TIP3   OH221829   6.418   1.302   6.072
 7295TIP3    H121830   6.462   1.236   6.125
 7295TIP3    H221831   6.333   1.315   6.115
 7296TIP3   OH221832   6.747   7.050   0.522
 7296TIP3    H121833   6.671   6.999   0.492
 7296TIP3    H221834   6.789   7.079   0.441
 7297TIP3   OH221835   8.077   1.847   6.324
 7297TIP3    H121836   8.129   1.774   6.357
 7297TIP3    H221837   8.067   1.905   6.398
 7298TIP3   OH221838   6.380   7.003   5.728
 7298TIP3    H121839   6.387   7.089   5.688
 7298TIP3    H221840   6.469   6.969   5.728
 7299TIP3   OH221841   8.206   6.578   3.955
 7299TIP3    H121842   8.156   6.521   4.014
 7299TIP3    H221843   8.140   6.616   3.897
 7300TIP3   OH221844   6.158   6.017   0.352
 7300TIP3    H121845   6.109   5.985   0.277
 7300TIP3    H221846   6.233   5.957   0.360
 7301TIP3   OH221847   1.743   0.499   2.208
 7301TIP3    H121848   1.768   0.409   2.229
 7301TIP3    H221849   1.667   0.517   2.264
 7302TIP3   OH221850   3.190   6.936   1.486
 7302TIP3    H121851   3.124   6.998   1.457
 7302TIP3    H221852   3.184   6.935   1.581
 7303TIP3   OH221853   0.748   6.057   3.041
 7303TIP3    H121854   0.733   6.024   2.953
 7303TIP3    H221855   0.796   6.138   3.028
 7304TIP3   OH221856   7.246   2.486   6.151
 7304TIP3    H121857   7.300   2.548   6.101
 7304TIP3    H221858   7.308   2.418   6.178
 7305TIP3   OH221859   6.140   1.404   6.676
 7305TIP3    H121860   6.198   1.365   6.610
 7305TIP3    H221861   6.176   1.491   6.692
 7306TIP3   OH221862   4.838   6.780   5.831
 7306TIP3    H121863   4.804   6.861   5.792
 7306TIP3    H221864   4.773   6.713   5.808
 7307TIP3   OH221865   5.499   3.914   2.877
 7307TIP3    H121866   5.538   3.879   2.957
 7307TIP3    H221867   5.420   3.861   2.863
 7308TIP3   OH221868   7.373   3.483   0.999
 7308TIP3    H121869   7.350   3.539   1.074
 7308TIP3    H221870   7.301   3.497   0.937
 7309TIP3   OH221871   5.105   7.534   0.526
 7309TIP3    H121872   5.115   7.608   0.586
 7309TIP3    H221873   5.188   7.486   0.533
 7310TIP3   OH221874   7.323   0.812   5.408
 7310TIP3    H121875   7.342   0.850   5.494
 7310TIP3    H221876   7.234   0.841   5.388
 7311TIP3   OH221877   6.709   4.007   4.006
 7311TIP3    H121878   6.781   4.026   4.067
 7311TIP3    H221879   6.694   4.091   3.961
 7312TIP3   OH221880   7.503   6.636   1.649
 7312TIP3    H121881   7.420   6.647   1.603
 7312TIP3    H221882   7.488   6.562   1.708
 7313TIP3   OH221883   0.834   6.837   4.428
 7313TIP3    H121884   0.826   6.774   4.356
 7313TIP3    H221885   0.827   6.783   4.507
 7314TIP3   OH221886   3.347   5.750   4.342
 7314TIP3    H121887   3.427   5.783   4.384
 7314TIP3    H221888   3.290   5.728   4.415
 7315TIP3   OH221889   7.652   3.517   5.441
 7315TIP3    H121890   7.599   3.537   5.364
 7315TIP3    H221891   7.742   3.529   5.412
 7316TIP3   OH221892   2.602   5.442   0.155
 7316TIP3    H121893   2.642   5.435   0.242
 7316TIP3    H221894   2.629   5.529   0.123
 7317TIP3   OH221895   3.101   7.019   5.532
 7317TIP3    H121896   3.189   6.991   5.557
 7317TIP3    H221897   3.108   7.042   5.439
 7318TIP3   OH221898   4.729   7.047   5.050
 7318TIP3    H121899   4.689   6.975   5.000
 7318TIP3    H221900   4.815   7.013   5.075
 7319TIP3   OH221901   8.058   5.036   5.024
 7319TIP3    H121902   8.001   5.097   5.071
 7319TIP3    H221903   8.000   4.991   4.963
 7320TIP3   OH221904   2.547   5.945   5.334
 7320TIP3    H121905   2.528   5.879   5.268
 7320TIP3    H221906   2.511   6.026   5.298
 7321TIP3   OH221907   3.360   6.326   1.871
 7321TIP3    H121908   3.302   6.378   1.815
 7321TIP3    H221909   3.338   6.352   1.960
 7322TIP3   OH221910   7.680   5.120   5.443
 7322TIP3    H121911   7.585   5.123   5.430
 7322TIP3    H221912   7.694   5.041   5.496
 7323TIP3   OH221913   2.207   5.985   5.520
 7323TIP3    H121914   2.179   5.903   5.477
 7323TIP3    H221915   2.200   6.051   5.451
 7324TIP3   OH221916   2.722   1.290   0.312
 7324TIP3    H121917   2.691   1.377   0.289
 7324TIP3    H221918   2.713   1.239   0.231
 7325TIP3   OH221919   0.403   3.704   5.161
 7325TIP3    H121920   0.336   3.766   5.132
 7325TIP3    H221921   0.419   3.727   5.252
 7326TIP3   OH221922   7.344   1.211   4.028
 7326TIP3    H121923   7.379   1.211   3.939
 7326TIP3    H221924   7.298   1.295   4.036
 7327TIP3   OH221925   4.462   5.540   6.634
 7327TIP3    H121926   4.481   5.529   6.727
 7327TIP3    H221927   4.371   5.512   6.624
 7328TIP3   OH221928   6.499   2.471   6.731
 7328TIP3    H121929   6.418   2.520   6.716
 7328TIP3    H221930   6.567   2.523   6.690
 7329TIP3   OH221931   0.883   5.828   0.894
 7329TIP3    H121932   0.792   5.847   0.870
 7329TIP3    H221933   0.893   5.864   0.983
 7330TIP3   OH221934   6.073   3.544   6.279
 7330TIP3    H121935   6.072   3.640   6.279
 7330TIP3    H221936   6.026   3.520   6.359
 7331TIP3   OH221937   4.769   7.850   3.466
 7331TIP3    H121938   4.741   7.819   3.380
 7331TIP3    H221939   4.775   7.770   3.519
 7332TIP3   OH221940   5.480   1.680   5.199
 7332TIP3    H121941   5.428   1.738   5.143
 7332TIP3    H221942   5.452   1.592   5.176
 7333TIP3   OH221943   7.176   5.104   6.185
 7333TIP3    H121944   7.147   5.131   6.271
 7333TIP3    H221945   7.107   5.133   6.125
 7334TIP3   OH221946   3.011   1.055   5.069
 7334TIP3    H121947   3.081   1.049   5.133
 7334TIP3    H221948   3.055   1.066   4.985
 7335TIP3   OH221949   4.110   5.948   4.448
 7335TIP3    H121950   4.031   5.939   4.394
 7335TIP3    H221951   4.164   6.010   4.399
 7336TIP3   OH221952   7.825   2.307   4.464
 7336TIP3    H121953   7.839   2.368   4.536
 7336TIP3    H221954   7.730   2.300   4.456
 7337TIP3   OH221955   7.010   1.966   5.937
 7337TIP3    H121956   7.072   1.915   5.989
 7337TIP3    H221957   6.955   1.901   5.893
 7338TIP3   OH221958   6.741   5.404   6.091
 7338TIP3    H121959   6.767   5.462   6.019
 7338TIP3    H221960   6.671   5.351   6.054
 7339TIP3   OH221961   2.961   3.111   1.229
 7339TIP3    H121962   2.929   3.200   1.243
 7339TIP3    H221963   3.030   3.120   1.164
 7340TIP3   OH221964   6.330   3.836   6.169
 7340TIP3    H121965   6.342   3.751   6.127
 7340TIP3    H221966   6.248   3.826   6.218
 7341TIP3   OH221967   4.807   7.674   6.417
 7341TIP3    H121968   4.739   7.625   6.371
 7341TIP3    H221969   4.827   7.621   6.494
 7342TIP3   OH221970   6.518   4.827   4.172
 7342TIP3    H121971   6.535   4.808   4.080
 7342TIP3    H221972   6.600   4.804   4.217
 7343TIP3   OH221973   5.740   5.000   1.558
 7343TIP3    H121974   5.825   5.014   1.518
 7343TIP3    H221975   5.720   4.908   1.542
 7344TIP3   OH221976   3.059   0.941   0.332
 7344TIP3    H121977   3.011   0.858   0.343
 7344TIP3    H221978   3.027   0.975   0.248
 7345TIP3   OH221979   5.512   2.712   0.745
 7345TIP3    H121980   5.530   2.629   0.701
 7345TIP3    H221981   5.506   2.689   0.838
 7346TIP3   OH221982   3.028   5.563   2.525
 7346TIP3    H121983   3.001   5.635   2.581
 7346TIP3    H221984   3.082   5.507   2.581
 7347TIP3   OH221985   8.186   2.723   5.922
 7347TIP3    H121986   8.180   2.627   5.920
 7347TIP3    H221987   8.151   2.747   6.008
 7348TIP3   OH221988   3.197   5.363   3.445
 7348TIP3    H121989   3.111   5.403   3.460
 7348TIP3    H221990   3.208   5.368   3.350
 7349TIP3   OH221991   0.014   4.561   1.900
 7349TIP3    H121992   0.095   4.520   1.931
 7349TIP3    H221993  -0.042   4.567   1.977
 7350TIP3   OH221994   4.616   4.680   0.354
 7350TIP3    H121995   4.636   4.588   0.371
 7350TIP3    H221996   4.643   4.694   0.263
 7351TIP3   OH221997   1.506   7.409   5.989
 7351TIP3    H121998   1.509   7.430   6.082
 7351TIP3    H221999   1.546   7.322   5.983
 7352TIP3   OH222000   8.122   2.193   1.921
 7352TIP3    H122001   8.196   2.173   1.864
 7352TIP3    H222002   8.155   2.175   2.010
 7353TIP3   OH222003   5.808   1.744   3.065
 7353TIP3    H122004   5.866   1.675   3.035
 7353TIP3    H222005   5.738   1.698   3.111
 7354TIP3   OH222006   7.447   7.604   0.805
 7354TIP3    H122007   7.433   7.576   0.715
 7354TIP3    H222008   7.481   7.527   0.850
 7355TIP3   OH222009   1.164   0.814   3.671
 7355TIP3    H122010   1.217   0.739   3.645
 7355TIP3    H222011   1.208   0.890   3.633
 7356TIP3   OH222012   1.642   3.477   4.013
 7356TIP3    H122013   1.650   3.542   3.943
 7356TIP3    H222014   1.666   3.524   4.092
 7357TIP3   OH222015   5.521   6.391   1.950
 7357TIP3    H122016   5.438   6.345   1.951
 7357TIP3    H222017   5.584   6.326   1.918
 7358TIP3   OH222018   7.964   1.274   1.918
 7358TIP3    H122019   7.970   1.314   2.005
 7358TIP3    H222020   8.049   1.231   1.905
 7359TIP3   OH222021   3.466   4.501   1.475
 7359TIP3    H122022   3.396   4.548   1.521
 7359TIP3    H222023   3.545   4.523   1.525
 7360TIP3   OH222024   4.643   5.493   5.980
 7360TIP3    H122025   4.720   5.541   6.010
 7360TIP3    H222026   4.659   5.403   6.008
 7361TIP3   OH222027   7.860   2.034   3.893
 7361TIP3    H122028   7.952   2.028   3.868
 7361TIP3    H222029   7.853   2.118   3.939
 7362TIP3   OH222030   4.644   5.548   0.392
 7362TIP3    H122031   4.719   5.601   0.366
 7362TIP3    H222032   4.570   5.610   0.393
 7363TIP3   OH222033   3.642   6.842   3.590
 7363TIP3    H122034   3.715   6.793   3.629
 7363TIP3    H222035   3.568   6.782   3.594
 7364TIP3   OH222036   3.599   3.237   2.433
 7364TIP3    H122037   3.685   3.222   2.394
 7364TIP3    H222038   3.546   3.162   2.405
 7365TIP3   OH222039   1.652   3.398   3.405
 7365TIP3    H122040   1.740   3.435   3.401
 7365TIP3    H222041   1.654   3.327   3.341
 7366TIP3   OH222042   4.116   7.556   1.175
 7366TIP3    H122043   4.206   7.586   1.162
 7366TIP3    H222044   4.062   7.629   1.145
 7367TIP3   OH222045   4.300   4.372   5.591
 7367TIP3    H122046   4.390   4.339   5.599
 7367TIP3    H222047   4.274   4.393   5.681
 7368TIP3   OH222048   8.123   1.269   5.510
 7368TIP3    H122049   8.205   1.314   5.528
 7368TIP3    H222050   8.063   1.297   5.579
 7369TIP3   OH222051   7.974   2.736   1.973
 7369TIP3    H122052   7.988   2.831   1.965
 7369TIP3    H222053   7.965   2.721   2.067
 7370TIP3   OH222054   7.063   2.985   0.540
 7370TIP3    H122055   7.104   3.070   0.554
 7370TIP3    H222056   7.073   2.968   0.446
 7371TIP3   OH222057   6.140   3.777   6.575
 7371TIP3    H122058   6.096   3.785   6.660
 7371TIP3    H222059   6.230   3.805   6.592
 7372TIP3   OH222060   3.516   7.288   6.572
 7372TIP3    H122061   3.538   7.240   6.493
 7372TIP3    H222062   3.577   7.362   6.573
 7373TIP3   OH222063   1.953   6.123   1.709
 7373TIP3    H122064   1.869   6.167   1.716
 7373TIP3    H222065   1.931   6.030   1.699
 7374TIP3   OH222066   1.760   6.449   0.117
 7374TIP3    H122067   1.755   6.368   0.067
 7374TIP3    H222068   1.812   6.508   0.062
 7375TIP3   OH222069   5.352   0.030   5.114
 7375TIP3    H122070   5.384  -0.052   5.078
 7375TIP3    H222071   5.403   0.097   5.069
 7376TIP3   OH222072   2.124   7.458   4.450
 7376TIP3    H122073   2.161   7.500   4.527
 7376TIP3    H222074   2.066   7.524   4.412
 7377TIP3   OH222075   2.295   3.060   1.263
 7377TIP3    H122076   2.385   3.035   1.287
 7377TIP3    H222077   2.258   2.981   1.223
 7378TIP3   OH222078   3.428   6.748   1.502
 7378TIP3    H122079   3.430   6.659   1.536
 7378TIP3    H222080   3.483   6.798   1.563
 7379TIP3   OH222081   1.081   4.101   4.439
 7379TIP3    H122082   1.089   4.190   4.472
 7379TIP3    H222083   0.990   4.078   4.453
 7380TIP3   OH222084   5.567   4.064   4.383
 7380TIP3    H122085   5.477   4.043   4.359
 7380TIP3    H222086   5.589   4.000   4.450
 7381TIP3   OH222087   5.097   7.272   1.507
 7381TIP3    H122088   5.148   7.252   1.429
 7381TIP3    H222089   5.083   7.366   1.504
 7382TIP3   OH222090   3.977   0.210   5.899
 7382TIP3    H122091   4.053   0.217   5.958
 7382TIP3    H222092   3.952   0.117   5.903
 7383TIP3   OH222093   6.410   1.971   2.579
 7383TIP3    H122094   6.352   1.896   2.575
 7383TIP3    H222095   6.430   1.991   2.487
 7384TIP3   OH222096   1.649   2.807   2.008
 7384TIP3    H122097   1.608   2.726   1.978
 7384TIP3    H222098   1.628   2.811   2.102
 7385TIP3   OH222099   0.069   5.032   2.727
 7385TIP3    H122100   0.054   5.001   2.817
 7385TIP3    H222101   0.144   5.091   2.735
 7386TIP3   OH222102   7.357   1.618   5.199
 7386TIP3    H122103   7.412   1.549   5.234
 7386TIP3    H222104   7.408   1.655   5.126
 7387TIP3   OH222105   8.195   6.536   1.752
 7387TIP3    H122106   8.221   6.622   1.786
 7387TIP3    H222107   8.208   6.476   1.826
 7388TIP3   OH222108   2.339   6.914   6.260
 7388TIP3    H122109   2.360   6.861   6.182
 7388TIP3    H222110   2.261   6.873   6.296
 7389TIP3   OH222111   6.445   4.996   5.911
 7389TIP3    H122112   6.531   4.978   5.873
 7389TIP3    H222113   6.391   4.921   5.886
 7390TIP3   OH222114   2.701   1.700   5.667
 7390TIP3    H122115   2.792   1.705   5.697
 7390TIP3    H222116   2.667   1.788   5.681
 7391TIP3   OH222117   7.936   3.762   2.263
 7391TIP3    H122118   7.896   3.783   2.178
 7391TIP3    H222119   8.028   3.747   2.242
 7392TIP3   OH222120   0.950   0.804   2.788
 7392TIP3    H122121   0.950   0.757   2.872
 7392TIP3    H222122   1.041   0.832   2.776
 7393TIP3   OH222123   1.900   6.761   4.175
 7393TIP3    H122124   1.927   6.696   4.239
 7393TIP3    H222125   1.896   6.843   4.224
 7394TIP3   OH222126   7.341   4.040   5.602
 7394TIP3    H122127   7.414   4.040   5.663
 7394TIP3    H222128   7.263   4.029   5.657
 7395TIP3   OH222129   6.671   2.818   1.487
 7395TIP3    H122130   6.602   2.757   1.516
 7395TIP3    H222131   6.702   2.781   1.405
 7396TIP3   OH222132   1.120   4.693   3.432
 7396TIP3    H122133   1.064   4.625   3.470
 7396TIP3    H222134   1.161   4.650   3.357
 7397TIP3   OH222135   2.144   3.179   4.900
 7397TIP3    H122136   2.205   3.249   4.921
 7397TIP3    H222137   2.057   3.220   4.901
 7398TIP3   OH222138   6.583   1.735   2.142
 7398TIP3    H122139   6.570   1.830   2.142
 7398TIP3    H222140   6.536   1.704   2.220
 7399TIP3   OH222141   7.290   1.204   1.928
 7399TIP3    H122142   7.303   1.145   1.853
 7399TIP3    H222143   7.259   1.147   1.998
 7400TIP3   OH222144   6.899   2.303   2.321
 7400TIP3    H122145   6.910   2.317   2.415
 7400TIP3    H222146   6.987   2.308   2.285
 7401TIP3   OH222147   7.528   2.487   5.625
 7401TIP3    H122148   7.482   2.425   5.681
 7401TIP3    H222149   7.621   2.464   5.635
 7402TIP3   OH222150   7.342   2.545   2.458
 7402TIP3    H122151   7.390   2.561   2.377
 7402TIP3    H222152   7.403   2.568   2.527
 7403TIP3   OH222153   5.646   2.185   0.070
 7403TIP3    H122154   5.560   2.226   0.071
 7403TIP3    H222155   5.705   2.251   0.105
 7404TIP3   OH222156   5.700   0.807   3.168
 7404TIP3    H122157   5.769   0.873   3.173
 7404TIP3    H222158   5.630   0.850   3.119
 7405TIP3   OH222159   5.609   1.607   3.574
 7405TIP3    H122160   5.587   1.686   3.525
 7405TIP3    H222161   5.690   1.629   3.620
 7406TIP3   OH222162   1.420   3.340   1.763
 7406TIP3    H122163   1.388   3.427   1.787
 7406TIP3    H222164   1.343   3.294   1.730
 7407TIP3   OH222165   2.372   7.197   0.586
 7407TIP3    H122166   2.403   7.286   0.604
 7407TIP3    H222167   2.342   7.200   0.495
 7408TIP3   OH222168   7.449   7.075   1.275
 7408TIP3    H122169   7.354   7.078   1.284
 7408TIP3    H222170   7.469   7.141   1.209
 7409TIP3   OH222171   0.133   0.433   0.391
 7409TIP3    H122172   0.170   0.512   0.430
 7409TIP3    H222173   0.096   0.384   0.465
 7410TIP3   OH222174   0.802   0.586   3.216
 7410TIP3    H122175   0.840   0.627   3.294
 7410TIP3    H222176   0.776   0.659   3.160
 7411TIP3   OH222177   1.545   2.402   4.581
 7411TIP3    H122178   1.607   2.345   4.627
 7411TIP3    H222179   1.598   2.446   4.515
 7412TIP3   OH222180   7.606   2.592   1.295
 7412TIP3    H122181   7.562   2.508   1.308
 7412TIP3    H222182   7.589   2.641   1.376
 7413TIP3   OH222183   7.736   7.474   3.236
 7413TIP3    H122184   7.783   7.546   3.194
 7413TIP3    H222185   7.775   7.468   3.323
 7414TIP3   OH222186   7.772   0.299   2.736
 7414TIP3    H122187   7.786   0.228   2.799
 7414TIP3    H222188   7.759   0.377   2.790
 7415TIP3   OH222189   5.996   6.849   2.086
 7415TIP3    H122190   5.916   6.885   2.046
 7415TIP3    H222191   5.970   6.763   2.120
 7416TIP3   OH222192   0.551   6.119   2.550
 7416TIP3    H122193   0.558   6.105   2.456
 7416TIP3    H222194   0.582   6.209   2.564
 7417TIP3   OH222195   1.106   2.689   3.136
 7417TIP3    H122196   1.068   2.733   3.212
 7417TIP3    H222197   1.074   2.599   3.142
 7418TIP3   OH222198   1.882   0.759   5.500
 7418TIP3    H122199   1.924   0.747   5.585
 7418TIP3    H222200   1.810   0.820   5.518
 7419TIP3   OH222201   0.758   3.984   3.886
 7419TIP3    H122202   0.677   3.986   3.937
 7419TIP3    H222203   0.822   3.943   3.945
 7420TIP3   OH222204   1.912   0.774   1.842
 7420TIP3    H122205   1.877   0.691   1.810
 7420TIP3    H222206   1.937   0.822   1.763
 7421TIP3   OH222207   2.003   6.485   0.821
 7421TIP3    H122208   1.918   6.445   0.841
 7421TIP3    H222209   2.010   6.558   0.883
 7422TIP3   OH222210   5.736   7.312   5.514
 7422TIP3    H122211   5.769   7.350   5.596
 7422TIP3    H222212   5.662   7.368   5.490
 7423TIP3   OH222213   5.485   5.261   5.210
 7423TIP3    H122214   5.476   5.353   5.234
 7423TIP3    H222215   5.423   5.215   5.267
 7424TIP3   OH222216   1.849   0.541   4.641
 7424TIP3    H122217   1.821   0.557   4.731
 7424TIP3    H222218   1.943   0.524   4.648
 7425TIP3   OH222219   1.664   1.689   4.074
 7425TIP3    H122220   1.717   1.686   4.154
 7425TIP3    H222221   1.659   1.783   4.053
 7426TIP3   OH222222   4.478   6.219   0.469
 7426TIP3    H122223   4.390   6.201   0.437
 7426TIP3    H222224   4.509   6.292   0.414
 7427TIP3   OH222225   5.477   4.491   0.684
 7427TIP3    H122226   5.521   4.532   0.610
 7427TIP3    H222227   5.503   4.543   0.759
 7428TIP3   OH222228   5.513   5.031   2.344
 7428TIP3    H122229   5.437   5.089   2.335
 7428TIP3    H222230   5.486   4.965   2.407
 7429TIP3   OH222231   4.802   5.770   0.351
 7429TIP3    H122232   4.829   5.781   0.260
 7429TIP3    H222233   4.756   5.852   0.372
 7430TIP3   OH222234   4.381   2.135   2.726
 7430TIP3    H122235   4.412   2.141   2.636
 7430TIP3    H222236   4.343   2.047   2.733
 7431TIP3   OH222237   7.591   2.102   0.131
 7431TIP3    H122238   7.531   2.172   0.104
 7431TIP3    H222239   7.676   2.145   0.141
 7432TIP3   OH222240   3.906   3.167   1.132
 7432TIP3    H122241   3.866   3.188   1.048
 7432TIP3    H222242   3.998   3.153   1.112
 7433TIP3   OH222243   7.526   1.316   3.387
 7433TIP3    H122244   7.437   1.281   3.385
 7433TIP3    H222245   7.539   1.344   3.477
 7434TIP3   OH222246   0.579   7.314   5.124
 7434TIP3    H122247   0.642   7.249   5.096
 7434TIP3    H222248   0.500   7.297   5.072
 7435TIP3   OH222249   1.021   4.886   5.095
 7435TIP3    H122250   1.064   4.970   5.110
 7435TIP3    H222251   0.968   4.900   5.017
 7436TIP3   OH222252   2.703   0.259   5.169
 7436TIP3    H122253   2.644   0.296   5.104
 7436TIP3    H222254   2.766   0.208   5.117
 7437TIP3   OH222255   3.631   5.525   5.814
 7437TIP3    H122256   3.668   5.606   5.780
 7437TIP3    H222257   3.692   5.457   5.788
 7438TIP3   OH222258   2.499   2.980   5.290
 7438TIP3    H122259   2.406   2.958   5.287
 7438TIP3    H222260   2.535   2.923   5.358
 7439TIP3   OH222261   1.128   7.171   0.693
 7439TIP3    H122262   1.182   7.101   0.656
 7439TIP3    H222263   1.088   7.133   0.771
 7440TIP3   OH222264   3.402   6.723   4.978
 7440TIP3    H122265   3.358   6.745   4.895
 7440TIP3    H222266   3.481   6.677   4.951
 7441TIP3   OH222267   5.338   4.474   2.522
 7441TIP3    H122268   5.295   4.408   2.578
 7441TIP3    H222269   5.282   4.480   2.445
 7442TIP3   OH222270   1.769   3.065   2.767
 7442TIP3    H122271   1.770   3.013   2.686
 7442TIP3    H222272   1.762   3.155   2.736
 7443TIP3   OH222273   1.176   3.792   3.346
 7443TIP3    H122274   1.244   3.727   3.364
 7443TIP3    H222275   1.185   3.811   3.252
 7444TIP3   OH222276   3.896   2.791   1.932
 7444TIP3    H122277   3.862   2.712   1.891
 7444TIP3    H222278   3.841   2.862   1.898
 7445TIP3   OH222279   3.091   1.032   2.105
 7445TIP3    H122280   3.138   1.024   2.021
 7445TIP3    H222281   3.158   1.063   2.166
 7446TIP3   OH222282   8.258   0.514   4.027
 7446TIP3    H122283   8.338   0.491   3.981
 7446TIP3    H222284   8.286   0.539   4.115
 7447TIP3   OH222285   2.509   4.845   2.457
 7447TIP3    H122286   2.566   4.769   2.470
 7447TIP3    H222287   2.530   4.876   2.369
 7448TIP3   OH222288   7.128   5.076   4.649
 7448TIP3    H122289   7.110   5.147   4.711
 7448TIP3    H222290   7.063   5.087   4.580
 7449TIP3   OH222291   4.704   5.558   0.037
 7449TIP3    H122292   4.788   5.526   0.071
 7449TIP3    H222293   4.727   5.629  -0.022
 7450TIP3   OH222294   4.318   1.004   3.940
 7450TIP3    H122295   4.394   0.965   3.897
 7450TIP3    H222296   4.242   0.969   3.892
 7451TIP3   OH222297   2.533   2.905   6.573
 7451TIP3    H122298   2.537   2.817   6.536
 7451TIP3    H222299   2.439   2.920   6.588
 7452TIP3   OH222300   5.178   3.790   1.361
 7452TIP3    H122301   5.249   3.738   1.397
 7452TIP3    H222302   5.220   3.870   1.329
 7453TIP3   OH222303   1.091   6.764   3.242
 7453TIP3    H122304   1.104   6.689   3.300
 7453TIP3    H222305   1.004   6.749   3.204
 7454TIP3   OH222306   4.483   3.161   1.263
 7454TIP3    H122307   4.465   3.162   1.356
 7454TIP3    H222308   4.409   3.207   1.223
 7455TIP3   OH222309   0.091   1.035   2.599
 7455TIP3    H122310   0.111   0.947   2.565
 7455TIP3    H222311   0.014   1.062   2.549
 7456TIP3   OH222312   7.627   0.502   4.738
 7456TIP3    H122313   7.603   0.558   4.813
 7456TIP3    H222314   7.544   0.467   4.706
 7457TIP3   OH222315   4.210   5.965   5.273
 7457TIP3    H122316   4.219   5.888   5.329
 7457TIP3    H222317   4.117   5.968   5.250
 7458TIP3   OH222318   3.006   1.921   2.910
 7458TIP3    H122319   3.044   1.930   2.997
 7458TIP3    H222320   2.923   1.968   2.915
 7459TIP3   OH222321   5.354   3.274   2.371
 7459TIP3    H122322   5.375   3.182   2.387
 7459TIP3    H222323   5.360   3.315   2.457
 7460TIP3   OH222324   5.641   2.111   2.934
 7460TIP3    H122325   5.669   2.057   2.860
 7460TIP3    H222326   5.700   2.186   2.932
 7461TIP3   OH222327   1.833   3.343   2.661
 7461TIP3    H122328   1.867   3.294   2.586
 7461TIP3    H222329   1.905   3.344   2.724
 7462TIP3   OH222330   2.158   4.433   4.891
 7462TIP3    H122331   2.194   4.519   4.915
 7462TIP3    H222332   2.068   4.434   4.924
 7463TIP3   OH222333   6.003   2.023   1.102
 7463TIP3    H122334   5.923   1.986   1.140
 7463TIP3    H222335   5.971   2.089   1.040
 7464TIP3   OH222336   6.226   1.157   5.849
 7464TIP3    H122337   6.138   1.194   5.846
 7464TIP3    H222338   6.275   1.216   5.905
 7465TIP3   OH222339   2.413   1.423   0.482
 7465TIP3    H122340   2.415   1.391   0.392
 7465TIP3    H222341   2.338   1.380   0.522
 7466TIP3   OH222342   2.202   5.915   4.195
 7466TIP3    H122343   2.247   5.902   4.279
 7466TIP3    H222344   2.110   5.922   4.218
 7467TIP3   OH222345   7.438   2.468   3.430
 7467TIP3    H122346   7.350   2.481   3.395
 7467TIP3    H222347   7.450   2.373   3.430
 7468TIP3   OH222348   5.355   1.320   1.924
 7468TIP3    H122349   5.406   1.365   1.991
 7468TIP3    H222350   5.347   1.384   1.853
 7469TIP3   OH222351   7.151   2.594   0.880
 7469TIP3    H122352   7.141   2.661   0.812
 7469TIP3    H222353   7.213   2.632   0.943
 7470TIP3   OH222354   1.683   6.718   1.616
 7470TIP3    H122355   1.696   6.804   1.655
 7470TIP3    H222356   1.727   6.722   1.531
 7471TIP3   OH222357   0.241   6.904   5.572
 7471TIP3    H122358   0.314   6.903   5.634
 7471TIP3    H222359   0.279   6.872   5.490
 7472TIP3   OH222360   0.800   4.294   4.391
 7472TIP3    H122361   0.781   4.223   4.452
 7472TIP3    H222362   0.733   4.286   4.323
 7473TIP3   OH222363   1.440   2.808   0.560
 7473TIP3    H122364   1.530   2.799   0.528
 7473TIP3    H222365   1.439   2.894   0.602
 7474TIP3   OH222366   8.277   7.480   5.342
 7474TIP3    H122367   8.227   7.562   5.344
 7474TIP3    H222368   8.210   7.412   5.333
 7475TIP3   OH222369   4.513   4.045   3.970
 7475TIP3    H122370   4.457   4.068   4.044
 7475TIP3    H222371   4.478   4.097   3.897
 7476TIP3   OH222372   0.450   4.688   4.193
 7476TIP3    H122373   0.448   4.593   4.207
 7476TIP3    H222374   0.400   4.724   4.266
 7477TIP3   OH222375   6.544   2.210   3.128
 7477TIP3    H122376   6.484   2.247   3.064
 7477TIP3    H222377   6.496   2.137   3.167
 7478TIP3   OH222378   6.293   2.790   6.609
 7478TIP3    H122379   6.318   2.864   6.664
 7478TIP3    H222380   6.198   2.794   6.604
 7479TIP3   OH222381   0.611   6.167   0.088
 7479TIP3    H122382   0.629   6.074   0.102
 7479TIP3    H222383   0.516   6.176   0.102
 7480TIP3   OH222384   1.713   5.783   4.615
 7480TIP3    H122385   1.622   5.754   4.619
 7480TIP3    H222386   1.708   5.874   4.588
 7481TIP3   OH222387   1.805   6.338   0.458
 7481TIP3    H122388   1.738   6.375   0.401
 7481TIP3    H222389   1.755   6.303   0.532
 7482TIP3   OH222390   4.384   4.045   3.346
 7482TIP3    H122391   4.441   4.068   3.419
 7482TIP3    H222392   4.329   3.974   3.381
 7483TIP3   OH222393   4.913   4.029   3.249
 7483TIP3    H122394   4.864   3.963   3.296
 7483TIP3    H222395   4.958   3.981   3.179
 7484TIP3   OH222396   2.957   6.555   0.483
 7484TIP3    H122397   2.970   6.635   0.432
 7484TIP3    H222398   3.025   6.558   0.551
 7485TIP3   OH222399   6.080   1.439   5.826
 7485TIP3    H122400   6.041   1.506   5.881
 7485TIP3    H222401   6.145   1.486   5.774
 7486TIP3   OH222402   2.952   7.720   3.886
 7486TIP3    H122403   3.035   7.742   3.843
 7486TIP3    H222404   2.921   7.641   3.841
 7487TIP3   OH222405   0.973   6.803   1.315
 7487TIP3    H122406   1.057   6.776   1.278
 7487TIP3    H222407   0.996   6.871   1.378
 7488TIP3   OH222408   1.792   5.425   0.764
 7488TIP3    H122409   1.848   5.414   0.687
 7488TIP3    H222410   1.811   5.349   0.819
 7489TIP3   OH222411   2.793   5.188   4.173
 7489TIP3    H122412   2.876   5.188   4.125
 7489TIP3    H222413   2.800   5.114   4.233
 7490TIP3   OH222414   5.877   3.777   0.237
 7490TIP3    H122415   5.893   3.714   0.307
 7490TIP3    H222416   5.788   3.759   0.208
 7491TIP3   OH222417   7.659   4.348   5.143
 7491TIP3    H122418   7.665   4.370   5.236
 7491TIP3    H222419   7.749   4.328   5.117
 7492TIP3   OH222420   5.556   6.214   5.988
 7492TIP3    H122421   5.543   6.160   6.066
 7492TIP3    H222422   5.640   6.258   6.004
 7493TIP3   OH222423   7.694   4.327   2.921
 7493TIP3    H122424   7.738   4.284   2.848
 7493TIP3    H222425   7.605   4.342   2.890
 7494TIP3   OH222426   3.687   7.749   3.502
 7494TIP3    H122427   3.737   7.799   3.566
 7494TIP3    H222428   3.660   7.670   3.549
 7495TIP3   OH222429   7.733   3.355   3.387
 7495TIP3    H122430   7.675   3.361   3.464
 7495TIP3    H222431   7.675   3.332   3.315
 7496TIP3   OH222432   5.325   2.112   4.238
 7496TIP3    H122433   5.288   2.028   4.263
 7496TIP3    H222434   5.415   2.111   4.272
 7497TIP3   OH222435   6.394   5.970   1.635
 7497TIP3    H122436   6.309   5.934   1.661
 7497TIP3    H222437   6.434   5.998   1.717
 7498TIP3   OH222438   2.878   5.190   0.232
 7498TIP3    H122439   2.921   5.105   0.238
 7498TIP3    H222440   2.922   5.244   0.298
 7499TIP3   OH222441   7.142   1.295   6.478
 7499TIP3    H122442   7.218   1.239   6.499
 7499TIP3    H222443   7.067   1.236   6.483
 7500TIP3   OH222444   0.907   6.741   3.619
 7500TIP3    H122445   0.849   6.685   3.567
 7500TIP3    H222446   0.885   6.720   3.710
 7501TIP3   OH222447   1.645   4.438   3.083
 7501TIP3    H122448   1.667   4.424   3.175
 7501TIP3    H222449   1.601   4.523   3.081
 7502TIP3   OH222450   6.809   7.131   6.615
 7502TIP3    H122451   6.769   7.048   6.644
 7502TIP3    H222452   6.903   7.113   6.613
 7503TIP3   OH222453   2.386   6.127   2.223
 7503TIP3    H122454   2.430   6.042   2.219
 7503TIP3    H222455   2.452   6.187   2.257
 7504TIP3   OH222456   2.418   4.550   0.830
 7504TIP3    H122457   2.407   4.495   0.907
 7504TIP3    H222458   2.470   4.498   0.769
 7505TIP3   OH222459   6.796   0.375   1.226
 7505TIP3    H122460   6.807   0.467   1.199
 7505TIP3    H222461   6.722   0.377   1.287
 7506TIP3   OH222462   1.807   3.824   4.889
 7506TIP3    H122463   1.717   3.807   4.861
 7506TIP3    H222464   1.824   3.914   4.862
 7507TIP3   OH222465   7.721   7.194   5.746
 7507TIP3    H122466   7.690   7.136   5.816
 7507TIP3    H222467   7.676   7.277   5.762
 7508TIP3   OH222468   0.370   3.452   4.474
 7508TIP3    H122469   0.313   3.408   4.412
 7508TIP3    H222470   0.459   3.428   4.446
 7509TIP3   OH222471   5.651   2.091   0.747
 7509TIP3    H122472   5.602   2.171   0.729
 7509TIP3    H222473   5.692   2.069   0.663
 7510TIP3   OH222474   7.570   0.436   3.129
 7510TIP3    H122475   7.624   0.442   3.050
 7510TIP3    H222476   7.599   0.355   3.171
 7511TIP3   OH222477   1.144   6.542   4.121
 7511TIP3    H122478   1.224   6.491   4.102
 7511TIP3    H222479   1.077   6.475   4.135
 7512TIP3   OH222480   0.151   1.424   3.661
 7512TIP3    H122481   0.179   1.461   3.577
 7512TIP3    H222482   0.057   1.407   3.649
 7513TIP3   OH222483   2.459   4.961   5.735
 7513TIP3    H122484   2.540   4.934   5.693
 7513TIP3    H222485   2.484   5.032   5.794
 7514TIP3   OH222486   4.209   0.586   2.683
 7514TIP3    H122487   4.204   0.614   2.591
 7514TIP3    H222488   4.118   0.577   2.711
 7515TIP3   OH222489   6.098   6.996   5.779
 7515TIP3    H122490   6.193   6.987   5.772
 7515TIP3    H222491   6.065   6.906   5.781
 7516TIP3   OH222492   5.419   7.404   5.304
 7516TIP3    H122493   5.377   7.341   5.245
 7516TIP3    H222494   5.432   7.355   5.385
 7517TIP3   OH222495   4.663   4.232   5.057
 7517TIP3    H122496   4.682   4.208   5.148
 7517TIP3    H222497   4.722   4.178   5.005
 7518TIP3   OH222498   4.216   1.715   1.524
 7518TIP3    H122499   4.217   1.636   1.470
 7518TIP3    H222500   4.171   1.688   1.604
 7519TIP3   OH222501   3.818   3.845   4.105
 7519TIP3    H122502   3.869   3.779   4.150
 7519TIP3    H222503   3.879   3.886   4.044
 7520TIP3   OH222504   1.259   5.345   6.485
 7520TIP3    H122505   1.167   5.320   6.494
 7520TIP3    H222506   1.256   5.439   6.465
 7521TIP3   OH222507   8.176  -0.007   2.373
 7521TIP3    H122508   8.259  -0.003   2.421
 7521TIP3    H222509   8.180  -0.090   2.327
 7522TIP3   OH222510   3.995   3.754   2.129
 7522TIP3    H122511   4.078   3.762   2.081
 7522TIP3    H222512   3.940   3.823   2.092
 7523TIP3   OH222513   3.290   1.623   0.726
 7523TIP3    H122514   3.318   1.536   0.699
 7523TIP3    H222515   3.274   1.615   0.821
 7524TIP3   OH222516   0.285   4.312   3.070
 7524TIP3    H122517   0.353   4.316   3.137
 7524TIP3    H222518   0.334   4.310   2.987
 7525TIP3   OH222519   5.580   0.463   2.761
 7525TIP3    H122520   5.557   0.548   2.723
 7525TIP3    H222521   5.650   0.430   2.704
 7526TIP3   OH222522   7.630   6.883   3.669
 7526TIP3    H122523   7.642   6.924   3.584
 7526TIP3    H222524   7.571   6.809   3.652
 7527TIP3   OH222525   0.110   2.595   1.425
 7527TIP3    H122526   0.089   2.638   1.342
 7527TIP3    H222527   0.121   2.502   1.401
 7528TIP3   OH222528   5.126   4.568   0.166
 7528TIP3    H122529   5.063   4.526   0.225
 7528TIP3    H222530   5.211   4.529   0.190
 7529TIP3   OH222531   4.000   2.819   5.818
 7529TIP3    H122532   4.032   2.873   5.746
 7529TIP3    H222533   4.006   2.729   5.786
 7530TIP3   OH222534   0.845   4.595   1.365
 7530TIP3    H122535   0.854   4.678   1.413
 7530TIP3    H222536   0.882   4.529   1.424
 7531TIP3   OH222537   1.805   4.822   0.796
 7531TIP3    H122538   1.897   4.797   0.795
 7531TIP3    H222539   1.797   4.886   0.725
 7532TIP3   OH222540   4.324   2.846   4.980
 7532TIP3    H122541   4.371   2.930   4.981
 7532TIP3    H222542   4.336   2.814   4.891
 7533TIP3   OH222543   7.861   1.990   1.607
 7533TIP3    H122544   7.819   2.030   1.684
 7533TIP3    H222545   7.911   2.062   1.568
 7534TIP3   OH222546   2.409   2.690  -0.012
 7534TIP3    H122547   2.498   2.659  -0.033
 7534TIP3    H222548   2.411   2.705   0.082
 7535TIP3   OH222549   6.736   4.098   0.491
 7535TIP3    H122550   6.717   4.051   0.573
 7535TIP3    H222551   6.777   4.179   0.520
 7536TIP3   OH222552   0.756   3.223   6.771
 7536TIP3    H122553   0.800   3.264   6.696
 7536TIP3    H222554   0.663   3.244   6.759
 7537TIP3   OH222555   7.482   3.415   5.186
 7537TIP3    H122556   7.462   3.489   5.245
 7537TIP3    H222557   7.442   3.339   5.229
 7538TIP3   OH222558   8.101   7.471   0.504
 7538TIP3    H122559   8.144   7.387   0.521
 7538TIP3    H222560   8.045   7.485   0.580
 7539TIP3   OH222561   0.492   0.572   2.465
 7539TIP3    H122562   0.533   0.502   2.415
 7539TIP3    H222563   0.435   0.527   2.527
 7540TIP3   OH222564   0.280   1.860   1.862
 7540TIP3    H122565   0.250   1.916   1.934
 7540TIP3    H222566   0.289   1.773   1.902
 7541TIP3   OH222567   1.886   1.714   1.715
 7541TIP3    H122568   1.902   1.770   1.640
 7541TIP3    H222569   1.828   1.645   1.681
 7542TIP3   OH222570   6.635   1.419   1.283
 7542TIP3    H122571   6.702   1.388   1.221
 7542TIP3    H222572   6.581   1.479   1.232
 7543TIP3   OH222573   4.030   1.700   6.743
 7543TIP3    H122574   3.975   1.645   6.688
 7543TIP3    H222575   4.017   1.789   6.710
 7544TIP3   OH222576   2.508   2.162   3.581
 7544TIP3    H122577   2.449   2.130   3.513
 7544TIP3    H222578   2.517   2.088   3.642
 7545TIP3   OH222579   5.436   4.218   3.267
 7545TIP3    H122580   5.356   4.167   3.264
 7545TIP3    H222581   5.444   4.246   3.358
 7546TIP3   OH222582   5.021   3.063   4.359
 7546TIP3    H122583   4.963   3.098   4.291
 7546TIP3    H222584   5.048   3.139   4.411
 7547TIP3   OH222585   1.615   7.166   0.644
 7547TIP3    H122586   1.534   7.135   0.684
 7547TIP3    H222587   1.630   7.252   0.684
 7548TIP3   OH222588   2.944   2.956   3.722
 7548TIP3    H122589   2.967   2.872   3.681
 7548TIP3    H222590   2.926   2.933   3.814
 7549TIP3   OH222591   6.941   1.443   4.845
 7549TIP3    H122592   6.957   1.536   4.859
 7549TIP3    H222593   7.016   1.399   4.885
 7550TIP3   OH222594   1.201   1.012   6.606
 7550TIP3    H122595   1.265   0.943   6.586
 7550TIP3    H222596   1.223   1.083   6.545
 7551TIP3   OH222597   6.340   7.022   0.016
 7551TIP3    H122598   6.397   6.985  -0.051
 7551TIP3    H222599   6.336   6.955   0.084
 7552TIP3   OH222600   0.600   2.638   3.632
 7552TIP3    H122601   0.511   2.611   3.654
 7552TIP3    H222602   0.590   2.715   3.577
 7553TIP3   OH222603   3.046   6.453   1.801
 7553TIP3    H122604   3.049   6.357   1.806
 7553TIP3    H222605   2.976   6.477   1.862
 7554TIP3   OH222606   5.430   0.722   3.460
 7554TIP3    H122607   5.468   0.722   3.547
 7554TIP3    H222608   5.462   0.803   3.420
 7555TIP3   OH222609   1.671   7.470   3.407
 7555TIP3    H122610   1.663   7.530   3.481
 7555TIP3    H222611   1.603   7.498   3.346
 7556TIP3   OH222612   7.692   0.319   5.096
 7556TIP3    H122613   7.696   0.273   5.012
 7556TIP3    H222614   7.604   0.301   5.128
 7557TIP3   OH222615   7.626   5.478   2.748
 7557TIP3    H122616   7.697   5.533   2.714
 7557TIP3    H222617   7.669   5.422   2.814
 7558TIP3   OH222618   1.402   7.225   4.523
 7558TIP3    H122619   1.333   7.234   4.588
 7558TIP3    H222620   1.394   7.135   4.490
 7559TIP3   OH222621   0.145   1.863   0.703
 7559TIP3    H122622   0.125   1.898   0.790
 7559TIP3    H222623   0.151   1.941   0.647
 7560TIP3   OH222624   5.620   7.577   0.190
 7560TIP3    H122625   5.694   7.575   0.251
 7560TIP3    H222626   5.624   7.663   0.149
 7561TIP3   OH222627   5.371   3.766   2.022
 7561TIP3    H122628   5.459   3.789   2.055
 7561TIP3    H222629   5.313   3.783   2.096
 7562TIP3   OH222630   2.095   2.814   1.727
 7562TIP3    H122631   2.084   2.900   1.767
 7562TIP3    H222632   2.146   2.830   1.647
 7563TIP3   OH222633   7.395   5.806   0.491
 7563TIP3    H122634   7.464   5.861   0.454
 7563TIP3    H222635   7.347   5.774   0.415
 7564TIP3   OH222636   0.316   5.719   1.195
 7564TIP3    H122637   0.320   5.625   1.182
 7564TIP3    H222638   0.252   5.731   1.265
 7565TIP3   OH222639   4.366   7.077   5.715
 7565TIP3    H122640   4.328   6.989   5.724
 7565TIP3    H222641   4.290   7.136   5.716
 7566TIP3   OH222642   2.293   1.842   3.666
 7566TIP3    H122643   2.278   1.901   3.592
 7566TIP3    H222644   2.302   1.755   3.626
 7567TIP3   OH222645   7.528   5.589   4.320
 7567TIP3    H122646   7.546   5.560   4.231
 7567TIP3    H222647   7.574   5.672   4.328
 7568TIP3   OH222648   5.051   1.696   2.394
 7568TIP3    H122649   4.957   1.715   2.389
 7568TIP3    H222650   5.084   1.719   2.307
 7569TIP3   OH222651   4.363   1.632   3.854
 7569TIP3    H122652   4.297   1.564   3.845
 7569TIP3    H222653   4.445   1.585   3.868
 7570TIP3   OH222654   1.235   4.959   4.575
 7570TIP3    H122655   1.167   4.977   4.510
 7570TIP3    H222656   1.262   5.046   4.606
 7571TIP3   OH222657   8.050   4.527   3.957
 7571TIP3    H122658   8.141   4.550   3.938
 7571TIP3    H222659   8.021   4.593   4.019
 7572TIP3   OH222660   8.184   2.036   2.188
 7572TIP3    H122661   8.152   1.947   2.175
 7572TIP3    H222662   8.259   2.044   2.128
 7573TIP3   OH222663   1.074   5.205   0.288
 7573TIP3    H122664   1.007   5.180   0.352
 7573TIP3    H222665   1.051   5.156   0.209
 7574TIP3   OH222666   4.481   3.922   6.554
 7574TIP3    H122667   4.498   3.841   6.603
 7574TIP3    H222668   4.473   3.894   6.463
 7575TIP3   OH222669   3.560   7.244   4.508
 7575TIP3    H122670   3.602   7.289   4.434
 7575TIP3    H222671   3.618   7.171   4.527
 7576TIP3   OH222672   1.695   3.890   0.532
 7576TIP3    H122673   1.675   3.797   0.536
 7576TIP3    H222674   1.789   3.896   0.553
 7577TIP3   OH222675   8.170   1.063   1.589
 7577TIP3    H122676   8.221   1.059   1.508
 7577TIP3    H222677   8.205   0.992   1.643
 7578TIP3   OH222678   5.466   6.043   6.711
 7578TIP3    H122679   5.516   5.968   6.679
 7578TIP3    H222680   5.520   6.119   6.687
 7579TIP3   OH222681   3.123   5.794   1.622
 7579TIP3    H122682   3.111   5.826   1.712
 7579TIP3    H222683   3.035   5.767   1.594
 7580TIP3   OH222684   8.260   7.711   0.358
 7580TIP3    H122685   8.287   7.689   0.447
 7580TIP3    H222686   8.170   7.679   0.351
 7581TIP3   OH222687   6.838   1.793   1.049
 7581TIP3    H122688   6.814   1.702   1.063
 7581TIP3    H222689   6.793   1.840   1.120
 7582TIP3   OH222690   8.098   7.313   4.736
 7582TIP3    H122691   8.092   7.404   4.707
 7582TIP3    H222692   8.121   7.320   4.829
 7583TIP3   OH222693   2.501   7.513   4.053
 7583TIP3    H122694   2.529   7.426   4.024
 7583TIP3    H222695   2.563   7.538   4.121
 7584TIP3   OH222696   5.400   4.166   2.822
 7584TIP3    H122697   5.435   4.078   2.832
 7584TIP3    H222698   5.319   4.166   2.873
 7585TIP3   OH222699   3.851   2.873   3.704
 7585TIP3    H122700   3.938   2.890   3.669
 7585TIP3    H222701   3.792   2.889   3.630
 7586TIP3   OH222702   1.063   6.063   5.502
 7586TIP3    H122703   1.148   6.072   5.460
 7586TIP3    H222704   1.054   5.969   5.519
 7587TIP3   OH222705   1.095   1.566   5.754
 7587TIP3    H122706   1.110   1.608   5.670
 7587TIP3    H222707   1.000   1.554   5.759
 7588TIP3   OH222708   1.054   1.147   4.100
 7588TIP3    H122709   1.135   1.101   4.121
 7588TIP3    H222710   1.073   1.239   4.118
 7589TIP3   OH222711   7.240   4.413   0.527
 7589TIP3    H122712   7.168   4.456   0.479
 7589TIP3    H222713   7.280   4.484   0.577
 7590TIP3   OH222714   5.606   2.738   3.781
 7590TIP3    H122715   5.591   2.650   3.818
 7590TIP3    H222716   5.521   2.763   3.745
 7591TIP3   OH222717   0.080   5.677   1.329
 7591TIP3    H122718   0.049   5.723   1.407
 7591TIP3    H222719   0.033   5.594   1.331
 7592TIP3   OH222720   0.278   0.512   6.844
 7592TIP3    H122721   0.338   0.586   6.833
 7592TIP3    H222722   0.249   0.492   6.755
 7593TIP3   OH222723   2.500   7.428   2.163
 7593TIP3    H122724   2.501   7.389   2.250
 7593TIP3    H222725   2.592   7.431   2.137
 7594TIP3   OH222726   5.915   1.337   3.627
 7594TIP3    H122727   5.939   1.264   3.683
 7594TIP3    H222728   5.994   1.391   3.622
 7595TIP3   OH222729   5.041   0.645   4.744
 7595TIP3    H122730   5.082   0.693   4.817
 7595TIP3    H222731   5.046   0.553   4.770
 7596TIP3   OH222732   6.170   0.293   3.904
 7596TIP3    H122733   6.076   0.308   3.888
 7596TIP3    H222734   6.183   0.201   3.884
 7597TIP3   OH222735   7.666   0.615   3.317
 7597TIP3    H122736   7.659   0.555   3.242
 7597TIP3    H222737   7.687   0.558   3.391
 7598TIP3   OH222738   4.270   1.940   3.412
 7598TIP3    H122739   4.306   1.899   3.490
 7598TIP3    H222740   4.289   1.879   3.341
 7599TIP3   OH222741   6.109   6.055   4.641
 7599TIP3    H122742   6.069   6.142   4.629
 7599TIP3    H222743   6.137   6.055   4.733
 7600TIP3   OH222744   6.980   3.354   2.671
 7600TIP3    H122745   6.925   3.307   2.732
 7600TIP3    H222746   7.048   3.395   2.725
 7601TIP3   OH222747   3.497   3.003   2.676
 7601TIP3    H122748   3.544   2.924   2.703
 7601TIP3    H222749   3.562   3.054   2.628
 7602TIP3   OH222750   4.425   4.269   4.959
 7602TIP3    H122751   4.429   4.300   4.869
 7602TIP3    H222752   4.516   4.253   4.983
 7603TIP3   OH222753  -0.023   0.505   4.390
 7603TIP3    H122754   0.072   0.491   4.386
 7603TIP3    H222755  -0.047   0.484   4.480
 7604TIP3   OH222756   2.824   0.350   2.590
 7604TIP3    H122757   2.917   0.329   2.584
 7604TIP3    H222758   2.822   0.445   2.601
 7605TIP3   OH222759   4.754   5.111   4.122
 7605TIP3    H122760   4.683   5.174   4.127
 7605TIP3    H222761   4.806   5.126   4.201
 7606TIP3   OH222762   5.743   1.999   1.710
 7606TIP3    H122763   5.706   2.045   1.634
 7606TIP3    H222764   5.675   2.006   1.777
 7607TIP3   OH222765   6.290   0.577   0.234
 7607TIP3    H122766   6.232   0.580   0.158
 7607TIP3    H222767   6.255   0.643   0.293
 7608TIP3   OH222768   2.057   3.322   5.240
 7608TIP3    H122769   1.989   3.288   5.297
 7608TIP3    H222770   2.021   3.403   5.205
 7609TIP3   OH222771   0.743   5.293   5.398
 7609TIP3    H122772   0.796   5.361   5.357
 7609TIP3    H222773   0.737   5.224   5.333
 7610TIP3   OH222774   5.709   4.095   3.765
 7610TIP3    H122775   5.662   4.134   3.839
 7610TIP3    H222776   5.782   4.154   3.748
 7611TIP3   OH222777   4.035   3.533   4.491
 7611TIP3    H122778   4.054   3.441   4.473
 7611TIP3    H222779   4.120   3.575   4.498
 7612TIP3   OH222780   1.375   6.972   3.990
 7612TIP3    H122781   1.347   6.888   3.954
 7612TIP3    H222782   1.388   7.028   3.913
 7613TIP3   OH222783   0.500   0.397   3.496
 7613TIP3    H122784   0.497   0.465   3.564
 7613TIP3    H222785   0.410   0.392   3.464
 7614TIP3   OH222786   3.253   0.038   4.658
 7614TIP3    H122787   3.262  -0.054   4.632
 7614TIP3    H222788   3.323   0.052   4.721
 7615TIP3   OH222789   6.107   0.601   3.437
 7615TIP3    H122790   6.113   0.693   3.460
 7615TIP3    H222791   6.181   0.587   3.377
 7616TIP3   OH222792   1.332   6.473   1.274
 7616TIP3    H122793   1.388   6.509   1.343
 7616TIP3    H222794   1.307   6.549   1.221
 7617TIP3   OH222795   4.814   4.048   6.511
 7617TIP3    H122796   4.790   3.957   6.531
 7617TIP3    H222797   4.735   4.085   6.471
 7618TIP3   OH222798   2.218   3.145   2.628
 7618TIP3    H122799   2.154   3.197   2.677
 7618TIP3    H222800   2.188   3.150   2.537
 7619TIP3   OH222801   4.943   5.360   5.613
 7619TIP3    H122802   4.904   5.349   5.526
 7619TIP3    H222803   4.954   5.455   5.622
 7620TIP3   OH222804   3.114   1.870   1.502
 7620TIP3    H122805   3.202   1.831   1.506
 7620TIP3    H222806   3.071   1.839   1.581
 7621TIP3   OH222807   7.082   2.615   3.085
 7621TIP3    H122808   7.037   2.534   3.060
 7621TIP3    H222809   7.100   2.659   3.001
 7622TIP3   OH222810   0.709   5.284   2.392
 7622TIP3    H122811   0.753   5.218   2.338
 7622TIP3    H222812   0.674   5.234   2.466
 7623TIP3   OH222813   4.266   6.221   5.924
 7623TIP3    H122814   4.218   6.159   5.978
 7623TIP3    H222815   4.345   6.240   5.975
 7624TIP3   OH222816   6.573   3.427   5.666
 7624TIP3    H122817   6.517   3.458   5.737
 7624TIP3    H222818   6.662   3.451   5.693
 7625TIP3   OH222819   6.121   3.885   2.413
 7625TIP3    H122820   6.110   3.964   2.360
 7625TIP3    H222821   6.112   3.813   2.351
 7626TIP3   OH222822   0.245   1.865   4.482
 7626TIP3    H122823   0.181   1.930   4.453
 7626TIP3    H222824   0.318   1.873   4.421
 7627TIP3   OH222825   7.547   5.512   1.740
 7627TIP3    H122826   7.486   5.449   1.777
 7627TIP3    H222827   7.612   5.527   1.809
 7628TIP3   OH222828   2.629   1.926   0.564
 7628TIP3    H122829   2.621   1.865   0.491
 7628TIP3    H222830   2.653   2.009   0.523
 7629TIP3   OH222831   7.297   5.113   3.610
 7629TIP3    H122832   7.219   5.071   3.574
 7629TIP3    H222833   7.299   5.087   3.702
 7630TIP3   OH222834   4.816   7.346   5.163
 7630TIP3    H122835   4.725   7.347   5.131
 7630TIP3    H222836   4.818   7.276   5.228
 7631TIP3   OH222837   1.070   6.658   4.376
 7631TIP3    H122838   1.109   6.621   4.297
 7631TIP3    H222839   0.976   6.656   4.360
 7632TIP3   OH222840   0.062   0.567   2.030
 7632TIP3    H122841   0.033   0.567   1.939
 7632TIP3    H222842   0.095   0.478   2.045
 7633TIP3   OH222843   3.067   7.245   0.878
 7633TIP3    H122844   3.159   7.241   0.903
 7633TIP3    H222845   3.052   7.337   0.857
 7634TIP3   OH222846   6.438   1.264   2.222
 7634TIP3    H122847   6.450   1.342   2.275
 7634TIP3    H222848   6.493   1.277   2.146
 7635TIP3   OH222849   4.514   1.652   1.919
 7635TIP3    H122850   4.563   1.632   1.999
 7635TIP3    H222851   4.548   1.590   1.854
 7636TIP3   OH222852   4.782   1.749   1.706
 7636TIP3    H122853   4.765   1.754   1.800
 7636TIP3    H222854   4.695   1.753   1.665
 7637TIP3   OH222855   4.973   7.736   3.856
 7637TIP3    H122856   4.896   7.784   3.828
 7637TIP3    H222857   5.027   7.800   3.901
 7638TIP3   OH222858   4.503   7.127   4.791
 7638TIP3    H122859   4.582   7.135   4.738
 7638TIP3    H222860   4.510   7.041   4.832
 7639TIP3   OH222861   5.921   2.632   3.526
 7639TIP3    H122862   5.872   2.554   3.551
 7639TIP3    H222863   5.861   2.705   3.543
 7640TIP3   OH222864   5.274   2.245   5.988
 7640TIP3    H122865   5.211   2.313   5.965
 7640TIP3    H222866   5.221   2.165   5.996
 7641TIP3   OH222867   3.162   7.344   2.570
 7641TIP3    H122868   3.075   7.376   2.549
 7641TIP3    H222869   3.148   7.257   2.608
 7642TIP3   OH222870   7.658   3.954   1.569
 7642TIP3    H122871   7.740   3.925   1.529
 7642TIP3    H222872   7.667   3.930   1.661
 7643TIP3   OH222873   0.122   3.040   3.422
 7643TIP3    H122874   0.062   3.007   3.355
 7643TIP3    H222875   0.185   3.094   3.373
 7644TIP3   OH222876   6.631   3.019   6.205
 7644TIP3    H122877   6.559   3.082   6.193
 7644TIP3    H222878   6.710   3.072   6.198
 7645TIP3   OH222879   6.746   6.244   3.701
 7645TIP3    H122880   6.688   6.193   3.758
 7645TIP3    H222881   6.750   6.330   3.743
 7646TIP3   OH222882   2.216   1.189   3.139
 7646TIP3    H122883   2.310   1.207   3.133
 7646TIP3    H222884   2.208   1.095   3.127
 7647TIP3   OH222885  -0.027   6.789   1.779
 7647TIP3    H122886  -0.010   6.876   1.742
 7647TIP3    H222887  -0.075   6.807   1.860
 7648TIP3   OH222888   2.143   6.383   1.816
 7648TIP3    H122889   2.096   6.447   1.762
 7648TIP3    H222890   2.228   6.374   1.774
 7649TIP3   OH222891   2.494   5.450   3.396
 7649TIP3    H122892   2.497   5.439   3.491
 7649TIP3    H222893   2.475   5.543   3.383
 7650TIP3   OH222894   0.402   4.058   5.572
 7650TIP3    H122895   0.335   3.998   5.541
 7650TIP3    H222896   0.356   4.116   5.633
 7651TIP3   OH222897   6.932   0.995   3.341
 7651TIP3    H122898   6.939   1.061   3.272
 7651TIP3    H222899   6.856   1.023   3.392
 7652TIP3   OH222900   6.441   4.793   1.499
 7652TIP3    H122901   6.502   4.851   1.544
 7652TIP3    H222902   6.484   4.775   1.415
 7653TIP3   OH222903   7.105   5.908   3.301
 7653TIP3    H122904   7.157   5.973   3.254
 7653TIP3    H222905   7.088   5.840   3.236
 7654TIP3   OH222906   5.440   7.164   6.599
 7654TIP3    H122907   5.517   7.221   6.607
 7654TIP3    H222908   5.365   7.224   6.602
 7655TIP3   OH222909   0.407   6.585   4.311
 7655TIP3    H122910   0.419   6.556   4.221
 7655TIP3    H222911   0.429   6.509   4.364
 7656TIP3   OH222912   2.614   7.002   4.448
 7656TIP3    H122913   2.590   6.973   4.536
 7656TIP3    H222914   2.547   6.963   4.391
 7657TIP3   OH222915   0.721   2.384   0.334
 7657TIP3    H122916   0.733   2.476   0.355
 7657TIP3    H222917   0.681   2.385   0.247
 7658TIP3   OH222918   2.462   6.062   6.187
 7658TIP3    H122919   2.394   6.087   6.125
 7658TIP3    H222920   2.433   5.978   6.222
 7659TIP3   OH222921   4.446   2.412   3.582
 7659TIP3    H122922   4.524   2.416   3.527
 7659TIP3    H222923   4.391   2.345   3.542
 7660TIP3   OH222924   6.259   5.858   5.055
 7660TIP3    H122925   6.337   5.914   5.060
 7660TIP3    H222926   6.289   5.779   5.010
 7661TIP3   OH222927   5.906   1.543   6.039
 7661TIP3    H122928   5.858   1.564   6.119
 7661TIP3    H222929   5.998   1.550   6.064
 7662TIP3   OH222930   5.888   1.215   3.313
 7662TIP3    H122931   5.931   1.279   3.370
 7662TIP3    H222932   5.870   1.264   3.232
 7663TIP3   OH222933   7.508   7.234   3.348
 7663TIP3    H122934   7.542   7.148   3.325
 7663TIP3    H222935   7.448   7.256   3.277
 7664TIP3   OH222936   1.973   3.109   4.637
 7664TIP3    H122937   1.923   3.190   4.632
 7664TIP3    H222938   2.054   3.134   4.682
 7665TIP3   OH222939   6.758   2.615   2.068
 7665TIP3    H122940   6.829   2.572   2.114
 7665TIP3    H222941   6.706   2.544   2.030
 7666TIP3   OH222942   7.604   4.127   0.223
 7666TIP3    H122943   7.509   4.128   0.213
 7666TIP3    H222944   7.620   4.175   0.304
 7667TIP3   OH222945   7.352   2.339   3.966
 7667TIP3    H122946   7.411   2.406   4.001
 7667TIP3    H222947   7.410   2.275   3.924
 7668TIP3   OH222948   8.112   7.427   1.445
 7668TIP3    H122949   8.060   7.503   1.422
 7668TIP3    H222950   8.054   7.352   1.432
 7669TIP3   OH222951   0.704   6.124   5.394
 7669TIP3    H122952   0.778   6.090   5.445
 7669TIP3    H222953   0.645   6.161   5.460
 7670TIP3   OH222954   3.775   0.601   4.205
 7670TIP3    H122955   3.762   0.684   4.250
 7670TIP3    H222956   3.863   0.574   4.230
 7671TIP3   OH222957   1.415   5.319   6.148
 7671TIP3    H122958   1.329   5.340   6.110
 7671TIP3    H222959   1.471   5.393   6.123
 7672TIP3   OH222960   2.527   0.177   0.198
 7672TIP3    H122961   2.511   0.270   0.183
 7672TIP3    H222962   2.440   0.141   0.217
 7673TIP3   OH222963   7.355   5.843   4.948
 7673TIP3    H122964   7.426   5.785   4.920
 7673TIP3    H222965   7.310   5.867   4.867
 7674TIP3   OH222966   7.827   4.262   5.843
 7674TIP3    H122967   7.836   4.338   5.901
 7674TIP3    H222968   7.906   4.263   5.790
 7675TIP3   OH222969   4.175   5.329   1.229
 7675TIP3    H122970   4.235   5.368   1.292
 7675TIP3    H222971   4.094   5.314   1.278
 7676TIP3   OH222972   4.420   5.239   0.125
 7676TIP3    H122973   4.501   5.259   0.078
 7676TIP3    H222974   4.425   5.291   0.205
 7677TIP3   OH222975   8.074   5.363   6.387
 7677TIP3    H122976   8.053   5.349   6.295
 7677TIP3    H222977   8.074   5.275   6.425
 7678TIP3   OH222978   0.176   7.693   5.428
 7678TIP3    H122979   0.247   7.694   5.364
 7678TIP3    H222980   0.096   7.697   5.376
 7679TIP3   OH222981   3.431   5.051   0.068
 7679TIP3    H122982   3.475   5.136   0.077
 7679TIP3    H222983   3.483   5.004   0.003
 7680TIP3   OH222984   0.839   7.080   4.562
 7680TIP3    H122985   0.825   6.998   4.514
 7680TIP3    H222986   0.933   7.096   4.554
 7681TIP3   OH222987   0.608   2.222   4.855
 7681TIP3    H122988   0.557   2.144   4.830
 7681TIP3    H222989   0.569   2.251   4.937
 7682TIP3   OH222990   3.617   0.286   2.188
 7682TIP3    H122991   3.586   0.376   2.190
 7682TIP3    H222992   3.557   0.241   2.129
 7683TIP3   OH222993   2.003   6.522   1.596
 7683TIP3    H122994   2.007   6.608   1.554
 7683TIP3    H222995   1.910   6.505   1.608
 7684TIP3   OH222996   3.540   1.030   0.628
 7684TIP3    H122997   3.558   1.008   0.719
 7684TIP3    H222998   3.457   0.987   0.608
 7685TIP3   OH222999   3.570   7.056   0.958
 7685TIP3    H123000   3.524   6.980   0.924
 7685TIP3    H223001   3.661   7.029   0.964
 7686TIP3   OH223002   1.425   5.501   3.059
 7686TIP3    H123003   1.436   5.596   3.059
 7686TIP3    H223004   1.460   5.472   3.143
 7687TIP3   OH223005   4.512   5.970   5.264
 7687TIP3    H123006   4.420   5.942   5.265
 7687TIP3    H223007   4.524   6.014   5.348
 7688TIP3   OH223008   7.604   6.706   5.598
 7688TIP3    H123009   7.674   6.733   5.658
 7688TIP3    H223010   7.608   6.770   5.527
 7689TIP3   OH223011   8.066   6.244   4.092
 7689TIP3    H123012   8.012   6.172   4.059
 7689TIP3    H223013   8.015   6.282   4.163
 7690TIP3   OH223014   1.228   5.701   4.129
 7690TIP3    H123015   1.300   5.643   4.156
 7690TIP3    H223016   1.150   5.645   4.133
 7691TIP3   OH223017   0.056   4.599   0.727
 7691TIP3    H123018   0.134   4.550   0.702
 7691TIP3    H223019   0.054   4.673   0.666
 7692TIP3   OH223020   6.852   6.638   3.053
 7692TIP3    H123021   6.843   6.729   3.082
 7692TIP3    H223022   6.841   6.641   2.958
 7693TIP3   OH223023   0.827   3.408   0.128
 7693TIP3    H123024   0.734   3.398   0.147
 7693TIP3    H223025   0.871   3.368   0.203
 7694TIP3   OH223026   2.961   2.872   1.391
 7694TIP3    H123027   2.955   2.946   1.331
 7694TIP3    H223028   3.036   2.892   1.447
 7695TIP3   OH223029   0.396   2.796   0.661
 7695TIP3    H123030   0.304   2.776   0.675
 7695TIP3    H223031   0.411   2.778   0.568
 7696TIP3   OH223032   6.314   0.774   5.522
 7696TIP3    H123033   6.219   0.767   5.512
 7696TIP3    H223034   6.345   0.802   5.436
 7697TIP3   OH223035   1.617   0.559   6.430
 7697TIP3    H123036   1.534   0.516   6.453
 7697TIP3    H223037   1.684   0.500   6.464
 7698TIP3   OH223038   5.290   4.152   2.010
 7698TIP3    H123039   5.306   4.217   2.079
 7698TIP3    H223040   5.196   4.137   2.013
 7699TIP3   OH223041   0.051   3.230   2.297
 7699TIP3    H123042   0.053   3.315   2.340
 7699TIP3    H223043  -0.035   3.194   2.320
 7700TIP3   OH223044   0.779   6.538   6.353
 7700TIP3    H123045   0.849   6.592   6.314
 7700TIP3    H223046   0.824   6.479   6.413
 7701TIP3   OH223047   7.975   1.527   6.196
 7701TIP3    H123048   8.048   1.586   6.176
 7701TIP3    H223049   7.955   1.544   6.288
 7702TIP3   OH223050   7.615   0.813   0.622
 7702TIP3    H123051   7.526   0.781   0.605
 7702TIP3    H223052   7.670   0.767   0.558
 7703TIP3   OH223053   3.204   3.215   0.704
 7703TIP3    H123054   3.242   3.140   0.749
 7703TIP3    H223055   3.143   3.176   0.641
 7704TIP3   OH223056   6.880   2.358   5.926
 7704TIP3    H123057   6.860   2.451   5.916
 7704TIP3    H223058   6.917   2.332   5.842
 7705TIP3   OH223059   1.769   7.405   4.272
 7705TIP3    H123060   1.764   7.319   4.314
 7705TIP3    H223061   1.689   7.412   4.221
 7706TIP3   OH223062   4.452   4.148   6.703
 7706TIP3    H123063   4.380   4.122   6.761
 7706TIP3    H223064   4.460   4.075   6.641
 7707TIP3   OH223065   5.480   6.080   2.472
 7707TIP3    H123066   5.404   6.030   2.444
 7707TIP3    H223067   5.552   6.018   2.470
 7708TIP3   OH223068   2.380   0.664   3.333
 7708TIP3    H123069   2.454   0.666   3.272
 7708TIP3    H223070   2.305   0.693   3.281
 7709TIP3   OH223071   7.976   3.056   3.649
 7709TIP3    H123072   8.059   3.074   3.605
 7709TIP3    H223073   7.997   2.993   3.717
 7710TIP3   OH223074   0.014   3.967   3.415
 7710TIP3    H123075   0.081   3.988   3.480
 7710TIP3    H223076   0.062   3.926   3.343
 7711TIP3   OH223077   6.391   2.145   3.352
 7711TIP3    H123078   6.403   2.238   3.331
 7711TIP3    H223079   6.432   2.135   3.438
 7712TIP3   OH223080   0.533   1.622   4.848
 7712TIP3    H123081   0.564   1.642   4.936
 7712TIP3    H223082   0.611   1.591   4.802
 7713TIP3   OH223083   1.645   3.267   2.947
 7713TIP3    H123084   1.576   3.258   2.882
 7713TIP3    H223085   1.611   3.224   3.025
 7714TIP3   OH223086   2.270   3.435   3.525
 7714TIP3    H123087   2.189   3.387   3.510
 7714TIP3    H223088   2.252   3.491   3.601
 7715TIP3   OH223089   2.132   2.982   4.199
 7715TIP3    H123090   2.130   2.918   4.270
 7715TIP3    H223091   2.159   3.064   4.241
 7716TIP3   OH223092   2.953   4.918   3.308
 7716TIP3    H123093   2.999   4.879   3.235
 7716TIP3    H223094   3.022   4.949   3.367
 7717TIP3   OH223095   2.686   2.298   5.017
 7717TIP3    H123096   2.621   2.283   5.086
 7717TIP3    H223097   2.661   2.238   4.947
 7718TIP3   OH223098   2.987   4.949   6.217
 7718TIP3    H123099   2.903   4.917   6.185
 7718TIP3    H223100   3.037   4.968   6.138
 7719TIP3   OH223101   5.634   3.415   4.902
 7719TIP3    H123102   5.606   3.430   4.992
 7719TIP3    H223103   5.589   3.482   4.852
 7720TIP3   OH223104   7.969   2.405   2.968
 7720TIP3    H123105   7.886   2.435   2.931
 7720TIP3    H223106   8.010   2.484   3.004
 7721TIP3   OH223107   0.218   7.181   0.749
 7721TIP3    H123108   0.281   7.136   0.692
 7721TIP3    H223109   0.271   7.215   0.821
 7722TIP3   OH223110   0.194   6.774   1.460
 7722TIP3    H123111   0.216   6.820   1.542
 7722TIP3    H223112   0.118   6.720   1.483
 7723TIP3   OH223113   6.551   2.083   5.816
 7723TIP3    H123114   6.641   2.097   5.789
 7723TIP3    H223115   6.552   2.100   5.911
 7724TIP3   OH223116   1.267   3.773   2.264
 7724TIP3    H123117   1.193   3.718   2.292
 7724TIP3    H223118   1.313   3.795   2.345
 7725TIP3   OH223119   4.055   1.009   4.289
 7725TIP3    H123120   4.054   0.974   4.379
 7725TIP3    H223121   4.013   1.094   4.296
 7726TIP3   OH223122   1.628   3.167   0.709
 7726TIP3    H123123   1.543   3.124   0.713
 7726TIP3    H223124   1.688   3.100   0.676
 7727TIP3   OH223125   0.847   5.757   6.375
 7727TIP3    H123126   0.841   5.782   6.468
 7727TIP3    H223127   0.872   5.837   6.330
 7728TIP3   OH223128   1.943   2.921   1.447
 7728TIP3    H123129   1.901   2.952   1.366
 7728TIP3    H223130   1.918   2.985   1.513
 7729TIP3   OH223131   3.726   6.152   4.348
 7729TIP3    H123132   3.640   6.181   4.378
 7729TIP3    H223133   3.788   6.198   4.405
 7730TIP3   OH223134   2.633   0.325   6.153
 7730TIP3    H123135   2.637   0.380   6.231
 7730TIP3    H223136   2.722   0.291   6.143
 7731TIP3   OH223137   6.848   6.058   2.903
 7731TIP3    H123138   6.769   6.016   2.868
 7731TIP3    H223139   6.913   5.988   2.906
 7732TIP3   OH223140   3.806   1.460   3.221
 7732TIP3    H123141   3.828   1.394   3.287
 7732TIP3    H223142   3.747   1.415   3.161
 7733TIP3   OH223143   5.443   7.132   1.921
 7733TIP3    H123144   5.521   7.164   1.966
 7733TIP3    H223145   5.389   7.094   1.990
 7734TIP3   OH223146   7.357   4.699   2.112
 7734TIP3    H123147   7.304   4.657   2.179
 7734TIP3    H223148   7.294   4.744   2.056
 7735TIP3   OH223149   5.148   3.252  -0.042
 7735TIP3    H123150   5.141   3.287   0.047
 7735TIP3    H223151   5.240   3.225  -0.049
 7736TIP3   OH223152   4.580   6.681   5.268
 7736TIP3    H123153   4.575   6.592   5.232
 7736TIP3    H223154   4.545   6.737   5.199
 7737TIP3   OH223155   0.883  -0.012   5.783
 7737TIP3    H123156   0.804   0.000   5.835
 7737TIP3    H223157   0.861   0.020   5.696
 7738TIP3   OH223158   2.508   5.801   2.417
 7738TIP3    H123159   2.527   5.858   2.343
 7738TIP3    H223160   2.569   5.727   2.408
 7739TIP3   OH223161   4.517   4.622   1.289
 7739TIP3    H123162   4.441   4.638   1.345
 7739TIP3    H223163   4.506   4.682   1.215
 7740TIP3   OH223164   3.319   2.649   0.065
 7740TIP3    H123165   3.229   2.680   0.054
 7740TIP3    H223166   3.310   2.556   0.085
 7741TIP3   OH223167   5.816   2.685   3.197
 7741TIP3    H123168   5.842   2.673   3.105
 7741TIP3    H223169   5.866   2.761   3.226
 7742TIP3   OH223170   2.905   5.239   5.184
 7742TIP3    H123171   2.887   5.203   5.270
 7742TIP3    H223172   2.831   5.211   5.130
 7743TIP3   OH223173   6.164   5.350   5.128
 7743TIP3    H123174   6.089   5.389   5.172
 7743TIP3    H223175   6.188   5.275   5.183
 7744TIP3   OH223176   7.110   3.995   2.252
 7744TIP3    H123177   7.168   3.971   2.180
 7744TIP3    H223178   7.079   4.083   2.229
 7745TIP3   OH223179   4.028   3.314   5.332
 7745TIP3    H123180   4.106   3.269   5.366
 7745TIP3    H223181   3.997   3.258   5.262
 7746TIP3   OH223182   5.416   1.027   1.966
 7746TIP3    H123183   5.348   1.066   1.912
 7746TIP3    H223184   5.493   1.081   1.951
 7747TIP3   OH223185   0.396   1.283   5.406
 7747TIP3    H123186   0.411   1.266   5.313
 7747TIP3    H223187   0.308   1.320   5.409
 7748TIP3   OH223188   7.138   4.770   5.001
 7748TIP3    H123189   7.068   4.705   5.004
 7748TIP3    H223190   7.203   4.733   4.941
 7749TIP3   OH223191   3.862   2.195   0.956
 7749TIP3    H123192   3.804   2.135   0.910
 7749TIP3    H223193   3.948   2.153   0.951
 7750TIP3   OH223194   8.010   5.659   5.674
 7750TIP3    H123195   8.042   5.710   5.600
 7750TIP3    H223196   8.072   5.587   5.682
 7751TIP3   OH223197   8.134   4.456   2.899
 7751TIP3    H123198   8.222   4.451   2.937
 7751TIP3    H223199   8.105   4.365   2.893
 7752TIP3   OH223200   4.684   2.034   2.061
 7752TIP3    H123201   4.660   2.052   1.970
 7752TIP3    H223202   4.735   1.953   2.057
 7753TIP3   OH223203   7.118   1.278   1.388
 7753TIP3    H123204   7.134   1.357   1.336
 7753TIP3    H223205   7.194   1.271   1.445
 7754TIP3   OH223206   3.215   3.671   5.858
 7754TIP3    H123207   3.261   3.651   5.939
 7754TIP3    H223208   3.243   3.603   5.797
 7755TIP3   OH223209   2.204   1.885   0.599
 7755TIP3    H123210   2.111   1.864   0.591
 7755TIP3    H223211   2.243   1.805   0.633
 7756TIP3   OH223212   7.551   4.144   6.368
 7756TIP3    H123213   7.637   4.153   6.327
 7756TIP3    H223214   7.515   4.232   6.367
 7757TIP3   OH223215   7.593   1.553   5.863
 7757TIP3    H123216   7.681   1.534   5.895
 7757TIP3    H223217   7.607   1.622   5.798
 7758TIP3   OH223218   7.563   0.662   4.969
 7758TIP3    H123219   7.626   0.624   5.029
 7758TIP3    H223220   7.490   0.690   5.024
 7759TIP3   OH223221   3.657   6.655   1.077
 7759TIP3    H123222   3.648   6.737   1.125
 7759TIP3    H223223   3.750   6.631   1.088
 7760TIP3   OH223224   0.383   7.122   1.839
 7760TIP3    H123225   0.347   7.202   1.801
 7760TIP3    H223226   0.430   7.152   1.917
 7761TIP3   OH223227   0.945   4.511   4.298
 7761TIP3    H123228   0.919   4.426   4.332
 7761TIP3    H223229   0.868   4.544   4.252
 7762TIP3   OH223230   7.346   0.058   6.097
 7762TIP3    H123231   7.253   0.073   6.082
 7762TIP3    H223232   7.383   0.047   6.009
 7763TIP3   OH223233   5.678   1.836   2.431
 7763TIP3    H123234   5.642   1.898   2.368
 7763TIP3    H223235   5.725   1.772   2.378
 7764TIP3   OH223236   2.864   3.381   1.193
 7764TIP3    H123237   2.796   3.351   1.132
 7764TIP3    H223238   2.925   3.431   1.138
 7765TIP3   OH223239   3.600   1.261   1.275
 7765TIP3    H123240   3.546   1.184   1.290
 7765TIP3    H223241   3.548   1.316   1.216
 7766TIP3   OH223242   4.955   0.344   0.205
 7766TIP3    H123243   4.995   0.307   0.127
 7766TIP3    H223244   4.970   0.278   0.273
 7767TIP3   OH223245   7.479   7.623   6.494
 7767TIP3    H123246   7.538   7.576   6.435
 7767TIP3    H223247   7.412   7.660   6.436
 7768TIP3   OH223248   4.188   0.216   3.272
 7768TIP3    H123249   4.220   0.126   3.264
 7768TIP3    H223250   4.258   0.270   3.234
 7769TIP3   OH223251   4.865   6.460   2.941
 7769TIP3    H123252   4.936   6.402   2.968
 7769TIP3    H223253   4.789   6.402   2.931
 7770TIP3   OH223254   8.063   4.806   0.116
 7770TIP3    H123255   8.123   4.865   0.162
 7770TIP3    H223256   8.087   4.814   0.024
 7771TIP3   OH223257   5.096   5.000   3.882
 7771TIP3    H123258   5.167   4.938   3.897
 7771TIP3    H223259   5.138   5.086   3.888
 7772TIP3   OH223260   1.988   5.426   3.087
 7772TIP3    H123261   2.008   5.346   3.038
 7772TIP3    H223262   2.068   5.477   3.084
 7773TIP3   OH223263   3.273   4.718   5.281
 7773TIP3    H123264   3.329   4.778   5.331
 7773TIP3    H223265   3.286   4.633   5.322
 7774TIP3   OH223266   8.225   7.659   1.042
 7774TIP3    H123267   8.221   7.604   0.964
 7774TIP3    H223268   8.144   7.710   1.039
 7775TIP3   OH223269   3.881   3.229   1.411
 7775TIP3    H123270   3.867   3.218   1.317
 7775TIP3    H223271   3.916   3.318   1.420
 7776TIP3   OH223272   8.043   3.962   3.444
 7776TIP3    H123273   8.130   3.974   3.407
 7776TIP3    H223274   8.042   4.017   3.522
 7777TIP3   OH223275   1.395   6.754   5.278
 7777TIP3    H123276   1.463   6.720   5.336
 7777TIP3    H223277   1.440   6.776   5.197
 7778TIP3   OH223278   7.683   7.080   6.101
 7778TIP3    H123279   7.596   7.104   6.132
 7778TIP3    H223280   7.677   6.986   6.083
 7779TIP3   OH223281   4.859   4.510   2.105
 7779TIP3    H123282   4.807   4.429   2.103
 7779TIP3    H223283   4.888   4.518   2.196
 7780TIP3   OH223284   3.639   3.240   1.551
 7780TIP3    H123285   3.649   3.304   1.621
 7780TIP3    H223286   3.728   3.217   1.526
 7781TIP3   OH223287   6.449   0.250   3.501
 7781TIP3    H123288   6.412   0.338   3.504
 7781TIP3    H223289   6.372   0.192   3.507
 7782TIP3   OH223290   0.380   3.749   2.797
 7782TIP3    H123291   0.285   3.763   2.805
 7782TIP3    H223292   0.418   3.810   2.860
 7783TIP3   OH223293   5.411   2.586   4.716
 7783TIP3    H123294   5.378   2.545   4.636
 7783TIP3    H223295   5.413   2.516   4.780
 7784TIP3   OH223296   5.651   6.532   4.673
 7784TIP3    H123297   5.664   6.526   4.768
 7784TIP3    H223298   5.696   6.456   4.638
 7785TIP3   OH223299   7.835   2.030   0.953
 7785TIP3    H123300   7.794   1.997   0.874
 7785TIP3    H223301   7.795   2.116   0.967
 7786TIP3   OH223302   7.773   0.563   5.732
 7786TIP3    H123303   7.748   0.644   5.687
 7786TIP3    H223304   7.769   0.496   5.664
 7787TIP3   OH223305   3.100   5.860   6.310
 7787TIP3    H123306   3.167   5.928   6.309
 7787TIP3    H223307   3.069   5.858   6.401
 7788TIP3   OH223308   7.072   1.868   2.055
 7788TIP3    H123309   6.988   1.852   2.013
 7788TIP3    H223310   7.066   1.826   2.140
 7789TIP3   OH223311   4.144   0.178   0.697
 7789TIP3    H123312   4.117   0.232   0.770
 7789TIP3    H223313   4.116   0.227   0.619
 7790TIP3   OH223314   1.521   2.370   0.490
 7790TIP3    H123315   1.613   2.371   0.516
 7790TIP3    H223316   1.498   2.277   0.487
 7791TIP3   OH223317   3.579   5.429   3.295
 7791TIP3    H123318   3.600   5.521   3.276
 7791TIP3    H223319   3.594   5.421   3.390
 7792TIP3   OH223320   1.982   1.725   5.693
 7792TIP3    H123321   2.007   1.745   5.603
 7792TIP3    H223322   2.064   1.708   5.738
 7793TIP3   OH223323   3.097   5.366   0.703
 7793TIP3    H123324   3.069   5.312   0.629
 7793TIP3    H223325   3.101   5.305   0.777
 7794TIP3   OH223326   3.160   6.613   2.709
 7794TIP3    H123327   3.249   6.605   2.743
 7794TIP3    H223328   3.104   6.616   2.786
 7795TIP3   OH223329   2.982   6.549   2.153
 7795TIP3    H123330   3.043   6.487   2.112
 7795TIP3    H223331   3.003   6.545   2.246
 7796TIP3   OH223332   5.437   2.634   1.041
 7796TIP3    H123333   5.425   2.571   1.113
 7796TIP3    H223334   5.360   2.622   0.986
 7797TIP3   OH223335   7.307   6.200   4.289
 7797TIP3    H123336   7.373   6.255   4.331
 7797TIP3    H223337   7.357   6.140   4.234
 7798TIP3   OH223338   3.977   5.485   0.723
 7798TIP3    H123339   3.890   5.449   0.707
 7798TIP3    H223340   3.984   5.558   0.661
 7799TIP3   OH223341   8.084   2.319   2.732
 7799TIP3    H123342   8.040   2.320   2.817
 7799TIP3    H223343   8.169   2.279   2.749
 7800TIP3   OH223344   7.067   2.706   6.146
 7800TIP3    H123345   7.110   2.622   6.127
 7800TIP3    H223346   7.138   2.762   6.178
 7801TIP3   OH223347   8.098   0.225   3.334
 7801TIP3    H123348   8.184   0.249   3.300
 7801TIP3    H223349   8.090   0.273   3.416
 7802TIP3   OH223350   5.164   2.236   0.973
 7802TIP3    H123351   5.139   2.265   0.886
 7802TIP3    H223352   5.081   2.225   1.019
 7803TIP3   OH223353   3.585   5.301   1.840
 7803TIP3    H123354   3.586   5.393   1.814
 7803TIP3    H223355   3.495   5.272   1.826
 7804TIP3   OH223356   3.417   0.778   3.118
 7804TIP3    H123357   3.494   0.817   3.078
 7804TIP3    H223358   3.404   0.828   3.199
 7805TIP3   OH223359   6.149   0.149   4.499
 7805TIP3    H123360   6.171   0.194   4.418
 7805TIP3    H223361   6.089   0.080   4.473
 7806TIP3   OH223362   6.688   6.935   4.728
 7806TIP3    H123363   6.620   6.909   4.790
 7806TIP3    H223364   6.757   6.973   4.783
 7807TIP3   OH223365   4.631   7.234   1.532
 7807TIP3    H123366   4.567   7.163   1.524
 7807TIP3    H223367   4.715   7.190   1.539
 7808TIP3   OH223368   6.256   1.269   3.214
 7808TIP3    H123369   6.192   1.268   3.144
 7808TIP3    H223370   6.236   1.348   3.264
 7809TIP3   OH223371   8.183   6.176   1.157
 7809TIP3    H123372   8.115   6.216   1.212
 7809TIP3    H223373   8.262   6.227   1.176
 7810TIP3   OH223374   2.037   3.741   6.365
 7810TIP3    H123375   2.006   3.672   6.423
 7810TIP3    H223376   2.045   3.818   6.422
 7811TIP3   OH223377   2.987   7.223   0.063
 7811TIP3    H123378   2.976   7.270  -0.020
 7811TIP3    H223379   2.971   7.289   0.130
 7812TIP3   OH223380   5.873   2.109   4.275
 7812TIP3    H123381   5.812   2.166   4.230
 7812TIP3    H223382   5.836   2.098   4.363
 7813TIP3   OH223383   5.038   4.110   1.402
 7813TIP3    H123384   4.986   4.191   1.399
 7813TIP3    H223385   4.986   4.051   1.458
 7814TIP3   OH223386   4.531   4.032   2.200
 7814TIP3    H123387   4.451   4.086   2.194
 7814TIP3    H223388   4.523   3.987   2.283
 7815TIP3   OH223389   7.432   7.480   1.304
 7815TIP3    H123390   7.513   7.459   1.258
 7815TIP3    H223391   7.375   7.519   1.238
 7816TIP3   OH223392   4.260   2.569   3.138
 7816TIP3    H123393   4.178   2.615   3.121
 7816TIP3    H223394   4.285   2.532   3.053
 7817TIP3   OH223395   6.535   0.620   1.508
 7817TIP3    H123396   6.463   0.667   1.549
 7817TIP3    H223397   6.601   0.687   1.490
 7818TIP3   OH223398   0.673   0.385   1.224
 7818TIP3    H123399   0.749   0.440   1.203
 7818TIP3    H223400   0.631   0.430   1.297
 7819TIP3   OH223401   4.608   7.063   5.474
 7819TIP3    H123402   4.516   7.084   5.492
 7819TIP3    H223403   4.619   6.974   5.507
 7820TIP3   OH223404   1.555   5.576   6.091
 7820TIP3    H123405   1.642   5.558   6.055
 7820TIP3    H223406   1.497   5.575   6.015
 7821TIP3   OH223407   0.814   1.834   4.785
 7821TIP3    H123408   0.799   1.743   4.811
 7821TIP3    H223409   0.908   1.846   4.792
 7822TIP3   OH223410   5.159   2.653   0.257
 7822TIP3    H123411   5.206   2.646   0.173
 7822TIP3    H223412   5.223   2.691   0.317
 7823TIP3   OH223413   1.262   2.943   2.361
 7823TIP3    H123414   1.264   2.859   2.314
 7823TIP3    H223415   1.173   2.949   2.394
 7824TIP3   OH223416   3.438   6.925   2.391
 7824TIP3    H123417   3.408   6.853   2.335
 7824TIP3    H223418   3.531   6.932   2.372
 7825TIP3   OH223419   5.994   7.179   5.956
 7825TIP3    H123420   6.014   7.101   5.905
 7825TIP3    H223421   6.074   7.195   6.007
 7826TIP3   OH223422   2.461   2.293   1.769
 7826TIP3    H123423   2.521   2.237   1.819
 7826TIP3    H223424   2.485   2.278   1.678
 7827TIP3   OH223425   7.550   4.911   3.215
 7827TIP3    H123426   7.623   4.938   3.271
 7827TIP3    H223427   7.486   4.981   3.225
 7828TIP3   OH223428   4.924   3.492   6.605
 7828TIP3    H123429   4.914   3.399   6.626
 7828TIP3    H223430   4.894   3.500   6.515
 7829TIP3   OH223431   6.631   3.467   3.734
 7829TIP3    H123432   6.597   3.530   3.797
 7829TIP3    H223433   6.723   3.491   3.724
 7830TIP3   OH223434   0.850   7.239   0.536
 7830TIP3    H123435   0.870   7.234   0.442
 7830TIP3    H223436   0.901   7.167   0.574
 7831TIP3   OH223437   2.645   1.636   5.946
 7831TIP3    H123438   2.722   1.640   6.003
 7831TIP3    H223439   2.679   1.649   5.857
 7832TIP3   OH223440   2.500   4.575   4.679
 7832TIP3    H123441   2.483   4.597   4.587
 7832TIP3    H223442   2.448   4.496   4.695
 7833TIP3   OH223443   6.342   3.552   6.160
 7833TIP3    H123444   6.262   3.527   6.206
 7833TIP3    H223445   6.337   3.506   6.076
 7834TIP3   OH223446   5.524   7.432   6.375
 7834TIP3    H123447   5.532   7.520   6.339
 7834TIP3    H223448   5.579   7.433   6.454
 7835TIP3   OH223449   4.998   2.517   2.863
 7835TIP3    H123450   5.027   2.446   2.805
 7835TIP3    H223451   5.074   2.575   2.869
 7836TIP3   OH223452   3.990   4.918   5.841
 7836TIP3    H123453   3.960   4.848   5.899
 7836TIP3    H223454   3.978   4.998   5.891
 7837TIP3   OH223455   3.812   4.296   3.630
 7837TIP3    H123456   3.822   4.391   3.617
 7837TIP3    H223457   3.730   4.287   3.678
 7838TIP3   OH223458   5.083   7.409   6.018
 7838TIP3    H123459   5.127   7.474   6.073
 7838TIP3    H223460   4.992   7.438   6.014
 7839TIP3   OH223461   7.026   6.527   4.861
 7839TIP3    H123462   7.029   6.578   4.781
 7839TIP3    H223463   6.987   6.443   4.835
 7840TIP3   OH223464   1.567   5.971   5.490
 7840TIP3    H123465   1.499   6.021   5.444
 7840TIP3    H223466   1.641   6.032   5.497
 7841TIP3   OH223467   6.449   7.438   3.931
 7841TIP3    H123468   6.429   7.486   4.011
 7841TIP3    H223469   6.463   7.506   3.865
 7842TIP3   OH223470   6.583   0.011   5.547
 7842TIP3    H123471   6.515  -0.015   5.609
 7842TIP3    H223472   6.548   0.089   5.504
 7843TIP3   OH223473   6.987   4.333   1.708
 7843TIP3    H123474   6.952   4.269   1.645
 7843TIP3    H223475   7.079   4.309   1.717
 7844TIP3   OH223476   5.777   5.951   4.754
 7844TIP3    H123477   5.738   6.015   4.814
 7844TIP3    H223478   5.705   5.924   4.697
 7845TIP3   OH223479   6.493   1.526   1.929
 7845TIP3    H123480   6.421   1.577   1.891
 7845TIP3    H223481   6.521   1.578   2.004
 7846TIP3   OH223482   2.407   6.436   3.588
 7846TIP3    H123483   2.374   6.518   3.626
 7846TIP3    H223484   2.499   6.433   3.612
 7847TIP3   OH223485   2.380   3.765   5.409
 7847TIP3    H123486   2.289   3.748   5.385
 7847TIP3    H223487   2.414   3.821   5.339
 7848TIP3   OH223488   0.616   7.195   1.543
 7848TIP3    H123489   0.572   7.119   1.504
 7848TIP3    H223490   0.545   7.245   1.584
 7849TIP3   OH223491   1.668   2.672   3.426
 7849TIP3    H123492   1.718   2.697   3.503
 7849TIP3    H223493   1.695   2.733   3.358
 7850TIP3   OH223494   5.908   5.410   2.654
 7850TIP3    H123495   5.987   5.462   2.638
 7850TIP3    H223496   5.879   5.436   2.741
 7851TIP3   OH223497   2.928   2.471   0.544
 7851TIP3    H123498   2.882   2.554   0.536
 7851TIP3    H223499   2.987   2.468   0.469
 7852TIP3   OH223500   2.370   6.868   5.379
 7852TIP3    H123501   2.386   6.775   5.362
 7852TIP3    H223502   2.384   6.878   5.473
 7853TIP3   OH223503   0.336   1.129   2.038
 7853TIP3    H123504   0.395   1.162   1.971
 7853TIP3    H223505   0.373   1.044   2.064
 7854TIP3   OH223506   0.421   1.849   1.334
 7854TIP3    H123507   0.453   1.828   1.422
 7854TIP3    H223508   0.334   1.810   1.330
 7855TIP3   OH223509   0.231   1.145   5.155
 7855TIP3    H123510   0.192   1.144   5.067
 7855TIP3    H223511   0.278   1.062   5.160
 7856TIP3   OH223512   2.098   3.853   4.632
 7856TIP3    H123513   2.139   3.925   4.584
 7856TIP3    H223514   2.009   3.848   4.597
 7857TIP3   OH223515   3.424   1.946   2.905
 7857TIP3    H123516   3.431   1.961   2.999
 7857TIP3    H223517   3.454   1.856   2.893
 7858TIP3   OH223518   2.682   6.002   4.447
 7858TIP3    H123519   2.624   6.052   4.506
 7858TIP3    H223520   2.622   5.957   4.387
 7859TIP3   OH223521   3.177   5.888   6.643
 7859TIP3    H123522   3.242   5.946   6.682
 7859TIP3    H223523   3.093   5.928   6.664
 7860TIP3   OH223524   1.452   0.724   6.206
 7860TIP3    H123525   1.422   0.685   6.124
 7860TIP3    H223526   1.381   0.708   6.269
 7861TIP3   OH223527   3.579   6.045   5.044
 7861TIP3    H123528   3.588   5.949   5.045
 7861TIP3    H223529   3.668   6.078   5.050
 7862TIP3   OH223530   6.232   2.334   0.881
 7862TIP3    H123531   6.204   2.415   0.923
 7862TIP3    H223532   6.253   2.358   0.791
 7863TIP3   OH223533   3.342   5.815   0.147
 7863TIP3    H123534   3.294   5.759   0.208
 7863TIP3    H223535   3.431   5.815   0.180
 7864TIP3   OH223536   2.562   2.225   2.869
 7864TIP3    H123537   2.552   2.317   2.895
 7864TIP3    H223538   2.479   2.185   2.893
 7865TIP3   OH223539   8.116   2.152   1.594
 7865TIP3    H123540   8.127   2.104   1.512
 7865TIP3    H223541   8.183   2.115   1.652
 7866TIP3   OH223542   0.005   2.456   2.890
 7866TIP3    H123543  -0.010   2.378   2.944
 7866TIP3    H223544   0.042   2.421   2.808
 7867TIP3   OH223545   6.224   1.194   5.106
 7867TIP3    H123546   6.185   1.109   5.125
 7867TIP3    H223547   6.216   1.244   5.187
 7868TIP3   OH223548   4.898   4.556   5.628
 7868TIP3    H123549   4.986   4.593   5.632
 7868TIP3    H223550   4.896   4.507   5.546
 7869TIP3   OH223551   7.985   5.116   5.458
 7869TIP3    H123552   8.030   5.187   5.505
 7869TIP3    H223553   7.893   5.124   5.485
 7870TIP3   OH223554   4.107   3.415   0.834
 7870TIP3    H123555   4.055   3.487   0.870
 7870TIP3    H223556   4.190   3.456   0.808
 7871TIP3   OH223557   7.822   4.635   5.079
 7871TIP3    H123558   7.840   4.661   4.989
 7871TIP3    H223559   7.766   4.558   5.071
 7872TIP3   OH223560   2.842   1.435   1.020
 7872TIP3    H123561   2.817   1.456   1.110
 7872TIP3    H223562   2.886   1.514   0.988
 7873TIP3   OH223563   4.951   6.321   5.036
 7873TIP3    H123564   4.991   6.316   4.950
 7873TIP3    H223565   4.879   6.257   5.033
 7874TIP3   OH223566   2.636   1.162   1.941
 7874TIP3    H123567   2.706   1.134   1.881
 7874TIP3    H223568   2.678   1.162   2.027
 7875TIP3   OH223569   2.623   3.945   1.071
 7875TIP3    H123570   2.713   3.952   1.040
 7875TIP3    H223571   2.584   4.029   1.047
 7876TIP3   OH223572   2.045   0.250   5.188
 7876TIP3    H123573   1.974   0.187   5.196
 7876TIP3    H223574   2.056   0.262   5.094
 7877TIP3   OH223575   1.650   1.033   3.747
 7877TIP3    H123576   1.647   0.972   3.673
 7877TIP3    H223577   1.739   1.024   3.781
 7878TIP3   OH223578   7.251   2.368   1.086
 7878TIP3    H123579   7.278   2.443   1.034
 7878TIP3    H223580   7.271   2.391   1.176
 7879TIP3   OH223581   5.902   0.935   1.714
 7879TIP3    H123582   5.953   0.952   1.635
 7879TIP3    H223583   5.967   0.917   1.782
 7880TIP3   OH223584   5.356   5.126   4.977
 7880TIP3    H123585   5.407   5.183   5.034
 7880TIP3    H223586   5.393   5.039   4.991
 7881TIP3   OH223587   4.793   5.979   3.881
 7881TIP3    H123588   4.712   6.003   3.835
 7881TIP3    H223589   4.858   6.041   3.849
 7882TIP3   OH223590   2.573   0.027   6.313
 7882TIP3    H123591   2.645  -0.028   6.343
 7882TIP3    H223592   2.543  -0.015   6.232
 7883TIP3   OH223593   1.736   2.847   6.054
 7883TIP3    H123594   1.674   2.777   6.031
 7883TIP3    H223595   1.745   2.841   6.149
 7884TIP3   OH223596   1.634   4.217   4.381
 7884TIP3    H123597   1.653   4.125   4.364
 7884TIP3    H223598   1.557   4.236   4.327
 7885TIP3   OH223599   8.115   3.707   2.509
 7885TIP3    H123600   8.132   3.751   2.592
 7885TIP3    H223601   8.122   3.776   2.443
 7886TIP3   OH223602   7.796   1.254   5.195
 7886TIP3    H123603   7.769   1.201   5.270
 7886TIP3    H223604   7.882   1.287   5.219
 7887TIP3   OH223605   5.606   7.557   5.537
 7887TIP3    H123606   5.556   7.556   5.619
 7887TIP3    H223607   5.548   7.600   5.475
 7888TIP3   OH223608   5.582   6.726   6.110
 7888TIP3    H123609   5.579   6.776   6.029
 7888TIP3    H223610   5.499   6.679   6.113
 7889TIP3   OH223611   5.708   5.259   2.446
 7889TIP3    H123612   5.643   5.191   2.466
 7889TIP3    H223613   5.655   5.336   2.424
 7890TIP3   OH223614   0.260   3.920   0.340
 7890TIP3    H123615   0.298   3.833   0.328
 7890TIP3    H223616   0.325   3.968   0.391
 7891TIP3   OH223617   1.666   5.020   0.442
 7891TIP3    H123618   1.643   5.107   0.473
 7891TIP3    H223619   1.749   5.000   0.486
 7892TIP3   OH223620   5.200   0.062   2.536
 7892TIP3    H123621   5.173  -0.011   2.481
 7892TIP3    H223622   5.117   0.100   2.566
 7893TIP3   OH223623   6.306   3.460   6.508
 7893TIP3    H123624   6.212   3.445   6.515
 7893TIP3    H223625   6.338   3.460   6.598
 7894TIP3   OH223626   5.693   7.605   5.835
 7894TIP3    H123627   5.743   7.531   5.800
 7894TIP3    H223628   5.602   7.577   5.830
 7895TIP3   OH223629   3.255   1.338   6.044
 7895TIP3    H123630   3.240   1.245   6.029
 7895TIP3    H223631   3.183   1.365   6.100
 7896TIP3   OH223632   7.206   3.027   4.326
 7896TIP3    H123633   7.231   3.031   4.234
 7896TIP3    H223634   7.256   3.096   4.368
 7897TIP3   OH223635   2.070   7.828   0.242
 7897TIP3    H123636   2.067   7.835   0.338
 7897TIP3    H223637   2.055   7.735   0.225
 7898TIP3   OH223638   4.819   2.849   4.973
 7898TIP3    H123639   4.829   2.938   4.938
 7898TIP3    H223640   4.791   2.861   5.063
 7899TIP3   OH223641   2.408   1.702   5.108
 7899TIP3    H123642   2.399   1.731   5.017
 7899TIP3    H223643   2.318   1.691   5.139
 7900TIP3   OH223644   8.306   6.415   1.255
 7900TIP3    H123645   8.249   6.467   1.198
 7900TIP3    H223646   8.266   6.424   1.342
 7901TIP3   OH223647   6.851   7.740   2.486
 7901TIP3    H123648   6.850   7.803   2.413
 7901TIP3    H223649   6.766   7.751   2.528
 7902TIP3   OH223650   3.037   1.791   2.526
 7902TIP3    H123651   3.026   1.760   2.616
 7902TIP3    H223652   3.104   1.735   2.489
 7903TIP3   OH223653   3.700   2.184   4.091
 7903TIP3    H123654   3.675   2.270   4.057
 7903TIP3    H223655   3.720   2.200   4.183
 7904TIP3   OH223656   6.446   7.382   2.799
 7904TIP3    H123657   6.504   7.362   2.872
 7904TIP3    H223658   6.363   7.407   2.840
 7905TIP3   OH223659   6.092   2.189   0.181
 7905TIP3    H123660   6.065   2.281   0.183
 7905TIP3    H223661   6.019   2.142   0.221
 7906TIP3   OH223662   8.242   6.039   6.215
 7906TIP3    H123663   8.206   5.957   6.248
 7906TIP3    H223664   8.253   6.025   6.121
 7907TIP3   OH223665   6.074   6.237   2.005
 7907TIP3    H123666   6.085   6.215   2.097
 7907TIP3    H223667   5.983   6.218   1.986
 7908TIP3   OH223668   2.227   7.568   3.191
 7908TIP3    H123669   2.298   7.558   3.127
 7908TIP3    H223670   2.199   7.659   3.182
 7909TIP3   OH223671   4.144   5.907   3.772
 7909TIP3    H123672   4.189   5.839   3.823
 7909TIP3    H223673   4.169   5.890   3.681
 7910TIP3   OH223674   0.346   1.679   0.939
 7910TIP3    H123675   0.343   1.598   0.887
 7910TIP3    H223676   0.269   1.673   0.996
 7911TIP3   OH223677   5.150   7.764   6.717
 7911TIP3    H123678   5.143   7.693   6.653
 7911TIP3    H223679   5.059   7.784   6.740
 7912TIP3   OH223680   2.401   7.208   4.672
 7912TIP3    H123681   2.383   7.206   4.578
 7912TIP3    H223682   2.474   7.148   4.684
 7913TIP3   OH223683   5.321   4.675   3.112
 7913TIP3    H123684   5.300   4.584   3.135
 7913TIP3    H223685   5.384   4.703   3.179
 7914TIP3   OH223686   6.990   0.753   2.551
 7914TIP3    H123687   7.044   0.730   2.626
 7914TIP3    H223688   7.011   0.687   2.485
 7915TIP3   OH223689   7.809   3.931   6.538
 7915TIP3    H123690   7.877   3.996   6.554
 7915TIP3    H223691   7.733   3.961   6.587
 7916TIP3   OH223692   5.326   3.521   2.864
 7916TIP3    H123693   5.416   3.501   2.886
 7916TIP3    H223694   5.280   3.522   2.949
 7917TIP3   OH223695   4.040   5.084   1.609
 7917TIP3    H123696   3.954   5.048   1.631
 7917TIP3    H223697   4.026   5.178   1.600
 7918TIP3   OH223698   3.010   2.588   1.658
 7918TIP3    H123699   3.044   2.660   1.711
 7918TIP3    H223700   3.068   2.584   1.582
 7919TIP3   OH223701   2.196   3.933   4.881
 7919TIP3    H123702   2.191   4.027   4.895
 7919TIP3    H223703   2.162   3.920   4.793
 7920TIP3   OH223704   6.625   7.519   1.672
 7920TIP3    H123705   6.703   7.502   1.620
 7920TIP3    H223706   6.653   7.583   1.737
 7921TIP3   OH223707   1.399   4.533   0.398
 7921TIP3    H123708   1.336   4.525   0.470
 7921TIP3    H223709   1.483   4.549   0.441
 7922TIP3   OH223710   6.422   1.228   2.844
 7922TIP3    H123711   6.347   1.285   2.826
 7922TIP3    H223712   6.433   1.176   2.765
 7923TIP3   OH223713   7.067   0.117   2.709
 7923TIP3    H123714   6.974   0.134   2.692
 7923TIP3    H223715   7.067   0.056   2.782
 7924TIP3   OH223716   7.358   3.396   0.497
 7924TIP3    H123717   7.418   3.434   0.433
 7924TIP3    H223718   7.360   3.456   0.571
 7925TIP3   OH223719   4.630   7.520   2.533
 7925TIP3    H123720   4.698   7.457   2.509
 7925TIP3    H223721   4.677   7.601   2.550
 7926TIP3   OH223722   7.697   3.520   5.025
 7926TIP3    H123723   7.669   3.539   4.936
 7926TIP3    H223724   7.623   3.474   5.065
 7927TIP3   OH223725   3.251   4.501   3.293
 7927TIP3    H123726   3.207   4.493   3.208
 7927TIP3    H223727   3.343   4.514   3.270
 7928TIP3   OH223728   7.977   7.134   0.229
 7928TIP3    H123729   7.941   7.154   0.315
 7928TIP3    H223730   7.900   7.125   0.172
 7929TIP3   OH223731   1.677   7.204   3.541
 7929TIP3    H123732   1.726   7.280   3.509
 7929TIP3    H223733   1.713   7.130   3.492
 7930TIP3   OH223734   3.746   4.089   1.217
 7930TIP3    H123735   3.719   4.012   1.167
 7930TIP3    H223736   3.785   4.054   1.296
 7931TIP3   OH223737   0.047   6.982   6.363
 7931TIP3    H123738   0.033   7.010   6.453
 7931TIP3    H223739  -0.032   6.931   6.342
 7932TIP3   OH223740   2.876   2.723   0.468
 7932TIP3    H123741   2.960   2.710   0.424
 7932TIP3    H223742   2.878   2.813   0.500
 7933TIP3   OH223743   6.020   7.319   3.871
 7933TIP3    H123744   6.015   7.395   3.814
 7933TIP3    H223745   5.947   7.329   3.932
 7934TIP3   OH223746   1.546   7.093   1.741
 7934TIP3    H123747   1.503   7.016   1.777
 7934TIP3    H223748   1.616   7.113   1.803
 7935TIP3   OH223749   1.905   4.274   5.897
 7935TIP3    H123750   1.862   4.277   5.982
 7935TIP3    H223751   1.995   4.299   5.915
 7936TIP3   OH223752   3.402   1.457   0.084
 7936TIP3    H123753   3.337   1.469   0.153
 7936TIP3    H223754   3.439   1.370   0.101
 7937TIP3   OH223755   7.050   5.300   4.793
 7937TIP3    H123756   7.027   5.393   4.783
 7937TIP3    H223757   6.987   5.267   4.857
 7938TIP3   OH223758   4.674   3.949   0.303
 7938TIP3    H123759   4.711   3.940   0.215
 7938TIP3    H223760   4.698   3.867   0.347
 7939TIP3   OH223761   4.376   6.953   3.018
 7939TIP3    H123762   4.345   6.896   2.947
 7939TIP3    H223763   4.411   6.893   3.083
 7940TIP3   OH223764   6.921   6.084   0.819
 7940TIP3    H123765   6.935   6.145   0.891
 7940TIP3    H223766   6.826   6.073   0.816
 7941TIP3   OH223767   0.822   5.616   3.956
 7941TIP3    H123768   0.880   5.572   3.894
 7941TIP3    H223769   0.877   5.632   4.033
 7942TIP3   OH223770   0.577   0.409   2.971
 7942TIP3    H123771   0.575   0.503   2.951
 7942TIP3    H223772   0.595   0.367   2.887
 7943TIP3   OH223773   6.403   4.394   2.958
 7943TIP3    H123774   6.498   4.396   2.944
 7943TIP3    H223775   6.377   4.305   2.933
 7944TIP3   OH223776   5.977   4.678   2.764
 7944TIP3    H123777   5.904   4.739   2.758
 7944TIP3    H223778   5.998   4.655   2.674
 7945TIP3   OH223779   5.848   5.304   1.048
 7945TIP3    H123780   5.927   5.276   1.003
 7945TIP3    H223781   5.872   5.386   1.091
 7946TIP3   OH223782   5.722   5.472   4.159
 7946TIP3    H123783   5.668   5.483   4.238
 7946TIP3    H223784   5.670   5.415   4.102
 7947TIP3   OH223785   0.547   7.003   4.350
 7947TIP3    H123786   0.637   6.997   4.382
 7947TIP3    H223787   0.555   7.010   4.255
 7948TIP3   OH223788   1.380   5.564   0.543
 7948TIP3    H123789   1.373   5.630   0.611
 7948TIP3    H223790   1.294   5.521   0.542
 7949TIP3   OH223791   4.616   0.658   4.922
 7949TIP3    H123792   4.609   0.608   5.003
 7949TIP3    H223793   4.699   0.705   4.929
 7950TIP3   OH223794   2.917   4.214   3.623
 7950TIP3    H123795   2.998   4.163   3.619
 7950TIP3    H223796   2.946   4.304   3.633
 7951TIP3   OH223797   8.209   2.987   5.836
 7951TIP3    H123798   8.126   3.010   5.793
 7951TIP3    H223799   8.198   2.895   5.860
 7952TIP3   OH223800   0.947   6.344   5.924
 7952TIP3    H123801   0.942   6.437   5.902
 7952TIP3    H223802   0.973   6.342   6.016
 7953TIP3   OH223803   6.590   6.350   0.170
 7953TIP3    H123804   6.685   6.354   0.179
 7953TIP3    H223805   6.567   6.259   0.187
 7954TIP3   OH223806   5.793   2.375   5.179
 7954TIP3    H123807   5.868   2.349   5.125
 7954TIP3    H223808   5.739   2.296   5.186
 7955TIP3   OH223809   3.690   7.778   2.932
 7955TIP3    H123810   3.782   7.799   2.912
 7955TIP3    H223811   3.696   7.707   2.996
 7956TIP3   OH223812   3.215   2.625   2.333
 7956TIP3    H123813   3.276   2.646   2.404
 7956TIP3    H223814   3.178   2.540   2.357
 7957TIP3   OH223815   4.874   7.502   0.761
 7957TIP3    H123816   4.916   7.437   0.706
 7957TIP3    H223817   4.802   7.455   0.803
 7958TIP3   OH223818   7.227   1.920   0.557
 7958TIP3    H123819   7.225   1.864   0.635
 7958TIP3    H223820   7.162   1.988   0.574
 7959TIP3   OH223821   7.390   2.121   3.781
 7959TIP3    H123822   7.443   2.059   3.732
 7959TIP3    H223823   7.354   2.070   3.854
 7960TIP3   OH223824   1.292   6.696   1.595
 7960TIP3    H123825   1.259   6.753   1.665
 7960TIP3    H223826   1.319   6.756   1.526
 7961TIP3   OH223827   1.520   4.941   5.252
 7961TIP3    H123828   1.552   5.011   5.194
 7961TIP3    H223829   1.437   4.974   5.285
 7962TIP3   OH223830   0.249   5.416   1.162
 7962TIP3    H123831   0.252   5.430   1.256
 7962TIP3    H223832   0.304   5.339   1.148
 7963TIP3   OH223833   8.166   4.755   1.761
 7963TIP3    H123834   8.154   4.824   1.827
 7963TIP3    H223835   8.218   4.689   1.805
 7964TIP3   OH223836   1.375   6.929   4.677
 7964TIP3    H123837   1.458   6.941   4.723
 7964TIP3    H223838   1.363   6.834   4.672
 7965TIP3   OH223839   5.110   3.968   3.859
 7965TIP3    H123840   5.051   3.991   3.931
 7965TIP3    H223841   5.052   3.958   3.783
 7966TIP3   OH223842   7.966   6.414   0.609
 7966TIP3    H123843   7.944   6.338   0.663
 7966TIP3    H223844   8.039   6.456   0.656
 7967TIP3   OH223845   0.839   4.142   1.708
 7967TIP3    H123846   0.746   4.125   1.697
 7967TIP3    H223847   0.848   4.167   1.800
 7968TIP3   OH223848   2.501   3.212   4.943
 7968TIP3    H123849   2.444   3.284   4.915
 7968TIP3    H223850   2.525   3.234   5.033
 7969TIP3   OH223851   4.020   5.174   5.961
 7969TIP3    H123852   3.948   5.193   6.021
 7969TIP3    H223853   4.047   5.260   5.928
 7970TIP3   OH223854   4.422   0.524   4.236
 7970TIP3    H123855   4.447   0.513   4.328
 7970TIP3    H223856   4.435   0.617   4.219
 7971TIP3   OH223857   2.701   7.440   0.203
 7971TIP3    H123858   2.612   7.463   0.230
 7971TIP3    H223859   2.706   7.466   0.111
 7972TIP3   OH223860   3.392   0.119   0.866
 7972TIP3    H123861   3.481   0.112   0.901
 7972TIP3    H223862   3.358   0.029   0.870
 7973TIP3   OH223863   2.584   6.302   2.665
 7973TIP3    H123864   2.618   6.298   2.754
 7973TIP3    H223865   2.606   6.217   2.626
 7974TIP3   OH223866   0.841   6.816   4.936
 7974TIP3    H123867   0.867   6.800   4.845
 7974TIP3    H223868   0.757   6.860   4.929
 7975TIP3   OH223869   6.464   1.465   5.572
 7975TIP3    H123870   6.435   1.553   5.595
 7975TIP3    H223871   6.451   1.414   5.652
 7976TIP3   OH223872   3.817   0.514   6.575
 7976TIP3    H123873   3.911   0.534   6.578
 7976TIP3    H223874   3.783   0.569   6.505
 7977TIP3   OH223875   7.068   6.357   1.787
 7977TIP3    H123876   7.050   6.401   1.704
 7977TIP3    H223877   7.019   6.275   1.782
 7978TIP3   OH223878   4.715   2.226   3.185
 7978TIP3    H123879   4.740   2.301   3.130
 7978TIP3    H223880   4.777   2.228   3.257
 7979TIP3   OH223881   2.789   7.473   3.417
 7979TIP3    H123882   2.744   7.493   3.335
 7979TIP3    H223883   2.727   7.419   3.467
 7980TIP3   OH223884   7.888   4.361   0.826
 7980TIP3    H123885   7.919   4.440   0.783
 7980TIP3    H223886   7.796   4.355   0.801
 7981TIP3   OH223887   6.596   1.647   2.896
 7981TIP3    H123888   6.645   1.701   2.834
 7981TIP3    H223889   6.593   1.561   2.856
 7982TIP3   OH223890   6.998   1.831   3.097
 7982TIP3    H123891   6.934   1.772   3.058
 7982TIP3    H223892   7.083   1.789   3.079
 7983TIP3   OH223893   6.008   2.848   0.196
 7983TIP3    H123894   5.973   2.811   0.277
 7983TIP3    H223895   6.049   2.774   0.152
 7984TIP3   OH223896   6.102   6.649   4.686
 7984TIP3    H123897   6.055   6.722   4.726
 7984TIP3    H223898   6.128   6.593   4.760
 7985TIP3   OH223899   5.083   0.217   1.522
 7985TIP3    H123900   5.060   0.272   1.447
 7985TIP3    H223901   5.175   0.193   1.507
 7986TIP3   OH223902   2.004   4.844  -0.024
 7986TIP3    H123903   2.042   4.815   0.059
 7986TIP3    H223904   1.915   4.808  -0.024
 7987TIP3   OH223905   5.673   1.187   1.957
 7987TIP3    H123906   5.756   1.158   1.994
 7987TIP3    H223907   5.682   1.281   1.946
 7988TIP3   OH223908   3.587   1.805   4.939
 7988TIP3    H123909   3.520   1.815   5.007
 7988TIP3    H223910   3.569   1.876   4.877
 7989TIP3   OH223911   6.967   3.799   5.267
 7989TIP3    H123912   6.926   3.874   5.224
 7989TIP3    H223913   6.898   3.733   5.271
 7990TIP3   OH223914   4.218   2.669   0.049
 7990TIP3    H123915   4.136   2.695   0.091
 7990TIP3    H223916   4.274   2.639   0.121
 7991TIP3   OH223917   0.279   5.905   5.025
 7991TIP3    H123918   0.366   5.931   4.993
 7991TIP3    H223919   0.297   5.850   5.101
 7992TIP3   OH223920   0.764   5.864   4.642
 7992TIP3    H123921   0.772   5.934   4.708
 7992TIP3    H223922   0.682   5.884   4.596
 7993TIP3   OH223923   4.358   3.219   2.673
 7993TIP3    H123924   4.332   3.128   2.659
 7993TIP3    H223925   4.453   3.216   2.683
 7994TIP3   OH223926   4.775   5.910   6.476
 7994TIP3    H123927   4.833   5.973   6.434
 7994TIP3    H223928   4.700   5.902   6.416
 7995TIP3   OH223929   0.436   4.982   1.427
 7995TIP3    H123930   0.388   4.899   1.433
 7995TIP3    H223931   0.444   5.012   1.517
 7996TIP3   OH223932   6.017   4.211   3.830
 7996TIP3    H123933   6.034   4.220   3.736
 7996TIP3    H223934   6.104   4.201   3.869
 7997TIP3   OH223935   1.747   0.346   2.943
 7997TIP3    H123936   1.676   0.288   2.971
 7997TIP3    H223937   1.793   0.296   2.876
 7998TIP3   OH223938   2.231   1.577   3.207
 7998TIP3    H123939   2.265   1.502   3.257
 7998TIP3    H223940   2.148   1.546   3.171
 7999TIP3   OH223941   4.842   3.845   4.151
 7999TIP3    H123942   4.824   3.913   4.086
 7999TIP3    H223943   4.813   3.764   4.110
 8000TIP3   OH223944   3.017   6.126   4.058
 8000TIP3    H123945   2.948   6.169   4.110
 8000TIP3    H223946   3.006   6.161   3.970
 8001TIP3   OH223947   0.664   2.246   2.026
 8001TIP3    H123948   0.715   2.251   1.945
 8001TIP3    H223949   0.606   2.171   2.014
 8002TIP3   OH223950   5.873   3.369   1.431
 8002TIP3    H123951   5.897   3.318   1.354
 8002TIP3    H223952   5.782   3.345   1.448
 8003TIP3   OH223953   7.649   5.785   6.104
 8003TIP3    H123954   7.736   5.752   6.082
 8003TIP3    H223955   7.652   5.802   6.199
 8004TIP3   OH223956   7.819   5.323   2.466
 8004TIP3    H123957   7.883   5.350   2.400
 8004TIP3    H223958   7.849   5.366   2.547
 8005TIP3   OH223959   5.381   2.455   4.478
 8005TIP3    H123960   5.436   2.478   4.403
 8005TIP3    H223961   5.314   2.397   4.441
 8006TIP3   OH223962   0.776   7.524   5.067
 8006TIP3    H123963   0.775   7.598   5.128
 8006TIP3    H223964   0.694   7.477   5.085
 8007TIP3   OH223965   7.239   6.093   5.752
 8007TIP3    H123966   7.164   6.148   5.728
 8007TIP3    H223967   7.315   6.146   5.730
 8008TIP3   OH223968   2.669   7.464   0.918
 8008TIP3    H123969   2.608   7.443   0.847
 8008TIP3    H223970   2.661   7.390   0.978
 8009TIP3   OH223971   2.707   7.198   2.134
 8009TIP3    H123972   2.788   7.246   2.118
 8009TIP3    H223973   2.736   7.118   2.179
 8010TIP3   OH223974   4.491   5.659   3.997
 8010TIP3    H123975   4.416   5.623   4.043
 8010TIP3    H223976   4.466   5.750   3.979
 8011TIP3   OH223977   2.580   0.947   0.127
 8011TIP3    H123978   2.562   0.948   0.033
 8011TIP3    H223979   2.497   0.923   0.167
 8012TIP3   OH223980   2.641   6.621   1.847
 8012TIP3    H123981   2.642   6.576   1.763
 8012TIP3    H223982   2.660   6.712   1.826
 8013TIP3   OH223983   1.422   6.891   1.369
 8013TIP3    H123984   1.516   6.873   1.374
 8013TIP3    H223985   1.402   6.885   1.275
 8014TIP3   OH223986   5.319   3.902   4.299
 8014TIP3    H123987   5.223   3.900   4.303
 8014TIP3    H223988   5.345   3.817   4.335
 8015TIP3   OH223989   7.359   3.611   1.727
 8015TIP3    H123990   7.429   3.560   1.685
 8015TIP3    H223991   7.287   3.549   1.738
 8016TIP3   OH223992   2.817   4.339   0.865
 8016TIP3    H123993   2.828   4.247   0.840
 8016TIP3    H223994   2.899   4.381   0.839
 8017TIP3   OH223995   5.778   5.727   0.168
 8017TIP3    H123996   5.871   5.706   0.166
 8017TIP3    H223997   5.741   5.679   0.093
 8018TIP3   OH223998   6.780   4.877   2.057
 8018TIP3    H123999   6.725   4.862   2.134
 8018TIP3    H224000   6.722   4.860   1.982
 8019TIP3   OH224001   0.097   4.751   4.846
 8019TIP3    H124002   0.019   4.703   4.874
 8019TIP3    H224003   0.062   4.824   4.796
 8020TIP3   OH224004   1.612   0.421   1.688
 8020TIP3    H124005   1.606   0.447   1.596
 8020TIP3    H224006   1.610   0.325   1.685
 8021TIP3   OH224007   2.331   1.785   4.826
 8021TIP3    H124008   2.389   1.731   4.771
 8021TIP3    H224009   2.349   1.875   4.799
 8022TIP3   OH224010   3.458   0.748   4.178
 8022TIP3    H124011   3.367   0.747   4.147
 8022TIP3    H224012   3.489   0.837   4.160
 8023TIP3   OH224013   7.061   5.316   3.334
 8023TIP3    H124014   7.119   5.379   3.291
 8023TIP3    H224015   7.067   5.336   3.427
 8024TIP3   OH224016   4.486   5.783   0.065
 8024TIP3    H124017   4.544   5.707   0.074
 8024TIP3    H224018   4.478   5.796  -0.029
 8025TIP3   OH224019   2.812   2.098   6.354
 8025TIP3    H124020   2.757   2.047   6.294
 8025TIP3    H224021   2.750   2.143   6.412
 8026TIP3   OH224022   1.249   3.464   2.370
 8026TIP3    H124023   1.199   3.544   2.354
 8026TIP3    H224024   1.213   3.400   2.308
 8027TIP3   OH224025   6.293   4.925   3.780
 8027TIP3    H124026   6.247   5.002   3.747
 8027TIP3    H224027   6.284   4.930   3.875
 8028TIP3   OH224028   2.852   7.747   5.897
 8028TIP3    H124029   2.763   7.725   5.925
 8028TIP3    H224030   2.869   7.688   5.823
 8029TIP3   OH224031   5.356   7.076   0.735
 8029TIP3    H124032   5.411   7.124   0.798
 8029TIP3    H224033   5.398   7.092   0.650
 8030TIP3   OH224034   4.799   1.566   4.338
 8030TIP3    H124035   4.822   1.655   4.310
 8030TIP3    H224036   4.883   1.521   4.344
 8031TIP3   OH224037   1.027   1.333   6.618
 8031TIP3    H124038   0.979   1.257   6.586
 8031TIP3    H224039   1.044   1.385   6.539
 8032TIP3   OH224040   7.904   2.780   4.937
 8032TIP3    H124041   7.975   2.840   4.915
 8032TIP3    H224042   7.946   2.694   4.945
 8033TIP3   OH224043   3.221   0.123   5.168
 8033TIP3    H124044   3.192   0.057   5.231
 8033TIP3    H224045   3.291   0.080   5.119
 8034TIP3   OH224046   2.882   7.380   5.187
 8034TIP3    H124047   2.804   7.335   5.156
 8034TIP3    H224048   2.853   7.428   5.264
 8035TIP3   OH224049   7.962   2.354   1.500
 8035TIP3    H124050   8.020   2.292   1.543
 8035TIP3    H224051   8.008   2.437   1.502
 8036TIP3   OH224052   4.565   2.196   6.223
 8036TIP3    H124053   4.620   2.272   6.205
 8036TIP3    H224054   4.593   2.167   6.310
 8037TIP3   OH224055   2.514   0.801   4.924
 8037TIP3    H124056   2.446   0.867   4.937
 8037TIP3    H224057   2.530   0.766   5.012
 8038TIP3   OH224058   2.170   2.992   0.924
 8038TIP3    H124059   2.231   2.989   0.850
 8038TIP3    H224060   2.142   2.901   0.935
 8039TIP3   OH224061   7.840   1.070   4.646
 8039TIP3    H124062   7.776   1.029   4.588
 8039TIP3    H224063   7.882   1.137   4.592
 8040TIP3   OH224064   4.666   1.728   2.602
 8040TIP3    H124065   4.724   1.723   2.678
 8040TIP3    H224066   4.578   1.722   2.638
 8041TIP3   OH224067   6.611   1.577   4.255
 8041TIP3    H124068   6.668   1.547   4.185
 8041TIP3    H224069   6.625   1.515   4.327
 8042TIP3   OH224070   2.242   0.943   3.028
 8042TIP3    H124071   2.321   0.897   2.998
 8042TIP3    H224072   2.196   0.878   3.081
 8043TIP3   OH224073   0.952   0.993   5.430
 8043TIP3    H124074   0.865   1.029   5.445
 8043TIP3    H224075   0.947   0.903   5.463
 8044TIP3   OH224076   2.418   2.457   1.363
 8044TIP3    H124077   2.344   2.443   1.304
 8044TIP3    H224078   2.387   2.525   1.423
 8045TIP3   OH224079   1.543   4.706   1.344
 8045TIP3    H124080   1.487   4.762   1.289
 8045TIP3    H224081   1.553   4.625   1.294
 8046TIP3   OH224082   0.949   6.029   5.055
 8046TIP3    H124083   1.029   5.982   5.079
 8046TIP3    H224084   0.928   6.083   5.131
 8047TIP3   OH224085   5.743   3.416   4.037
 8047TIP3    H124086   5.789   3.467   4.104
 8047TIP3    H224087   5.807   3.350   4.009
 8048TIP3   OH224088   7.876   0.368   1.168
 8048TIP3    H124089   7.932   0.295   1.192
 8048TIP3    H224090   7.937   0.441   1.156
 8049TIP3   OH224091   3.771   1.183   2.022
 8049TIP3    H124092   3.680   1.207   2.037
 8049TIP3    H224093   3.770   1.138   1.937
 8050TIP3   OH224094   7.921   3.390   4.301
 8050TIP3    H124095   7.885   3.420   4.385
 8050TIP3    H224096   7.931   3.470   4.249
 8051TIP3   OH224097   4.982   3.262   1.080
 8051TIP3    H124098   4.888   3.277   1.069
 8051TIP3    H224099   5.022   3.308   1.006
 8052TIP3   OH224100   2.152   3.098   1.781
 8052TIP3    H124101   2.069   3.139   1.806
 8052TIP3    H224102   2.180   3.146   1.703
 8053TIP3   OH224103   4.067   7.459   6.487
 8053TIP3    H124104   4.095   7.486   6.575
 8053TIP3    H224105   4.103   7.371   6.477
 8054TIP3   OH224106   5.354   6.378   4.733
 8054TIP3    H124107   5.278   6.432   4.712
 8054TIP3    H224108   5.429   6.435   4.717
 8055TIP3   OH224109   0.283   7.211   3.285
 8055TIP3    H124110   0.378   7.203   3.282
 8055TIP3    H224111   0.268   7.298   3.323
 8056TIP3   OH224112   1.567   7.566   6.793
 8056TIP3    H124113   1.575   7.624   6.717
 8056TIP3    H224114   1.548   7.480   6.755
 8057TIP3   OH224115   7.855   4.820   1.364
 8057TIP3    H124116   7.909   4.771   1.301
 8057TIP3    H224117   7.883   4.787   1.450
 8058TIP3   OH224118   4.773   1.121   1.426
 8058TIP3    H124119   4.845   1.074   1.468
 8058TIP3    H224120   4.701   1.115   1.489
 8059TIP3   OH224121   6.871   6.779   4.997
 8059TIP3    H124122   6.925   6.824   4.932
 8059TIP3    H224123   6.887   6.686   4.980
 8060TIP3   OH224124   4.388   3.458   4.800
 8060TIP3    H124125   4.384   3.531   4.862
 8060TIP3    H224126   4.297   3.438   4.781
 8061TIP3   OH224127   5.048   5.405   1.606
 8061TIP3    H124128   4.976   5.343   1.598
 8061TIP3    H224129   5.075   5.423   1.516
 8062TIP3   OH224130   4.844   3.963   2.492
 8062TIP3    H124131   4.862   3.870   2.502
 8062TIP3    H224132   4.814   3.991   2.579
 8063TIP3   OH224133   5.202   3.790   5.752
 8063TIP3    H124134   5.285   3.745   5.734
 8063TIP3    H224135   5.211   3.821   5.842
 8064TIP3   OH224136   1.417   7.730   0.707
 8064TIP3    H124137   1.492   7.707   0.761
 8064TIP3    H224138   1.421   7.825   0.699
 8065TIP3   OH224139   2.167   7.013   5.742
 8065TIP3    H124140   2.161   7.075   5.669
 8065TIP3    H224141   2.080   6.975   5.749
 8066TIP3   OH224142   6.283   5.514   1.633
 8066TIP3    H124143   6.342   5.552   1.697
 8066TIP3    H224144   6.196   5.545   1.659
 8067TIP3   OH224145   2.124   3.234   3.203
 8067TIP3    H124146   2.032   3.258   3.194
 8067TIP3    H224147   2.131   3.149   3.160
 8068TIP3   OH224148   8.000   2.243   6.316
 8068TIP3    H124149   7.986   2.220   6.408
 8068TIP3    H224150   7.978   2.336   6.312
 8069TIP3   OH224151   2.321   7.763   2.320
 8069TIP3    H124152   2.369   7.722   2.248
 8069TIP3    H224153   2.229   7.763   2.291
 8070TIP3   OH224154   1.573   2.713   2.516
 8070TIP3    H124155   1.637   2.659   2.563
 8070TIP3    H224156   1.501   2.725   2.578
 8071TIP3   OH224157   1.501   5.116   3.454
 8071TIP3    H124158   1.513   5.100   3.547
 8071TIP3    H224159   1.586   5.097   3.415
 8072TIP3   OH224160   1.367   2.595   4.156
 8072TIP3    H124161   1.445   2.649   4.141
 8072TIP3    H224162   1.382   2.517   4.103
 8073TIP3   OH224163   2.087   7.432   3.747
 8073TIP3    H124164   2.086   7.339   3.769
 8073TIP3    H224165   2.160   7.467   3.798
 8074TIP3   OH224166   7.850   2.731   3.688
 8074TIP3    H124167   7.895   2.734   3.773
 8074TIP3    H224168   7.908   2.777   3.628
 8075TIP3   OH224169   6.608   0.553   6.367
 8075TIP3    H124170   6.675   0.497   6.406
 8075TIP3    H224171   6.544   0.493   6.329
 8076TIP3   OH224172   2.344   7.274   1.769
 8076TIP3    H124173   2.402   7.201   1.790
 8076TIP3    H224174   2.335   7.271   1.674
 8077TIP3   OH224175   5.964   5.462   5.272
 8077TIP3    H124176   5.901   5.524   5.309
 8077TIP3    H224177   5.967   5.390   5.335
 8078TIP3   OH224178   5.421   6.873   4.834
 8078TIP3    H124179   5.345   6.875   4.892
 8078TIP3    H224180   5.400   6.807   4.769
 8079TIP3   OH224181   4.058   5.019   6.621
 8079TIP3    H124182   3.991   5.075   6.660
 8079TIP3    H224183   4.057   4.939   6.674
 8080TIP3   OH224184   3.246   4.988   1.920
 8080TIP3    H124185   3.313   4.952   1.978
 8080TIP3    H224186   3.221   5.071   1.960
 8081TIP3   OH224187   2.856   4.443   5.586
 8081TIP3    H124188   2.948   4.458   5.605
 8081TIP3    H224189   2.851   4.445   5.490
 8082TIP3   OH224190   0.968   3.522   1.738
 8082TIP3    H124191   0.999   3.455   1.798
 8082TIP3    H224192   0.873   3.523   1.751
 8083TIP3   OH224193   3.787   1.165   0.881
 8083TIP3    H124194   3.813   1.220   0.954
 8083TIP3    H224195   3.848   1.188   0.811
 8084TIP3   OH224196   1.470   5.179   6.484
 8084TIP3    H124197   1.382   5.216   6.488
 8084TIP3    H224198   1.499   5.194   6.394
 8085TIP3   OH224199   5.003   7.651   4.384
 8085TIP3    H124200   5.075   7.657   4.446
 8085TIP3    H224201   4.990   7.557   4.371
 8086TIP3   OH224202   1.653   1.997   1.380
 8086TIP3    H124203   1.600   1.919   1.401
 8086TIP3    H224204   1.590   2.069   1.380
 8087TIP3   OH224205   2.752   0.107   3.605
 8087TIP3    H124206   2.808   0.030   3.603
 8087TIP3    H224207   2.679   0.087   3.547
 8088TIP3   OH224208   6.441   3.489   3.527
 8088TIP3    H124209   6.465   3.425   3.460
 8088TIP3    H224210   6.504   3.477   3.597
 8089TIP3   OH224211   2.227   0.310   2.068
 8089TIP3    H124212   2.272   0.238   2.111
 8089TIP3    H224213   2.243   0.296   1.974
 8090TIP3   OH224214   4.562   7.172   2.897
 8090TIP3    H124215   4.639   7.148   2.844
 8090TIP3    H224216   4.488   7.154   2.840
 8091TIP3   OH224217   5.423   2.319   0.144
 8091TIP3    H124218   5.429   2.396   0.200
 8091TIP3    H224219   5.361   2.343   0.076
 8092TIP3   OH224220   0.086   0.036   0.109
 8092TIP3    H124221   0.077  -0.003   0.021
 8092TIP3    H224222   0.142   0.112   0.096
 8093TIP3   OH224223   2.731   4.742   4.652
 8093TIP3    H124224   2.649   4.692   4.657
 8093TIP3    H224225   2.774   4.709   4.573
 8094TIP3   OH224226   1.750   4.985   4.137
 8094TIP3    H124227   1.836   4.952   4.109
 8094TIP3    H224228   1.690   4.956   4.068
 8095TIP3   OH224229   4.779   3.383   1.351
 8095TIP3    H124230   4.767   3.338   1.435
 8095TIP3    H224231   4.694   3.424   1.334
 8096TIP3   OH224232   4.737   1.222   1.027
 8096TIP3    H124233   4.804   1.239   1.093
 8096TIP3    H224234   4.682   1.154   1.065
 8097TIP3   OH224235   1.964   1.906   2.506
 8097TIP3    H124236   2.046   1.866   2.534
 8097TIP3    H224237   1.991   1.980   2.451
 8098TIP3   OH224238   2.219   1.384   5.491
 8098TIP3    H124239   2.252   1.408   5.578
 8098TIP3    H224240   2.124   1.396   5.498
 8099TIP3   OH224241   5.152   1.637   3.487
 8099TIP3    H124242   5.222   1.624   3.423
 8099TIP3    H224243   5.091   1.565   3.470
 8100TIP3   OH224244   2.832   3.041   6.442
 8100TIP3    H124245   2.812   3.056   6.534
 8100TIP3    H224246   2.751   3.060   6.396
 8101TIP3   OH224247   2.402   7.318   0.982
 8101TIP3    H124248   2.322   7.357   0.947
 8101TIP3    H224249   2.440   7.387   1.037
 8102TIP3   OH224250   2.829   3.978   4.527
 8102TIP3    H124251   2.875   4.048   4.572
 8102TIP3    H224252   2.845   3.900   4.580
 8103TIP3   OH224253   4.335   6.055   6.464
 8103TIP3    H124254   4.248   6.017   6.449
 8103TIP3    H224255   4.358   6.029   6.553
 8104TIP3   OH224256   6.643   5.561   5.492
 8104TIP3    H124257   6.624   5.487   5.434
 8104TIP3    H224258   6.601   5.636   5.450
 8105TIP3   OH224259   3.934   6.918   1.651
 8105TIP3    H124260   4.025   6.941   1.633
 8105TIP3    H224261   3.937   6.826   1.679
 8106TIP3   OH224262   1.900   6.336   4.514
 8106TIP3    H124263   1.835   6.405   4.500
 8106TIP3    H224264   1.950   6.366   4.590
 8107TIP3   OH224265   1.905   1.069   4.364
 8107TIP3    H124266   1.970   0.999   4.377
 8107TIP3    H224267   1.840   1.030   4.305
 8108TIP3   OH224268   8.125   6.966   5.262
 8108TIP3    H124269   8.200   6.906   5.254
 8108TIP3    H224270   8.078   6.935   5.339
 8109TIP3   OH224271   3.664   7.686   1.575
 8109TIP3    H124272   3.732   7.741   1.538
 8109TIP3    H224273   3.705   7.600   1.583
 8110TIP3   OH224274   8.134   3.111   1.160
 8110TIP3    H124275   8.058   3.070   1.118
 8110TIP3    H224276   8.104   3.132   1.249
 8111TIP3   OH224277   1.371   0.610   4.071
 8111TIP3    H124278   1.314   0.675   4.113
 8111TIP3    H224279   1.431   0.583   4.141
 8112TIP3   OH224280   5.945   1.891   5.958
 8112TIP3    H124281   5.909   1.912   6.044
 8112TIP3    H224282   5.900   1.811   5.932
 8113TIP3   OH224283   4.946   5.950   1.653
 8113TIP3    H124284   4.851   5.963   1.656
 8113TIP3    H224285   4.957   5.857   1.674
 8114TIP3   OH224286   1.517   0.794   4.537
 8114TIP3    H124287   1.426   0.824   4.534
 8114TIP3    H224288   1.530   0.768   4.629
 8115TIP3   OH224289   2.753   5.551   5.840
 8115TIP3    H124290   2.743   5.646   5.843
 8115TIP3    H224291   2.783   5.532   5.751
 8116TIP3   OH224292   1.247   2.337   5.655
 8116TIP3    H124293   1.266   2.309   5.744
 8116TIP3    H224294   1.329   2.376   5.625
 8117TIP3   OH224295   6.220   0.875   3.526
 8117TIP3    H124296   6.289   0.855   3.589
 8117TIP3    H224297   6.255   0.948   3.475
 8118TIP3   OH224298   5.319   2.580   5.980
 8118TIP3    H124299   5.318   2.648   5.913
 8118TIP3    H224300   5.227   2.555   5.990
 8119TIP3   OH224301   0.380   3.928   4.728
 8119TIP3    H124302   0.293   3.900   4.702
 8119TIP3    H224303   0.439   3.863   4.690
 8120TIP3   OH224304   1.987   6.134   0.377
 8120TIP3    H124305   1.912   6.190   0.399
 8120TIP3    H224306   2.047   6.191   0.331
 8121TIP3   OH224307   4.030   1.585   0.944
 8121TIP3    H124308   4.012   1.657   1.005
 8121TIP3    H224309   4.068   1.517   0.998
 8122TIP3   OH224310   0.081   4.258   3.488
 8122TIP3    H124311   0.029   4.281   3.411
 8122TIP3    H224312   0.118   4.173   3.467
 8123TIP3   OH224313   1.222   3.865   5.360
 8123TIP3    H124314   1.181   3.804   5.422
 8123TIP3    H224315   1.306   3.824   5.339
 8124TIP3   OH224316   6.170   2.425   4.635
 8124TIP3    H124317   6.175   2.447   4.728
 8124TIP3    H224318   6.138   2.505   4.593
 8125TIP3   OH224319   6.977   3.715   6.466
 8125TIP3    H124320   7.028   3.796   6.457
 8125TIP3    H224321   6.890   3.738   6.431
 8126TIP3   OH224322   2.051   7.364   3.165
 8126TIP3    H124323   2.024   7.390   3.254
 8126TIP3    H224324   2.133   7.411   3.151
 8127TIP3   OH224325   4.272   2.967   0.220
 8127TIP3    H124326   4.288   3.039   0.281
 8127TIP3    H224327   4.208   2.911   0.265
 8128TIP3   OH224328   5.168   7.689   2.432
 8128TIP3    H124329   5.093   7.748   2.445
 8128TIP3    H224330   5.244   7.747   2.434
 8129TIP3   OH224331   3.407   3.316   5.306
 8129TIP3    H124332   3.471   3.312   5.235
 8129TIP3    H224333   3.328   3.350   5.265
 8130TIP3   OH224334   6.127   3.529   1.725
 8130TIP3    H124335   6.046   3.557   1.767
 8130TIP3    H224336   6.166   3.467   1.787
 8131TIP3   OH224337   6.134   0.240   4.234
 8131TIP3    H124338   6.173   0.291   4.164
 8131TIP3    H224339   6.084   0.172   4.190
 8132TIP3   OH224340   8.277   5.176   6.706
 8132TIP3    H124341   8.234   5.138   6.629
 8132TIP3    H224342   8.284   5.269   6.685
 8133TIP3   OH224343   7.995   6.272   2.350
 8133TIP3    H124344   8.065   6.270   2.284
 8133TIP3    H224345   7.927   6.215   2.315
 8134TIP3   OH224346   4.198   0.828   4.942
 8134TIP3    H124347   4.286   0.812   4.906
 8134TIP3    H224348   4.209   0.905   4.999
 8135TIP3   OH224349   7.763   7.229   3.110
 8135TIP3    H124350   7.705   7.297   3.145
 8135TIP3    H224351   7.749   7.153   3.167
 8136TIP3   OH224352   3.362   4.271   0.924
 8136TIP3    H124353   3.305   4.341   0.891
 8136TIP3    H224354   3.350   4.199   0.862
 8137TIP3   OH224355   2.966   1.933   5.601
 8137TIP3    H124356   2.930   2.006   5.652
 8137TIP3    H224357   2.963   1.858   5.661
 8138TIP3   OH224358   7.152   0.369   1.267
 8138TIP3    H124359   7.078   0.314   1.242
 8138TIP3    H224360   7.225   0.309   1.277
 8139TIP3   OH224361   4.529   6.765   3.416
 8139TIP3    H124362   4.579   6.804   3.344
 8139TIP3    H224363   4.590   6.703   3.456
 8140TIP3   OH224364   7.823   6.623   0.794
 8140TIP3    H124365   7.786   6.573   0.866
 8140TIP3    H224366   7.918   6.612   0.803
 8141TIP3   OH224367   1.151   4.779   5.377
 8141TIP3    H124368   1.157   4.760   5.471
 8141TIP3    H224369   1.184   4.700   5.334
 8142TIP3   OH224370   0.774   1.677   0.785
 8142TIP3    H124371   0.849   1.721   0.745
 8142TIP3    H224372   0.744   1.739   0.853
 8143TIP3   OH224373   3.175   7.658   0.778
 8143TIP3    H124374   3.082   7.637   0.774
 8143TIP3    H224375   3.187   7.729   0.716
 8144TIP3   OH224376   2.289   3.130   0.066
 8144TIP3    H124377   2.246   3.215   0.052
 8144TIP3    H224378   2.231   3.084   0.128
 8145TIP3   OH224379   1.712   4.694   0.477
 8145TIP3    H124380   1.713   4.728   0.388
 8145TIP3    H224381   1.661   4.757   0.527
 8146TIP3   OH224382   6.846   1.666   6.119
 8146TIP3    H124383   6.933   1.700   6.139
 8146TIP3    H224384   6.861   1.573   6.099
 8147TIP3   OH224385   3.019   7.036   4.971
 8147TIP3    H124386   3.108   7.030   5.007
 8147TIP3    H224387   3.006   7.130   4.957
 8148TIP3   OH224388   1.980   5.179   1.382
 8148TIP3    H124389   1.891   5.144   1.378
 8148TIP3    H224390   1.981   5.232   1.462
 8149TIP3   OH224391   2.160   6.376   5.928
 8149TIP3    H124392   2.249   6.404   5.905
 8149TIP3    H224393   2.105   6.407   5.856
 8150TIP3   OH224394   1.564   7.151   0.136
 8150TIP3    H124395   1.522   7.066   0.124
 8150TIP3    H224396   1.585   7.155   0.229
 8151TIP3   OH224397   0.787   2.160   0.462
 8151TIP3    H124398   0.766   2.241   0.417
 8151TIP3    H224399   0.716   2.147   0.525
 8152TIP3   OH224400   2.017   6.282   5.202
 8152TIP3    H124401   2.064   6.339   5.141
 8152TIP3    H224402   2.064   6.199   5.200
 8153TIP3   OH224403   7.248   6.757   3.558
 8153TIP3    H124404   7.162   6.715   3.566
 8153TIP3    H224405   7.303   6.710   3.621
 8154TIP3   OH224406   4.991   3.733   4.904
 8154TIP3    H124407   5.053   3.751   4.834
 8154TIP3    H224408   4.906   3.728   4.861
 8155TIP3   OH224409   7.605   1.433   5.323
 8155TIP3    H124410   7.618   1.371   5.251
 8155TIP3    H224411   7.635   1.386   5.400
 8156TIP3   OH224412   0.062   1.512   2.481
 8156TIP3    H124413   0.056   1.545   2.391
 8156TIP3    H224414   0.129   1.568   2.522
 8157TIP3   OH224415   1.539   1.239   1.467
 8157TIP3    H124416   1.625   1.282   1.462
 8157TIP3    H224417   1.552   1.167   1.528
 8158TIP3   OH224418   6.309   4.205   2.774
 8158TIP3    H124419   6.392   4.187   2.731
 8158TIP3    H224420   6.243   4.165   2.717
 8159TIP3   OH224421   3.681   0.255   3.465
 8159TIP3    H124422   3.764   0.212   3.444
 8159TIP3    H224423   3.702   0.348   3.470
 8160TIP3   OH224424   1.132   1.906   6.325
 8160TIP3    H124425   1.053   1.935   6.280
 8160TIP3    H224426   1.105   1.827   6.372
 8161TIP3   OH224427   0.169   0.762   4.028
 8161TIP3    H124428   0.208   0.675   4.025
 8161TIP3    H224429   0.190   0.794   4.116
 8162TIP3   OH224430   4.646   3.812   5.740
 8162TIP3    H124431   4.621   3.876   5.807
 8162TIP3    H224432   4.740   3.824   5.730
 8163TIP3   OH224433   0.400   3.972   2.315
 8163TIP3    H124434   0.438   4.047   2.268
 8163TIP3    H224435   0.456   3.960   2.391
 8164TIP3   OH224436   7.265   5.815   0.746
 8164TIP3    H124437   7.301   5.752   0.809
 8164TIP3    H224438   7.259   5.766   0.664
 8165TIP3   OH224439   7.967   0.580   5.504
 8165TIP3    H124440   7.922   0.504   5.467
 8165TIP3    H224441   7.899   0.647   5.511
 8166TIP3   OH224442   0.289   5.885   3.460
 8166TIP3    H124443   0.201   5.851   3.475
 8166TIP3    H224444   0.282   5.979   3.478
 8167TIP3   OH224445   7.918   0.945   1.915
 8167TIP3    H124446   7.962   1.027   1.935
 8167TIP3    H224447   7.956   0.882   1.976
 8168TIP3   OH224448   7.587   4.517   3.412
 8168TIP3    H124449   7.652   4.451   3.389
 8168TIP3    H224450   7.545   4.540   3.329
 8169TIP3   OH224451   5.453   0.908   3.117
 8169TIP3    H124452   5.453   0.910   3.021
 8169TIP3    H224453   5.360   0.908   3.141
 8170TIP3   OH224454   1.440   0.606   0.460
 8170TIP3    H124455   1.403   0.555   0.388
 8170TIP3    H224456   1.523   0.564   0.479
 8171TIP3   OH224457   3.380   2.362   2.389
 8171TIP3    H124458   3.351   2.430   2.449
 8171TIP3    H224459   3.301   2.337   2.340
 8172TIP3   OH224460   4.134   3.002   1.851
 8172TIP3    H124461   4.086   2.919   1.859
 8172TIP3    H224462   4.176   3.013   1.936
 8173TIP3   OH224463   3.686   3.727   0.222
 8173TIP3    H124464   3.774   3.724   0.258
 8173TIP3    H224465   3.657   3.817   0.235
 8174TIP3   OH224466   1.190   3.202   5.005
 8174TIP3    H124467   1.222   3.286   5.037
 8174TIP3    H224468   1.125   3.174   5.070
 8175TIP3   OH224469   2.463   4.560   5.299
 8175TIP3    H124470   2.556   4.576   5.316
 8175TIP3    H224471   2.456   4.556   5.204
 8176TIP3   OH224472   3.419   3.578   5.127
 8176TIP3    H124473   3.480   3.642   5.092
 8176TIP3    H224474   3.440   3.496   5.082
 8177TIP3   OH224475   0.395   0.096   4.255
 8177TIP3    H124476   0.302   0.108   4.238
 8177TIP3    H224477   0.413   0.006   4.229
 8178TIP3   OH224478   0.042   4.694   0.264
 8178TIP3    H124479   0.056   4.777   0.217
 8178TIP3    H224480   0.130   4.664   0.286
 8179TIP3   OH224481   2.079   1.695   1.240
 8179TIP3    H124482   2.006   1.756   1.234
 8179TIP3    H224483   2.132   1.712   1.162
 8180TIP3   OH224484   7.355   7.073   3.521
 8180TIP3    H124485   7.300   7.006   3.481
 8180TIP3    H224486   7.394   7.119   3.447
 8181TIP3   OH224487   1.869   2.197   2.727
 8181TIP3    H124488   1.858   2.241   2.811
 8181TIP3    H224489   1.959   2.166   2.727
 8182TIP3   OH224490   5.172   7.581   5.399
 8182TIP3    H124491   5.138   7.502   5.441
 8182TIP3    H224492   5.258   7.555   5.364
 8183TIP3   OH224493   1.924   1.367   5.495
 8183TIP3    H124494   1.919   1.454   5.455
 8183TIP3    H224495   1.834   1.349   5.523
 8184TIP3   OH224496   7.072   6.495   0.713
 8184TIP3    H124497   7.116   6.567   0.757
 8184TIP3    H224498   7.111   6.416   0.750
 8185TIP3   OH224499   7.896   3.215   6.111
 8185TIP3    H124500   7.869   3.221   6.020
 8185TIP3    H224501   7.960   3.286   6.122
 8186TIP3   OH224502   1.889   4.592   5.503
 8186TIP3    H124503   1.896   4.633   5.416
 8186TIP3    H224504   1.928   4.505   5.490
 8187TIP3   OH224505   2.973   7.288   4.911
 8187TIP3    H124506   3.020   7.368   4.886
 8187TIP3    H224507   2.905   7.319   4.971
 8188TIP3   OH224508   4.338   1.683   1.031
 8188TIP3    H124509   4.271   1.616   1.042
 8188TIP3    H224510   4.318   1.749   1.097
 8189TIP3   OH224511   4.544   2.635   4.890
 8189TIP3    H124512   4.557   2.629   4.984
 8189TIP3    H224513   4.627   2.670   4.856
 8190TIP3   OH224514   7.237   4.710   6.642
 8190TIP3    H124515   7.192   4.794   6.647
 8190TIP3    H224516   7.210   4.664   6.722
 8191TIP3   OH224517   4.399   3.347   5.243
 8191TIP3    H124518   4.378   3.312   5.329
 8191TIP3    H224519   4.318   3.340   5.193
 8192TIP3   OH224520   4.239   3.822   3.421
 8192TIP3    H124521   4.259   3.777   3.503
 8192TIP3    H224522   4.169   3.883   3.443
 8193TIP3   OH224523   4.183   1.607   2.814
 8193TIP3    H124524   4.163   1.565   2.731
 8193TIP3    H224525   4.122   1.568   2.877
 8194TIP3   OH224526   7.160   0.499   6.104
 8194TIP3    H124527   7.113   0.417   6.124
 8194TIP3    H224528   7.134   0.559   6.173
 8195TIP3   OH224529   2.756   0.209   0.411
 8195TIP3    H124530   2.818   0.147   0.450
 8195TIP3    H224531   2.703   0.156   0.352
 8196TIP3   OH224532   0.371   5.720   3.085
 8196TIP3    H124533   0.342   5.766   3.006
 8196TIP3    H224534   0.430   5.652   3.053
 8197TIP3   OH224535   6.163   3.757   0.380
 8197TIP3    H124536   6.204   3.723   0.460
 8197TIP3    H224537   6.144   3.678   0.328
 8198TIP3   OH224538   8.034   0.231   1.456
 8198TIP3    H124539   7.972   0.172   1.499
 8198TIP3    H224540   8.046   0.303   1.518
 8199TIP3   OH224541   2.892   5.348   0.006
 8199TIP3    H124542   2.878   5.306   0.090
 8199TIP3    H224543   2.953   5.419   0.024
 8200TIP3   OH224544   0.415   3.020   4.787
 8200TIP3    H124545   0.471   2.953   4.748
 8200TIP3    H224546   0.448   3.102   4.751
 8201TIP3   OH224547   6.059   5.742   0.162
 8201TIP3    H124548   6.091   5.668   0.214
 8201TIP3    H224549   6.123   5.751   0.091
 8202TIP3   OH224550   2.437   4.280   4.681
 8202TIP3    H124551   2.532   4.275   4.688
 8202TIP3    H224552   2.420   4.286   4.587
 8203TIP3   OH224553   5.215   0.770   1.825
 8203TIP3    H124554   5.189   0.816   1.905
 8203TIP3    H224555   5.286   0.822   1.789
 8204TIP3   OH224556   1.582   1.657   6.467
 8204TIP3    H124557   1.531   1.627   6.542
 8204TIP3    H224558   1.517   1.676   6.400
 8205TIP3   OH224559   6.933   4.256   6.468
 8205TIP3    H124560   6.859   4.209   6.429
 8205TIP3    H224561   7.001   4.254   6.400
 8206TIP3   OH224562   0.532   5.488   3.487
 8206TIP3    H124563   0.548   5.553   3.556
 8206TIP3    H224564   0.437   5.475   3.488
 8207TIP3   OH224565   1.468   6.453   4.745
 8207TIP3    H124566   1.446   6.361   4.762
 8207TIP3    H224567   1.503   6.485   4.829
 8208TIP3   OH224568   0.699   4.616   0.885
 8208TIP3    H124569   0.743   4.584   0.964
 8208TIP3    H224570   0.612   4.641   0.915
 8209TIP3   OH224571   1.793   2.711   4.541
 8209TIP3    H124572   1.812   2.782   4.480
 8209TIP3    H224573   1.698   2.714   4.552
 8210TIP3   OH224574   2.430   7.448   1.560
 8210TIP3    H124575   2.429   7.531   1.514
 8210TIP3    H224576   2.474   7.467   1.643
 8211TIP3   OH224577   3.506   2.564   2.182
 8211TIP3    H124578   3.431   2.574   2.240
 8211TIP3    H224579   3.563   2.500   2.226
 8212TIP3   OH224580   6.483   0.542   5.535
 8212TIP3    H124581   6.446   0.570   5.619
 8212TIP3    H224582   6.433   0.590   5.469
 8213TIP3   OH224583   3.197   1.838   0.497
 8213TIP3    H124584   3.140   1.792   0.559
 8213TIP3    H224585   3.165   1.928   0.496
 8214TIP3   OH224586   0.474   6.566   0.705
 8214TIP3    H124587   0.511   6.622   0.637
 8214TIP3    H224588   0.446   6.627   0.774
 8215TIP3   OH224589   0.097   0.382   3.143
 8215TIP3    H124590   0.126   0.439   3.214
 8215TIP3    H224591   0.166   0.386   3.078
 8216TIP3   OH224592   2.655   2.113   0.365
 8216TIP3    H124593   2.578   2.123   0.309
 8216TIP3    H224594   2.707   2.044   0.324
 8217TIP3   OH224595   3.936   1.592   3.013
 8217TIP3    H124596   3.917   1.547   3.096
 8217TIP3    H224597   4.020   1.636   3.029
 8218TIP3   OH224598   1.201   6.827   1.816
 8218TIP3    H124599   1.189   6.917   1.785
 8218TIP3    H224600   1.121   6.808   1.865
 8219TIP3   OH224601   6.143   1.084   1.113
 8219TIP3    H124602   6.126   1.097   1.020
 8219TIP3    H224603   6.147   1.172   1.149
 8220TIP3   OH224604   8.059   4.901   4.017
 8220TIP3    H124605   8.148   4.905   4.052
 8220TIP3    H224606   8.062   4.955   3.938
 8221TIP3   OH224607   6.554   1.176   0.621
 8221TIP3    H124608   6.580   1.249   0.677
 8221TIP3    H224609   6.515   1.112   0.681
 8222TIP3   OH224610   4.414   5.993   4.666
 8222TIP3    H124611   4.482   6.032   4.720
 8222TIP3    H224612   4.357   6.066   4.642
 8223TIP3   OH224613   3.743   5.238   4.954
 8223TIP3    H124614   3.830   5.274   4.973
 8223TIP3    H224615   3.699   5.236   5.039
 8224TIP3   OH224616   0.269   4.927   2.269
 8224TIP3    H124617   0.299   5.002   2.218
 8224TIP3    H224618   0.349   4.891   2.308
 8225TIP3   OH224619   8.029   4.858   5.663
 8225TIP3    H124620   8.046   4.869   5.570
 8225TIP3    H224621   8.098   4.908   5.707
 8226TIP3   OH224622   7.196   6.243   2.172
 8226TIP3    H124623   7.239   6.161   2.144
 8226TIP3    H224624   7.266   6.308   2.168
 8227TIP3   OH224625   6.108   5.170   5.399
 8227TIP3    H124626   6.042   5.102   5.402
 8227TIP3    H224627   6.141   5.175   5.489
 8228TIP3   OH224628   3.255   0.672   2.274
 8228TIP3    H124629   3.308   0.733   2.326
 8228TIP3    H224630   3.319   0.619   2.226
 8229TIP3   OH224631   6.967   2.409   5.177
 8229TIP3    H124632   7.006   2.495   5.162
 8229TIP3    H224633   6.875   2.419   5.153
 8230TIP3   OH224634   8.219   6.103   0.142
 8230TIP3    H124635   8.210   6.147   0.226
 8230TIP3    H224636   8.269   6.163   0.088
 8231TIP3   OH224637   1.913   1.641   2.794
 8231TIP3    H124638   1.915   1.624   2.700
 8231TIP3    H224639   1.866   1.566   2.831
 8232TIP3   OH224640   2.750   7.074   4.967
 8232TIP3    H124641   2.729   7.077   5.060
 8232TIP3    H224642   2.839   7.038   4.964
 8233TIP3   OH224643   0.942   5.493   3.717
 8233TIP3    H124644   0.963   5.402   3.696
 8233TIP3    H224645   0.906   5.529   3.636
 8234TIP3   OH224646   0.894   0.254   2.906
 8234TIP3    H124647   0.988   0.240   2.917
 8234TIP3    H224648   0.868   0.302   2.985
 8235TIP3   OH224649   7.616   6.764   3.043
 8235TIP3    H124650   7.703   6.726   3.047
 8235TIP3    H224651   7.560   6.694   3.009
 8236TIP3   OH224652   5.284   4.961   5.782
 8236TIP3    H124653   5.282   5.051   5.815
 8236TIP3    H224654   5.337   4.913   5.846
 8237TIP3   OH224655   7.753   6.939   1.950
 8237TIP3    H124656   7.758   7.029   1.983
 8237TIP3    H224657   7.662   6.929   1.924
 8238TIP3   OH224658   0.037   4.377   6.530
 8238TIP3    H124659   0.021   4.428   6.451
 8238TIP3    H224660   0.132   4.367   6.534
 8239TIP3   OH224661   2.040   4.455   0.694
 8239TIP3    H124662   1.948   4.467   0.718
 8239TIP3    H224663   2.075   4.544   0.690
 8240TIP3   OH224664   6.468   0.815   4.243
 8240TIP3    H124665   6.447   0.723   4.230
 8240TIP3    H224666   6.494   0.846   4.156
 8241TIP3   OH224667   4.685   4.294   6.688
 8241TIP3    H124668   4.606   4.240   6.692
 8241TIP3    H224669   4.741   4.251   6.623
 8242TIP3   OH224670   6.673   2.984   5.905
 8242TIP3    H124671   6.614   3.052   5.874
 8242TIP3    H224672   6.636   2.956   5.989
 8243TIP3   OH224673   7.217   1.455   1.989
 8243TIP3    H124674   7.233   1.362   1.974
 8243TIP3    H224675   7.220   1.495   1.902
 8244TIP3   OH224676   5.165   0.697   2.539
 8244TIP3    H124677   5.137   0.762   2.475
 8244TIP3    H224678   5.191   0.621   2.487
 8245TIP3   OH224679   1.214   5.044   0.956
 8245TIP3    H124680   1.256   4.982   0.897
 8245TIP3    H224681   1.203   5.123   0.904
 8246TIP3   OH224682   5.043   5.840   1.999
 8246TIP3    H124683   5.013   5.853   1.909
 8246TIP3    H224684   4.964   5.850   2.052
 8247TIP3   OH224685   6.887   6.047   2.285
 8247TIP3    H124686   6.963   5.990   2.295
 8247TIP3    H224687   6.861   6.037   2.193
 8248TIP3   OH224688   7.136   5.556   3.255
 8248TIP3    H124689   7.062   5.616   3.259
 8248TIP3    H224690   7.195   5.585   3.325
 8249TIP3   OH224691   7.315   0.366   3.299
 8249TIP3    H124692   7.336   0.293   3.241
 8249TIP3    H224693   7.383   0.430   3.283
 8250TIP3   OH224694   3.121   0.690   0.098
 8250TIP3    H124695   3.196   0.671   0.154
 8250TIP3    H224696   3.048   0.703   0.159
 8251TIP3   OH224697   6.260   3.051   5.565
 8251TIP3    H124698   6.336   3.105   5.543
 8251TIP3    H224699   6.297   2.969   5.598
 8252TIP3   OH224700   7.225   7.675   2.365
 8252TIP3    H124701   7.320   7.673   2.379
 8252TIP3    H224702   7.215   7.669   2.270
 8253TIP3   OH224703   0.809   7.381  -0.008
 8253TIP3    H124704   0.795   7.290   0.017
 8253TIP3    H224705   0.879   7.412   0.050
 8254TIP3   OH224706   2.601   2.831   3.752
 8254TIP3    H124707   2.565   2.767   3.813
 8254TIP3    H224708   2.696   2.822   3.762
 8255TIP3   OH224709   4.698   4.791   6.092
 8255TIP3    H124710   4.739   4.756   6.013
 8255TIP3    H224711   4.655   4.871   6.063
 8256TIP3   OH224712   8.043   4.783   0.908
 8256TIP3    H124713   8.061   4.821   0.994
 8256TIP3    H224714   8.024   4.858   0.852
 8257TIP3   OH224715   4.113   0.193   5.062
 8257TIP3    H124716   4.124   0.215   4.970
 8257TIP3    H224717   4.196   0.154   5.087
 8258TIP3   OH224718   7.058   2.252   3.491
 8258TIP3    H124719   7.061   2.333   3.542
 8258TIP3    H224720   7.072   2.183   3.555
 8259TIP3   OH224721   2.150   6.251   1.098
 8259TIP3    H124722   2.060   6.229   1.074
 8259TIP3    H224723   2.141   6.328   1.154
 8260TIP3   OH224724   7.310   1.879   6.043
 8260TIP3    H124725   7.372   1.807   6.038
 8260TIP3    H224726   7.235   1.844   6.092
 8261TIP3   OH224727   3.106   4.611   3.811
 8261TIP3    H124728   3.191   4.628   3.771
 8261TIP3    H224729   3.052   4.580   3.738
 8262TIP3   OH224730   3.600   2.140   4.487
 8262TIP3    H124731   3.536   2.203   4.521
 8262TIP3    H224732   3.647   2.187   4.418
 8263TIP3   OH224733   0.769   3.761   1.326
 8263TIP3    H124734   0.718   3.713   1.391
 8263TIP3    H224735   0.783   3.699   1.255
 8264TIP3   OH224736   5.849   2.801   2.748
 8264TIP3    H124737   5.876   2.881   2.792
 8264TIP3    H224738   5.774   2.827   2.695
 8265TIP3   OH224739   8.299   0.527   6.672
 8265TIP3    H124740   8.319   0.444   6.715
 8265TIP3    H224741   8.206   0.542   6.690
 8266TIP3   OH224742   3.469   3.417   4.899
 8266TIP3    H124743   3.374   3.427   4.891
 8266TIP3    H224744   3.501   3.420   4.809
 8267TIP3   OH224745   4.826   3.400   0.326
 8267TIP3    H124746   4.797   3.424   0.414
 8267TIP3    H224747   4.870   3.479   0.294
 8268TIP3   OH224748   8.197   6.762   1.491
 8268TIP3    H124749   8.202   6.754   1.587
 8268TIP3    H224750   8.200   6.671   1.460
 8269TIP3   OH224751   5.939   1.106   5.919
 8269TIP3    H124752   5.934   1.112   6.014
 8269TIP3    H224753   5.866   1.049   5.894
 8270TIP3   OH224754   7.800   5.247   2.963
 8270TIP3    H124755   7.728   5.242   3.027
 8270TIP3    H224756   7.879   5.247   3.016
 8271TIP3   OH224757   4.102   3.295   3.081
 8271TIP3    H124758   4.125   3.251   3.163
 8271TIP3    H224759   4.079   3.384   3.107
 8272TIP3   OH224760   1.421   3.333   3.521
 8272TIP3    H124761   1.499   3.364   3.476
 8272TIP3    H224762   1.454   3.290   3.600
 8273TIP3   OH224763   2.006   3.790   4.028
 8273TIP3    H124764   1.983   3.715   3.973
 8273TIP3    H224765   2.086   3.824   3.988
 8274TIP3   OH224766   4.192   5.795   6.622
 8274TIP3    H124767   4.114   5.814   6.571
 8274TIP3    H224768   4.259   5.774   6.557
 8275TIP3   OH224769   3.943   5.227   6.766
 8275TIP3    H124770   3.936   5.273   6.682
 8275TIP3    H224771   3.913   5.291   6.830
 8276TIP3   OH224772   5.255   3.040   6.400
 8276TIP3    H124773   5.227   3.129   6.420
 8276TIP3    H224774   5.343   3.033   6.439
 8277TIP3   OH224775   2.110   3.348   6.080
 8277TIP3    H124776   2.133   3.255   6.081
 8277TIP3    H224777   2.164   3.387   6.149
 8278TIP3   OH224778   2.027   4.136   6.248
 8278TIP3    H124779   1.965   4.066   6.227
 8278TIP3    H224780   2.014   4.152   6.342
 8279TIP3   OH224781   5.006   2.571   5.602
 8279TIP3    H124782   5.090   2.549   5.642
 8279TIP3    H224783   4.967   2.634   5.663
 8280TIP3   OH224784   7.852   4.619   4.121
 8280TIP3    H124785   7.834   4.525   4.113
 8280TIP3    H224786   7.772   4.662   4.091
 8281TIP3   OH224787   7.231   2.961   1.532
 8281TIP3    H124788   7.239   2.891   1.596
 8281TIP3    H224789   7.137   2.981   1.529
 8282TIP3   OH224790   8.039   6.558   2.151
 8282TIP3    H124791   7.972   6.621   2.124
 8282TIP3    H224792   8.094   6.606   2.213
 8283TIP3   OH224793   0.200   0.888   5.754
 8283TIP3    H124794   0.113   0.855   5.775
 8283TIP3    H224795   0.189   0.932   5.669
 8284TIP3   OH224796   4.898   7.140   0.457
 8284TIP3    H124797   4.984   7.166   0.423
 8284TIP3    H224798   4.837   7.203   0.420
 8285TIP3   OH224799   8.076   6.992   0.589
 8285TIP3    H124800   8.159   6.958   0.554
 8285TIP3    H224801   8.053   6.932   0.660
 8286TIP3   OH224802   7.868   1.752   3.224
 8286TIP3    H124803   7.914   1.748   3.307
 8286TIP3    H224804   7.916   1.692   3.167
 8287TIP3   OH224805   6.730   1.471   3.163
 8287TIP3    H124806   6.757   1.434   3.247
 8287TIP3    H224807   6.649   1.426   3.141
 8288TIP3   OH224808   1.785   6.046   6.041
 8288TIP3    H124809   1.702   6.074   6.003
 8288TIP3    H224810   1.815   5.975   5.984
 8289TIP3   OH224811   2.656   1.411   5.712
 8289TIP3    H124812   2.735   1.365   5.683
 8289TIP3    H224813   2.661   1.496   5.669
 8290TIP3   OH224814   0.802   6.255   2.098
 8290TIP3    H124815   0.796   6.160   2.110
 8290TIP3    H224816   0.818   6.289   2.186
 8291TIP3   OH224817   8.193   4.445   2.126
 8291TIP3    H124818   8.136   4.483   2.193
 8291TIP3    H224819   8.245   4.380   2.173
 8292TIP3   OH224820   7.032   0.055   3.950
 8292TIP3    H124821   6.995  -0.033   3.948
 8292TIP3    H224822   6.982   0.104   3.885
 8293TIP3   OH224823   3.203   3.563   2.301
 8293TIP3    H124824   3.292   3.596   2.294
 8293TIP3    H224825   3.212   3.475   2.337
 8294TIP3   OH224826   5.679   2.316   1.064
 8294TIP3    H124827   5.684   2.324   1.159
 8294TIP3    H224828   5.593   2.275   1.048
 8295TIP3   OH224829   0.981   4.645   6.357
 8295TIP3    H124830   0.983   4.683   6.269
 8295TIP3    H224831   1.026   4.710   6.411
 8296TIP3   OH224832   5.915   5.870   1.932
 8296TIP3    H124833   5.859   5.932   1.979
 8296TIP3    H224834   5.937   5.804   1.997
 8297TIP3   OH224835   5.594   3.177   4.353
 8297TIP3    H124836   5.627   3.256   4.396
 8297TIP3    H224837   5.501   3.193   4.341
 8298TIP3   OH224838   2.257   6.020   6.004
 8298TIP3    H124839   2.211   5.942   6.037
 8298TIP3    H224840   2.192   6.090   6.010
 8299TIP3   OH224841   0.385   4.023   5.245
 8299TIP3    H124842   0.410   4.033   5.153
 8299TIP3    H224843   0.453   4.070   5.293
 8300TIP3   OH224844   4.268   3.201   5.456
 8300TIP3    H124845   4.276   3.280   5.509
 8300TIP3    H224846   4.240   3.133   5.518
 8301TIP3   OH224847   0.277   7.625   6.075
 8301TIP3    H124848   0.189   7.607   6.109
 8301TIP3    H224849   0.263   7.653   5.985
 8302TIP3   OH224850   5.686   2.385   5.564
 8302TIP3    H124851   5.739   2.426   5.496
 8302TIP3    H224852   5.721   2.296   5.572
 8303TIP3   OH224853   4.766   0.069  -0.006
 8303TIP3    H124854   4.825   0.143  -0.022
 8303TIP3    H224855   4.789   0.039   0.082
 8304TIP3   OH224856   7.241   3.110   0.301
 8304TIP3    H124857   7.261   3.053   0.228
 8304TIP3    H224858   7.304   3.086   0.369
 8305TIP3   OH224859   0.452   6.923   6.341
 8305TIP3    H124860   0.468   6.856   6.407
 8305TIP3    H224861   0.411   6.876   6.268
 8306TIP3   OH224862   3.817   3.321   3.163
 8306TIP3    H124863   3.791   3.413   3.169
 8306TIP3    H224864   3.898   3.316   3.213
 8307TIP3   OH224865   6.220   0.989   4.288
 8307TIP3    H124866   6.187   1.014   4.374
 8307TIP3    H224867   6.310   0.959   4.305
 8308TIP3   OH224868   6.329   5.155   1.593
 8308TIP3    H124869   6.382   5.082   1.624
 8308TIP3    H224870   6.276   5.180   1.669
 8309TIP3   OH224871   0.402   0.132   5.704
 8309TIP3    H124872   0.384   0.220   5.672
 8309TIP3    H224873   0.317   0.097   5.729
 8310TIP3   OH224874   8.240   0.639   5.406
 8310TIP3    H124875   8.151   0.638   5.440
 8310TIP3    H224876   8.295   0.624   5.482
 8311TIP3   OH224877   7.028   4.986   3.577
 8311TIP3    H124878   6.983   4.930   3.514
 8311TIP3    H224879   6.958   5.022   3.632
 8312TIP3   OH224880   2.368   0.043   3.778
 8312TIP3    H124881   2.307  -0.007   3.725
 8312TIP3    H224882   2.363   0.132   3.743
 8313TIP3   OH224883   5.745   4.050   0.504
 8313TIP3    H124884   5.817   3.987   0.503
 8313TIP3    H224885   5.750   4.091   0.591
 8314TIP3   OH224886   6.200   2.194   3.149
 8314TIP3    H124887   6.207   2.192   3.244
 8314TIP3    H224888   6.206   2.102   3.122
 8315TIP3   OH224889   6.959   3.444   5.514
 8315TIP3    H124890   7.053   3.458   5.503
 8315TIP3    H224891   6.923   3.533   5.522
 8316TIP3   OH224892   6.066   7.557   1.643
 8316TIP3    H124893   6.016   7.612   1.703
 8316TIP3    H224894   6.156   7.588   1.651
 8317TIP3   OH224895   0.556   7.639   1.245
 8317TIP3    H124896   0.622   7.707   1.235
 8317TIP3    H224897   0.602   7.566   1.286
 8318TIP3   OH224898   1.846   1.566   5.313
 8318TIP3    H124899   1.802   1.651   5.308
 8318TIP3    H224900   1.775   1.502   5.313
 8319TIP3   OH224901   4.934   4.543   2.371
 8319TIP3    H124902   4.885   4.621   2.396
 8319TIP3    H224903   4.919   4.481   2.442
 8320TIP3   OH224904   6.153   4.458   5.175
 8320TIP3    H124905   6.146   4.498   5.261
 8320TIP3    H224906   6.238   4.413   5.176
 8321TIP3   OH224907   5.022   7.171   2.965
 8321TIP3    H124908   5.078   7.222   2.906
 8321TIP3    H224909   4.965   7.121   2.907
 8322TIP3   OH224910   1.343   4.046   3.076
 8322TIP3    H124911   1.273   4.103   3.107
 8322TIP3    H224912   1.399   4.103   3.023
 8323TIP3   OH224913   3.743   2.655   6.239
 8323TIP3    H124914   3.725   2.638   6.147
 8323TIP3    H224915   3.779   2.572   6.272
 8324TIP3   OH224916   2.204   6.844   0.462
 8324TIP3    H124917   2.114   6.811   0.468
 8324TIP3    H224918   2.231   6.856   0.553
 8325TIP3   OH224919   7.682   7.676   5.097
 8325TIP3    H124920   7.735   7.691   5.019
 8325TIP3    H224921   7.739   7.704   5.169
 8326TIP3   OH224922   1.303   0.594   3.537
 8326TIP3    H124923   1.312   0.574   3.631
 8326TIP3    H224924   1.388   0.631   3.513
 8327TIP3   OH224925   3.760   0.027   0.630
 8327TIP3    H124926   3.691  -0.039   0.635
 8327TIP3    H224927   3.722   0.105   0.671
 8328TIP3   OH224928   1.867   7.426   2.919
 8328TIP3    H124929   1.867   7.404   3.012
 8328TIP3    H224930   1.905   7.514   2.916
 8329TIP3   OH224931   7.182   1.772   0.773
 8329TIP3    H124932   7.145   1.734   0.853
 8329TIP3    H224933   7.208   1.696   0.721
 8330TIP3   OH224934   2.795   5.477   4.148
 8330TIP3    H124935   2.742   5.406   4.184
 8330TIP3    H224936   2.882   5.439   4.138
 8331TIP3   OH224937   1.653   0.235   0.966
 8331TIP3    H124938   1.701   0.154   0.948
 8331TIP3    H224939   1.697   0.271   1.043
 8332TIP3   OH224940   0.625   1.445   1.199
 8332TIP3    H124941   0.571   1.439   1.278
 8332TIP3    H224942   0.627   1.539   1.179
 8333TIP3   OH224943   4.400   5.269   5.381
 8333TIP3    H124944   4.350   5.207   5.435
 8333TIP3    H224945   4.352   5.273   5.299
 8334TIP3   OH224946   5.387   7.206   4.307
 8334TIP3    H124947   5.384   7.152   4.386
 8334TIP3    H224948   5.401   7.143   4.236
 8335TIP3   OH224949   7.815   6.005   4.587
 8335TIP3    H124950   7.802   6.089   4.632
 8335TIP3    H224951   7.782   5.939   4.648
 8336TIP3   OH224952   2.968   6.795   6.660
 8336TIP3    H124953   2.924   6.876   6.684
 8336TIP3    H224954   3.001   6.810   6.572
 8337TIP3   OH224955   3.691   4.503   4.606
 8337TIP3    H124956   3.711   4.586   4.563
 8337TIP3    H224957   3.741   4.505   4.687
 8338TIP3   OH224958   5.510   1.352   0.255
 8338TIP3    H124959   5.427   1.395   0.235
 8338TIP3    H224960   5.521   1.288   0.185
 8339TIP3   OH224961   7.974   3.661   6.315
 8339TIP3    H124962   7.954   3.581   6.268
 8339TIP3    H224963   7.923   3.729   6.270
 8340TIP3   OH224964   4.864   4.360   4.830
 8340TIP3    H124965   4.873   4.389   4.921
 8340TIP3    H224966   4.933   4.295   4.819
 8341TIP3   OH224967   7.548   2.477   4.655
 8341TIP3    H124968   7.501   2.394   4.663
 8341TIP3    H224969   7.559   2.507   4.745
 8342TIP3   OH224970   3.748   4.591   3.834
 8342TIP3    H124971   3.734   4.630   3.748
 8342TIP3    H224972   3.667   4.607   3.882
 8343TIP3   OH224973   3.634   3.618   5.714
 8343TIP3    H124974   3.596   3.543   5.668
 8343TIP3    H224975   3.691   3.660   5.649
 8344TIP3   OH224976   7.920   1.065   3.040
 8344TIP3    H124977   7.963   1.022   2.966
 8344TIP3    H224978   7.905   0.994   3.103
 8345TIP3   OH224979   1.475   5.857   0.033
 8345TIP3    H124980   1.445   5.931  -0.020
 8345TIP3    H224981   1.568   5.848   0.012
 8346TIP3   OH224982   5.300   6.859   3.943
 8346TIP3    H124983   5.348   6.778   3.922
 8346TIP3    H224984   5.240   6.870   3.869
 8347TIP3   OH224985   1.487   1.224   2.730
 8347TIP3    H124986   1.539   1.176   2.665
 8347TIP3    H224987   1.448   1.297   2.681
 8348TIP3   OH224988   7.484   3.687   2.403
 8348TIP3    H124989   7.502   3.678   2.309
 8348TIP3    H224990   7.504   3.778   2.423
 8349TIP3   OH224991   4.604   4.864   1.824
 8349TIP3    H124992   4.545   4.833   1.756
 8349TIP3    H224993   4.632   4.784   1.869
 8350TIP3   OH224994   6.988   5.450   0.818
 8350TIP3    H124995   6.967   5.453   0.725
 8350TIP3    H224996   6.932   5.380   0.853
 8351TIP3   OH224997   4.063   4.679   3.230
 8351TIP3    H124998   4.042   4.595   3.269
 8351TIP3    H224999   4.004   4.687   3.155
 8352TIP3   OH225000   5.255   5.690   3.854
 8352TIP3    H125001   5.168   5.727   3.862
 8352TIP3    H225002   5.262   5.627   3.926
 8353TIP3   OH225003   1.198   7.753   5.527
 8353TIP3    H125004   1.283   7.767   5.567
 8353TIP3    H225005   1.186   7.828   5.469
 8354TIP3   OH225006   0.246   5.690   1.616
 8354TIP3    H125007   0.207   5.768   1.576
 8354TIP3    H225008   0.245   5.708   1.710
 8355TIP3   OH225009   8.164   4.489   0.336
 8355TIP3    H125010   8.221   4.565   0.329
 8355TIP3    H225011   8.174   4.460   0.427
 8356TIP3   OH225012   1.998   2.927   3.364
 8356TIP3    H125013   2.019   2.879   3.444
 8356TIP3    H225014   2.080   2.967   3.337
 8357TIP3   OH225015   4.637   4.402   1.144
 8357TIP3    H125016   4.600   4.473   1.196
 8357TIP3    H225017   4.703   4.443   1.089
 8358TIP3   OH225018   3.981   6.369   0.213
 8358TIP3    H125019   4.045   6.437   0.190
 8358TIP3    H225020   3.920   6.367   0.139
 8359TIP3   OH225021   0.890   7.227   5.974
 8359TIP3    H125022   0.924   7.308   5.936
 8359TIP3    H225023   0.886   7.244   6.068
 8360TIP3   OH225024   0.912   3.989   0.661
 8360TIP3    H125025   0.820   3.966   0.651
 8360TIP3    H225026   0.959   3.910   0.635
 8361TIP3   OH225027   5.865   4.659   4.171
 8361TIP3    H125028   5.959   4.674   4.186
 8361TIP3    H225029   5.821   4.727   4.221
 8362TIP3   OH225030   4.334   7.547   0.173
 8362TIP3    H125031   4.363   7.576   0.260
 8362TIP3    H225032   4.278   7.617   0.142
 8363TIP3   OH225033   6.247   2.673   2.932
 8363TIP3    H125034   6.227   2.589   2.973
 8363TIP3    H225035   6.285   2.650   2.848
 8364TIP3   OH225036   5.626   4.498   2.239
 8364TIP3    H125037   5.599   4.421   2.289
 8364TIP3    H225038   5.631   4.468   2.148
 8365TIP3   OH225039   2.227   1.854   2.254
 8365TIP3    H125040   2.282   1.786   2.215
 8365TIP3    H225041   2.271   1.936   2.233
 8366TIP3   OH225042   2.977   2.815   1.874
 8366TIP3    H125043   2.999   2.751   1.941
 8366TIP3    H225044   2.900   2.779   1.830
 8367TIP3   OH225045   5.780   1.011   6.764
 8367TIP3    H125046   5.847   0.989   6.700
 8367TIP3    H225047   5.722   1.072   6.718
 8368TIP3   OH225048   6.430   1.597   5.888
 8368TIP3    H125049   6.472   1.511   5.892
 8368TIP3    H225050   6.502   1.659   5.902
 8369TIP3   OH225051   7.419   7.581   2.061
 8369TIP3    H125052   7.332   7.572   2.023
 8369TIP3    H225053   7.458   7.656   2.016
 8370TIP3   OH225054   3.159   0.767   3.603
 8370TIP3    H125055   3.129   0.831   3.537
 8370TIP3    H225056   3.140   0.682   3.563
 8371TIP3   OH225057   2.182   5.355   4.773
 8371TIP3    H125058   2.157   5.426   4.714
 8371TIP3    H225059   2.278   5.357   4.774
 8372TIP3   OH225060   3.965   3.622   5.474
 8372TIP3    H125061   3.874   3.652   5.467
 8372TIP3    H225062   3.991   3.603   5.384
 8373TIP3   OH225063   4.095   1.102   0.101
 8373TIP3    H125064   4.059   1.036   0.160
 8373TIP3    H225065   4.165   1.056   0.054
 8374TIP3   OH225066   1.257   2.950   5.278
 8374TIP3    H125067   1.191   2.929   5.344
 8374TIP3    H225068   1.212   2.939   5.194
 8375TIP3   OH225069   6.585   7.657   6.373
 8375TIP3    H125070   6.495   7.678   6.399
 8375TIP3    H225071   6.610   7.729   6.315
 8376TIP3   OH225072   1.179   3.251   0.488
 8376TIP3    H125073   1.240   3.179   0.472
 8376TIP3    H225074   1.151   3.240   0.579
 8377TIP3   OH225075   3.479   1.758   6.452
 8377TIP3    H125076   3.537   1.805   6.513
 8377TIP3    H225077   3.510   1.784   6.365
 8378TIP3   OH225078   2.758   0.703   2.366
 8378TIP3    H125079   2.676   0.750   2.352
 8378TIP3    H225080   2.825   0.761   2.331
 8379TIP3   OH225081   3.467   2.369   4.639
 8379TIP3    H125082   3.550   2.355   4.683
 8379TIP3    H225083   3.402   2.330   4.698
 8380TIP3   OH225084   1.138   7.212   6.277
 8380TIP3    H125085   1.161   7.148   6.344
 8380TIP3    H225086   1.067   7.263   6.317
 8381TIP3   OH225087   5.515   1.956   4.932
 8381TIP3    H125088   5.560   1.879   4.898
 8381TIP3    H225089   5.545   2.028   4.878
 8382TIP3   OH225090   6.240   5.993   4.029
 8382TIP3    H125091   6.182   5.932   3.982
 8382TIP3    H225092   6.185   6.028   4.099
 8383TIP3   OH225093   4.429   1.520   3.026
 8383TIP3    H125094   4.432   1.546   2.933
 8383TIP3    H225095   4.519   1.527   3.056
 8384TIP3   OH225096   3.084   4.675   1.868
 8384TIP3    H125097   3.044   4.746   1.917
 8384TIP3    H225098   3.010   4.632   1.824
 8385TIP3   OH225099   8.200   2.252   3.045
 8385TIP3    H125100   8.200   2.156   3.055
 8385TIP3    H225101   8.107   2.275   3.043
 8386TIP3   OH225102   0.315   6.014   5.496
 8386TIP3    H125103   0.382   6.063   5.448
 8386TIP3    H225104   0.306   6.061   5.579
 8387TIP3   OH225105   4.539   2.087   0.478
 8387TIP3    H125106   4.481   2.111   0.406
 8387TIP3    H225107   4.561   2.171   0.520
 8388TIP3   OH225108   2.226   2.484   1.147
 8388TIP3    H125109   2.133   2.463   1.155
 8388TIP3    H225110   2.264   2.410   1.100
 8389TIP3   OH225111   7.823   2.267   1.257
 8389TIP3    H125112   7.841   2.260   1.351
 8389TIP3    H225113   7.843   2.358   1.235
 8390TIP3   OH225114   1.189   4.776   5.880
 8390TIP3    H125115   1.188   4.694   5.930
 8390TIP3    H225116   1.162   4.750   5.792
 8391TIP3   OH225117   1.547   2.596   5.967
 8391TIP3    H125118   1.466   2.565   6.008
 8391TIP3    H225119   1.593   2.516   5.941
 8392TIP3   OH225120   3.711   6.101   0.185
 8392TIP3    H125121   3.720   6.117   0.279
 8392TIP3    H225122   3.725   6.187   0.145
 8393TIP3   OH225123   2.054   0.801   2.333
 8393TIP3    H125124   2.029   0.894   2.336
 8393TIP3    H225125   2.022   0.771   2.248
 8394TIP3   OH225126   1.526   7.454   4.789
 8394TIP3    H125127   1.497   7.458   4.880
 8394TIP3    H225128   1.510   7.542   4.755
 8395TIP3   OH225129   8.235   0.255   4.224
 8395TIP3    H125130   8.177   0.202   4.279
 8395TIP3    H225131   8.223   0.345   4.255
 8396TIP3   OH225132   4.441   7.443   2.725
 8396TIP3    H125133   4.501   7.449   2.651
 8396TIP3    H225134   4.372   7.383   2.695
 8397TIP3   OH225135   2.093   6.840   2.459
 8397TIP3    H125136   2.092   6.923   2.413
 8397TIP3    H225137   2.001   6.817   2.469
 8398TIP3   OH225138   4.080   0.854   2.496
 8398TIP3    H125139   4.020   0.841   2.569
 8398TIP3    H225140   4.047   0.796   2.428
 8399TIP3   OH225141   3.820   3.115   2.336
 8399TIP3    H125142   3.911   3.139   2.352
 8399TIP3    H225143   3.825   3.040   2.276
 8400TIP3   OH225144   4.905   4.275   3.885
 8400TIP3    H125145   4.834   4.339   3.880
 8400TIP3    H225146   4.960   4.293   3.810
 8401TIP3   OH225147   3.696   4.822   5.632
 8401TIP3    H125148   3.706   4.727   5.629
 8401TIP3    H225149   3.624   4.840   5.572
 8402TIP3   OH225150   2.230   4.561   5.779
 8402TIP3    H125151   2.294   4.592   5.715
 8402TIP3    H225152   2.169   4.633   5.788
 8403TIP3   OH225153   2.960   3.304   6.356
 8403TIP3    H125154   2.957   3.326   6.449
 8403TIP3    H225155   2.930   3.213   6.352
 8404TIP3   OH225156   3.129   0.088   3.011
 8404TIP3    H125157   3.192   0.150   2.973
 8404TIP3    H225158   3.118   0.021   2.943
 8405TIP3   OH225159   0.626   2.296   3.276
 8405TIP3    H125160   0.551   2.284   3.218
 8405TIP3    H225161   0.681   2.219   3.261
 8406TIP3   OH225162   7.919   1.962   5.485
 8406TIP3    H125163   7.879   2.032   5.433
 8406TIP3    H225164   7.961   1.905   5.420
 8407TIP3   OH225165   3.099   3.009   3.092
 8407TIP3    H125166   3.069   3.083   3.040
 8407TIP3    H225167   3.179   2.979   3.049
 8408TIP3   OH225168   1.430   5.033   4.900
 8408TIP3    H125169   1.476   5.090   4.962
 8408TIP3    H225170   1.426   5.085   4.820
 8409TIP3   OH225171   1.566   1.131   0.575
 8409TIP3    H125172   1.617   1.135   0.494
 8409TIP3    H225173   1.525   1.044   0.574
 8410TIP3   OH225174   5.444   2.497   3.516
 8410TIP3    H125175   5.441   2.500   3.420
 8410TIP3    H225176   5.537   2.500   3.537
 8411TIP3   OH225177   2.943   2.749   6.717
 8411TIP3    H125178   3.029   2.707   6.719
 8411TIP3    H225179   2.897   2.706   6.645
 8412TIP3   OH225180   6.465   7.005   3.427
 8412TIP3    H125181   6.502   6.920   3.448
 8412TIP3    H225182   6.461   7.051   3.511
 8413TIP3   OH225183   1.063   5.695   1.740
 8413TIP3    H125184   0.980   5.655   1.769
 8413TIP3    H225185   1.107   5.625   1.692
 8414TIP3   OH225186   5.042   3.629   3.329
 8414TIP3    H125187   5.110   3.611   3.264
 8414TIP3    H225188   5.089   3.670   3.402
 8415TIP3   OH225189   3.990   4.429   3.329
 8415TIP3    H125190   4.070   4.396   3.370
 8415TIP3    H225191   3.934   4.454   3.403
 8416TIP3   OH225192   5.665   4.474   3.291
 8416TIP3    H125193   5.636   4.521   3.370
 8416TIP3    H225194   5.690   4.543   3.230
 8417TIP3   OH225195   2.397   4.251   4.945
 8417TIP3    H125196   2.423   4.267   4.855
 8417TIP3    H225197   2.313   4.295   4.954
 8418TIP3   OH225198   2.349   7.708   3.777
 8418TIP3    H125199   2.338   7.641   3.844
 8418TIP3    H225200   2.440   7.700   3.748
 8419TIP3   OH225201   2.609   0.725   3.973
 8419TIP3    H125202   2.696   0.751   4.004
 8419TIP3    H225203   2.575   0.804   3.930
 8420TIP3   OH225204   2.382   1.597   5.969
 8420TIP3    H125205   2.379   1.555   6.055
 8420TIP3    H225206   2.469   1.637   5.966
 8421TIP3   OH225207   4.265   6.204   4.557
 8421TIP3    H125208   4.194   6.217   4.495
 8421TIP3    H225209   4.345   6.214   4.505
 8422TIP3   OH225210   5.172   5.010   1.562
 8422TIP3    H125211   5.224   4.988   1.639
 8422TIP3    H225212   5.177   4.931   1.507
 8423TIP3   OH225213   5.623   0.004   0.766
 8423TIP3    H125214   5.696   0.040   0.714
 8423TIP3    H225215   5.545   0.032   0.719
 8424TIP3   OH225216   7.630   5.236   0.843
 8424TIP3    H125217   7.566   5.167   0.861
 8424TIP3    H225218   7.635   5.240   0.748
 8425TIP3   OH225219   0.013   0.514   5.183
 8425TIP3    H125220   0.003   0.540   5.274
 8425TIP3    H225221   0.025   0.597   5.136
 8426TIP3   OH225222   7.661   1.674   5.637
 8426TIP3    H125223   7.570   1.677   5.607
 8426TIP3    H225224   7.712   1.661   5.557
 8427TIP3   OH225225   2.065   5.071   3.617
 8427TIP3    H125226   2.135   5.119   3.574
 8427TIP3    H225227   1.986   5.094   3.569
 8428TIP3   OH225228   0.612   3.597   2.686
 8428TIP3    H125229   0.541   3.548   2.645
 8428TIP3    H225230   0.568   3.654   2.749
 8429TIP3   OH225231   0.060   6.307   3.590
 8429TIP3    H125232   0.125   6.269   3.649
 8429TIP3    H225233  -0.012   6.244   3.589
 8430TIP3   OH225234   2.827   0.609   0.699
 8430TIP3    H125235   2.808   0.695   0.662
 8430TIP3    H225236   2.889   0.626   0.770
 8431TIP3   OH225237   5.806   3.891   2.543
 8431TIP3    H125238   5.711   3.886   2.551
 8431TIP3    H225239   5.835   3.800   2.547
 8432TIP3   OH225240   6.152   0.513   4.316
 8432TIP3    H125241   6.138   0.419   4.304
 8432TIP3    H225242   6.077   0.554   4.274
 8433TIP3   OH225243   3.157   1.163   1.352
 8433TIP3    H125244   3.223   1.231   1.364
 8433TIP3    H225245   3.172   1.131   1.263
 8434TIP3   OH225246   3.365   7.467   4.396
 8434TIP3    H125247   3.368   7.376   4.424
 8434TIP3    H225248   3.315   7.512   4.464
 8435TIP3   OH225249   4.948   2.593   5.084
 8435TIP3    H125250   5.004   2.618   5.011
 8435TIP3    H225251   4.967   2.500   5.098
 8436TIP3   OH225252   3.348   1.660   3.173
 8436TIP3    H125253   3.369   1.701   3.257
 8436TIP3    H225254   3.366   1.567   3.187
 8437TIP3   OH225255   6.872   3.829   6.802
 8437TIP3    H125256   6.871   3.907   6.746
 8437TIP3    H225257   6.917   3.762   6.750
 8438TIP3   OH225258   7.145   3.424   1.735
 8438TIP3    H125259   7.109   3.355   1.791
 8438TIP3    H225260   7.163   3.380   1.652
 8439TIP3   OH225261   5.022   3.338   4.419
 8439TIP3    H125262   4.979   3.378   4.494
 8439TIP3    H225263   4.974   3.371   4.343
 8440TIP3   OH225264   4.258   7.475   5.005
 8440TIP3    H125265   4.262   7.555   4.953
 8440TIP3    H225266   4.181   7.486   5.061
 8441TIP3   OH225267   7.335   4.031   0.232
 8441TIP3    H125268   7.257   4.084   0.243
 8441TIP3    H225269   7.307   3.942   0.257
 8442TIP3   OH225270   2.472   0.520   5.147
 8442TIP3    H125271   2.465   0.476   5.232
 8442TIP3    H225272   2.544   0.582   5.157
 8443TIP3   OH225273   2.357   4.458   6.646
 8443TIP3    H125274   2.404   4.484   6.726
 8443TIP3    H225275   2.406   4.384   6.612
 8444TIP3   OH225276   1.353   5.928   4.072
 8444TIP3    H125277   1.431   5.881   4.042
 8444TIP3    H225278   1.294   5.860   4.104
 8445TIP3   OH225279   5.195   3.212   3.151
 8445TIP3    H125280   5.261   3.268   3.192
 8445TIP3    H225281   5.112   3.239   3.191
 8446TIP3   OH225282   2.618   1.520   0.205
 8446TIP3    H125283   2.670   1.581   0.152
 8446TIP3    H225284   2.529   1.529   0.172
 8447TIP3   OH225285   3.217   2.038   2.746
 8447TIP3    H125286   3.289   2.014   2.806
 8447TIP3    H225287   3.146   1.978   2.768
 8448TIP3   OH225288   5.632   5.115   4.771
 8448TIP3    H125289   5.546   5.099   4.734
 8448TIP3    H225290   5.638   5.210   4.778
 8449TIP3   OH225291   7.290   7.491   3.774
 8449TIP3    H125292   7.359   7.456   3.718
 8449TIP3    H225293   7.262   7.417   3.827
 8450TIP3   OH225294   0.889   2.267   1.855
 8450TIP3    H125295   0.900   2.361   1.865
 8450TIP3    H225296   0.974   2.230   1.879
 8451TIP3   OH225297   4.503   5.419   2.878
 8451TIP3    H125298   4.547   5.379   2.953
 8451TIP3    H225299   4.494   5.511   2.902
 8452TIP3   OH225300   2.012   4.992   3.093
 8452TIP3    H125301   1.944   4.944   3.140
 8452TIP3    H225302   2.068   5.028   3.161
 8453TIP3   OH225303   6.158   3.557   2.973
 8453TIP3    H125304   6.219   3.496   2.931
 8453TIP3    H225305   6.165   3.537   3.066
 8454TIP3   OH225306   3.801   2.635   3.051
 8454TIP3    H125307   3.745   2.606   3.123
 8454TIP3    H225308   3.748   2.623   2.972
 8455TIP3   OH225309   3.449   5.698   6.149
 8455TIP3    H125310   3.367   5.703   6.100
 8455TIP3    H225311   3.424   5.660   6.233
 8456TIP3   OH225312   5.703   6.192   0.748
 8456TIP3    H125313   5.716   6.282   0.718
 8456TIP3    H225314   5.655   6.201   0.830
 8457TIP3   OH225315   0.517   6.938   3.747
 8457TIP3    H125316   0.459   6.873   3.787
 8457TIP3    H225317   0.504   6.927   3.653
 8458TIP3   OH225318   3.854   6.154   5.635
 8458TIP3    H125319   3.928   6.195   5.680
 8458TIP3    H225320   3.802   6.115   5.705
 8459TIP3   OH225321   2.041   7.211   4.495
 8459TIP3    H125322   2.100   7.267   4.445
 8459TIP3    H225323   1.995   7.271   4.554
 8460TIP3   OH225324   0.683   2.513   4.911
 8460TIP3    H125325   0.745   2.528   4.840
 8460TIP3    H225326   0.641   2.430   4.888
 8461TIP3   OH225327   7.285   3.668   4.673
 8461TIP3    H125328   7.309   3.718   4.595
 8461TIP3    H225329   7.369   3.639   4.710
 8462TIP3   OH225330   8.033   2.685   4.192
 8462TIP3    H125331   8.097   2.722   4.253
 8462TIP3    H225332   8.039   2.590   4.206
 8463TIP3   OH225333   3.304   3.389   1.335
 8463TIP3    H125334   3.395   3.382   1.362
 8463TIP3    H225335   3.257   3.332   1.396
 8464TIP3   OH225336   4.410   1.587   0.796
 8464TIP3    H125337   4.376   1.612   0.882
 8464TIP3    H225338   4.332   1.583   0.740
 8465TIP3   OH225339   2.500   1.167   4.658
 8465TIP3    H125340   2.487   1.126   4.743
 8465TIP3    H225341   2.569   1.232   4.673
 8466TIP3   OH225342   3.063   2.411   6.500
 8466TIP3    H125343   2.980   2.435   6.542
 8466TIP3    H225344   3.037   2.383   6.412
 8467TIP3   OH225345   2.932   2.586   1.377
 8467TIP3    H125346   2.884   2.582   1.460
 8467TIP3    H225347   2.915   2.674   1.344
 8468TIP3   OH225348   7.218   2.784   4.750
 8468TIP3    H125349   7.151   2.716   4.746
 8468TIP3    H225350   7.185   2.853   4.693
 8469TIP3   OH225351   1.248   3.984   0.549
 8469TIP3    H125352   1.200   4.046   0.495
 8469TIP3    H225353   1.301   4.039   0.607
 8470TIP3   OH225354   7.175   7.284   3.374
 8470TIP3    H125355   7.166   7.315   3.464
 8470TIP3    H225356   7.189   7.364   3.322
 8471TIP3   OH225357   5.010   3.451   2.958
 8471TIP3    H125358   5.001   3.514   3.029
 8471TIP3    H225359   5.016   3.366   3.001
 8472TIP3   OH225360   6.111   1.727   3.859
 8472TIP3    H125361   6.153   1.794   3.912
 8472TIP3    H225362   6.092   1.770   3.776
 8473TIP3   OH225363   0.123   3.912   1.329
 8473TIP3    H125364   0.102   3.955   1.411
 8473TIP3    H225365   0.216   3.928   1.317
 8474TIP3   OH225366   4.815   1.822   6.315
 8474TIP3    H125367   4.738   1.772   6.343
 8474TIP3    H225368   4.846   1.776   6.236
 8475TIP3   OH225369   4.616   3.246   3.048
 8475TIP3    H125370   4.527   3.229   3.078
 8475TIP3    H225371   4.606   3.312   2.980
 8476TIP3   OH225372   4.564   3.910   2.430
 8476TIP3    H125373   4.594   3.820   2.426
 8476TIP3    H225374   4.601   3.945   2.511
 8477TIP3   OH225375   8.028   0.627   0.117
 8477TIP3    H125376   7.978   0.610   0.197
 8477TIP3    H225377   8.120   0.629   0.146
 8478TIP3   OH225378   4.811   2.654   4.765
 8478TIP3    H125379   4.895   2.636   4.722
 8478TIP3    H225380   4.835   2.698   4.847
 8479TIP3   OH225381   4.445   2.281   2.499
 8479TIP3    H125382   4.501   2.211   2.466
 8479TIP3    H225383   4.397   2.312   2.423
 8480TIP3   OH225384   3.051   7.127   3.458
 8480TIP3    H125385   3.067   7.222   3.460
 8480TIP3    H225386   2.963   7.119   3.419
 8481TIP3   OH225387   6.585   1.402   4.503
 8481TIP3    H125388   6.574   1.463   4.575
 8481TIP3    H225389   6.533   1.325   4.529
 8482TIP3   OH225390   4.249   5.635   3.830
 8482TIP3    H125391   4.227   5.550   3.871
 8482TIP3    H225392   4.308   5.613   3.758
 8483TIP3   OH225393   6.104   3.082   4.737
 8483TIP3    H125394   6.151   2.999   4.742
 8483TIP3    H225395   6.172   3.146   4.712
 8484TIP3   OH225396   3.474   0.845   3.873
 8484TIP3    H125397   3.481   0.922   3.930
 8484TIP3    H225398   3.386   0.810   3.891
 8485TIP3   OH225399   4.191   3.860   2.626
 8485TIP3    H125400   4.194   3.770   2.594
 8485TIP3    H225401   4.274   3.872   2.671
 8486TIP3   OH225402   4.877   3.125   5.139
 8486TIP3    H125403   4.797   3.166   5.172
 8486TIP3    H225404   4.891   3.049   5.194
 8487TIP3   OH225405   6.128   3.440   5.364
 8487TIP3    H125406   6.185   3.458   5.439
 8487TIP3    H225407   6.144   3.348   5.344
 8488TIP3   OH225408   1.528   3.981   0.334
 8488TIP3    H125409   1.457   3.916   0.327
 8488TIP3    H225410   1.553   3.979   0.426
 8489TIP3   OH225411   2.900   6.055   0.676
 8489TIP3    H125412   2.846   6.119   0.722
 8489TIP3    H225413   2.838   6.003   0.625
 8490TIP3   OH225414   6.642   0.962   0.225
 8490TIP3    H125415   6.653   0.955   0.320
 8490TIP3    H225416   6.595   0.883   0.200
 8491TIP3   OH225417   6.056   5.796   3.935
 8491TIP3    H125418   5.975   5.834   3.969
 8491TIP3    H225419   6.050   5.703   3.957
 8492TIP3   OH225420   3.464   6.932   1.275
 8492TIP3    H125421   3.543   6.888   1.243
 8492TIP3    H225422   3.493   7.020   1.297
 8493TIP3   OH225423   2.332   4.891   1.723
 8493TIP3    H125424   2.289   4.928   1.646
 8493TIP3    H225425   2.263   4.882   1.788
 8494TIP3   OH225426   0.420   7.128   5.377
 8494TIP3    H125427   0.412   7.223   5.386
 8494TIP3    H225428   0.462   7.100   5.458
 8495TIP3   OH225429   5.820   1.420   1.989
 8495TIP3    H125430   5.882   1.493   1.990
 8495TIP3    H225431   5.874   1.344   2.011
 8496TIP3   OH225432   6.432   2.744   2.422
 8496TIP3    H125433   6.347   2.716   2.456
 8496TIP3    H225434   6.449   2.828   2.466
 8497TIP3   OH225435   4.422   1.436   6.789
 8497TIP3    H125436   4.378   1.520   6.775
 8497TIP3    H225437   4.403   1.386   6.709
 8498TIP3   OH225438   3.903   4.765   1.934
 8498TIP3    H125439   3.865   4.800   1.852
 8498TIP3    H225440   3.991   4.801   1.937
 8499TIP3   OH225441   0.259   1.461   0.041
 8499TIP3    H125442   0.305   1.542   0.017
 8499TIP3    H225443   0.207   1.484   0.118
 8500TIP3   OH225444   4.133   2.832   0.424
 8500TIP3    H125445   4.100   2.759   0.371
 8500TIP3    H225446   4.055   2.881   0.448
 8501TIP3   OH225447   4.461   5.413   4.502
 8501TIP3    H125448   4.494   5.490   4.457
 8501TIP3    H225449   4.515   5.341   4.469
 8502TIP3   OH225450   5.832   4.060   5.336
 8502TIP3    H125451   5.854   4.005   5.261
 8502TIP3    H225452   5.915   4.100   5.361
 8503TIP3   OH225453   6.414   6.166   2.532
 8503TIP3    H125454   6.414   6.092   2.593
 8503TIP3    H225455   6.321   6.182   2.513
 8504TIP3   OH225456   0.887   3.453   5.068
 8504TIP3    H125457   0.941   3.499   5.132
 8504TIP3    H225458   0.798   3.484   5.084
 8505TIP3   OH225459   4.739   2.905   6.663
 8505TIP3    H125460   4.832   2.920   6.644
 8505TIP3    H225461   4.738   2.878   6.755
 8506TIP3   OH225462   3.693   4.292   1.687
 8506TIP3    H125463   3.615   4.308   1.635
 8506TIP3    H225464   3.748   4.369   1.672
 8507TIP3   OH225465   6.251   1.861   3.112
 8507TIP3    H125466   6.265   1.791   3.176
 8507TIP3    H225467   6.311   1.842   3.040
 8508TIP3   OH225468   2.141   5.316   3.829
 8508TIP3    H125469   2.053   5.310   3.792
 8508TIP3    H225470   2.177   5.397   3.792
 8509TIP3   OH225471   1.640   5.970   3.480
 8509TIP3    H125472   1.587   6.046   3.504
 8509TIP3    H225473   1.580   5.896   3.488
 8510TIP3   OH225474   1.082   1.908   2.236
 8510TIP3    H125475   1.079   1.860   2.153
 8510TIP3    H225476   1.032   1.989   2.218
 8511TIP3   OH225477   8.047   6.337   3.110
 8511TIP3    H125478   8.058   6.291   3.027
 8511TIP3    H225479   8.065   6.429   3.090
 8512TIP3   OH225480   2.182   5.604   3.130
 8512TIP3    H125481   2.235   5.534   3.168
 8512TIP3    H225482   2.238   5.681   3.133
 8513TIP3   OH225483   1.104   2.211   5.885
 8513TIP3    H125484   1.073   2.126   5.916
 8513TIP3    H225485   1.167   2.240   5.951
 8514TIP3   OH225486   2.309   3.637   2.408
 8514TIP3    H125487   2.308   3.711   2.470
 8514TIP3    H225488   2.291   3.560   2.462
 8515TIP3   OH225489   0.624   5.767   1.724
 8515TIP3    H125490   0.676   5.687   1.725
 8515TIP3    H225491   0.674   5.829   1.778
 8516TIP3   OH225492   6.506   0.180   2.642
 8516TIP3    H125493   6.426   0.134   2.668
 8516TIP3    H225494   6.515   0.162   2.548
 8517TIP3   OH225495   7.313   2.376   4.962
 8517TIP3    H125496   7.408   2.373   4.954
 8517TIP3    H225497   7.297   2.350   5.053
 8518TIP3   OH225498   5.974   2.575   6.775
 8518TIP3    H125499   5.916   2.606   6.845
 8518TIP3    H225500   5.951   2.483   6.764
 8519TIP3   OH225501   7.649   0.518   6.724
 8519TIP3    H125502   7.695   0.601   6.734
 8519TIP3    H225503   7.691   0.476   6.650
 8520TIP3   OH225504   1.341   1.692   1.355
 8520TIP3    H125505   1.350   1.608   1.309
 8520TIP3    H225506   1.332   1.756   1.285
 8521TIP3   OH225507   7.459   4.332   2.012
 8521TIP3    H125508   7.533   4.279   1.981
 8521TIP3    H225509   7.423   4.282   2.085
 8522TIP3   OH225510   2.681   6.655   6.591
 8522TIP3    H125511   2.697   6.748   6.610
 8522TIP3    H225512   2.748   6.633   6.526
 8523TIP3   OH225513   5.466   6.875   6.572
 8523TIP3    H125514   5.377   6.842   6.577
 8523TIP3    H225515   5.457   6.970   6.572
 8524TIP3   OH225516   1.352   6.664   0.615
 8524TIP3    H125517   1.263   6.697   0.601
 8524TIP3    H225518   1.400   6.689   0.535
 8525TIP3   OH225519   3.722   2.929   3.476
 8525TIP3    H125520   3.718   2.842   3.435
 8525TIP3    H225521   3.720   2.990   3.402
 8526TIP3   OH225522   2.095   2.070   1.641
 8526TIP3    H125523   2.012   2.023   1.636
 8526TIP3    H225524   2.161   2.001   1.652
 8527TIP3   OH225525   7.882   0.489   4.282
 8527TIP3    H125526   7.864   0.515   4.372
 8527TIP3    H225527   7.828   0.411   4.269
 8528TIP3   OH225528   6.781   2.966   4.407
 8528TIP3    H125529   6.851   2.931   4.351
 8528TIP3    H225530   6.816   3.049   4.439
 8529TIP3   OH225531   0.709   5.281   3.016
 8529TIP3    H125532   0.756   5.208   2.977
 8529TIP3    H225533   0.733   5.278   3.109
 8530TIP3   OH225534   1.800   2.596   1.299
 8530TIP3    H125535   1.861   2.617   1.370
 8530TIP3    H225536   1.717   2.633   1.328
 8531TIP3   OH225537   5.155   6.273   1.130
 8531TIP3    H125538   5.085   6.323   1.088
 8531TIP3    H225539   5.235   6.315   1.100
 8532TIP3   OH225540   7.686   3.762   5.597
 8532TIP3    H125541   7.729   3.846   5.581
 8532TIP3    H225542   7.669   3.727   5.509
 8533TIP3   OH225543   7.028   7.263   1.525
 8533TIP3    H125544   7.118   7.264   1.558
 8533TIP3    H225545   7.003   7.170   1.526
 8534TIP3   OH225546   3.867   4.134   3.402
 8534TIP3    H125547   3.840   4.192   3.474
 8534TIP3    H225548   3.836   4.179   3.323
 8535TIP3   OH225549   4.926   4.305   3.015
 8535TIP3    H125550   4.929   4.398   3.040
 8535TIP3    H225551   4.855   4.268   3.068
 8536TIP3   OH225552   7.839   3.877   2.829
 8536TIP3    H125553   7.829   3.847   2.739
 8536TIP3    H225554   7.869   3.799   2.877
 8537TIP3   OH225555   7.090   2.573   4.952
 8537TIP3    H125556   7.161   2.510   4.939
 8537TIP3    H225557   7.044   2.576   4.867
 8538TIP3   OH225558   4.482   2.467   5.243
 8538TIP3    H125559   4.410   2.487   5.182
 8538TIP3    H225560   4.561   2.497   5.198
 8539TIP3   OH225561   2.143   1.631   5.162
 8539TIP3    H125562   2.098   1.548   5.143
 8539TIP3    H225563   2.088   1.698   5.122
 8540TIP3   OH225564   7.027   4.809   4.002
 8540TIP3    H125565   7.091   4.784   3.934
 8540TIP3    H225566   6.980   4.883   3.964
 8541TIP3   OH225567   8.127   2.157   3.450
 8541TIP3    H125568   8.173   2.235   3.418
 8541TIP3    H225569   8.034   2.179   3.442
 8542TIP3   OH225570   2.203   2.596   0.399
 8542TIP3    H125571   2.222   2.629   0.487
 8542TIP3    H225572   2.125   2.541   0.410
 8543TIP3   OH225573   2.768   5.189   4.738
 8543TIP3    H125574   2.778   5.158   4.648
 8543TIP3    H225575   2.722   5.118   4.783
 8544TIP3   OH225576   1.111   6.949   5.898
 8544TIP3    H125577   1.149   6.876   5.848
 8544TIP3    H225578   1.022   6.921   5.916
 8545TIP3   OH225579   6.710   5.842   2.427
 8545TIP3    H125580   6.776   5.795   2.479
 8545TIP3    H225581   6.759   5.909   2.381
 8546TIP3   OH225582   2.851   7.685   1.888
 8546TIP3    H125583   2.832   7.668   1.796
 8546TIP3    H225584   2.795   7.759   1.911
 8547TIP3   OH225585   5.937   2.101   2.834
 8547TIP3    H125586   5.950   2.035   2.902
 8547TIP3    H225587   5.888   2.171   2.877
 8548TIP3   OH225588   6.966   1.762   4.217
 8548TIP3    H125589   6.978   1.842   4.269
 8548TIP3    H225590   6.980   1.791   4.126
 8549TIP3   OH225591   4.424   3.632   3.693
 8549TIP3    H125592   4.331   3.651   3.703
 8549TIP3    H225593   4.468   3.710   3.728
 8550TIP3   OH225594   1.858   5.093   1.769
 8550TIP3    H125595   1.861   5.178   1.726
 8550TIP3    H225596   1.767   5.082   1.797
 8551TIP3   OH225597   7.076   6.779   1.185
 8551TIP3    H125598   7.169   6.797   1.171
 8551TIP3    H225599   7.032   6.861   1.163
 8552TIP3   OH225600   7.704   7.415   0.735
 8552TIP3    H125601   7.700   7.478   0.663
 8552TIP3    H225602   7.638   7.349   0.712
 8553TIP3   OH225603   7.575   5.334   6.115
 8553TIP3    H125604   7.535   5.381   6.189
 8553TIP3    H225605   7.512   5.264   6.094
 8554TIP3   OH225606   4.430   2.984   3.092
 8554TIP3    H125607   4.372   3.048   3.051
 8554TIP3    H225608   4.408   2.901   3.051
 8555TIP3   OH225609   5.420   6.910   2.388
 8555TIP3    H125610   5.404   7.004   2.395
 8555TIP3    H225611   5.508   6.904   2.352
 8556TIP3   OH225612   4.740   4.214   4.208
 8556TIP3    H125613   4.649   4.200   4.236
 8556TIP3    H225614   4.767   4.129   4.174
 8557TIP3   OH225615   3.847   6.297   2.778
 8557TIP3    H125616   3.853   6.381   2.733
 8557TIP3    H225617   3.777   6.250   2.732
 8558TIP3   OH225618   2.703   3.334   6.748
 8558TIP3    H125619   2.709   3.241   6.726
 8558TIP3    H225620   2.755   3.342   6.828
 8559TIP3   OH225621   1.341   7.789   6.558
 8559TIP3    H125622   1.412   7.730   6.533
 8559TIP3    H225623   1.262   7.748   6.524
 8560TIP3   OH225624   1.039   3.963   5.156
 8560TIP3    H125625   1.094   3.984   5.081
 8560TIP3    H225626   1.093   3.908   5.212
 8561TIP3   OH225627   0.037   7.087   1.411
 8561TIP3    H125628   0.042   7.180   1.390
 8561TIP3    H225629   0.126   7.054   1.398
 8562TIP3   OH225630   4.977   3.865   2.786
 8562TIP3    H125631   5.022   3.830   2.864
 8562TIP3    H225632   5.017   3.818   2.713
 8563TIP3   OH225633   1.446   3.775   3.081
 8563TIP3    H125634   1.482   3.786   3.169
 8563TIP3    H225635   1.411   3.862   3.059
 8564TIP3   OH225636   7.207   4.443   4.981
 8564TIP3    H125637   7.297   4.442   4.950
 8564TIP3    H225638   7.185   4.352   4.997
 8565TIP3   OH225639   7.566   7.811   0.603
 8565TIP3    H125640   7.471   7.810   0.612
 8565TIP3    H225641   7.583   7.872   0.532
 8566TIP3   OH225642   5.138   6.202   4.235
 8566TIP3    H125643   5.074   6.230   4.169
 8566TIP3    H225644   5.115   6.253   4.313
 8567TIP3   OH225645   5.053   3.619   5.560
 8567TIP3    H125646   5.110   3.662   5.624
 8567TIP3    H225647   4.979   3.587   5.612
 8568TIP3   OH225648   1.908   4.642   4.659
 8568TIP3    H125649   1.922   4.602   4.573
 8568TIP3    H225650   1.911   4.569   4.721
 8569TIP3   OH225651   2.782   3.135   2.509
 8569TIP3    H125652   2.695   3.172   2.515
 8569TIP3    H225653   2.802   3.135   2.415
 8570TIP3   OH225654   7.761   5.696   1.292
 8570TIP3    H125655   7.719   5.653   1.218
 8570TIP3    H225656   7.757   5.632   1.363
 8571TIP3   OH225657   2.801   6.061   1.057
 8571TIP3    H125658   2.810   6.151   1.026
 8571TIP3    H225659   2.730   6.065   1.122
 8572TIP3   OH225660   5.034   1.541   1.941
 8572TIP3    H125661   5.121   1.574   1.965
 8572TIP3    H225662   5.042   1.521   1.847
 8573TIP3   OH225663   8.420   1.998   1.245
 8573TIP3    H125664   8.399   1.932   1.178
 8573TIP3    H225665   8.366   2.073   1.223
 8574TIP3   OH225666   4.533   1.675   6.600
 8574TIP3    H125667   4.457   1.661   6.656
 8574TIP3    H225668   4.521   1.763   6.564
 8575TIP3   OH225669   7.041   3.132   0.060
 8575TIP3    H125670   7.003   3.046   0.043
 8575TIP3    H225671   7.114   3.115   0.119
 8576TIP3   OH225672   1.771   5.088   6.265
 8576TIP3    H125673   1.777   5.015   6.326
 8576TIP3    H225674   1.711   5.058   6.197
 8577TIP3   OH225675   2.175   4.779   3.345
 8577TIP3    H125676   2.238   4.749   3.280
 8577TIP3    H225677   2.211   4.863   3.376
 8578TIP3   OH225678   7.756   6.809   6.346
 8578TIP3    H125679   7.675   6.795   6.297
 8578TIP3    H225680   7.813   6.736   6.319
 8579TIP3   OH225681   4.259   1.022   5.412
 8579TIP3    H125682   4.190   0.980   5.464
 8579TIP3    H225683   4.321   0.952   5.392
 8580TIP3   OH225684   8.007   7.303   6.489
 8580TIP3    H125685   8.029   7.218   6.453
 8580TIP3    H225686   7.948   7.284   6.562
 8581TIP3   OH225687   4.528   0.781   1.585
 8581TIP3    H125688   4.621   0.798   1.571
 8581TIP3    H225689   4.527   0.700   1.637
 8582TIP3   OH225690   2.301   5.031   0.492
 8582TIP3    H125691   2.391   5.016   0.464
 8582TIP3    H225692   2.309   5.058   0.584
 8583TIP3   OH225693   2.694   3.194   5.996
 8583TIP3    H125694   2.616   3.250   5.989
 8583TIP3    H225695   2.742   3.210   5.915
 8584TIP3   OH225696   7.444   2.143   1.984
 8584TIP3    H125697   7.433   2.132   1.890
 8584TIP3    H225698   7.539   2.141   1.998
 8585TIP3   OH225699   3.904   4.538   3.601
 8585TIP3    H125700   3.969   4.496   3.657
 8585TIP3    H225701   3.901   4.628   3.631
 8586TIP3   OH225702   7.726   3.535   1.903
 8586TIP3    H125703   7.797   3.484   1.864
 8586TIP3    H225704   7.648   3.511   1.852
 8587TIP3   OH225705   2.599   6.761   2.352
 8587TIP3    H125706   2.639   6.674   2.355
 8587TIP3    H225707   2.549   6.767   2.434
 8588TIP3   OH225708   0.322   2.705   4.652
 8588TIP3    H125709   0.309   2.615   4.622
 8588TIP3    H225710   0.331   2.697   4.747
 8589TIP3   OH225711   4.361   3.797   4.705
 8589TIP3    H125712   4.270   3.826   4.707
 8589TIP3    H225713   4.400   3.836   4.783
 8590TIP3   OH225714   6.241   2.428   6.479
 8590TIP3    H125715   6.255   2.480   6.558
 8590TIP3    H225716   6.185   2.483   6.424
 8591TIP3   OH225717   6.024   5.461   3.104
 8591TIP3    H125718   6.099   5.439   3.048
 8591TIP3    H225719   6.005   5.380   3.151
 8592TIP3   OH225720   1.273   7.395   6.452
 8592TIP3    H125721   1.281   7.353   6.537
 8592TIP3    H225722   1.230   7.330   6.397
 8593TIP3   OH225723   2.916   4.403   2.273
 8593TIP3    H125724   2.835   4.365   2.306
 8593TIP3    H225725   2.889   4.486   2.234
 8594TIP3   OH225726   4.550   5.370   3.825
 8594TIP3    H125727   4.455   5.369   3.839
 8594TIP3    H225728   4.560   5.355   3.731
 8595TIP3   OH225729   1.086   2.009   4.446
 8595TIP3    H125730   1.038   1.930   4.470
 8595TIP3    H225731   1.025   2.081   4.462
 8596TIP3   OH225732   2.361   2.248   1.110
 8596TIP3    H125733   2.440   2.295   1.086
 8596TIP3    H225734   2.368   2.164   1.065
 8597TIP3   OH225735   2.129   2.249   0.509
 8597TIP3    H125736   2.185   2.292   0.574
 8597TIP3    H225737   2.190   2.221   0.441
 8598TIP3   OH225738   2.519   4.422   2.489
 8598TIP3    H125739   2.446   4.399   2.432
 8598TIP3    H225740   2.594   4.373   2.454
 8599TIP3   OH225741   0.823   0.745   4.499
 8599TIP3    H125742   0.735   0.782   4.497
 8599TIP3    H225743   0.813   0.656   4.464
 8600TIP3   OH225744   6.458   1.602   1.512
 8600TIP3    H125745   6.456   1.670   1.445
 8600TIP3    H225746   6.416   1.526   1.471
 8601TIP3   OH225747   7.588   4.563   2.080
 8601TIP3    H125748   7.505   4.610   2.092
 8601TIP3    H225749   7.562   4.475   2.054
 8602TIP3   OH225750   3.416   3.071   1.820
 8602TIP3    H125751   3.392   3.039   1.907
 8602TIP3    H225752   3.504   3.107   1.831
 8603TIP3   OH225753   2.199   7.103   2.386
 8603TIP3    H125754   2.185   7.135   2.296
 8603TIP3    H225755   2.287   7.068   2.385
 8604TIP3   OH225756   4.353   4.484   1.905
 8604TIP3    H125757   4.340   4.544   1.831
 8604TIP3    H225758   4.434   4.437   1.883
 8605TIP3   OH225759   3.010   1.538   6.473
 8605TIP3    H125760   3.042   1.449   6.460
 8605TIP3    H225761   2.917   1.534   6.449
 8606TIP3   OH225762   1.265   1.495   3.532
 8606TIP3    H125763   1.290   1.482   3.441
 8606TIP3    H225764   1.347   1.486   3.581
 8607TIP3   OH225765   4.902   4.512   0.321
 8607TIP3    H125766   4.944   4.449   0.380
 8607TIP3    H225767   4.829   4.548   0.372
 8608TIP3   OH225768   0.398   1.696   0.640
 8608TIP3    H125769   0.308   1.726   0.648
 8608TIP3    H225770   0.446   1.743   0.707
 8609TIP3   OH225771   2.346   1.256   0.245
 8609TIP3    H125772   2.372   1.184   0.188
 8609TIP3    H225773   2.347   1.334   0.189
 8610TIP3   OH225774   3.552   1.145   1.587
 8610TIP3    H125775   3.646   1.158   1.599
 8610TIP3    H225776   3.544   1.112   1.498
 8611TIP3   OH225777   7.509   1.493   1.222
 8611TIP3    H125778   7.456   1.483   1.301
 8611TIP3    H225779   7.475   1.572   1.180
 8612TIP3   OH225780   5.581   1.064   0.097
 8612TIP3    H125781   5.564   1.131   0.031
 8612TIP3    H225782   5.668   1.085   0.130
 8613TIP3   OH225783   2.250   1.330   6.710
 8613TIP3    H125784   2.195   1.322   6.632
 8613TIP3    H225785   2.199   1.289   6.780
 8614TIP3   OH225786   6.487   1.197   1.447
 8614TIP3    H125787   6.409   1.250   1.428
 8614TIP3    H225788   6.560   1.250   1.416
 8615TIP3   OH225789   1.488   3.770   5.280
 8615TIP3    H125790   1.525   3.795   5.365
 8615TIP3    H225791   1.525   3.834   5.218
 8616TIP3   OH225792   3.345   3.603   3.941
 8616TIP3    H125793   3.378   3.542   4.006
 8616TIP3    H225794   3.331   3.550   3.863
 8617TIP3   OH225795   0.823   0.960   6.718
 8617TIP3    H125796   0.799   0.870   6.738
 8617TIP3    H225797   0.817   0.967   6.623
 8618TIP3   OH225798   1.689   6.735   1.326
 8618TIP3    H125799   1.700   6.812   1.270
 8618TIP3    H225800   1.729   6.664   1.275
 8619TIP3   OH225801   6.599   7.799   2.170
 8619TIP3    H125802   6.684   7.757   2.181
 8619TIP3    H225803   6.614   7.869   2.106
 8620TIP3   OH225804   7.355   0.422   0.536
 8620TIP3    H125805   7.383   0.332   0.549
 8620TIP3    H225806   7.423   0.461   0.481
 8621TIP3   OH225807   0.459   2.291   5.082
 8621TIP3    H125808   0.372   2.257   5.061
 8621TIP3    H225809   0.443   2.357   5.149
 8622TIP3   OH225810   7.710   7.430   2.909
 8622TIP3    H125811   7.636   7.373   2.888
 8622TIP3    H225812   7.743   7.397   2.992
 8623TIP3   OH225813   7.452   5.364   5.138
 8623TIP3    H125814   7.529   5.402   5.181
 8623TIP3    H225815   7.406   5.319   5.208
 8624TIP3   OH225816   0.685   5.281   1.684
 8624TIP3    H125817   0.744   5.320   1.748
 8624TIP3    H225818   0.714   5.316   1.600
 8625TIP3   OH225819   3.304   2.139   4.687
 8625TIP3    H125820   3.228   2.134   4.744
 8625TIP3    H225821   3.271   2.170   4.603
 8626TIP3   OH225822   3.664   3.258   5.638
 8626TIP3    H125823   3.577   3.218   5.639
 8626TIP3    H225824   3.680   3.278   5.546
 8627TIP3   OH225825   3.933   2.526   4.345
 8627TIP3    H125826   4.017   2.559   4.313
 8627TIP3    H225827   3.869   2.565   4.285
 8628TIP3   OH225828   3.188   4.148   5.316
 8628TIP3    H125829   3.102   4.106   5.308
 8628TIP3    H225830   3.226   4.138   5.229
 8629TIP3   OH225831   1.815   1.308   4.404
 8629TIP3    H125832   1.891   1.350   4.443
 8629TIP3    H225833   1.844   1.219   4.385
 8630TIP3   OH225834   6.638   5.660   3.661
 8630TIP3    H125835   6.544   5.656   3.641
 8630TIP3    H225836   6.647   5.604   3.738
 8631TIP3   OH225837   2.292   5.821   0.093
 8631TIP3    H125838   2.229   5.857   0.031
 8631TIP3    H225839   2.296   5.727   0.074
 8632TIP3   OH225840   6.768   5.370   2.438
 8632TIP3    H125841   6.790   5.321   2.518
 8632TIP3    H225842   6.838   5.348   2.377
 8633TIP3   OH225843   3.155   6.602   4.577
 8633TIP3    H125844   3.142   6.558   4.661
 8633TIP3    H225845   3.099   6.553   4.516
 8634TIP3   OH225846   6.112   2.189   2.165
 8634TIP3    H125847   6.097   2.125   2.234
 8634TIP3    H225848   6.187   2.240   2.196
 8635TIP3   OH225849   6.717   5.087   4.901
 8635TIP3    H125850   6.716   5.171   4.949
 8635TIP3    H225851   6.775   5.031   4.952
 8636TIP3   OH225852   7.696   3.798   1.802
 8636TIP3    H125853   7.665   3.733   1.866
 8636TIP3    H225854   7.756   3.748   1.746
 8637TIP3   OH225855   6.673   6.406   1.420
 8637TIP3    H125856   6.588   6.421   1.461
 8637TIP3    H225857   6.737   6.423   1.489
 8638TIP3   OH225858   5.277   1.856   6.690
 8638TIP3    H125859   5.273   1.828   6.599
 8638TIP3    H225860   5.202   1.914   6.702
 8639TIP3   OH225861   3.667   2.055   2.805
 8639TIP3    H125862   3.683   2.103   2.886
 8639TIP3    H225863   3.578   2.021   2.814
 8640TIP3   OH225864   2.381   6.744   6.045
 8640TIP3    H125865   2.450   6.678   6.049
 8640TIP3    H225866   2.357   6.749   5.952
 8641TIP3   OH225867   7.632   3.700   1.063
 8641TIP3    H125868   7.559   3.727   1.008
 8641TIP3    H225869   7.661   3.780   1.105
 8642TIP3   OH225870   1.189   3.709   5.586
 8642TIP3    H125871   1.171   3.619   5.612
 8642TIP3    H225872   1.282   3.721   5.602
 8643TIP3   OH225873   6.855   6.942   1.231
 8643TIP3    H125874   6.902   6.877   1.284
 8643TIP3    H225875   6.813   6.890   1.163
 8644TIP3   OH225876   3.998   3.729   4.716
 8644TIP3    H125877   3.964   3.712   4.628
 8644TIP3    H225878   4.043   3.813   4.709
 8645TIP3   OH225879   2.676   3.818   1.475
 8645TIP3    H125880   2.769   3.803   1.490
 8645TIP3    H225881   2.632   3.760   1.538
 8646TIP3   OH225882   5.195   3.489   6.096
 8646TIP3    H125883   5.250   3.448   6.162
 8646TIP3    H225884   5.190   3.425   6.026
 8647TIP3   OH225885   7.003   0.952   4.337
 8647TIP3    H125886   7.085   0.935   4.292
 8647TIP3    H225887   6.936   0.945   4.269
 8648TIP3   OH225888   7.542   7.508   4.561
 8648TIP3    H125889   7.552   7.494   4.467
 8648TIP3    H225890   7.624   7.476   4.599
 8649TIP3   OH225891   0.197   1.866   5.932
 8649TIP3    H125892   0.136   1.922   5.980
 8649TIP3    H225893   0.154   1.781   5.927
 8650TIP3   OH225894   6.349   6.988   3.958
 8650TIP3    H125895   6.330   7.077   3.986
 8650TIP3    H225896   6.362   6.940   4.040
 8651TIP3   OH225897   7.506   2.102   0.436
 8651TIP3    H125898   7.590   2.147   0.426
 8651TIP3    H225899   7.481   2.119   0.527
 8652TIP3   OH225900   1.914   5.550   1.795
 8652TIP3    H125901   1.979   5.504   1.848
 8652TIP3    H225902   1.958   5.629   1.764
 8653TIP3   OH225903   4.456   5.589   5.095
 8653TIP3    H125904   4.515   5.546   5.158
 8653TIP3    H225905   4.380   5.531   5.091
 8654TIP3   OH225906   1.889   0.830   0.872
 8654TIP3    H125907   1.889   0.785   0.787
 8654TIP3    H225908   1.841   0.911   0.856
 8655TIP3   OH225909   0.337   0.227   6.539
 8655TIP3    H125910   0.338   0.320   6.517
 8655TIP3    H225911   0.252   0.213   6.581
 8656TIP3   OH225912   6.813   2.849   3.531
 8656TIP3    H125913   6.769   2.874   3.612
 8656TIP3    H225914   6.842   2.932   3.493
 8657TIP3   OH225915   2.043   5.553   0.677
 8657TIP3    H125916   2.083   5.472   0.646
 8657TIP3    H225917   1.984   5.580   0.606
 8658TIP3   OH225918   0.322   4.681   2.447
 8658TIP3    H125919   0.414   4.700   2.425
 8658TIP3    H225920   0.302   4.741   2.519
 8659TIP3   OH225921   4.544   6.598   3.075
 8659TIP3    H125922   4.564   6.512   3.037
 8659TIP3    H225923   4.484   6.578   3.147
 8660TIP3   OH225924   4.132   1.753   2.143
 8660TIP3    H125925   4.134   1.798   2.228
 8660TIP3    H225926   4.224   1.737   2.122
 8661TIP3   OH225927   1.876   4.797   2.919
 8661TIP3    H125928   1.800   4.817   2.973
 8661TIP3    H225929   1.949   4.838   2.966
 8662TIP3   OH225930   2.648   3.807   3.051
 8662TIP3    H125931   2.686   3.720   3.040
 8662TIP3    H225932   2.708   3.865   3.004
 8663TIP3   OH225933   6.114   0.782   0.921
 8663TIP3    H125934   6.128   0.754   0.831
 8663TIP3    H225935   6.183   0.845   0.938
 8664TIP3   OH225936   6.970   5.263   6.055
 8664TIP3    H125937   6.909   5.248   5.982
 8664TIP3    H225938   6.922   5.320   6.115
 8665TIP3   OH225939   8.221   7.038   0.184
 8665TIP3    H125940   8.223   7.040   0.089
 8665TIP3    H225941   8.133   7.067   0.208
 8666TIP3   OH225942   5.682   6.052   1.896
 8666TIP3    H125943   5.733   6.122   1.856
 8666TIP3    H225944   5.591   6.076   1.880
 8667TIP3   OH225945   1.629   6.664   2.991
 8667TIP3    H125946   1.706   6.634   2.943
 8667TIP3    H225947   1.586   6.583   3.019
 8668TIP3   OH225948   6.037   1.267   3.037
 8668TIP3    H125949   6.068   1.253   2.948
 8668TIP3    H225950   5.981   1.192   3.055
 8669TIP3   OH225951   7.515   2.331   5.380
 8669TIP3    H125952   7.538   2.313   5.471
 8669TIP3    H225953   7.556   2.415   5.361
 8670TIP3   OH225954   3.702   2.100   2.212
 8670TIP3    H125955   3.627   2.059   2.254
 8670TIP3    H225956   3.702   2.066   2.123
 8671TIP3   OH225957   1.032   6.448   3.838
 8671TIP3    H125958   1.078   6.364   3.840
 8671TIP3    H225959   1.083   6.501   3.777
 8672TIP3   OH225960   1.587   2.055   4.278
 8672TIP3    H125961   1.563   2.033   4.188
 8672TIP3    H225962   1.546   1.987   4.331
 8673TIP3   OH225963   2.891   2.746   6.447
 8673TIP3    H125964   2.867   2.834   6.478
 8673TIP3    H225965   2.986   2.741   6.459
 8674TIP3   OH225966   3.403   4.133   3.197
 8674TIP3    H125967   3.450   4.195   3.253
 8674TIP3    H225968   3.345   4.188   3.144
 8675TIP3   OH225969   1.686   5.956   2.933
 8675TIP3    H125970   1.672   5.976   3.025
 8675TIP3    H225971   1.606   5.987   2.890
 8676TIP3   OH225972   3.357   7.066   6.171
 8676TIP3    H125973   3.383   7.157   6.182
 8676TIP3    H225974   3.275   7.058   6.220
 8677TIP3   OH225975   0.908   3.391   6.588
 8677TIP3    H125976   0.925   3.403   6.495
 8677TIP3    H225977   0.857   3.468   6.613
 8678TIP3   OH225978   4.648   6.293   4.908
 8678TIP3    H125979   4.646   6.290   5.004
 8678TIP3    H225980   4.631   6.203   4.880
 8679TIP3   OH225981   4.539   4.313   1.809
 8679TIP3    H125982   4.588   4.379   1.761
 8679TIP3    H225983   4.582   4.230   1.788
 8680TIP3   OH225984   7.049   2.687   6.475
 8680TIP3    H125985   7.058   2.594   6.453
 8680TIP3    H225986   6.957   2.707   6.456
 8681TIP3   OH225987   6.867   3.613   3.731
 8681TIP3    H125988   6.855   3.644   3.821
 8681TIP3    H225989   6.854   3.692   3.678
 8682TIP3   OH225990   0.259   0.511   0.695
 8682TIP3    H125991   0.184   0.452   0.706
 8682TIP3    H225992   0.304   0.508   0.779
 8683TIP3   OH225993   3.590   3.593   2.925
 8683TIP3    H125994   3.498   3.569   2.935
 8683TIP3    H225995   3.599   3.618   2.833
 8684TIP3   OH225996   3.260   1.282   5.066
 8684TIP3    H125997   3.317   1.240   5.002
 8684TIP3    H225998   3.275   1.235   5.148
 8685TIP3   OH225999   7.787   7.261   5.166
 8685TIP3    H126000   7.756   7.205   5.095
 8685TIP3    H226001   7.815   7.341   5.123
 8686TIP3   OH226002   3.481   0.777   1.438
 8686TIP3    H126003   3.465   0.793   1.345
 8686TIP3    H226004   3.564   0.730   1.441
 8687TIP3   OH226005   7.344   0.010   2.525
 8687TIP3    H126006   7.307   0.080   2.471
 8687TIP3    H226007   7.311   0.027   2.613
 8688TIP3   OH226008   8.071   0.619   6.334
 8688TIP3    H126009   8.087   0.688   6.270
 8688TIP3    H226010   8.076   0.538   6.283
 8689TIP3   OH226011   5.766   6.215   5.764
 8689TIP3    H126012   5.726   6.302   5.752
 8689TIP3    H226013   5.808   6.196   5.680
 8690TIP3   OH226014   1.103   2.354   1.557
 8690TIP3    H126015   1.041   2.407   1.507
 8690TIP3    H226016   1.049   2.287   1.599
 8691TIP3   OH226017   5.831   7.221   5.272
 8691TIP3    H126018   5.813   7.230   5.366
 8691TIP3    H226019   5.842   7.127   5.259
 8692TIP3   OH226020   4.726   2.244   0.745
 8692TIP3    H126021   4.814   2.213   0.769
 8692TIP3    H226022   4.669   2.170   0.762
 8693TIP3   OH226023   4.357   3.234   1.497
 8693TIP3    H126024   4.282   3.190   1.536
 8693TIP3    H226025   4.362   3.319   1.542
 8694TIP3   OH226026   5.923   5.100   4.401
 8694TIP3    H126027   5.890   5.186   4.427
 8694TIP3    H226028   6.006   5.090   4.448
 8695TIP3   OH226029   4.032   7.230   5.238
 8695TIP3    H126030   3.969   7.280   5.186
 8695TIP3    H226031   4.089   7.296   5.277
 8696TIP3   OH226032   4.451   6.416   5.288
 8696TIP3    H126033   4.413   6.387   5.205
 8696TIP3    H226034   4.375   6.439   5.342
 8697TIP3   OH226035   4.026   4.678   6.588
 8697TIP3    H126036   3.933   4.685   6.563
 8697TIP3    H226037   4.029   4.717   6.676
 8698TIP3   OH226038   2.168   0.183   4.386
 8698TIP3    H126039   2.193   0.143   4.470
 8698TIP3    H226040   2.208   0.125   4.321
 8699TIP3   OH226041   1.649   0.623   0.855
 8699TIP3    H126042   1.588   0.679   0.902
 8699TIP3    H226043   1.726   0.616   0.912
 8700TIP3   OH226044   2.326   0.210   1.173
 8700TIP3    H126045   2.290   0.211   1.261
 8700TIP3    H226046   2.291   0.288   1.131
 8701TIP3   OH226047   2.331   3.857   5.092
 8701TIP3    H126048   2.338   3.932   5.151
 8701TIP3    H226049   2.269   3.884   5.025
 8702TIP3   OH226050   2.435   6.351   1.750
 8702TIP3    H126051   2.449   6.372   1.842
 8702TIP3    H226052   2.523   6.343   1.713
 8703TIP3   OH226053   7.253   3.404   4.374
 8703TIP3    H126054   7.214   3.364   4.296
 8703TIP3    H226055   7.274   3.331   4.431
 8704TIP3   OH226056   4.377   4.119   4.691
 8704TIP3    H126057   4.376   4.026   4.667
 8704TIP3    H226058   4.470   4.140   4.701
 8705TIP3   OH226059   7.130   2.818   1.203
 8705TIP3    H126060   7.176   2.862   1.132
 8705TIP3    H226061   7.199   2.785   1.261
 8706TIP3   OH226062   5.768   5.924   1.644
 8706TIP3    H126063   5.733   5.835   1.656
 8706TIP3    H226064   5.751   5.968   1.727
 8707TIP3   OH226065   6.722   3.276   4.746
 8707TIP3    H126066   6.780   3.202   4.726
 8707TIP3    H226067   6.665   3.284   4.669
 8708TIP3   OH226068   6.368   5.635   0.141
 8708TIP3    H126069   6.385   5.579   0.216
 8708TIP3    H226070   6.445   5.692   0.135
 8709TIP3   OH226071   5.897   7.574   1.309
 8709TIP3    H126072   5.816   7.544   1.351
 8709TIP3    H226073   5.910   7.663   1.343
 8710TIP3   OH226074   5.460   1.217   0.576
 8710TIP3    H126075   5.495   1.164   0.504
 8710TIP3    H226076   5.482   1.307   0.553
 8711TIP3   OH226077   6.209   5.298   0.270
 8711TIP3    H126078   6.161   5.224   0.234
 8711TIP3    H226079   6.289   5.260   0.307
 8712TIP3   OH226080   4.689   2.139   0.141
 8712TIP3    H126081   4.708   2.153   0.048
 8712TIP3    H226082   4.753   2.194   0.186
 8713TIP3   OH226083   4.793   6.825   5.385
 8713TIP3    H126084   4.715   6.775   5.361
 8713TIP3    H226085   4.780   6.910   5.345
 8714TIP3   OH226086   7.836   0.973   4.222
 8714TIP3    H126087   7.748   1.006   4.204
 8714TIP3    H226088   7.856   1.006   4.310
 8715TIP3   OH226089   6.928   6.887   0.060
 8715TIP3    H126090   6.913   6.853   0.148
 8715TIP3    H226091   7.020   6.912   0.060
 8716TIP3   OH226092   4.757   2.981   2.633
 8716TIP3    H126093   4.795   3.066   2.655
 8716TIP3    H226094   4.832   2.921   2.632
 8717TIP3   OH226095   5.851   3.586   0.430
 8717TIP3    H126096   5.827   3.556   0.517
 8717TIP3    H226097   5.935   3.544   0.412
 8718TIP3   OH226098   3.307   3.883   6.091
 8718TIP3    H126099   3.319   3.788   6.093
 8718TIP3    H226100   3.329   3.908   6.001
 8719TIP3   OH226101   6.181   4.997   0.165
 8719TIP3    H126102   6.214   4.967   0.080
 8719TIP3    H226103   6.259   5.010   0.218
 8720TIP3   OH226104   1.864   2.370   5.318
 8720TIP3    H126105   1.813   2.290   5.304
 8720TIP3    H226106   1.913   2.382   5.237
 8721TIP3   OH226107   0.487   2.971   5.056
 8721TIP3    H126108   0.574   2.931   5.050
 8721TIP3    H226109   0.453   2.968   4.966
 8722TIP3   OH226110   3.573   4.817   1.666
 8722TIP3    H126111   3.528   4.841   1.586
 8722TIP3    H226112   3.503   4.801   1.729
 8723TIP3   OH226113   7.067   2.415   6.374
 8723TIP3    H126114   7.132   2.434   6.306
 8723TIP3    H226115   6.995   2.372   6.327
 8724TIP3   OH226116   4.000   0.734   5.849
 8724TIP3    H126117   3.980   0.643   5.827
 8724TIP3    H226118   4.053   0.728   5.929
 8725TIP3   OH226119   2.793   2.078   2.946
 8725TIP3    H126120   2.838   2.162   2.953
 8725TIP3    H226121   2.712   2.099   2.899
 8726TIP3   OH226122   3.029   6.856   6.102
 8726TIP3    H126123   3.097   6.807   6.056
 8726TIP3    H226124   2.985   6.906   6.034
 8727TIP3   OH226125   7.500   3.725   0.518
 8727TIP3    H126126   7.514   3.817   0.542
 8727TIP3    H226127   7.405   3.718   0.509
 8728TIP3   OH226128   7.791   6.629   6.658
 8728TIP3    H126129   7.836   6.649   6.576
 8728TIP3    H226130   7.705   6.596   6.631
 8729TIP3   OH226131   1.341   1.468   3.269
 8729TIP3    H126132   1.409   1.503   3.210
 8729TIP3    H226133   1.266   1.451   3.211
 8730TIP3   OH226134   2.391   7.811   4.510
 8730TIP3    H126135   2.348   7.807   4.596
 8730TIP3    H226136   2.484   7.801   4.530
 8731TIP3   OH226137   7.280   1.196   5.819
 8731TIP3    H126138   7.356   1.190   5.876
 8731TIP3    H226139   7.266   1.290   5.808
 8732TIP3   OH226140   4.994   4.373   5.434
 8732TIP3    H126141   5.004   4.315   5.510
 8732TIP3    H226142   4.952   4.318   5.368
 8733TIP3   OH226143   2.299   4.288   6.273
 8733TIP3    H126144   2.389   4.317   6.258
 8733TIP3    H226145   2.265   4.351   6.337
 8734TIP3   OH226146   3.277   7.200   5.047
 8734TIP3    H126147   3.363   7.157   5.043
 8734TIP3    H226148   3.245   7.182   5.135
 8735TIP3   OH226149   8.332   5.962   2.608
 8735TIP3    H126150   8.317   6.003   2.693
 8735TIP3    H226151   8.255   5.906   2.595
 8736TIP3   OH226152   1.015   4.422   5.501
 8736TIP3    H126153   0.946   4.480   5.467
 8736TIP3    H226154   1.028   4.357   5.433
 8737TIP3   OH226155   7.499   0.658   5.242
 8737TIP3    H126156   7.520   0.576   5.287
 8737TIP3    H226157   7.453   0.710   5.308
 8738TIP3   OH226158   2.702   7.223   6.364
 8738TIP3    H126159   2.622   7.174   6.382
 8738TIP3    H226160   2.762   7.157   6.326
 8739TIP3   OH226161   7.623   1.055   4.475
 8739TIP3    H126162   7.555   1.007   4.522
 8739TIP3    H226163   7.577   1.104   4.408
 8740TIP3   OH226164   4.501   6.314   1.374
 8740TIP3    H126165   4.518   6.274   1.459
 8740TIP3    H226166   4.489   6.407   1.393
 8741TIP3   OH226167   0.269   3.832   0.033
 8741TIP3    H126168   0.234   3.841   0.122
 8741TIP3    H226169   0.320   3.751   0.035
 8742TIP3   OH226170   6.054   2.414   4.155
 8742TIP3    H126171   6.125   2.472   4.126
 8742TIP3    H226172   6.090   2.326   4.146
 8743TIP3   OH226173   4.241   6.810   4.106
 8743TIP3    H126174   4.190   6.815   4.025
 8743TIP3    H226175   4.295   6.732   4.095
 8744TIP3   OH226176   5.333   5.654   4.606
 8744TIP3    H126177   5.328   5.561   4.629
 8744TIP3    H226178   5.381   5.655   4.523
 8745TIP3   OH226179   3.973   3.065   4.079
 8745TIP3    H126180   4.029   3.020   4.141
 8745TIP3    H226181   4.021   3.062   3.996
 8746TIP3   OH226182   5.467   0.716   4.787
 8746TIP3    H126183   5.472   0.720   4.692
 8746TIP3    H226184   5.423   0.796   4.813
 8747TIP3   OH226185   5.985   4.989   0.571
 8747TIP3    H126186   6.056   5.041   0.607
 8747TIP3    H226187   5.911   5.050   0.564
 8748TIP3   OH226188   5.338   5.426   6.465
 8748TIP3    H126189   5.330   5.521   6.457
 8748TIP3    H226190   5.255   5.398   6.502
 8749TIP3   OH226191   8.149   1.144   4.903
 8749TIP3    H126192   8.140   1.205   4.830
 8749TIP3    H226193   8.074   1.085   4.894
 8750TIP3   OH226194   3.469   5.008   5.913
 8750TIP3    H126195   3.412   5.046   5.846
 8750TIP3    H226196   3.498   5.083   5.965
 8751TIP3   OH226197   6.225   5.910   1.324
 8751TIP3    H126198   6.221   6.006   1.316
 8751TIP3    H226199   6.135   5.883   1.338
 8752TIP3   OH226200   6.585   3.862   0.992
 8752TIP3    H126201   6.562   3.935   1.049
 8752TIP3    H226202   6.518   3.796   1.007
 8753TIP3   OH226203   0.123   2.413   0.244
 8753TIP3    H126204   0.120   2.487   0.183
 8753TIP3    H226205   0.077   2.343   0.197
 8754TIP3   OH226206   1.946   2.846   0.537
 8754TIP3    H126207   1.968   2.810   0.451
 8754TIP3    H226208   1.896   2.777   0.580
 8755TIP3   OH226209   0.033   1.990   4.077
 8755TIP3    H126210   0.019   1.982   4.171
 8755TIP3    H226211   0.042   2.084   4.062
 8756TIP3   OH226212   0.813   4.663   5.487
 8756TIP3    H126213   0.761   4.583   5.492
 8756TIP3    H226214   0.752   4.733   5.510
 8757TIP3   OH226215   1.925   0.986   3.821
 8757TIP3    H126216   1.989   1.057   3.822
 8757TIP3    H226217   1.924   0.953   3.911
 8758TIP3   OH226218   6.323   2.013   3.710
 8758TIP3    H126219   6.352   2.104   3.702
 8758TIP3    H226220   6.278   1.994   3.628
 8759TIP3   OH226221   2.853   4.927   4.295
 8759TIP3    H126222   2.948   4.929   4.286
 8759TIP3    H226223   2.824   4.858   4.234
 8760TIP3   OH226224   0.698   1.051   5.819
 8760TIP3    H126225   0.657   1.135   5.840
 8760TIP3    H226226   0.687   0.999   5.899
 8761TIP3   OH226227   5.319   2.648   2.079
 8761TIP3    H126228   5.284   2.734   2.099
 8761TIP3    H226229   5.414   2.659   2.080
 8762TIP3   OH226230   3.842   4.413   6.404
 8762TIP3    H126231   3.808   4.325   6.389
 8762TIP3    H226232   3.933   4.399   6.429
 8763TIP3   OH226233   6.104   3.024   6.455
 8763TIP3    H126234   6.083   2.935   6.483
 8763TIP3    H226235   6.162   3.057   6.524
 8764TIP3   OH226236   0.035   0.311   0.639
 8764TIP3    H126237  -0.018   0.231   0.637
 8764TIP3    H226238   0.024   0.344   0.729
 8765TIP3   OH226239   6.278   1.220   4.850
 8765TIP3    H126240   6.266   1.207   4.944
 8765TIP3    H226241   6.190   1.226   4.814
 8766TIP3   OH226242   0.613   1.607   4.525
 8766TIP3    H126243   0.588   1.668   4.595
 8766TIP3    H226244   0.582   1.650   4.445
 8767TIP3   OH226245   7.519   1.394   2.895
 8767TIP3    H126246   7.474   1.318   2.932
 8767TIP3    H226247   7.477   1.409   2.811
 8768TIP3   OH226248   1.137   5.237   4.882
 8768TIP3    H126249   1.195   5.211   4.810
 8768TIP3    H226250   1.108   5.325   4.857
 8769TIP3   OH226251   5.724   2.530   2.699
 8769TIP3    H126252   5.783   2.606   2.702
 8769TIP3    H226253   5.642   2.562   2.737
 8770TIP3   OH226254   5.511   3.957   5.563
 8770TIP3    H126255   5.536   3.934   5.652
 8770TIP3    H226256   5.471   4.044   5.571
 8771TIP3   OH226257   2.357   1.988   3.420
 8771TIP3    H126258   2.433   1.930   3.412
 8771TIP3    H226259   2.288   1.944   3.369
 8772TIP3   OH226260   4.879   0.908   6.552
 8772TIP3    H126261   4.930   0.835   6.517
 8772TIP3    H226262   4.816   0.930   6.483
 8773TIP3   OH226263   6.423   7.763   1.859
 8773TIP3    H126264   6.380   7.837   1.815
 8773TIP3    H226265   6.414   7.783   1.952
 8774TIP3   OH226266   4.306   0.184   3.795
 8774TIP3    H126267   4.401   0.191   3.795
 8774TIP3    H226268   4.277   0.245   3.864
 8775TIP3   OH226269   3.695   1.514   6.774
 8775TIP3    H126270   3.717   1.544   6.685
 8775TIP3    H226271   3.628   1.576   6.803
 8776TIP3   OH226272   5.962   0.629   2.539
 8776TIP3    H126273   5.969   0.620   2.444
 8776TIP3    H226274   6.052   0.619   2.570
 8777TIP3   OH226275   8.231   5.145   0.476
 8777TIP3    H126276   8.257   5.079   0.540
 8777TIP3    H226277   8.161   5.194   0.519
 8778TIP3   OH226278   7.814   3.411   5.748
 8778TIP3    H126279   7.734   3.404   5.695
 8778TIP3    H226280   7.819   3.329   5.796
 8779TIP3   OH226281   1.589   6.287   6.188
 8779TIP3    H126282   1.683   6.305   6.196
 8779TIP3    H226283   1.585   6.197   6.157
 8780TIP3   OH226284   1.149   6.443   2.456
 8780TIP3    H126285   1.214   6.391   2.409
 8780TIP3    H226286   1.103   6.491   2.387
 8781TIP3   OH226287   8.220   1.589   5.552
 8781TIP3    H126288   8.273   1.649   5.500
 8781TIP3    H226289   8.282   1.529   5.592
 8782TIP3   OH226290   0.597   2.702   1.086
 8782TIP3    H126291   0.676   2.751   1.109
 8782TIP3    H226292   0.600   2.696   0.990
 8783TIP3   OH226293   0.249   5.461   1.429
 8783TIP3    H126294   0.289   5.500   1.507
 8783TIP3    H226295   0.178   5.521   1.405
 8784TIP3   OH226296   2.872   3.104   0.376
 8784TIP3    H126297   2.801   3.046   0.346
 8784TIP3    H226298   2.902   3.065   0.458
 8785TIP3   OH226299   7.582   0.913   2.658
 8785TIP3    H126300   7.531   0.973   2.603
 8785TIP3    H226301   7.555   0.825   2.629
 8786TIP3   OH226302   2.603   6.036   2.592
 8786TIP3    H126303   2.525   6.055   2.643
 8786TIP3    H226304   2.581   5.959   2.541
 8787TIP3   OH226305   6.943   2.490   6.792
 8787TIP3    H126306   6.877   2.511   6.726
 8787TIP3    H226307   7.026   2.487   6.743
 8788TIP3   OH226308   0.038   7.453   5.984
 8788TIP3    H126309   0.030   7.547   5.969
 8788TIP3    H226310  -0.006   7.438   6.068
 8789TIP3   OH226311   1.234   6.080   6.088
 8789TIP3    H126312   1.265   5.999   6.048
 8789TIP3    H226313   1.266   6.076   6.178
 8790TIP3   OH226314   7.501   4.675   2.824
 8790TIP3    H126315   7.565   4.732   2.780
 8790TIP3    H226316   7.416   4.713   2.801
 8791TIP3   OH226317   1.119   6.704   5.296
 8791TIP3    H126318   1.101   6.610   5.307
 8791TIP3    H226319   1.214   6.709   5.288
 8792TIP3   OH226320   3.141   2.965   0.096
 8792TIP3    H126321   3.091   3.047   0.098
 8792TIP3    H226322   3.075   2.896   0.087
 8793TIP3   OH226323   4.630   7.311   6.243
 8793TIP3    H126324   4.702   7.300   6.305
 8793TIP3    H226325   4.551   7.300   6.295
 8794TIP3   OH226326   6.696   5.726   6.164
 8794TIP3    H126327   6.758   5.692   6.099
 8794TIP3    H226328   6.668   5.811   6.128
 8795TIP3   OH226329   3.633   4.807   5.893
 8795TIP3    H126330   3.559   4.867   5.901
 8795TIP3    H226331   3.672   4.827   5.809
 8796TIP3   OH226332   7.767   2.342   5.614
 8796TIP3    H126333   7.827   2.311   5.547
 8796TIP3    H226334   7.811   2.320   5.697
 8797TIP3   OH226335   5.158   0.894   3.435
 8797TIP3    H126336   5.175   0.917   3.343
 8797TIP3    H226337   5.243   0.905   3.478
 8798TIP3   OH226338   7.747   3.822   4.137
 8798TIP3    H126339   7.716   3.751   4.080
 8798TIP3    H226340   7.692   3.897   4.115
 8799TIP3   OH226341   4.291   1.133   2.952
 8799TIP3    H126342   4.211   1.185   2.960
 8799TIP3    H226343   4.354   1.192   2.912
 8800TIP3   OH226344   7.277   3.353   5.956
 8800TIP3    H126345   7.232   3.436   5.944
 8800TIP3    H226346   7.368   3.377   5.975
 8801TIP3   OH226347   5.903   6.624   2.211
 8801TIP3    H126348   5.966   6.621   2.282
 8801TIP3    H226349   5.818   6.614   2.254
 8802TIP3   OH226350   4.497   3.541   6.258
 8802TIP3    H126351   4.500   3.475   6.188
 8802TIP3    H226352   4.481   3.623   6.212
 8803TIP3   OH226353   1.913   2.352   6.490
 8803TIP3    H126354   1.849   2.320   6.427
 8803TIP3    H226355   1.973   2.405   6.438
 8804TIP3   OH226356   7.160   2.127   1.654
 8804TIP3    H126357   7.135   2.112   1.745
 8804TIP3    H226358   7.234   2.069   1.639
 8805TIP3   OH226359   3.027   1.490   3.188
 8805TIP3    H126360   3.106   1.440   3.208
 8805TIP3    H226361   3.039   1.573   3.233
 8806TIP3   OH226362   1.817   4.838   1.306
 8806TIP3    H126363   1.727   4.816   1.332
 8806TIP3    H226364   1.833   4.924   1.345
 8807TIP3   OH226365   5.223   5.600   2.607
 8807TIP3    H126366   5.305   5.641   2.633
 8807TIP3    H226367   5.249   5.521   2.560
 8808TIP3   OH226368   5.163   7.503   3.637
 8808TIP3    H126369   5.250   7.530   3.667
 8808TIP3    H226370   5.135   7.575   3.580
 8809TIP3   OH226371   0.975   0.448   4.289
 8809TIP3    H126372   1.059   0.417   4.322
 8809TIP3    H226373   0.917   0.447   4.365
 8810TIP3   OH226374   0.759   5.082   5.210
 8810TIP3    H126375   0.788   5.024   5.280
 8810TIP3    H226376   0.732   5.024   5.139
 8811TIP3   OH226377   6.771   6.501   0.696
 8811TIP3    H126378   6.796   6.412   0.674
 8811TIP3    H226379   6.854   6.547   0.709
 8812TIP3   OH226380   5.357   7.561   1.993
 8812TIP3    H126381   5.388   7.643   1.955
 8812TIP3    H226382   5.365   7.498   1.922
 8813TIP3   OH226383   0.822   0.216   1.026
 8813TIP3    H126384   0.773   0.171   0.957
 8813TIP3    H226385   0.838   0.303   0.990
 8814TIP3   OH226386   6.233   3.282   4.322
 8814TIP3    H126387   6.285   3.351   4.363
 8814TIP3    H226388   6.160   3.268   4.382
 8815TIP3   OH226389   7.762   4.873   3.737
 8815TIP3    H126390   7.719   4.789   3.718
 8815TIP3    H226391   7.717   4.937   3.683
 8816TIP3   OH226392   3.905   5.706   3.932
 8816TIP3    H126393   3.876   5.630   3.882
 8816TIP3    H226394   3.860   5.780   3.892
 8817TIP3   OH226395   6.393   6.425   5.698
 8817TIP3    H126396   6.444   6.505   5.685
 8817TIP3    H226397   6.325   6.430   5.631
 8818TIP3   OH226398   1.291   7.669   4.196
 8818TIP3    H126399   1.244   7.636   4.119
 8818TIP3    H226400   1.250   7.753   4.216
 8819TIP3   OH226401   0.759   0.986   1.469
 8819TIP3    H126402   0.746   0.968   1.562
 8819TIP3    H226403   0.702   1.061   1.451
 8820TIP3   OH226404   6.582   1.930   4.859
 8820TIP3    H126405   6.619   1.881   4.785
 8820TIP3    H226406   6.602   2.021   4.840
 8821TIP3   OH226407   8.329   2.303   4.044
 8821TIP3    H126408   8.284   2.357   3.978
 8821TIP3    H226409   8.262   2.284   4.109
 8822TIP3   OH226410   1.537   1.024   6.186
 8822TIP3    H126411   1.508   0.933   6.187
 8822TIP3    H226412   1.500   1.060   6.105
 8823TIP3   OH226413   5.253   2.697   3.253
 8823TIP3    H126414   5.240   2.737   3.339
 8823TIP3    H226415   5.193   2.744   3.196
 8824TIP3   OH226416   5.713   3.968   6.658
 8824TIP3    H126417   5.662   4.042   6.692
 8824TIP3    H226418   5.693   3.896   6.718
 8825TIP3   OH226419   1.871   6.990   6.435
 8825TIP3    H126420   1.850   7.017   6.346
 8825TIP3    H226421   1.946   7.044   6.459
 8826TIP3   OH226422   5.592   1.140   4.137
 8826TIP3    H126423   5.679   1.156   4.100
 8826TIP3    H226424   5.554   1.072   4.081
 8827TIP3   OH226425   7.593   5.250   6.618
 8827TIP3    H126426   7.526   5.269   6.684
 8827TIP3    H226427   7.656   5.194   6.663
 8828TIP3   OH226428   6.186   7.568   2.026
 8828TIP3    H126429   6.251   7.563   2.096
 8828TIP3    H226430   6.173   7.477   1.999
 8829TIP3   OH226431   3.977   4.407   2.311
 8829TIP3    H126432   3.913   4.457   2.261
 8829TIP3    H226433   3.973   4.319   2.273
 8830TIP3   OH226434   0.425   1.368   2.887
 8830TIP3    H126435   0.423   1.309   2.962
 8830TIP3    H226436   0.397   1.314   2.813
 8831TIP3   OH226437   8.059   2.546   5.357
 8831TIP3    H126438   8.129   2.502   5.405
 8831TIP3    H226439   8.105   2.598   5.290
 8832TIP3   OH226440   2.286   6.107   0.545
 8832TIP3    H126441   2.235   6.057   0.610
 8832TIP3    H226442   2.232   6.184   0.527
 8833TIP3   OH226443   4.926   4.435   1.723
 8833TIP3    H126444   5.003   4.492   1.723
 8833TIP3    H226445   4.960   4.348   1.746
 8834TIP3   OH226446   3.867   6.887   4.157
 8834TIP3    H126447   3.922   6.812   4.135
 8834TIP3    H226448   3.888   6.906   4.249
 8835TIP3   OH226449   0.561   0.879   3.767
 8835TIP3    H126450   0.529   0.839   3.687
 8835TIP3    H226451   0.612   0.810   3.810
 8836TIP3   OH226452   7.844   0.492   2.103
 8836TIP3    H126453   7.853   0.567   2.162
 8836TIP3    H226454   7.808   0.422   2.158
 8837TIP3   OH226455   7.303   0.119   3.981
 8837TIP3    H126456   7.308   0.203   3.936
 8837TIP3    H226457   7.212   0.092   3.971
 8838TIP3   OH226458   3.970   6.633   4.188
 8838TIP3    H126459   3.925   6.551   4.167
 8838TIP3    H226460   4.063   6.613   4.179
 8839TIP3   OH226461   4.423   6.160   2.262
 8839TIP3    H126462   4.515   6.137   2.273
 8839TIP3    H226463   4.378   6.076   2.256
 8840TIP3   OH226464   1.543   4.326   0.548
 8840TIP3    H126465   1.602   4.381   0.599
 8840TIP3    H226466   1.564   4.346   0.457
 8841TIP3   OH226467   7.538   1.341   5.678
 8841TIP3    H126468   7.448   1.310   5.688
 8841TIP3    H226469   7.548   1.407   5.747
 8842TIP3   OH226470   2.637   7.309   3.919
 8842TIP3    H126471   2.582   7.243   3.960
 8842TIP3    H226472   2.650   7.278   3.829
 8843TIP3   OH226473   2.206   1.068   4.275
 8843TIP3    H126474   2.193   1.007   4.348
 8843TIP3    H226475   2.174   1.152   4.308
 8844TIP3   OH226476   7.126   7.354   2.608
 8844TIP3    H126477   7.171   7.338   2.526
 8844TIP3    H226478   7.041   7.392   2.583
 8845TIP3   OH226479   6.330   4.255   4.537
 8845TIP3    H126480   6.399   4.195   4.509
 8845TIP3    H226481   6.375   4.339   4.551
 8846TIP3   OH226482   3.567   1.103   6.458
 8846TIP3    H126483   3.635   1.045   6.424
 8846TIP3    H226484   3.499   1.045   6.492
 8847TIP3   OH226485   7.722   5.785   4.733
 8847TIP3    H126486   7.784   5.757   4.800
 8847TIP3    H226487   7.679   5.704   4.705
 8848TIP3   OH226488   1.373   5.525   2.291
 8848TIP3    H126489   1.304   5.589   2.310
 8848TIP3    H226490   1.395   5.488   2.377
 8849TIP3   OH226491   4.007   4.625   2.734
 8849TIP3    H126492   4.022   4.719   2.739
 8849TIP3    H226493   4.086   4.590   2.692
 8850TIP3   OH226494   2.553   0.622   1.792
 8850TIP3    H126495   2.626   0.563   1.811
 8850TIP3    H226496   2.546   0.677   1.870
 8851TIP3   OH226497   6.398   7.448   3.298
 8851TIP3    H126498   6.458   7.415   3.365
 8851TIP3    H226499   6.423   7.401   3.219
 8852TIP3   OH226500   3.234   0.466   4.150
 8852TIP3    H126501   3.245   0.374   4.125
 8852TIP3    H226502   3.141   0.484   4.136
 8853TIP3   OH226503   0.199   5.048   3.412
 8853TIP3    H126504   0.268   5.044   3.477
 8853TIP3    H226505   0.198   4.961   3.372
 8854TIP3   OH226506   2.228   4.626   5.495
 8854TIP3    H126507   2.295   4.577   5.448
 8854TIP3    H226508   2.153   4.567   5.499
 8855TIP3   OH226509   1.266   3.722   4.906
 8855TIP3    H126510   1.200   3.658   4.933
 8855TIP3    H226511   1.242   3.802   4.953
 8856TIP3   OH226512   7.314   2.616   5.204
 8856TIP3    H126513   7.359   2.579   5.281
 8856TIP3    H226514   7.257   2.684   5.240
 8857TIP3   OH226515   1.800   4.306   4.596
 8857TIP3    H126516   1.748   4.294   4.516
 8857TIP3    H226517   1.746   4.363   4.651
 8858TIP3   OH226518   0.783   1.123   4.133
 8858TIP3    H126519   0.878   1.116   4.125
 8858TIP3    H226520   0.749   1.091   4.049
 8859TIP3   OH226521   4.342   5.606   6.166
 8859TIP3    H126522   4.339   5.526   6.218
 8859TIP3    H226523   4.394   5.583   6.089
 8860TIP3   OH226524   2.000   4.240   3.424
 8860TIP3    H126525   2.046   4.275   3.500
 8860TIP3    H226526   2.031   4.293   3.350
 8861TIP3   OH226527   1.147   4.466   0.567
 8861TIP3    H126528   1.148   4.558   0.595
 8861TIP3    H226529   1.209   4.422   0.625
 8862TIP3   OH226530   6.178   3.347   1.033
 8862TIP3    H126531   6.162   3.252   1.026
 8862TIP3    H226532   6.237   3.355   1.107
 8863TIP3   OH226533   7.564   5.797   2.243
 8863TIP3    H126534   7.634   5.791   2.179
 8863TIP3    H226535   7.575   5.719   2.298
 8864TIP3   OH226536   3.389   7.094   2.653
 8864TIP3    H126537   3.376   7.185   2.627
 8864TIP3    H226538   3.398   7.046   2.571
 8865TIP3   OH226539   6.595   3.366   6.818
 8865TIP3    H126540   6.634   3.423   6.752
 8865TIP3    H226541   6.648   3.287   6.815
 8866TIP3   OH226542   4.247   3.195   5.791
 8866TIP3    H126543   4.187   3.270   5.795
 8866TIP3    H226544   4.315   3.215   5.855
 8867TIP3   OH226545   2.208   5.307   2.199
 8867TIP3    H126546   2.253   5.258   2.268
 8867TIP3    H226547   2.211   5.398   2.229
 8868TIP3   OH226548   2.549   6.474   2.439
 8868TIP3    H126549   2.560   6.416   2.514
 8868TIP3    H226550   2.454   6.483   2.429
 8869TIP3   OH226551   2.915   3.752   2.527
 8869TIP3    H126552   2.999   3.797   2.535
 8869TIP3    H226553   2.887   3.737   2.618
 8870TIP3   OH226554   4.333   7.056   0.155
 8870TIP3    H126555   4.411   7.006   0.176
 8870TIP3    H226556   4.301   7.018   0.073
 8871TIP3   OH226557   6.386   7.351   6.389
 8871TIP3    H126558   6.477   7.325   6.406
 8871TIP3    H226559   6.389   7.393   6.303
 8872TIP3   OH226560   0.727   0.973   2.758
 8872TIP3    H126561   0.721   1.019   2.842
 8872TIP3    H226562   0.792   0.904   2.773
 8873TIP3   OH226563   1.866   1.493   2.109
 8873TIP3    H126564   1.952   1.482   2.068
 8873TIP3    H226565   1.812   1.534   2.042
 8874TIP3   OH226566   6.392   3.371   1.631
 8874TIP3    H126567   6.358   3.451   1.591
 8874TIP3    H226568   6.475   3.397   1.671
 8875TIP3   OH226569   4.119   4.749   4.660
 8875TIP3    H126570   4.065   4.813   4.615
 8875TIP3    H226571   4.145   4.791   4.741
 8876TIP3   OH226572   5.409   7.501   0.552
 8876TIP3    H126573   5.480   7.444   0.523
 8876TIP3    H226574   5.430   7.587   0.516
 8877TIP3   OH226575   4.629   2.193   4.775
 8877TIP3    H126576   4.638   2.262   4.709
 8877TIP3    H226577   4.536   2.192   4.796
 8878TIP3   OH226578   1.921   7.291   5.812
 8878TIP3    H126579   1.871   7.220   5.774
 8878TIP3    H226580   1.857   7.359   5.830
 8879TIP3   OH226581   3.969   0.793   2.998
 8879TIP3    H126582   3.989   0.789   3.091
 8879TIP3    H226583   4.050   0.820   2.956
 8880TIP3   OH226584   6.273   5.999   4.421
 8880TIP3    H126585   6.204   6.002   4.356
 8880TIP3    H226586   6.229   6.016   4.504
 8881TIP3   OH226587   6.061   0.964   2.198
 8881TIP3    H126588   6.145   0.982   2.239
 8881TIP3    H226589   6.007   0.928   2.268
 8882TIP3   OH226590   8.117   1.704   2.332
 8882TIP3    H126591   8.084   1.614   2.328
 8882TIP3    H226592   8.212   1.695   2.324
 8883TIP3   OH226593   5.290   4.047   1.263
 8883TIP3    H126594   5.368   4.048   1.318
 8883TIP3    H226595   5.230   4.110   1.303
 8884TIP3   OH226596   5.807   1.672   0.591
 8884TIP3    H126597   5.744   1.712   0.652
 8884TIP3    H226598   5.878   1.641   0.648
 8885TIP3   OH226599   0.577   7.411   1.804
 8885TIP3    H126600   0.646   7.413   1.738
 8885TIP3    H226601   0.570   7.501   1.835
 8886TIP3   OH226602   3.370   4.824   1.163
 8886TIP3    H126603   3.369   4.734   1.131
 8886TIP3    H226604   3.442   4.826   1.226
 8887TIP3   OH226605   4.971   7.392   6.311
 8887TIP3    H126606   5.056   7.354   6.290
 8887TIP3    H226607   4.923   7.321   6.355
 8888TIP3   OH226608   5.972   1.988   0.701
 8888TIP3    H126609   5.951   2.054   0.635
 8888TIP3    H226610   6.062   1.962   0.681
 8889TIP3   OH226611   8.014   2.933   5.483
 8889TIP3    H126612   7.919   2.919   5.483
 8889TIP3    H226613   8.039   2.923   5.392
 8890TIP3   OH226614   8.155   0.487   2.991
 8890TIP3    H126615   8.131   0.487   3.083
 8890TIP3    H226616   8.249   0.509   2.991
 8891TIP3   OH226617   3.529   0.588   5.475
 8891TIP3    H126618   3.448   0.638   5.481
 8891TIP3    H226619   3.517   0.532   5.398
 8892TIP3   OH226620   8.305   4.820   6.481
 8892TIP3    H126621   8.271   4.761   6.548
 8892TIP3    H226622   8.240   4.890   6.475
 8893TIP3   OH226623   4.583   4.731   4.574
 8893TIP3    H126624   4.608   4.638   4.566
 8893TIP3    H226625   4.667   4.777   4.574
 8894TIP3   OH226626   3.989   3.880   3.875
 8894TIP3    H126627   4.020   3.813   3.814
 8894TIP3    H226628   3.944   3.944   3.820
 8895TIP3   OH226629   3.449   4.527   6.124
 8895TIP3    H126630   3.540   4.531   6.096
 8895TIP3    H226631   3.438   4.603   6.181
 8896TIP3   OH226632   0.202   3.509   5.093
 8896TIP3    H126633   0.280   3.563   5.107
 8896TIP3    H226634   0.144   3.531   5.165
 8897TIP3   OH226635   2.366   3.161   5.756
 8897TIP3    H126636   2.331   3.163   5.845
 8897TIP3    H226637   2.289   3.160   5.700
 8898TIP3   OH226638   4.138   5.181   0.988
 8898TIP3    H126639   4.048   5.151   0.975
 8898TIP3    H226640   4.131   5.247   1.057
 8899TIP3   OH226641   7.056   1.081   6.238
 8899TIP3    H126642   7.046   0.989   6.213
 8899TIP3    H226643   7.022   1.085   6.327
 8900TIP3   OH226644   5.259   2.123   3.850
 8900TIP3    H126645   5.261   2.080   3.764
 8900TIP3    H226646   5.202   2.198   3.838
 8901TIP3   OH226647   4.727   0.148   6.735
 8901TIP3    H126648   4.725   0.093   6.813
 8901TIP3    H226649   4.776   0.226   6.762
 8902TIP3   OH226650   1.113   6.748   4.964
 8902TIP3    H126651   1.103   6.745   4.869
 8902TIP3    H226652   1.024   6.757   4.997
 8903TIP3   OH226653   2.202   5.098   3.268
 8903TIP3    H126654   2.280   5.051   3.240
 8903TIP3    H226655   2.222   5.130   3.356
 8904TIP3   OH226656   8.144   7.423   2.516
 8904TIP3    H126657   8.237   7.430   2.494
 8904TIP3    H226658   8.142   7.385   2.603
 8905TIP3   OH226659   4.421   5.774   1.495
 8905TIP3    H126660   4.381   5.861   1.485
 8905TIP3    H226661   4.441   5.746   1.406
 8906TIP3   OH226662   3.264   7.245   6.635
 8906TIP3    H126663   3.360   7.255   6.635
 8906TIP3    H226664   3.244   7.208   6.721
 8907TIP3   OH226665   0.099   5.715   0.146
 8907TIP3    H126666   0.026   5.772   0.170
 8907TIP3    H226667   0.058   5.631   0.124
 8908TIP3   OH226668   6.773   5.919   1.219
 8908TIP3    H126669   6.728   5.975   1.282
 8908TIP3    H226670   6.783   5.835   1.263
 8909TIP3   OH226671   1.404   4.854   1.186
 8909TIP3    H126672   1.364   4.919   1.244
 8909TIP3    H226673   1.329   4.812   1.143
 8910TIP3   OH226674   0.868   2.093   6.711
 8910TIP3    H126675   0.796   2.114   6.771
 8910TIP3    H226676   0.946   2.128   6.755
 8911TIP3   OH226677   3.125   3.868   2.677
 8911TIP3    H126678   3.199   3.929   2.671
 8911TIP3    H226679   3.160   3.794   2.727
 8912TIP3   OH226680   3.228   0.706   5.721
 8912TIP3    H126681   3.157   0.731   5.779
 8912TIP3    H226682   3.249   0.615   5.746
 8913TIP3   OH226683   4.865   1.020   4.195
 8913TIP3    H126684   4.925   0.985   4.261
 8913TIP3    H226685   4.795   1.061   4.245
 8914TIP3   OH226686   5.357   2.739   6.779
 8914TIP3    H126687   5.316   2.825   6.774
 8914TIP3    H226688   5.286   2.677   6.767
 8915TIP3   OH226689   7.339   2.828   5.035
 8915TIP3    H126690   7.287   2.810   4.956
 8915TIP3    H226691   7.356   2.742   5.072
 8916TIP3   OH226692   3.352   2.633   4.527
 8916TIP3    H126693   3.411   2.582   4.472
 8916TIP3    H226694   3.320   2.570   4.592
 8917TIP3   OH226695   1.074   2.953   0.524
 8917TIP3    H126696   1.024   2.883   0.566
 8917TIP3    H226697   1.065   3.028   0.583
 8918TIP3   OH226698   6.088   1.559   2.279
 8918TIP3    H126699   6.129   1.515   2.354
 8918TIP3    H226700   6.050   1.639   2.316
 8919TIP3   OH226701   6.996   6.471   0.452
 8919TIP3    H126702   7.057   6.480   0.525
 8919TIP3    H226703   6.951   6.555   0.448
 8920TIP3   OH226704   0.838   6.873   6.242
 8920TIP3    H126705   0.776   6.943   6.220
 8920TIP3    H226706   0.880   6.904   6.322
 8921TIP3   OH226707   6.172   5.523   4.902
 8921TIP3    H126708   6.096   5.581   4.897
 8921TIP3    H226709   6.138   5.443   4.943
 8922TIP3   OH226710   4.529   2.052   4.135
 8922TIP3    H126711   4.456   2.094   4.090
 8922TIP3    H226712   4.490   2.008   4.210
 8923TIP3   OH226713   3.977   1.987   6.700
 8923TIP3    H126714   4.072   1.994   6.708
 8923TIP3    H226715   3.955   2.045   6.628
 8924TIP3   OH226716   2.847   2.145   6.776
 8924TIP3    H126717   2.907   2.110   6.710
 8924TIP3    H226718   2.861   2.089   6.852
 8925TIP3   OH226719   5.435   2.929   3.387
 8925TIP3    H126720   5.490   2.850   3.391
 8925TIP3    H226721   5.354   2.903   3.432
 8926TIP3   OH226722   7.290   3.248   5.285
 8926TIP3    H126723   7.210   3.263   5.234
 8926TIP3    H226724   7.259   3.205   5.364
 8927TIP3   OH226725   6.244   2.531   6.732
 8927TIP3    H126726   6.247   2.616   6.777
 8927TIP3    H226727   6.158   2.495   6.756
 8928TIP3   OH226728   4.266   3.505   2.711
 8928TIP3    H126729   4.285   3.411   2.712
 8928TIP3    H226730   4.208   3.519   2.786
 8929TIP3   OH226731   2.906   6.074   1.457
 8929TIP3    H126732   2.914   6.169   1.442
 8929TIP3    H226733   2.850   6.067   1.534
 8930TIP3   OH226734   7.893   6.576   5.806
 8930TIP3    H126735   7.846   6.494   5.812
 8930TIP3    H226736   7.945   6.580   5.886
 8931TIP3   OH226737   3.076   5.161   0.903
 8931TIP3    H126738   3.093   5.068   0.887
 8931TIP3    H226739   2.989   5.162   0.943
 8932TIP3   OH226740   4.612   1.732   5.373
 8932TIP3    H126741   4.541   1.744   5.310
 8932TIP3    H226742   4.590   1.649   5.416
 8933TIP3   OH226743   3.618   5.133   3.671
 8933TIP3    H126744   3.583   5.077   3.740
 8933TIP3    H226745   3.702   5.164   3.705
 8934TIP3   OH226746   5.085   5.083   1.944
 8934TIP3    H126747   5.100   5.160   1.889
 8934TIP3    H226748   5.059   5.118   2.029
 8935TIP3   OH226749   4.287   4.683   5.066
 8935TIP3    H126750   4.345   4.749   5.103
 8935TIP3    H226751   4.329   4.656   4.985
 8936TIP3   OH226752   6.547   1.931   1.385
 8936TIP3    H126753   6.476   1.937   1.450
 8936TIP3    H226754   6.583   2.020   1.381
 8937TIP3   OH226755   4.280   5.335   3.860
 8937TIP3    H126756   4.267   5.253   3.812
 8937TIP3    H226757   4.253   5.315   3.949
 8938TIP3   OH226758   7.102   6.114   4.630
 8938TIP3    H126759   7.070   6.030   4.662
 8938TIP3    H226760   7.166   6.092   4.563
 8939TIP3   OH226761   4.118   3.427   4.781
 8939TIP3    H126762   4.082   3.511   4.752
 8939TIP3    H226763   4.071   3.362   4.728
 8940TIP3   OH226764   2.718   6.146   5.013
 8940TIP3    H126765   2.630   6.133   5.048
 8940TIP3    H226766   2.726   6.078   4.946
 8941TIP3   OH226767   3.662   0.140   0.909
 8941TIP3    H126768   3.684   0.215   0.853
 8941TIP3    H226769   3.695   0.163   0.995
 8942TIP3   OH226770   5.573   1.761   1.510
 8942TIP3    H126771   5.561   1.825   1.581
 8942TIP3    H226772   5.487   1.721   1.500
 8943TIP3   OH226773   4.514   5.345   0.871
 8943TIP3    H126774   4.481   5.427   0.835
 8943TIP3    H226775   4.545   5.296   0.794
 8944TIP3   OH226776   6.412   0.824   5.258
 8944TIP3    H126777   6.379   0.740   5.228
 8944TIP3    H226778   6.461   0.859   5.184
 8945TIP3   OH226779   1.707   4.749   4.285
 8945TIP3    H126780   1.704   4.823   4.224
 8945TIP3    H226781   1.626   4.700   4.267
 8946TIP3   OH226782   7.153   7.183   0.245
 8946TIP3    H126783   7.211   7.259   0.237
 8946TIP3    H226784   7.211   7.107   0.241
 8947TIP3   OH226785   4.618   3.524   4.286
 8947TIP3    H126786   4.606   3.436   4.321
 8947TIP3    H226787   4.696   3.557   4.331
 8948TIP3   OH226788   6.521   5.977   1.881
 8948TIP3    H126789   6.531   6.043   1.950
 8948TIP3    H226790   6.608   5.937   1.874
 8949TIP3   OH226791   2.643   5.188   2.492
 8949TIP3    H126792   2.690   5.253   2.544
 8949TIP3    H226793   2.704   5.116   2.482
 8950TIP3   OH226794   6.788   6.127   5.698
 8950TIP3    H126795   6.865   6.173   5.733
 8950TIP3    H226796   6.824   6.047   5.659
 8951TIP3   OH226797   7.350   5.002   1.094
 8951TIP3    H126798   7.437   4.970   1.118
 8951TIP3    H226799   7.353   5.013   0.999
 8952TIP3   OH226800   2.238   2.131   1.317
 8952TIP3    H126801   2.286   2.184   1.253
 8952TIP3    H226802   2.165   2.187   1.343
 8953TIP3   OH226803   3.616   1.672   2.670
 8953TIP3    H126804   3.587   1.688   2.759
 8953TIP3    H226805   3.668   1.591   2.675
 8954TIP3   OH226806   7.533   3.301   3.205
 8954TIP3    H126807   7.522   3.296   3.110
 8954TIP3    H226808   7.496   3.385   3.230
 8955TIP3   OH226809   1.459   5.486   3.667
 8955TIP3    H126810   1.447   5.515   3.577
 8955TIP3    H226811   1.375   5.447   3.691
 8956TIP3   OH226812   7.022   1.303   3.982
 8956TIP3    H126813   7.000   1.391   4.010
 8956TIP3    H226814   6.938   1.263   3.959
 8957TIP3   OH226815   0.164   2.817   6.145
 8957TIP3    H126816   0.092   2.783   6.092
 8957TIP3    H226817   0.129   2.818   6.234
 8958TIP3   OH226818   5.752   1.438   3.187
 8958TIP3    H126819   5.663   1.474   3.195
 8958TIP3    H226820   5.757   1.407   3.097
 8959TIP3   OH226821   4.542   7.422   3.004
 8959TIP3    H126822   4.532   7.329   2.985
 8959TIP3    H226823   4.530   7.465   2.919
 8960TIP3   OH226824   5.392   2.849   4.611
 8960TIP3    H126825   5.413   2.764   4.650
 8960TIP3    H226826   5.302   2.840   4.581
 8961TIP3   OH226827   2.093   2.736   5.081
 8961TIP3    H126828   2.024   2.692   5.032
 8961TIP3    H226829   2.151   2.773   5.014
 8962TIP3   OH226830   1.782   1.772   3.030
 8962TIP3    H126831   1.844   1.824   3.081
 8962TIP3    H226832   1.825   1.759   2.946
 8963TIP3   OH226833   7.705   5.957   5.248
 8963TIP3    H126834   7.684   5.896   5.319
 8963TIP3    H226835   7.666   6.040   5.276
 8964TIP3   OH226836   5.425   2.248   1.071
 8964TIP3    H126837   5.432   2.153   1.079
 8964TIP3    H226838   5.335   2.263   1.039
 8965TIP3   OH226839   4.177   6.168   4.294
 8965TIP3    H126840   4.264   6.206   4.297
 8965TIP3    H226841   4.172   6.126   4.209
 8966TIP3   OH226842   1.375   4.349   2.545
 8966TIP3    H126843   1.458   4.326   2.504
 8966TIP3    H226844   1.310   4.339   2.474
 8967TIP3   OH226845   6.242   1.855   6.193
 8967TIP3    H126846   6.234   1.776   6.140
 8967TIP3    H226847   6.164   1.907   6.171
 8968TIP3   OH226848   0.573   3.683   5.667
 8968TIP3    H126849   0.523   3.706   5.590
 8968TIP3    H226850   0.651   3.738   5.663
 8969TIP3   OH226851   3.338   4.136   5.090
 8969TIP3    H126852   3.393   4.199   5.043
 8969TIP3    H226853   3.397   4.064   5.112
 8970TIP3   OH226854   3.933   3.399   2.740
 8970TIP3    H126855   3.937   3.469   2.674
 8970TIP3    H226856   3.986   3.432   2.812
 8971TIP3   OH226857   6.442   4.420   4.020
 8971TIP3    H126858   6.492   4.488   3.975
 8971TIP3    H226859   6.486   4.410   4.104
 8972TIP3   OH226860   1.863   5.131   3.434
 8972TIP3    H126861   1.806   5.105   3.362
 8972TIP3    H226862   1.809   5.188   3.489
 8973TIP3   OH226863   7.366   3.580   6.420
 8973TIP3    H126864   7.427   3.630   6.366
 8973TIP3    H226865   7.422   3.533   6.482
 8974TIP3   OH226866   5.111   6.599   1.362
 8974TIP3    H126867   5.191   6.547   1.358
 8974TIP3    H226868   5.123   6.665   1.293
 8975TIP3   OH226869   5.503   6.365   3.964
 8975TIP3    H126870   5.553   6.351   4.045
 8975TIP3    H226871   5.542   6.304   3.901
 8976TIP3   OH226872   4.054   6.303   5.778
 8976TIP3    H126873   4.104   6.299   5.859
 8976TIP3    H226874   4.026   6.394   5.771
 8977TIP3   OH226875   0.106   7.694   2.665
 8977TIP3    H126876   0.136   7.619   2.614
 8977TIP3    H226877   0.185   7.726   2.709
 8978TIP3   OH226878   4.853   4.588   3.368
 8978TIP3    H126879   4.881   4.496   3.363
 8978TIP3    H226880   4.932   4.636   3.392
 8979TIP3   OH226881   8.309   0.575   0.185
 8979TIP3    H126882   8.344   0.504   0.239
 8979TIP3    H226883   8.259   0.530   0.117
 8980TIP3   OH226884   7.687   0.279   0.955
 8980TIP3    H126885   7.771   0.297   0.997
 8980TIP3    H226886   7.634   0.356   0.975
 8981TIP3   OH226887   6.908   2.300   4.642
 8981TIP3    H126888   6.905   2.393   4.664
 8981TIP3    H226889   6.996   2.285   4.610
 8982TIP3   OH226890   7.479   0.446   6.061
 8982TIP3    H126891   7.497   0.469   6.152
 8982TIP3    H226892   7.531   0.368   6.045
 8983TIP3   OH226893   0.426   5.598   2.190
 8983TIP3    H126894   0.387   5.529   2.242
 8983TIP3    H226895   0.351   5.642   2.149
 8984TIP3   OH226896   4.937   5.837   6.785
 8984TIP3    H126897   4.849   5.862   6.815
 8984TIP3    H226898   4.925   5.751   6.745
 8985TIP3   OH226899   3.805   7.587   3.166
 8985TIP3    H126900   3.724   7.611   3.212
 8985TIP3    H226901   3.829   7.502   3.204
 8986TIP3   OH226902   7.349   1.435   0.143
 8986TIP3    H126903   7.343   1.364   0.079
 8986TIP3    H226904   7.417   1.493   0.109
 8987TIP3   OH226905   6.515   3.664   2.929
 8987TIP3    H126906   6.599   3.692   2.891
 8987TIP3    H226907   6.458   3.740   2.917
 8988TIP3   OH226908   6.196   4.611   0.447
 8988TIP3    H126909   6.176   4.518   0.446
 8988TIP3    H226910   6.255   4.625   0.373
 8989TIP3   OH226911   6.189   1.639   5.411
 8989TIP3    H126912   6.108   1.690   5.418
 8989TIP3    H226913   6.218   1.628   5.502
 8990TIP3   OH226914   5.849   0.008   0.587
 8990TIP3    H126915   5.931   0.049   0.612
 8990TIP3    H226916   5.847   0.013   0.491
 8991TIP3   OH226917   0.188   6.267   5.427
 8991TIP3    H126918   0.207   6.243   5.517
 8991TIP3    H226919   0.102   6.230   5.409
 8992TIP3   OH226920   3.538   6.853   6.235
 8992TIP3    H126921   3.632   6.866   6.225
 8992TIP3    H226922   3.499   6.939   6.217
 8993TIP3   OH226923   5.773   3.054   3.835
 8993TIP3    H126924   5.710   3.067   3.765
 8993TIP3    H226925   5.725   3.005   3.902
 8994TIP3   OH226926   0.487   4.026   4.414
 8994TIP3    H126927   0.437   3.952   4.448
 8994TIP3    H226928   0.514   4.075   4.492
 8995TIP3   OH226929   1.259   5.979   0.959
 8995TIP3    H126930   1.266   5.887   0.981
 8995TIP3    H226931   1.189   6.012   1.016
 8996TIP3   OH226932   5.423   2.790   3.032
 8996TIP3    H126933   5.409   2.883   3.012
 8996TIP3    H226934   5.429   2.787   3.127
 8997TIP3   OH226935   5.488   4.863   3.228
 8997TIP3    H126936   5.562   4.820   3.186
 8997TIP3    H226937   5.528   4.917   3.296
 8998TIP3   OH226938   3.493   5.805   3.683
 8998TIP3    H126939   3.418   5.754   3.711
 8998TIP3    H226940   3.543   5.822   3.764
 8999TIP3   OH226941   1.442   4.631   3.110
 8999TIP3    H126942   1.382   4.628   3.185
 8999TIP3    H226943   1.385   4.616   3.034
 9000TIP3   OH226944   3.938   1.242   1.076
 9000TIP3    H126945   3.989   1.313   1.037
 9000TIP3    H226946   3.976   1.162   1.038
 9001TIP3   OH226947   0.929   3.673   4.845
 9001TIP3    H126948   0.922   3.589   4.889
 9001TIP3    H226949   0.885   3.735   4.904
 9002TIP3   OH226950   3.877   5.248   3.685
 9002TIP3    H126951   3.906   5.180   3.746
 9002TIP3    H226952   3.957   5.294   3.660
 9003TIP3   OH226953   1.949   7.471   3.384
 9003TIP3    H126954   1.854   7.469   3.378
 9003TIP3    H226955   1.971   7.563   3.392
 9004TIP3   OH226956   4.287   4.269   2.882
 9004TIP3    H126957   4.338   4.196   2.917
 9004TIP3    H226958   4.225   4.291   2.951
 9005TIP3   OH226959   6.989   5.252   1.569
 9005TIP3    H126960   6.925   5.305   1.522
 9005TIP3    H226961   7.071   5.301   1.562
 9006TIP3   OH226962   5.438   4.331   1.667
 9006TIP3    H126963   5.474   4.301   1.751
 9006TIP3    H226964   5.360   4.381   1.692
 9007TIP3   OH226965   7.383   5.896   1.488
 9007TIP3    H126966   7.359   5.876   1.578
 9007TIP3    H226967   7.406   5.989   1.490
 9008TIP3   OH226968   2.392   6.066   4.965
 9008TIP3    H126969   2.301   6.063   4.937
 9008TIP3    H226970   2.388   6.081   5.060
 9009TIP3   OH226971   5.654   5.178   0.715
 9009TIP3    H126972   5.630   5.151   0.803
 9009TIP3    H226973   5.572   5.175   0.666
 9010TIP3   OH226974   6.059   1.201   0.364
 9010TIP3    H126975   6.126   1.233   0.425
 9010TIP3    H226976   6.102   1.203   0.279
 9011TIP3   OH226977   2.979   1.664   4.638
 9011TIP3    H126978   3.027   1.604   4.582
 9011TIP3    H226979   3.037   1.681   4.711
 9012TIP3   OH226980   5.910   3.560   1.895
 9012TIP3    H126981   5.916   3.503   1.972
 9012TIP3    H226982   5.833   3.528   1.848
 9013TIP3   OH226983   4.783   6.380   2.458
 9013TIP3    H126984   4.834   6.348   2.533
 9013TIP3    H226985   4.792   6.475   2.462
 9014TIP3   OH226986   6.853   1.545   2.274
 9014TIP3    H126987   6.943   1.518   2.291
 9014TIP3    H226988   6.852   1.571   2.182
 9015TIP3   OH226989   2.002   2.572   2.492
 9015TIP3    H126990   2.053   2.642   2.533
 9015TIP3    H226991   2.056   2.542   2.419
 9016TIP3   OH226992   4.360   0.171   0.906
 9016TIP3    H126993   4.290   0.141   0.964
 9016TIP3    H226994   4.321   0.243   0.857
 9017TIP3   OH226995   7.208   1.628   4.382
 9017TIP3    H126996   7.217   1.605   4.474
 9017TIP3    H226997   7.115   1.616   4.363
 9018TIP3   OH226998   7.580   3.281   2.933
 9018TIP3    H126999   7.552   3.252   2.846
 9018TIP3    H227000   7.578   3.377   2.927
 9019TIP3   OH227001   4.872   1.777   4.566
 9019TIP3    H127002   4.788   1.767   4.520
 9019TIP3    H227003   4.896   1.868   4.551
 9020TIP3   OH227004   2.277   7.771   2.832
 9020TIP3    H127005   2.206   7.815   2.785
 9020TIP3    H227006   2.338   7.745   2.763
 9021TIP3   OH227007   3.637   4.257   2.442
 9021TIP3    H127008   3.660   4.315   2.515
 9021TIP3    H227009   3.606   4.315   2.373
 9022TIP3   OH227010   7.795   7.768   6.728
 9022TIP3    H127011   7.849   7.847   6.725
 9022TIP3    H227012   7.858   7.696   6.723
 9023TIP3   OH227013   7.876   4.390   6.332
 9023TIP3    H127014   7.821   4.435   6.396
 9023TIP3    H227015   7.824   4.391   6.251
 9024TIP3   OH227016   2.934   1.129   3.153
 9024TIP3    H127017   2.840   1.110   3.148
 9024TIP3    H227018   2.946   1.167   3.239
 9025TIP3   OH227019   3.039   6.693   4.153
 9025TIP3    H127020   2.976   6.737   4.209
 9025TIP3    H227021   3.095   6.764   4.119
 9026TIP3   OH227022   3.676   4.703   0.539
 9026TIP3    H127023   3.745   4.637   0.545
 9026TIP3    H227024   3.596   4.656   0.561
 9027TIP3   OH227025   5.587   5.368   4.827
 9027TIP3    H127026   5.507   5.419   4.840
 9027TIP3    H227027   5.618   5.349   4.916
 9028TIP3   OH227028   1.959   2.660   1.924
 9028TIP3    H127029   2.005   2.682   1.843
 9028TIP3    H227030   1.877   2.709   1.919
 9029TIP3   OH227031   6.529   2.283   6.074
 9029TIP3    H127032   6.623   2.286   6.092
 9029TIP3    H227033   6.502   2.195   6.100
 9030TIP3   OH227034   1.667   1.910   2.439
 9030TIP3    H127035   1.653   1.983   2.499
 9030TIP3    H227036   1.756   1.880   2.457
 9031TIP3   OH227037   7.123   5.913   2.274
 9031TIP3    H127038   7.158   5.835   2.318
 9031TIP3    H227039   7.196   5.946   2.222
 9032TIP3   OH227040   8.192   5.975   6.612
 9032TIP3    H127041   8.170   5.908   6.547
 9032TIP3    H227042   8.267   6.021   6.574
 9033TIP3   OH227043   1.184   5.464   3.937
 9033TIP3    H127044   1.272   5.501   3.927
 9033TIP3    H227045   1.166   5.421   3.853
 9034TIP3   OH227046   0.757   0.396   1.741
 9034TIP3    H127047   0.788   0.485   1.755
 9034TIP3    H227048   0.706   0.375   1.820
 9035TIP3   OH227049   1.384   4.321   3.795
 9035TIP3    H127050   1.293   4.294   3.809
 9035TIP3    H227051   1.378   4.409   3.759
 9036TIP3   OH227052   0.040   3.520   5.886
 9036TIP3    H127053  -0.007   3.576   5.824
 9036TIP3    H227054   0.038   3.568   5.969
 9037TIP3   OH227055   0.323   3.218   5.642
 9037TIP3    H127056   0.353   3.169   5.719
 9037TIP3    H227057   0.233   3.243   5.663
 9038TIP3   OH227058   6.975   7.683   0.937
 9038TIP3    H127059   7.009   7.626   0.868
 9038TIP3    H227060   6.933   7.755   0.890
 9039TIP3   OH227061   1.159   5.664   4.604
 9039TIP3    H127062   1.132   5.709   4.524
 9039TIP3    H227063   1.150   5.571   4.583
 9040TIP3   OH227064   0.694   2.959   0.529
 9040TIP3    H127065   0.718   2.971   0.437
 9040TIP3    H227066   0.757   2.894   0.561
 9041TIP3   OH227067   3.530   6.471   1.350
 9041TIP3    H127068   3.560   6.383   1.326
 9041TIP3    H227069   3.519   6.468   1.445
 9042TIP3   OH227070   4.961   6.308   3.556
 9042TIP3    H127071   4.921   6.357   3.485
 9042TIP3    H227072   4.913   6.333   3.635
 9043TIP3   OH227073   1.834   3.760   0.274
 9043TIP3    H127074   1.816   3.761   0.368
 9043TIP3    H227075   1.906   3.821   0.262
 9044TIP3   OH227076   7.796   3.501   4.531
 9044TIP3    H127077   7.758   3.441   4.596
 9044TIP3    H227078   7.732   3.572   4.524
 9045TIP3   OH227079   3.420   6.204   0.927
 9045TIP3    H127080   3.397   6.175   1.016
 9045TIP3    H227081   3.497   6.261   0.939
 9046TIP3   OH227082   0.038   5.871   1.522
 9046TIP3    H127083   0.043   5.954   1.569
 9046TIP3    H227084  -0.051   5.869   1.487
 9047TIP3   OH227085   1.763   7.687   5.583
 9047TIP3    H127086   1.784   7.683   5.676
 9047TIP3    H227087   1.732   7.599   5.561
 9048TIP3   OH227088   0.862   7.071   1.851
 9048TIP3    H127089   0.874   7.144   1.911
 9048TIP3    H227090   0.946   7.026   1.851
 9049TIP3   OH227091   4.399   7.345   6.434
 9049TIP3    H127092   4.408   7.286   6.508
 9049TIP3    H227093   4.411   7.433   6.471
 9050TIP3   OH227094   2.077   3.904   6.582
 9050TIP3    H127095   2.049   3.994   6.563
 9050TIP3    H227096   2.081   3.900   6.677
 9051TIP3   OH227097   5.290   2.575   2.909
 9051TIP3    H127098   5.254   2.517   2.976
 9051TIP3    H227099   5.329   2.647   2.959
 9052TIP3   OH227100   4.240   6.756   3.227
 9052TIP3    H127101   4.315   6.699   3.247
 9052TIP3    H227102   4.174   6.730   3.290
 9053TIP3   OH227103   2.121   5.036   4.313
 9053TIP3    H127104   2.169   5.101   4.365
 9053TIP3    H227105   2.086   5.086   4.240
 9054TIP3   OH227106   0.112   3.929   6.573
 9054TIP3    H127107   0.067   3.946   6.655
 9054TIP3    H227108   0.103   3.835   6.560
 9055TIP3   OH227109   2.429   2.314   4.756
 9055TIP3    H127110   2.513   2.297   4.713
 9055TIP3    H227111   2.401   2.398   4.723
 9056TIP3   OH227112   1.596   2.245   3.443
 9056TIP3    H127113   1.543   2.311   3.396
 9056TIP3    H227114   1.602   2.172   3.381
 9057TIP3   OH227115   3.395   0.114   0.229
 9057TIP3    H127116   3.408   0.096   0.322
 9057TIP3    H227117   3.442   0.043   0.185
 9058TIP3   OH227118   3.922   6.599   6.363
 9058TIP3    H127119   3.970   6.591   6.445
 9058TIP3    H227120   3.894   6.509   6.342
 9059TIP3   OH227121   7.948   6.194   1.297
 9059TIP3    H127122   7.920   6.282   1.321
 9059TIP3    H227123   7.866   6.145   1.286
 9060TIP3   OH227124   6.271   6.545   0.003
 9060TIP3    H127125   6.278   6.548   0.098
 9060TIP3    H227126   6.177   6.547  -0.014
 9061TIP3   OH227127   5.250   0.198   1.976
 9061TIP3    H127128   5.300   0.117   1.986
 9061TIP3    H227129   5.226   0.223   2.065
 9062TIP3   OH227130   4.938   4.090   0.405
 9062TIP3    H127131   4.919   4.131   0.320
 9062TIP3    H227132   4.957   4.163   0.463
 9063TIP3   OH227133   7.037   2.230   3.196
 9063TIP3    H127134   7.008   2.207   3.285
 9063TIP3    H227135   7.132   2.216   3.197
 9064TIP3   OH227136   3.821   6.225   4.062
 9064TIP3    H127137   3.746   6.193   4.012
 9064TIP3    H227138   3.815   6.180   4.146
 9065TIP3   OH227139   0.900   3.293   2.974
 9065TIP3    H127140   0.990   3.324   2.976
 9065TIP3    H227141   0.850   3.362   3.017
 9066TIP3   OH227142   5.211   0.318   0.420
 9066TIP3    H127143   5.167   0.377   0.482
 9066TIP3    H227144   5.262   0.376   0.363
 9067TIP3   OH227145   4.186   7.752   4.842
 9067TIP3    H127146   4.119   7.807   4.884
 9067TIP3    H227147   4.262   7.809   4.833
 9068TIP3   OH227148   2.690   6.658   4.024
 9068TIP3    H127149   2.722   6.620   4.106
 9068TIP3    H227150   2.758   6.637   3.960
 9069TIP3   OH227151   4.937   2.031   6.181
 9069TIP3    H127152   4.892   1.977   6.247
 9069TIP3    H227153   4.994   2.088   6.233
 9070TIP3   OH227154   7.439   4.656   3.150
 9070TIP3    H127155   7.493   4.730   3.177
 9070TIP3    H227156   7.413   4.676   3.060
 9071TIP3   OH227157   5.905   1.252   3.940
 9071TIP3    H127158   5.878   1.315   4.007
 9071TIP3    H227159   5.829   1.246   3.882
 9072TIP3   OH227160   3.693   7.825   4.911
 9072TIP3    H127161   3.639   7.809   4.833
 9072TIP3    H227162   3.668   7.755   4.971
 9073TIP3   OH227163   3.054   5.920   1.854
 9073TIP3    H127164   3.113   5.991   1.882
 9073TIP3    H227165   3.013   5.890   1.935
 9074TIP3   OH227166   1.311   6.791   6.355
 9074TIP3    H127167   1.347   6.753   6.275
 9074TIP3    H227168   1.387   6.807   6.411
 9075TIP3   OH227169   7.728   0.153   0.697
 9075TIP3    H127170   7.717   0.225   0.760
 9075TIP3    H227171   7.653   0.096   0.712
 9076TIP3   OH227172   8.123   5.901   3.789
 9076TIP3    H127173   8.116   5.814   3.750
 9076TIP3    H227174   8.138   5.884   3.882
 9077TIP3   OH227175   2.629   0.874   6.329
 9077TIP3    H127176   2.575   0.847   6.403
 9077TIP3    H227177   2.678   0.950   6.361
 9078TIP3   OH227178   5.422   1.013   4.839
 9078TIP3    H127179   5.505   0.992   4.796
 9078TIP3    H227180   5.409   1.106   4.821
 9079TIP3   OH227181   6.562   7.354   3.482
 9079TIP3    H127182   6.649   7.313   3.476
 9079TIP3    H227183   6.572   7.420   3.551
 9080TIP3   OH227184   5.919   6.713   0.795
 9080TIP3    H127185   5.968   6.671   0.724
 9080TIP3    H227186   5.939   6.806   0.786
 9081TIP3   OH227187   6.506   5.399   2.086
 9081TIP3    H127188   6.424   5.350   2.080
 9081TIP3    H227189   6.480   5.488   2.106
 9082TIP3   OH227190   5.825   3.398   5.311
 9082TIP3    H127191   5.919   3.406   5.297
 9082TIP3    H227192   5.789   3.483   5.285
 9083TIP3   OH227193   6.221   2.866   3.919
 9083TIP3    H127194   6.276   2.922   3.865
 9083TIP3    H227195   6.188   2.923   3.989
 9084TIP3   OH227196   5.963   1.635   2.033
 9084TIP3    H127197   5.938   1.727   2.024
 9084TIP3    H227198   6.022   1.634   2.109
 9085TIP3   OH227199   0.193   3.039   2.795
 9085TIP3    H127200   0.209   3.023   2.888
 9085TIP3    H227201   0.281   3.047   2.756
 9086TIP3   OH227202   3.753   5.895   3.806
 9086TIP3    H127203   3.707   5.960   3.859
 9086TIP3    H227204   3.781   5.943   3.728
 9087TIP3   OH227205   3.760   1.309   4.984
 9087TIP3    H127206   3.726   1.383   5.035
 9087TIP3    H227207   3.694   1.240   4.994
 9088TIP3   OH227208   2.300   6.933   3.783
 9088TIP3    H127209   2.354   6.903   3.855
 9088TIP3    H227210   2.327   7.023   3.768
 9089TIP3   OH227211   5.707   5.195   6.236
 9089TIP3    H127212   5.734   5.234   6.153
 9089TIP3    H227213   5.761   5.239   6.302
 9090TIP3   OH227214   3.838   4.866   2.494
 9090TIP3    H127215   3.853   4.944   2.441
 9090TIP3    H227216   3.907   4.805   2.467
 9091TIP3   OH227217   3.549   7.537   6.321
 9091TIP3    H127218   3.534   7.618   6.273
 9091TIP3    H227219   3.644   7.526   6.319
 9092TIP3   OH227220   7.644   5.904   0.407
 9092TIP3    H127221   7.623   5.982   0.355
 9092TIP3    H227222   7.658   5.835   0.343
 9093TIP3   OH227223   3.337   5.291   3.207
 9093TIP3    H127224   3.423   5.308   3.246
 9093TIP3    H227225   3.314   5.373   3.164
 9094TIP3   OH227226   6.499   6.509   0.521
 9094TIP3    H127227   6.441   6.483   0.593
 9094TIP3    H227228   6.575   6.451   0.529
 9095TIP3   OH227229   5.153   7.568   6.516
 9095TIP3    H127230   5.209   7.621   6.459
 9095TIP3    H227231   5.090   7.527   6.455
 9096TIP3   OH227232   1.114   6.967   3.813
 9096TIP3    H127233   1.129   6.908   3.887
 9096TIP3    H227234   1.179   6.941   3.748
 9097TIP3   OH227235   6.978   5.326   3.958
 9097TIP3    H127236   6.897   5.302   3.913
 9097TIP3    H227237   6.998   5.414   3.927
 9098TIP3   OH227238   3.652   0.948   4.727
 9098TIP3    H127239   3.631   0.859   4.754
 9098TIP3    H227240   3.729   0.972   4.779
 9099TIP3   OH227241   6.434   2.659   1.513
 9099TIP3    H127242   6.403   2.655   1.603
 9099TIP3    H227243   6.363   2.700   1.464
 9100TIP3   OH227244   4.981   4.970   4.858
 9100TIP3    H127245   5.014   5.059   4.851
 9100TIP3    H227246   5.037   4.930   4.925
 9101TIP3   OH227247   3.123   4.989   3.889
 9101TIP3    H127248   3.147   5.067   3.840
 9101TIP3    H227249   3.200   4.969   3.942
 9102TIP3   OH227250   1.167   7.216   2.881
 9102TIP3    H127251   1.077   7.185   2.889
 9102TIP3    H227252   1.190   7.201   2.789
 9103TIP3   OH227253   7.265   1.349   5.293
 9103TIP3    H127254   7.204   1.342   5.367
 9103TIP3    H227255   7.350   1.322   5.329
 9104TIP3   OH227256   4.384   7.034   4.091
 9104TIP3    H127257   4.341   6.948   4.097
 9104TIP3    H227258   4.363   7.065   4.003
 9105TIP3   OH227259   4.590   1.997   1.806
 9105TIP3    H127260   4.642   1.965   1.733
 9105TIP3    H227261   4.503   1.960   1.792
 9106TIP3   OH227262  -0.036   2.910   3.199
 9106TIP3    H127263  -0.068   2.871   3.117
 9106TIP3    H227264  -0.006   2.835   3.250
 9107TIP3   OH227265   8.271   0.848   1.289
 9107TIP3    H127266   8.354   0.811   1.320
 9107TIP3    H227267   8.203   0.799   1.336
 9108TIP3   OH227268   6.976   3.847   2.537
 9108TIP3    H127269   6.933   3.764   2.557
 9108TIP3    H227270   6.944   3.870   2.450
 9109TIP3   OH227271   6.952   4.607   1.376
 9109TIP3    H127272   7.008   4.678   1.346
 9109TIP3    H227273   6.949   4.545   1.303
 9110TIP3   OH227274   1.393   1.912   2.416
 9110TIP3    H127275   1.386   2.007   2.424
 9110TIP3    H227276   1.487   1.895   2.413
 9111TIP3   OH227277   2.737   3.047   6.702
 9111TIP3    H127278   2.804   3.005   6.755
 9111TIP3    H227279   2.666   2.983   6.696
 9112TIP3   OH227280   5.858   2.365   1.770
 9112TIP3    H127281   5.862   2.455   1.737
 9112TIP3    H227282   5.895   2.312   1.700
 9113TIP3   OH227283   0.221   1.455   6.399
 9113TIP3    H127284   0.253   1.365   6.402
 9113TIP3    H227285   0.300   1.509   6.411
 9114TIP3   OH227286   5.833   5.587   6.138
 9114TIP3    H127287   5.832   5.682   6.150
 9114TIP3    H227288   5.747   5.567   6.101
 9115TIP3   OH227289   3.660   4.481   2.608
 9115TIP3    H127290   3.648   4.496   2.702
 9115TIP3    H227291   3.587   4.528   2.567
 9116TIP3   OH227292   7.124   5.763   1.681
 9116TIP3    H127293   7.145   5.673   1.708
 9116TIP3    H227294   7.056   5.791   1.742
 9117TIP3   OH227295   4.552   1.721   6.271
 9117TIP3    H127296   4.537   1.729   6.177
 9117TIP3    H227297   4.484   1.659   6.300
 9118TIP3   OH227298   6.477   4.254   5.427
 9118TIP3    H127299   6.462   4.336   5.474
 9118TIP3    H227300   6.519   4.197   5.491
 9119TIP3   OH227301   0.770   6.230   6.443
 9119TIP3    H127302   0.711   6.221   6.518
 9119TIP3    H227303   0.843   6.282   6.476
 9120TIP3   OH227304   3.538   3.883   5.813
 9120TIP3    H127305   3.551   3.797   5.774
 9120TIP3    H227306   3.478   3.929   5.754
 9121TIP3   OH227307   4.553   1.191   1.970
 9121TIP3    H127308   4.460   1.210   1.972
 9121TIP3    H227309   4.588   1.247   1.901
 9122TIP3   OH227310   6.899   4.209   0.904
 9122TIP3    H127311   6.927   4.300   0.890
 9122TIP3    H227312   6.807   4.209   0.880
 9123TIP3   OH227313   4.386   0.218   2.585
 9123TIP3    H127314   4.398   0.276   2.660
 9123TIP3    H227315   4.293   0.193   2.589
 9124TIP3   OH227316   5.010   1.351   4.391
 9124TIP3    H127317   4.986   1.263   4.420
 9124TIP3    H227318   5.057   1.388   4.466
 9125TIP3   OH227319   1.632   5.148   5.090
 9125TIP3    H127320   1.710   5.095   5.107
 9125TIP3    H227321   1.666   5.228   5.050
 9126TIP3   OH227322   7.683   5.135   3.360
 9126TIP3    H127323   7.749   5.088   3.308
 9126TIP3    H227324   7.650   5.202   3.301
 9127TIP3   OH227325   0.180   1.003   5.478
 9127TIP3    H127326   0.192   0.934   5.412
 9127TIP3    H227327   0.170   1.083   5.427
 9128TIP3   OH227328   0.283   2.347   3.979
 9128TIP3    H127329   0.189   2.335   3.990
 9128TIP3    H227330   0.322   2.263   4.004
 9129TIP3   OH227331   5.370   6.077   1.163
 9129TIP3    H127332   5.296   6.138   1.153
 9129TIP3    H227333   5.395   6.056   1.073
 9130TIP3   OH227334   6.910   7.369   5.857
 9130TIP3    H127335   6.872   7.443   5.905
 9130TIP3    H227336   6.881   7.382   5.767
 9131TIP3   OH227337   7.990   0.160   0.482
 9131TIP3    H127338   8.000   0.231   0.418
 9131TIP3    H227339   7.974   0.205   0.565
 9132TIP3   OH227340   6.147   2.886   3.560
 9132TIP3    H127341   6.083   2.954   3.582
 9132TIP3    H227342   6.134   2.819   3.627
 9133TIP3   OH227343   7.429   3.687   4.989
 9133TIP3    H127344   7.504   3.747   4.992
 9133TIP3    H227345   7.360   3.733   5.036
 9134TIP3   OH227346   4.724   0.770   5.282
 9134TIP3    H127347   4.727   0.695   5.222
 9134TIP3    H227348   4.688   0.842   5.229
 9135TIP3   OH227349   3.570   2.873   0.961
 9135TIP3    H127350   3.479   2.903   0.963
 9135TIP3    H227351   3.602   2.888   1.050
 9136TIP3   OH227352   0.598   4.448   3.088
 9136TIP3    H127353   0.682   4.492   3.072
 9136TIP3    H227354   0.593   4.440   3.183
 9137TIP3   OH227355   6.697   2.077   1.144
 9137TIP3    H127356   6.631   2.132   1.187
 9137TIP3    H227357   6.701   2.110   1.054
 9138TIP3   OH227358   0.694   3.147   3.825
 9138TIP3    H127359   0.756   3.179   3.760
 9138TIP3    H227360   0.676   3.057   3.799
 9139TIP3   OH227361   8.136   3.793   6.473
 9139TIP3    H127362   8.097   3.824   6.555
 9139TIP3    H227363   8.067   3.739   6.433
 9140TIP3   OH227364   2.293   0.292   3.689
 9140TIP3    H127365   2.208   0.299   3.645
 9140TIP3    H227366   2.343   0.367   3.655
 9141TIP3   OH227367   6.421   5.858   1.140
 9141TIP3    H127368   6.351   5.873   1.203
 9141TIP3    H227369   6.484   5.803   1.186
 9142TIP3   OH227370   7.090   1.358   2.453
 9142TIP3    H127371   7.150   1.395   2.387
 9142TIP3    H227372   7.051   1.282   2.409
 9143TIP3   OH227373   5.072   2.505   2.148
 9143TIP3    H127374   5.066   2.431   2.209
 9143TIP3    H227375   5.150   2.552   2.175
 9144TIP3   OH227376   4.215   3.552   4.132
 9144TIP3    H127377   4.282   3.542   4.200
 9144TIP3    H227378   4.225   3.473   4.078
 9145TIP3   OH227379   4.165   7.319   4.096
 9145TIP3    H127380   4.224   7.389   4.120
 9145TIP3    H227381   4.211   7.270   4.027
 9146TIP3   OH227382   4.023   6.247   3.048
 9146TIP3    H127383   3.966   6.258   2.973
 9146TIP3    H227384   4.078   6.326   3.049
 9147TIP3   OH227385   2.339   7.339   5.089
 9147TIP3    H127386   2.296   7.293   5.017
 9147TIP3    H227387   2.308   7.429   5.081
 9148TIP3   OH227388   4.423   2.686   1.226
 9148TIP3    H127389   4.518   2.693   1.216
 9148TIP3    H227390   4.397   2.618   1.163
 9149TIP3   OH227391   7.213   3.631   3.447
 9149TIP3    H127392   7.168   3.560   3.494
 9149TIP3    H227393   7.265   3.586   3.381
 9150TIP3   OH227394   4.752   4.484   3.926
 9150TIP3    H127395   4.676   4.532   3.958
 9150TIP3    H227396   4.826   4.541   3.945
 9151TIP3   OH227397   8.049   5.238   1.883
 9151TIP3    H127398   8.023   5.232   1.975
 9151TIP3    H227399   7.974   5.280   1.841
 9152TIP3   OH227400   8.205   5.966   5.953
 9152TIP3    H127401   8.180   6.000   5.867
 9152TIP3    H227402   8.286   5.918   5.938
 9153TIP3   OH227403   5.941   1.062   4.204
 9153TIP3    H127404   5.954   1.157   4.203
 9153TIP3    H227405   6.030   1.026   4.211
 9154TIP3   OH227406   7.105   0.385   2.622
 9154TIP3    H127407   7.115   0.291   2.634
 9154TIP3    H227408   7.026   0.395   2.569
 9155TIP3   OH227409   4.227   6.866   4.357
 9155TIP3    H127410   4.264   6.951   4.382
 9155TIP3    H227411   4.240   6.861   4.263
 9156TIP3   OH227412   0.378   2.750   2.014
 9156TIP3    H127413   0.286   2.775   2.005
 9156TIP3    H227414   0.419   2.825   2.056
 9157TIP3   OH227415   7.991   7.335   0.966
 9157TIP3    H127416   7.907   7.382   0.968
 9157TIP3    H227417   8.009   7.317   1.058
 9158TIP3   OH227418   3.884   0.463   1.518
 9158TIP3    H127419   3.938   0.522   1.571
 9158TIP3    H227420   3.896   0.377   1.558
 9159TIP3   OH227421   1.929   0.681   2.107
 9159TIP3    H127422   1.925   0.685   2.011
 9159TIP3    H227423   1.855   0.625   2.131
 9160TIP3   OH227424   2.810   7.126   2.797
 9160TIP3    H127425   2.786   7.212   2.832
 9160TIP3    H227426   2.726   7.081   2.786
 9161TIP3   OH227427   8.156   7.750   4.322
 9161TIP3    H127428   8.137   7.784   4.234
 9161TIP3    H227429   8.242   7.710   4.314
 9162TIP3   OH227430   3.726   1.919   1.071
 9162TIP3    H127431   3.642   1.917   1.118
 9162TIP3    H227432   3.705   1.889   0.983
 9163TIP3   OH227433   6.272   3.727   4.942
 9163TIP3    H127434   6.216   3.689   5.010
 9163TIP3    H227435   6.360   3.694   4.962
 9164TIP3   OH227436   4.354   2.603   5.723
 9164TIP3    H127437   4.404   2.558   5.655
 9164TIP3    H227438   4.283   2.646   5.675
 9165TIP3   OH227439   4.929   0.810   0.995
 9165TIP3    H127440   5.002   0.846   0.944
 9165TIP3    H227441   4.908   0.879   1.058
 9166TIP3   OH227442   7.644   0.132   4.881
 9166TIP3    H127443   7.721   0.136   4.823
 9166TIP3    H227444   7.654   0.050   4.929
 9167TIP3   OH227445   2.062   2.424   5.139
 9167TIP3    H127446   2.150   2.411   5.102
 9167TIP3    H227447   2.070   2.505   5.190
 9168TIP3   OH227448   1.325   4.781   0.293
 9168TIP3    H127449   1.356   4.695   0.322
 9168TIP3    H227450   1.243   4.762   0.247
 9169TIP3   OH227451   0.082   3.766   4.111
 9169TIP3    H127452   0.005   3.814   4.081
 9169TIP3    H227453   0.153   3.797   4.056
 9170TIP3   OH227454   2.151   5.921   2.596
 9170TIP3    H127455   2.170   5.967   2.514
 9170TIP3    H227456   2.131   5.990   2.659
 9171TIP3   OH227457   4.311   1.694   6.752
 9171TIP3    H127458   4.216   1.686   6.745
 9171TIP3    H227459   4.325   1.773   6.805
 9172TIP3   OH227460   7.925   2.589   6.008
 9172TIP3    H127461   7.848   2.643   6.025
 9172TIP3    H227462   7.932   2.586   5.913
 9173TIP3   OH227463   5.631   6.326   2.216
 9173TIP3    H127464   5.544   6.288   2.204
 9173TIP3    H227465   5.614   6.415   2.246
 9174TIP3   OH227466   6.516   3.020   3.300
 9174TIP3    H127467   6.601   3.013   3.256
 9174TIP3    H227468   6.485   2.930   3.307
 9175TIP3   OH227469   7.357   0.790   1.763
 9175TIP3    H127470   7.413   0.727   1.719
 9175TIP3    H227471   7.347   0.756   1.852
 9176TIP3   OH227472   7.474   3.603   1.373
 9176TIP3    H127473   7.395   3.558   1.344
 9176TIP3    H227474   7.451   3.696   1.370
 9177TIP3   OH227475   5.831   0.538   1.020
 9177TIP3    H127476   5.825   0.504   0.930
 9177TIP3    H227477   5.925   0.544   1.036
 9178TIP3   OH227478   1.616   2.952   2.957
 9178TIP3    H127479   1.678   3.011   2.916
 9178TIP3    H227480   1.538   2.957   2.903
 9179TIP3   OH227481   6.556   6.970   0.304
 9179TIP3    H127482   6.541   7.058   0.337
 9179TIP3    H227483   6.610   6.983   0.225
 9180TIP3   OH227484   2.154   2.375   1.728
 9180TIP3    H127485   2.093   2.348   1.797
 9180TIP3    H227486   2.234   2.326   1.746
 9181TIP3   OH227487   4.429   2.372   0.475
 9181TIP3    H127488   4.473   2.447   0.514
 9181TIP3    H227489   4.365   2.345   0.542
 9182TIP3   OH227490   4.693   5.730   6.194
 9182TIP3    H127491   4.752   5.800   6.166
 9182TIP3    H227492   4.744   5.678   6.256
 9183TIP3   OH227493   2.861   4.007   3.340
 9183TIP3    H127494   2.851   3.934   3.400
 9183TIP3    H227495   2.772   4.034   3.320
 9184TIP3   OH227496   3.862   3.389   0.443
 9184TIP3    H127497   3.842   3.476   0.476
 9184TIP3    H227498   3.891   3.340   0.520
 9185TIP3   OH227499   2.665   5.581   2.422
 9185TIP3    H127500   2.751   5.561   2.384
 9185TIP3    H227501   2.661   5.529   2.502
 9186TIP3   OH227502   5.316   3.235   2.789
 9186TIP3    H127503   5.397   3.284   2.778
 9186TIP3    H227504   5.248   3.302   2.796
 9187TIP3   OH227505   8.128   7.249   5.303
 9187TIP3    H127506   8.150   7.157   5.297
 9187TIP3    H227507   8.055   7.253   5.365
 9188TIP3   OH227508   2.757   1.489   6.381
 9188TIP3    H127509   2.689   1.547   6.346
 9188TIP3    H227510   2.770   1.424   6.312
 9189TIP3   OH227511   1.491   3.773   2.520
 9189TIP3    H127512   1.576   3.760   2.563
 9189TIP3    H227513   1.430   3.785   2.593
 9190TIP3   OH227514   2.484   3.967   2.296
 9190TIP3    H127515   2.567   3.941   2.336
 9190TIP3    H227516   2.417   3.920   2.346
 9191TIP3   OH227517   5.307   1.620   1.106
 9191TIP3    H127518   5.401   1.620   1.084
 9191TIP3    H227519   5.266   1.670   1.035
 9192TIP3   OH227520   6.192   0.584   5.859
 9192TIP3    H127521   6.287   0.576   5.854
 9192TIP3    H227522   6.158   0.496   5.841
 9193TIP3   OH227523   6.026   5.705   5.106
 9193TIP3    H127524   6.118   5.728   5.096
 9193TIP3    H227525   6.027   5.627   5.162
 9194TIP3   OH227526   7.967   4.449   2.314
 9194TIP3    H127527   7.912   4.484   2.244
 9194TIP3    H227528   7.939   4.495   2.393
 9195TIP3   OH227529   8.146   2.944   4.907
 9195TIP3    H127530   8.130   3.038   4.914
 9195TIP3    H227531   8.239   2.937   4.884
 9196TIP3   OH227532   0.311   4.899   1.052
 9196TIP3    H127533   0.245   4.922   1.118
 9196TIP3    H227534   0.278   4.819   1.013
 9197TIP3   OH227535   3.908   2.787   6.476
 9197TIP3    H127536   3.979   2.813   6.417
 9197TIP3    H227537   3.943   2.799   6.564
 9198TIP3   OH227538   1.452   1.010   5.115
 9198TIP3    H127539   1.373   0.993   5.167
 9198TIP3    H227540   1.524   0.994   5.175
 9199TIP3   OH227541   5.858   4.014   1.239
 9199TIP3    H127542   5.890   4.086   1.295
 9199TIP3    H227543   5.764   4.031   1.230
 9200TIP3   OH227544   4.949   3.146   5.563
 9200TIP3    H127545   4.956   3.111   5.651
 9200TIP3    H227546   5.024   3.205   5.554
 9201TIP3   OH227547   3.598   2.524   1.930
 9201TIP3    H127548   3.580   2.430   1.924
 9201TIP3    H227549   3.569   2.548   2.018
 9202TIP3   OH227550   6.799   1.951   3.639
 9202TIP3    H127551   6.858   2.015   3.680
 9202TIP3    H227552   6.803   1.972   3.546
 9203TIP3   OH227553   3.179   6.478   6.451
 9203TIP3    H127554   3.267   6.490   6.486
 9203TIP3    H227555   3.191   6.422   6.374
 9204TIP3   OH227556   4.355   1.101   6.630
 9204TIP3    H127557   4.327   1.046   6.556
 9204TIP3    H227558   4.357   1.190   6.594
 9205TIP3   OH227559   7.946   1.573   4.797
 9205TIP3    H127560   7.881   1.621   4.746
 9205TIP3    H227561   7.910   1.571   4.886
 9206TIP3   OH227562   3.354   4.082   0.729
 9206TIP3    H127563   3.288   4.031   0.683
 9206TIP3    H227564   3.436   4.062   0.683
 9207TIP3   OH227565   2.710   4.924   0.027
 9207TIP3    H127566   2.662   5.002   0.055
 9207TIP3    H227567   2.651   4.852   0.047
 9208TIP3   OH227568   6.908   0.923   2.198
 9208TIP3    H127569   6.832   0.942   2.143
 9208TIP3    H227570   6.881   0.848   2.251
 9209TIP3   OH227571  -0.012   3.394   0.057
 9209TIP3    H127572   0.078   3.420   0.077
 9209TIP3    H227573  -0.064   3.472   0.076
 9210TIP3   OH227574   6.617   3.526   4.317
 9210TIP3    H127575   6.533   3.502   4.356
 9210TIP3    H227576   6.601   3.525   4.222
 9211TIP3   OH227577   2.861   2.901   4.023
 9211TIP3    H127578   2.835   2.810   4.007
 9211TIP3    H227579   2.956   2.898   4.031
 9212TIP3   OH227580   2.236   1.936   1.117
 9212TIP3    H127581   2.256   1.965   1.206
 9212TIP3    H227582   2.322   1.931   1.074
 9213TIP3   OH227583   1.270   6.463   6.591
 9213TIP3    H127584   1.338   6.450   6.657
 9213TIP3    H227585   1.314   6.445   6.508
 9214TIP3   OH227586   7.266   0.571   2.537
 9214TIP3    H127587   7.228   0.494   2.580
 9214TIP3    H227588   7.232   0.567   2.447
 9215TIP3   OH227589   6.874   0.901   1.031
 9215TIP3    H127590   6.853   0.819   1.075
 9215TIP3    H227591   6.967   0.894   1.009
 9216TIP3   OH227592   4.041   1.933   1.845
 9216TIP3    H127593   3.991   1.915   1.924
 9216TIP3    H227594   4.128   1.896   1.863
 9217TIP3   OH227595   7.267   1.744   4.667
 9217TIP3    H127596   7.272   1.755   4.762
 9217TIP3    H227597   7.307   1.658   4.651
 9218TIP3   OH227598   2.766   2.964   2.740
 9218TIP3    H127599   2.672   2.966   2.758
 9218TIP3    H227600   2.777   3.018   2.662
 9219TIP3   OH227601   0.087   4.154   0.651
 9219TIP3    H127602   0.182   4.165   0.650
 9219TIP3    H227603   0.073   4.067   0.613
 9220TIP3   OH227604   2.582   7.619   2.405
 9220TIP3    H127605   2.640   7.550   2.372
 9220TIP3    H227606   2.506   7.572   2.438
 9221TIP3   OH227607   7.224   0.978   4.169
 9221TIP3    H127608   7.264   1.064   4.164
 9221TIP3    H227609   7.293   0.920   4.202
 9222TIP3   OH227610   1.076   3.243   0.130
 9222TIP3    H127611   1.156   3.216   0.086
 9222TIP3    H227612   1.060   3.176   0.197
 9223TIP3   OH227613   5.963   5.740   5.841
 9223TIP3    H127614   5.903   5.814   5.849
 9223TIP3    H227615   5.928   5.675   5.902
 9224TIP3   OH227616   6.931   0.594   1.117
 9224TIP3    H127617   6.889   0.583   1.032
 9224TIP3    H227618   7.025   0.595   1.098
 9225TIP3   OH227619   2.717   4.836   1.135
 9225TIP3    H127620   2.763   4.821   1.052
 9225TIP3    H227621   2.780   4.882   1.190
 9226TIP3   OH227622   3.040   6.618   0.935
 9226TIP3    H127623   3.135   6.619   0.926
 9226TIP3    H227624   3.012   6.703   0.902
 9227TIP3   OH227625   8.239   3.857   4.977
 9227TIP3    H127626   8.323   3.832   4.938
 9227TIP3    H227627   8.258   3.868   5.070
 9228TIP3   OH227628   3.313   2.167   1.256
 9228TIP3    H127629   3.283   2.217   1.180
 9228TIP3    H227630   3.394   2.211   1.284
 9229TIP3   OH227631   4.350   0.842   0.779
 9229TIP3    H127632   4.281   0.897   0.740
 9229TIP3    H227633   4.374   0.780   0.710
 9230TIP3   OH227634   0.490   3.358   1.689
 9230TIP3    H127635   0.510   3.295   1.759
 9230TIP3    H227636   0.399   3.339   1.665
 9231TIP3   OH227637   7.873   6.191   4.810
 9231TIP3    H127638   7.955   6.143   4.802
 9231TIP3    H227639   7.864   6.210   4.903
 9232TIP3   OH227640   3.349   2.728   3.939
 9232TIP3    H127641   3.367   2.664   4.007
 9232TIP3    H227642   3.432   2.774   3.927
 9233TIP3   OH227643   3.943   5.460   3.020
 9233TIP3    H127644   4.007   5.490   2.956
 9233TIP3    H227645   3.983   5.383   3.061
 9234TIP3   OH227646   0.885   0.170   4.344
 9234TIP3    H127647   0.860   0.172   4.436
 9234TIP3    H227648   0.904   0.078   4.326
 9235TIP3   OH227649   1.358   0.429   2.052
 9235TIP3    H127650   1.305   0.371   2.106
 9235TIP3    H227651   1.295   0.493   2.018
 9236TIP3   OH227652   5.362   3.960   4.607
 9236TIP3    H127653   5.445   4.004   4.626
 9236TIP3    H227654   5.387   3.872   4.579
 9237TIP3   OH227655   6.081   1.861   3.625
 9237TIP3    H127656   5.996   1.874   3.583
 9237TIP3    H227657   6.145   1.874   3.556
 9238TIP3   OH227658   2.957   7.011   0.965
 9238TIP3    H127659   2.995   7.088   0.924
 9238TIP3    H227660   3.022   6.982   1.029
 9239TIP3   OH227661   4.370   4.094   5.187
 9239TIP3    H127662   4.421   4.015   5.204
 9239TIP3    H227663   4.423   4.143   5.124
 9240TIP3   OH227664   6.567   2.729   4.734
 9240TIP3    H127665   6.611   2.731   4.818
 9240TIP3    H227666   6.476   2.750   4.754
 9241TIP3   OH227667   4.790   6.787   0.510
 9241TIP3    H127668   4.864   6.847   0.522
 9241TIP3    H227669   4.830   6.707   0.475
 9242TIP3   OH227670   6.927   1.471   0.764
 9242TIP3    H127671   6.958   1.437   0.680
 9242TIP3    H227672   6.890   1.556   0.742
 9243TIP3   OH227673   5.447   3.363   3.209
 9243TIP3    H127674   5.493   3.285   3.176
 9243TIP3    H227675   5.502   3.436   3.180
 9244TIP3   OH227676   0.925   7.765   3.650
 9244TIP3    H127677   0.989   7.701   3.682
 9244TIP3    H227678   0.907   7.739   3.560
 9245TIP3   OH227679   0.611   1.919   5.794
 9245TIP3    H127680   0.586   1.968   5.872
 9245TIP3    H227681   0.529   1.905   5.747
 9246TIP3   OH227682   0.080   5.201   1.418
 9246TIP3    H127683   0.010   5.227   1.478
 9246TIP3    H227684   0.127   5.282   1.401
 9247TIP3   OH227685   0.204   6.786   1.191
 9247TIP3    H127686   0.225   6.798   1.284
 9247TIP3    H227687   0.214   6.873   1.153
 9248TIP3   OH227688   5.696   1.432   2.905
 9248TIP3    H127689   5.654   1.502   2.854
 9248TIP3    H227690   5.730   1.372   2.839
 9249TIP3   OH227691   2.634   4.294   1.341
 9249TIP3    H127692   2.697   4.262   1.278
 9249TIP3    H227693   2.656   4.249   1.423
 9250TIP3   OH227694   5.754   0.425   1.262
 9250TIP3    H127695   5.770   0.474   1.180
 9250TIP3    H227696   5.680   0.470   1.302
 9251TIP3   OH227697   1.422   0.161   3.960
 9251TIP3    H127698   1.389   0.191   3.875
 9251TIP3    H227699   1.511   0.131   3.942
 9252TIP3   OH227700   0.995   0.922   2.424
 9252TIP3    H127701   1.005   0.954   2.335
 9252TIP3    H227702   1.063   0.856   2.435
 9253TIP3   OH227703   1.483   4.955   2.152
 9253TIP3    H127704   1.484   5.011   2.074
 9253TIP3    H227705   1.514   5.012   2.223
 9254TIP3   OH227706   2.642   1.593   2.238
 9254TIP3    H127707   2.646   1.636   2.152
 9254TIP3    H227708   2.703   1.643   2.293
 9255TIP3   OH227709   7.177   5.572   5.576
 9255TIP3    H127710   7.161   5.661   5.544
 9255TIP3    H227711   7.272   5.564   5.579
 9256TIP3   OH227712   0.623   6.150   1.445
 9256TIP3    H127713   0.559   6.196   1.500
 9256TIP3    H227714   0.576   6.131   1.364
 9257TIP3   OH227715   5.496   4.350   3.025
 9257TIP3    H127716   5.479   4.287   2.955
 9257TIP3    H227717   5.507   4.296   3.103
 9258TIP3   OH227718   1.198   6.205   3.813
 9258TIP3    H127719   1.199   6.110   3.804
 9258TIP3    H227720   1.211   6.238   3.724
 9259TIP3   OH227721   0.644   5.523   0.314
 9259TIP3    H127722   0.617   5.613   0.331
 9259TIP3    H227723   0.566   5.481   0.279
 9260TIP3   OH227724   8.060   7.293   2.791
 9260TIP3    H127725   8.150   7.263   2.776
 9260TIP3    H227726   8.059   7.324   2.882
 9261TIP3   OH227727   2.212   5.663   0.314
 9261TIP3    H127728   2.133   5.702   0.351
 9261TIP3    H227729   2.252   5.734   0.264
 9262TIP3   OH227730   3.419   3.183   3.391
 9262TIP3    H127731   3.505   3.140   3.388
 9262TIP3    H227732   3.374   3.141   3.464
 9263TIP3   OH227733   4.060   6.457   3.422
 9263TIP3    H127734   4.027   6.526   3.365
 9263TIP3    H227735   4.091   6.389   3.362
 9264TIP3   OH227736   4.767   7.326   0.322
 9264TIP3    H127737   4.672   7.324   0.336
 9264TIP3    H227738   4.792   7.416   0.342
 9265TIP3   OH227739   1.740   5.550   2.564
 9265TIP3    H127740   1.699   5.562   2.478
 9265TIP3    H227741   1.760   5.457   2.568
 9266TIP3   OH227742   7.084   5.579   4.260
 9266TIP3    H127743   7.110   5.671   4.269
 9266TIP3    H227744   7.154   5.539   4.209
 9267TIP3   OH227745   6.727   1.728   5.597
 9267TIP3    H127746   6.716   1.668   5.523
 9267TIP3    H227747   6.766   1.807   5.559
 9268TIP3   OH227748   8.039   1.636   3.422
 9268TIP3    H127749   8.025   1.584   3.501
 9268TIP3    H227750   8.091   1.579   3.365
 9269TIP3   OH227751   4.791   4.044   3.969
 9269TIP3    H127752   4.809   4.130   3.929
 9269TIP3    H227753   4.697   4.031   3.957
 9270TIP3   OH227754   7.921   5.263   3.812
 9270TIP3    H127755   7.958   5.269   3.724
 9270TIP3    H227756   7.914   5.169   3.829
 9271TIP3   OH227757   6.878   6.738   6.193
 9271TIP3    H127758   6.794   6.719   6.234
 9271TIP3    H227759   6.866   6.718   6.100
 9272TIP3   OH227760   6.915   5.635   1.012
 9272TIP3    H127761   7.006   5.639   1.042
 9272TIP3    H227762   6.915   5.569   0.943
 9273TIP3   OH227763   3.365   3.433   0.649
 9273TIP3    H127764   3.287   3.381   0.664
 9273TIP3    H227765   3.428   3.372   0.610
 9274TIP3   OH227766   6.461   1.851   0.163
 9274TIP3    H127767   6.381   1.847   0.216
 9274TIP3    H227768   6.515   1.917   0.205
 9275TIP3   OH227769   5.689   5.583   3.507
 9275TIP3    H127770   5.653   5.660   3.462
 9275TIP3    H227771   5.613   5.545   3.552
 9276TIP3   OH227772   7.865   1.581   0.451
 9276TIP3    H127773   7.787   1.599   0.503
 9276TIP3    H227774   7.844   1.501   0.403
 9277TIP3   OH227775   7.045   3.411   3.699
 9277TIP3    H127776   7.060   3.384   3.789
 9277TIP3    H227777   6.993   3.491   3.707
 9278TIP3   OH227778   4.437   2.336   4.154
 9278TIP3    H127779   4.417   2.327   4.247
 9278TIP3    H227780   4.392   2.262   4.113
 9279TIP3   OH227781   4.779   2.361   6.308
 9279TIP3    H127782   4.828   2.367   6.390
 9279TIP3    H227783   4.845   2.341   6.241
 9280TIP3   OH227784   0.510   1.612   2.794
 9280TIP3    H127785   0.532   1.630   2.703
 9280TIP3    H227786   0.471   1.525   2.792
 9281TIP3   OH227787   5.139   2.929   6.790
 9281TIP3    H127788   5.061   2.943   6.844
 9281TIP3    H227789   5.133   2.994   6.721
 9282TIP3   OH227790   1.585   6.327   4.490
 9282TIP3    H127791   1.653   6.381   4.449
 9282TIP3    H227792   1.516   6.390   4.512
 9283TIP3   OH227793   5.185   7.700   1.325
 9283TIP3    H127794   5.253   7.721   1.388
 9283TIP3    H227795   5.226   7.638   1.265
 9284TIP3   OH227796   0.701   3.873   1.782
 9284TIP3    H127797   0.771   3.922   1.824
 9284TIP3    H227798   0.677   3.806   1.845
 9285TIP3   OH227799   0.870   5.951   3.628
 9285TIP3    H127800   0.903   6.039   3.646
 9285TIP3    H227801   0.923   5.920   3.555
 9286TIP3   OH227802   3.532   5.063   1.316
 9286TIP3    H127803   3.584   5.003   1.262
 9286TIP3    H227804   3.488   5.120   1.252
 9287TIP3   OH227805   3.677   6.053   2.067
 9287TIP3    H127806   3.640   6.041   1.979
 9287TIP3    H227807   3.608   6.097   2.116
 9288TIP3   OH227808   6.517   3.008   4.627
 9288TIP3    H127809   6.591   2.970   4.580
 9288TIP3    H227810   6.531   2.982   4.718
 9289TIP3   OH227811   3.546   5.321   2.356
 9289TIP3    H127812   3.617   5.372   2.317
 9289TIP3    H227813   3.479   5.386   2.377
 9290TIP3   OH227814   6.351   5.415   2.476
 9290TIP3    H127815   6.404   5.434   2.398
 9290TIP3    H227816   6.412   5.423   2.549
 9291TIP3   OH227817   1.383   0.509   6.549
 9291TIP3    H127818   1.374   0.594   6.592
 9291TIP3    H227819   1.336   0.448   6.606
 9292TIP3   OH227820   7.047   2.590   4.684
 9292TIP3    H127821   7.020   2.635   4.604
 9292TIP3    H227822   7.121   2.536   4.658
 9293TIP3   OH227823   5.166   7.478   2.959
 9293TIP3    H127824   5.110   7.484   2.882
 9293TIP3    H227825   5.253   7.457   2.925
 9294TIP3   OH227826   1.253   6.985   3.215
 9294TIP3    H127827   1.321   6.982   3.148
 9294TIP3    H227828   1.211   6.899   3.210
 9295TIP3   OH227829   4.395   4.520   3.696
 9295TIP3    H127830   4.399   4.582   3.769
 9295TIP3    H227831   4.463   4.551   3.636
 9296TIP3   OH227832   0.785   4.490   4.728
 9296TIP3    H127833   0.802   4.399   4.703
 9296TIP3    H227834   0.722   4.521   4.663
 9297TIP3   OH227835   2.309   2.365   3.285
 9297TIP3    H127836   2.311   2.293   3.223
 9297TIP3    H227837   2.216   2.377   3.306
 9298TIP3   OH227838   3.696   5.485   1.316
 9298TIP3    H127839   3.681   5.436   1.397
 9298TIP3    H227840   3.732   5.568   1.344
 9299TIP3   OH227841   0.356   0.023   1.355
 9299TIP3    H127842   0.449   0.020   1.379
 9299TIP3    H227843   0.346   0.107   1.311
 9300TIP3   OH227844   0.074   5.345   2.091
 9300TIP3    H127845   0.125   5.373   2.015
 9300TIP3    H227846   0.013   5.417   2.107
 9301TIP3   OH227847   4.691   2.053   1.151
 9301TIP3    H127848   4.648   2.071   1.234
 9301TIP3    H227849   4.683   1.959   1.139
 9302TIP3   OH227850   8.150   2.254   2.459
 9302TIP3    H127851   8.159   2.305   2.539
 9302TIP3    H227852   8.084   2.188   2.480
 9303TIP3   OH227853   6.180   2.584   2.555
 9303TIP3    H127854   6.114   2.583   2.486
 9303TIP3    H227855   6.153   2.513   2.614
 9304TIP3   OH227856   6.326   4.703   0.229
 9304TIP3    H127857   6.417   4.702   0.200
 9304TIP3    H227858   6.279   4.747   0.158
 9305TIP3   OH227859   1.778   7.632   0.348
 9305TIP3    H127860   1.829   7.609   0.270
 9305TIP3    H227861   1.711   7.563   0.353
 9306TIP3   OH227862   8.171   7.632   4.618
 9306TIP3    H127863   8.080   7.656   4.600
 9306TIP3    H227864   8.214   7.634   4.533
 9307TIP3   OH227865   5.411   3.889   5.315
 9307TIP3    H127866   5.458   3.902   5.397
 9307TIP3    H227867   5.354   3.814   5.331
 9308TIP3   OH227868   1.153   0.135   0.975
 9308TIP3    H127869   1.189   0.152   1.062
 9308TIP3    H227870   1.073   0.186   0.971
 9309TIP3   OH227871   6.461   5.665   2.096
 9309TIP3    H127872   6.391   5.727   2.118
 9309TIP3    H227873   6.514   5.660   2.176
 9310TIP3   OH227874   0.279   6.008   2.476
 9310TIP3    H127875   0.364   6.005   2.519
 9310TIP3    H227876   0.221   5.959   2.534
 9311TIP3   OH227877   1.412   2.833   2.744
 9311TIP3    H127878   1.330   2.783   2.742
 9311TIP3    H227879   1.402   2.900   2.677
 9312TIP3   OH227880   2.397   6.578   3.044
 9312TIP3    H127881   2.326   6.586   3.107
 9312TIP3    H227882   2.463   6.524   3.088
 9313TIP3   OH227883   6.813   5.434   3.593
 9313TIP3    H127884   6.817   5.522   3.632
 9313TIP3    H227885   6.904   5.403   3.596
 9314TIP3   OH227886   7.575   6.250   4.406
 9314TIP3    H127887   7.613   6.337   4.386
 9314TIP3    H227888   7.567   6.249   4.501
 9315TIP3   OH227889   3.704   3.764   4.490
 9315TIP3    H127890   3.645   3.804   4.426
 9315TIP3    H227891   3.786   3.812   4.479
 9316TIP3   OH227892   7.054   4.084   3.198
 9316TIP3    H127893   7.043   4.125   3.112
 9316TIP3    H227894   7.117   4.014   3.183
 9317TIP3   OH227895   3.326   5.005   6.165
 9317TIP3    H127896   3.406   5.053   6.144
 9317TIP3    H227897   3.326   4.999   6.261
 9318TIP3   OH227898   4.310   4.979   2.886
 9318TIP3    H127899   4.369   5.054   2.894
 9318TIP3    H227900   4.366   4.903   2.903
 9319TIP3   OH227901   3.287   0.738   5.447
 9319TIP3    H127902   3.219   0.720   5.382
 9319TIP3    H227903   3.262   0.687   5.523
 9320TIP3   OH227904   6.875   7.311   3.888
 9320TIP3    H127905   6.930   7.280   3.816
 9320TIP3    H227906   6.806   7.245   3.896
 9321TIP3   OH227907   0.948   6.422   6.546
 9321TIP3    H127908   0.996   6.498   6.577
 9321TIP3    H227909   1.001   6.347   6.571
 9322TIP3   OH227910   7.981   6.082   2.972
 9322TIP3    H127911   8.045   6.017   2.943
 9322TIP3    H227912   7.915   6.083   2.903
 9323TIP3   OH227913   1.048   1.104   0.547
 9323TIP3    H127914   1.049   1.042   0.474
 9323TIP3    H227915   1.029   1.050   0.624
 9324TIP3   OH227916   6.511   5.246   3.059
 9324TIP3    H127917   6.588   5.197   3.028
 9324TIP3    H227918   6.534   5.273   3.147
 9325TIP3   OH227919   7.755   0.893   3.303
 9325TIP3    H127920   7.733   0.966   3.362
 9325TIP3    H227921   7.717   0.816   3.346
 9326TIP3   OH227922   5.613   0.188   2.716
 9326TIP3    H127923   5.603   0.267   2.770
 9326TIP3    H227924   5.707   0.176   2.707
 9327TIP3   OH227925   4.389   5.492   4.744
 9327TIP3    H127926   4.399   5.452   4.657
 9327TIP3    H227927   4.407   5.585   4.729
 9328TIP3   OH227928   7.346   5.020   3.863
 9328TIP3    H127929   7.341   5.083   3.935
 9328TIP3    H227930   7.319   4.937   3.901
 9329TIP3   OH227931   5.939   7.154   1.098
 9329TIP3    H127932   5.989   7.232   1.076
 9329TIP3    H227933   5.962   7.091   1.029
 9330TIP3   OH227934   3.203   1.184   2.510
 9330TIP3    H127935   3.266   1.252   2.533
 9330TIP3    H227936   3.129   1.198   2.569
 9331TIP3   OH227937   3.324   5.105   2.993
 9331TIP3    H127938   3.314   5.135   3.084
 9331TIP3    H227939   3.412   5.132   2.969
 9332TIP3   OH227940   2.111   7.319   2.759
 9332TIP3    H127941   2.200   7.334   2.793
 9332TIP3    H227942   2.054   7.356   2.826
 9333TIP3   OH227943   8.207   3.022   2.689
 9333TIP3    H127944   8.230   2.943   2.739
 9333TIP3    H227945   8.262   3.019   2.611
 9334TIP3   OH227946   5.971   0.602   2.272
 9334TIP3    H127947   6.033   0.575   2.205
 9334TIP3    H227948   5.890   0.619   2.224
 9335TIP3   OH227949   2.435   1.166   1.138
 9335TIP3    H127950   2.516   1.142   1.183
 9335TIP3    H227951   2.374   1.190   1.208
 9336TIP3   OH227952   6.009   6.288   6.697
 9336TIP3    H127953   6.040   6.198   6.699
 9336TIP3    H227954   5.919   6.283   6.731
 9337TIP3   OH227955   6.989   2.483   2.098
 9337TIP3    H127956   7.078   2.452   2.115
 9337TIP3    H227957   6.963   2.437   2.018
 9338TIP3   OH227958   5.104   7.854   1.572
 9338TIP3    H127959   5.159   7.781   1.600
 9338TIP3    H227960   5.076   7.831   1.483
 9339TIP3   OH227961   6.708   3.462   6.160
 9339TIP3    H127962   6.633   3.414   6.197
 9339TIP3    H227963   6.689   3.467   6.066
 9340TIP3   OH227964   1.112   0.825   1.938
 9340TIP3    H127965   1.122   0.732   1.959
 9340TIP3    H227966   1.081   0.826   1.847
 9341TIP3   OH227967   3.774   5.567   3.482
 9341TIP3    H127968   3.692   5.551   3.529
 9341TIP3    H227969   3.781   5.662   3.478
 9342TIP3   OH227970   7.179   3.811   6.098
 9342TIP3    H127971   7.204   3.720   6.116
 9342TIP3    H227972   7.231   3.863   6.160
 9343TIP3   OH227973   6.226   7.659   0.727
 9343TIP3    H127974   6.229   7.593   0.797
 9343TIP3    H227975   6.133   7.667   0.706
 9344TIP3   OH227976   7.425   7.454   5.458
 9344TIP3    H127977   7.483   7.440   5.532
 9344TIP3    H227978   7.482   7.484   5.387
 9345TIP3   OH227979   6.990   6.194   6.797
 9345TIP3    H127980   6.907   6.238   6.776
 9345TIP3    H227981   6.975   6.102   6.773
 9346TIP3   OH227982   1.516   7.778   4.965
 9346TIP3    H127983   1.498   7.779   4.871
 9346TIP3    H227984   1.484   7.692   4.994
 9347TIP3   OH227985   2.339   6.733   0.257
 9347TIP3    H127986   2.269   6.675   0.226
 9347TIP3    H227987   2.297   6.790   0.321
 9348TIP3   OH227988   2.204   3.125   2.342
 9348TIP3    H127989   2.160   3.057   2.291
 9348TIP3    H227990   2.184   3.206   2.296
 9349TIP3   OH227991   3.527   4.656   2.827
 9349TIP3    H127992   3.523   4.635   2.920
 9349TIP3    H227993   3.591   4.727   2.820
 9350TIP3   OH227994   0.625   0.916   4.547
 9350TIP3    H127995   0.550   0.934   4.489
 9350TIP3    H227996   0.637   0.997   4.597
 9351TIP3   OH227997   4.911   4.458   5.070
 9351TIP3    H127998   4.965   4.506   5.133
 9351TIP3    H227999   4.903   4.370   5.108
 9352TIP3   OH228000   5.383   1.962   5.487
 9352TIP3    H128001   5.474   1.971   5.459
 9352TIP3    H228002   5.332   1.992   5.412
 9353TIP3   OH228003   0.671   0.469   0.533
 9353TIP3    H128004   0.633   0.414   0.602
 9353TIP3    H228005   0.741   0.415   0.496
 9354TIP3   OH228006   4.411   5.043   4.283
 9354TIP3    H128007   4.337   5.005   4.329
 9354TIP3    H228008   4.468   4.968   4.264
 9355TIP3   OH228009   0.998   2.247   5.194
 9355TIP3    H128010   1.085   2.258   5.232
 9355TIP3    H228011   0.940   2.239   5.269
 9356TIP3   OH228012   2.290   6.584   6.398
 9356TIP3    H128013   2.243   6.667   6.398
 9356TIP3    H228014   2.239   6.528   6.340
 9357TIP3   OH228015   3.341   0.939   6.499
 9357TIP3    H128016   3.260   0.978   6.466
 9357TIP3    H228017   3.351   0.858   6.450
 9358TIP3   OH228018   1.986   6.357   2.153
 9358TIP3    H128019   1.980   6.365   2.249
 9358TIP3    H228020   2.038   6.432   2.125
 9359TIP3   OH228021   3.246   0.257   3.388
 9359TIP3    H128022   3.291   0.195   3.331
 9359TIP3    H228023   3.214   0.326   3.330
 9360TIP3   OH228024   2.978   0.334   0.874
 9360TIP3    H128025   2.933   0.410   0.836
 9360TIP3    H228026   2.918   0.301   0.940
 9361TIP3   OH228027   4.490   5.706   1.744
 9361TIP3    H128028   4.462   5.735   1.657
 9361TIP3    H228029   4.550   5.633   1.727
 9362TIP3   OH228030   3.201   2.306   3.704
 9362TIP3    H128031   3.220   2.347   3.788
 9362TIP3    H228032   3.258   2.229   3.702
 9363TIP3   OH228033   3.992   7.496   5.055
 9363TIP3    H128034   3.901   7.466   5.056
 9363TIP3    H228035   3.986   7.590   5.072
 9364TIP3   OH228036   2.625   0.842   0.418
 9364TIP3    H128037   2.642   0.842   0.324
 9364TIP3    H228038   2.539   0.884   0.428
 9365TIP3   OH228039   5.879   5.315   0.632
 9365TIP3    H128040   5.907   5.346   0.718
 9365TIP3    H228041   5.803   5.259   0.650
 9366TIP3   OH228042   5.173   6.413   2.283
 9366TIP3    H128043   5.238   6.395   2.351
 9366TIP3    H228044   5.175   6.508   2.271
 9367TIP3   OH228045   4.946   5.936   3.168
 9367TIP3    H128046   4.967   5.990   3.244
 9367TIP3    H228047   5.030   5.923   3.124
 9368TIP3   OH228048   6.237   6.606   6.613
 9368TIP3    H128049   6.184   6.577   6.687
 9368TIP3    H228050   6.214   6.699   6.603
 9369TIP3   OH228051   5.580   6.241   4.373
 9369TIP3    H128052   5.609   6.291   4.449
 9369TIP3    H228053   5.607   6.294   4.298
 9370TIP3   OH228054   6.846   2.698   0.768
 9370TIP3    H128055   6.896   2.619   0.788
 9370TIP3    H228056   6.812   2.683   0.680
 9371TIP3   OH228057   2.103   2.557   5.397
 9371TIP3    H128058   2.190   2.521   5.413
 9371TIP3    H228059   2.043   2.488   5.421
 9372TIP3   OH228060   1.205   6.854   2.878
 9372TIP3    H128061   1.221   6.858   2.784
 9372TIP3    H228062   1.283   6.891   2.918
 9373TIP3   OH228063   0.679   7.715   5.623
 9373TIP3    H128064   0.682   7.781   5.555
 9373TIP3    H228065   0.597   7.731   5.670
 9374TIP3   OH228066   0.059   1.110   3.551
 9374TIP3    H128067  -0.011   1.077   3.607
 9374TIP3    H228068   0.115   1.161   3.610
 9375TIP3   OH228069   4.856   1.500   0.312
 9375TIP3    H128070   4.882   1.427   0.369
 9375TIP3    H228071   4.895   1.577   0.353
 9376TIP3   OH228072   5.989   1.843   6.498
 9376TIP3    H128073   6.035   1.927   6.506
 9376TIP3    H228074   5.903   1.865   6.464
 9377TIP3   OH228075   8.113   0.920   2.913
 9377TIP3    H128076   8.083   0.927   2.823
 9377TIP3    H228077   8.108   0.826   2.933
 9378TIP3   OH228078   7.997   5.253   0.662
 9378TIP3    H128079   7.999   5.218   0.751
 9378TIP3    H228080   8.021   5.345   0.672
 9379TIP3   OH228081   2.991   7.103   1.408
 9379TIP3    H128082   2.908   7.074   1.445
 9379TIP3    H228083   2.969   7.178   1.353
 9380TIP3   OH228084   6.071   6.535   0.996
 9380TIP3    H128085   6.031   6.507   0.913
 9380TIP3    H228086   6.136   6.600   0.970
 9381TIP3   OH228087   5.660   1.178   3.442
 9381TIP3    H128088   5.681   1.231   3.519
 9381TIP3    H228089   5.735   1.190   3.383
 9382TIP3   OH228090   4.926   3.888   5.774
 9382TIP3    H128091   4.957   3.934   5.852
 9382TIP3    H228092   5.006   3.864   5.728
 9383TIP3   OH228093   5.527   0.484   0.648
 9383TIP3    H128094   5.606   0.532   0.624
 9383TIP3    H228095   5.488   0.536   0.718
 9384TIP3   OH228096   4.487   6.765   3.804
 9384TIP3    H128097   4.542   6.825   3.754
 9384TIP3    H228098   4.398   6.795   3.787
 9385TIP3   OH228099   2.164   3.748   3.317
 9385TIP3    H128100   2.137   3.713   3.232
 9385TIP3    H228101   2.259   3.754   3.311
 9386TIP3   OH228102   3.584   5.102   3.950
 9386TIP3    H128103   3.530   5.030   3.918
 9386TIP3    H228104   3.669   5.062   3.970
 9387TIP3   OH228105   3.767   1.261   4.424
 9387TIP3    H128106   3.834   1.203   4.460
 9387TIP3    H228107   3.750   1.325   4.494
 9388TIP3   OH228108   4.250   1.662   6.196
 9388TIP3    H128109   4.214   1.749   6.180
 9388TIP3    H228110   4.329   1.658   6.142
 9389TIP3   OH228111   4.946   1.977   5.341
 9389TIP3    H128112   5.026   1.983   5.393
 9389TIP3    H228113   4.927   1.883   5.338
 9390TIP3   OH228114   5.943   1.640   2.591
 9390TIP3    H128115   5.925   1.659   2.683
 9390TIP3    H228116   5.928   1.546   2.582
 9391TIP3   OH228117   2.447   3.247   3.250
 9391TIP3    H128118   2.358   3.266   3.281
 9391TIP3    H228119   2.504   3.294   3.311
 9392TIP3   OH228120   1.035   2.393   6.769
 9392TIP3    H128121   1.097   2.343   6.715
 9392TIP3    H228122   1.036   2.481   6.731
 9393TIP3   OH228123   5.124   6.715   2.494
 9393TIP3    H128124   5.142   6.701   2.587
 9393TIP3    H228125   5.105   6.808   2.487
 9394TIP3   OH228126   4.251   3.139   3.795
 9394TIP3    H128127   4.223   3.058   3.839
 9394TIP3    H228128   4.301   3.109   3.719
 9395TIP3   OH228129   0.060   7.824   0.117
 9395TIP3    H128130   0.051   7.761   0.189
 9395TIP3    H228131   0.107   7.898   0.156
 9396TIP3   OH228132   1.105   1.095   6.309
 9396TIP3    H128133   1.146   1.016   6.273
 9396TIP3    H228134   1.175   1.140   6.356
 9397TIP3   OH228135   2.140   4.055   2.614
 9397TIP3    H128136   2.053   4.043   2.576
 9397TIP3    H228137   2.123   4.081   2.704
 9398TIP3   OH228138   0.449   0.819   0.889
 9398TIP3    H128139   0.533   0.863   0.876
 9398TIP3    H228140   0.465   0.756   0.959
 9399TIP3   OH228141   3.813   4.059   1.637
 9399TIP3    H128142   3.750   4.123   1.671
 9399TIP3    H228143   3.873   4.044   1.710
 9400TIP3   OH228144   1.067   1.992   1.677
 9400TIP3    H128145   0.983   2.006   1.635
 9400TIP3    H228146   1.093   1.904   1.651
 9401TIP3   OH228147   4.058   5.439   3.437
 9401TIP3    H128148   3.965   5.422   3.450
 9401TIP3    H228149   4.078   5.512   3.496
 9402TIP3   OH228150   1.810   3.377   3.750
 9402TIP3    H128151   1.715   3.363   3.759
 9402TIP3    H228152   1.849   3.302   3.795
 9403TIP3   OH228153   2.508   0.956   0.897
 9403TIP3    H128154   2.582   0.927   0.844
 9403TIP3    H228155   2.490   1.045   0.866
 9404TIP3   OH228156   0.584   6.976   5.196
 9404TIP3    H128157   0.502   7.014   5.230
 9404TIP3    H228158   0.620   6.927   5.270
 9405TIP3   OH228159   0.825   3.849   5.040
 9405TIP3    H128160   0.899   3.874   5.095
 9405TIP3    H228161   0.750   3.852   5.100
 9406TIP3   OH228162   7.400   5.383   3.307
 9406TIP3    H128163   7.378   5.434   3.229
 9406TIP3    H228164   7.374   5.439   3.380
 9407TIP3   OH228165   5.467   0.687   2.601
 9407TIP3    H128166   5.517   0.680   2.519
 9407TIP3    H228167   5.376   0.678   2.575
 9408TIP3   OH228168   1.657   4.013   6.391
 9408TIP3    H128169   1.748   4.019   6.361
 9408TIP3    H228170   1.608   3.984   6.314
 9409TIP3   OH228171   6.355   1.302   4.234
 9409TIP3    H128172   6.408   1.223   4.226
 9409TIP3    H228173   6.395   1.365   4.173
 9410TIP3   OH228174   7.677   6.872   4.674
 9410TIP3    H128175   7.582   6.886   4.673
 9410TIP3    H228176   7.695   6.827   4.756
 9411TIP3   OH228177   6.346   4.638   6.548
 9411TIP3    H128178   6.365   4.549   6.521
 9411TIP3    H228179   6.301   4.629   6.632
 9412TIP3   OH228180   6.256   3.725   0.671
 9412TIP3    H128181   6.336   3.681   0.702
 9412TIP3    H228182   6.188   3.693   0.730
 9413TIP3   OH228183   3.450   7.211   3.755
 9413TIP3    H128184   3.363   7.184   3.785
 9413TIP3    H228185   3.482   7.137   3.704
 9414TIP3   OH228186   4.352   5.854   6.025
 9414TIP3    H128187   4.445   5.857   6.001
 9414TIP3    H228188   4.345   5.782   6.087
 9415TIP3   OH228189   5.292   3.595   3.151
 9415TIP3    H128190   5.343   3.672   3.179
 9415TIP3    H228191   5.323   3.525   3.208
 9416TIP3   OH228192   6.060   5.182   2.214
 9416TIP3    H128193   5.978   5.180   2.164
 9416TIP3    H228194   6.087   5.090   2.217
 9417TIP3   OH228195   4.045   2.697   1.036
 9417TIP3    H128196   4.068   2.703   0.943
 9417TIP3    H228197   4.096   2.623   1.068
 9418TIP3   OH228198   0.668   5.416   1.414
 9418TIP3    H128199   0.587   5.374   1.442
 9418TIP3    H228200   0.654   5.437   1.322
 9419TIP3   OH228201   5.151   6.870   1.241
 9419TIP3    H128202   5.140   6.921   1.160
 9419TIP3    H228203   5.238   6.831   1.233
 9420TIP3   OH228204   7.210   7.622   5.014
 9420TIP3    H128205   7.195   7.716   5.008
 9420TIP3    H228206   7.268   7.602   4.940
 9421TIP3   OH228207   2.415   6.360   2.033
 9421TIP3    H128208   2.409   6.296   2.104
 9421TIP3    H228209   2.508   6.384   2.030
 9422TIP3   OH228210   6.695   1.708   3.560
 9422TIP3    H128211   6.705   1.795   3.598
 9422TIP3    H228212   6.712   1.720   3.467
 9423TIP3   OH228213   7.855   6.768   2.120
 9423TIP3    H128214   7.860   6.805   2.209
 9423TIP3    H228215   7.799   6.828   2.072
 9424TIP3   OH228216   1.058   2.975   0.236
 9424TIP3    H128217   0.964   2.973   0.215
 9424TIP3    H228218   1.060   2.963   0.331
 9425TIP3   OH228219   1.810   4.944   5.975
 9425TIP3    H128220   1.855   4.987   5.903
 9425TIP3    H228221   1.717   4.966   5.963
 9426TIP3   OH228222   6.895   4.651   4.527
 9426TIP3    H128223   6.909   4.707   4.604
 9426TIP3    H228224   6.982   4.645   4.486
 9427TIP3   OH228225   6.260   6.429   5.150
 9427TIP3    H128226   6.336   6.465   5.197
 9427TIP3    H228227   6.249   6.342   5.188
 9428TIP3   OH228228   6.525   7.078   5.364
 9428TIP3    H128229   6.462   7.100   5.295
 9428TIP3    H228230   6.506   7.140   5.435
 9429TIP3   OH228231   2.414   2.170   3.931
 9429TIP3    H128232   2.351   2.209   3.870
 9429TIP3    H228233   2.480   2.129   3.874
 9430TIP3   OH228234   5.837   2.715   0.723
 9430TIP3    H128235   5.794   2.678   0.801
 9430TIP3    H228236   5.815   2.808   0.727
 9431TIP3   OH228237   0.073   1.370   5.609
 9431TIP3    H128238   0.164   1.398   5.610
 9431TIP3    H228239   0.051   1.356   5.701
 9432TIP3   OH228240   6.339   7.465   6.139
 9432TIP3    H128241   6.271   7.494   6.078
 9432TIP3    H228242   6.421   7.495   6.100
 9433TIP3   OH228243   6.256   1.131   5.565
 9433TIP3    H128244   6.304   1.212   5.550
 9433TIP3    H228245   6.258   1.119   5.660
 9434TIP3   OH228246   1.469   2.090   6.723
 9434TIP3    H128247   1.501   2.177   6.746
 9434TIP3    H228248   1.531   2.030   6.764
 9435TIP3   OH228249   0.921   6.011   6.329
 9435TIP3    H128250   0.872   6.088   6.359
 9435TIP3    H228251   0.901   6.004   6.236
 9436TIP3   OH228252   1.196   4.004   4.965
 9436TIP3    H128253   1.174   4.023   4.873
 9436TIP3    H228254   1.263   4.068   4.988
 9437TIP3   OH228255   1.280   7.621   3.098
 9437TIP3    H128256   1.233   7.665   3.169
 9437TIP3    H228257   1.212   7.598   3.035
 9438TIP3   OH228258   3.053   6.535   5.206
 9438TIP3    H128259   3.052   6.555   5.300
 9438TIP3    H228260   3.138   6.493   5.192
 9439TIP3   OH228261   8.100   4.507   6.557
 9439TIP3    H128262   8.166   4.444   6.586
 9439TIP3    H228263   8.125   4.526   6.466
 9440TIP3   OH228264   7.290   3.479   2.305
 9440TIP3    H128265   7.325   3.537   2.373
 9440TIP3    H228266   7.366   3.456   2.251
 9441TIP3   OH228267   0.747   2.621   1.612
 9441TIP3    H128268   0.658   2.655   1.606
 9441TIP3    H228269   0.803   2.699   1.611
 9442TIP3   OH228270   5.204   3.770   4.727
 9442TIP3    H128271   5.230   3.856   4.761
 9442TIP3    H228272   5.273   3.747   4.665
 9443TIP3   OH228273   4.446   6.477   4.934
 9443TIP3    H128274   4.540   6.459   4.936
 9443TIP3    H228275   4.440   6.572   4.936
 9444TIP3   OH228276   6.097   5.590   6.272
 9444TIP3    H128277   6.118   5.560   6.361
 9444TIP3    H228278   6.005   5.567   6.261
 9445TIP3   OH228279   0.443   1.670   3.583
 9445TIP3    H128280   0.352   1.684   3.612
 9445TIP3    H228281   0.491   1.653   3.664
 9446TIP3   OH228282   4.686   5.022   1.182
 9446TIP3    H128283   4.642   4.944   1.147
 9446TIP3    H228284   4.779   5.007   1.166
 9447TIP3   OH228285   1.632   1.265   3.475
 9447TIP3    H128286   1.568   1.277   3.546
 9447TIP3    H228287   1.578   1.245   3.398
 9448TIP3   OH228288   7.742   3.605   3.996
 9448TIP3    H128289   7.705   3.518   3.985
 9448TIP3    H228290   7.743   3.642   3.907
 9449TIP3   OH228291   4.061   0.493   2.083
 9449TIP3    H128292   4.060   0.527   1.994
 9449TIP3    H228293   4.120   0.550   2.131
 9450TIP3   OH228294   7.169   5.658   5.846
 9450TIP3    H128295   7.134   5.747   5.849
 9450TIP3    H228296   7.183   5.640   5.753
 9451TIP3   OH228297   1.322   2.902   1.086
 9451TIP3    H128298   1.242   2.934   1.043
 9451TIP3    H228299   1.306   2.915   1.179
 9452TIP3   OH228300   0.926   4.642   0.413
 9452TIP3    H128301   0.850   4.594   0.446
 9452TIP3    H228302   0.948   4.703   0.483
 9453TIP3   OH228303   1.605   1.018   1.193
 9453TIP3    H128304   1.609   1.101   1.145
 9453TIP3    H228305   1.695   0.985   1.192
 9454TIP3   OH228306   2.484   0.652   1.159
 9454TIP3    H128307   2.426   0.587   1.120
 9454TIP3    H228308   2.555   0.662   1.095
 9455TIP3   OH228309   6.934   0.380   2.022
 9455TIP3    H128310   6.885   0.317   1.969
 9455TIP3    H228311   6.995   0.421   1.960
 9456TIP3   OH228312   0.357   5.136   4.854
 9456TIP3    H128313   0.328   5.227   4.855
 9456TIP3    H228314   0.452   5.141   4.854
 9457TIP3   OH228315   2.818   0.344   3.897
 9457TIP3    H128316   2.764   0.422   3.884
 9457TIP3    H228317   2.908   0.377   3.896
 9458TIP3   OH228318   7.099   3.569   1.012
 9458TIP3    H128319   7.147   3.649   1.033
 9458TIP3    H228320   7.008   3.597   1.006
 9459TIP3   OH228321   1.405   2.505   2.741
 9459TIP3    H128322   1.457   2.435   2.781
 9459TIP3    H228323   1.340   2.528   2.808
 9460TIP3   OH228324   4.372   3.241   2.203
 9460TIP3    H128325   4.316   3.231   2.280
 9460TIP3    H228326   4.317   3.212   2.130
 9461TIP3   OH228327   7.966   2.247   5.320
 9461TIP3    H128328   7.987   2.341   5.320
 9461TIP3    H228329   8.007   2.214   5.240
 9462TIP3   OH228330   4.745   3.651   5.450
 9462TIP3    H128331   4.649   3.653   5.448
 9462TIP3    H228332   4.766   3.574   5.503
 9463TIP3   OH228333   0.448   6.148   0.665
 9463TIP3    H128334   0.397   6.229   0.671
 9463TIP3    H228335   0.479   6.133   0.755
 9464TIP3   OH228336   6.837   3.413   0.468
 9464TIP3    H128337   6.854   3.508   0.470
 9464TIP3    H228338   6.916   3.376   0.430
 9465TIP3   OH228339   3.185   5.532   4.906
 9465TIP3    H128340   3.203   5.626   4.900
 9465TIP3    H228341   3.129   5.523   4.983
 9466TIP3   OH228342   2.146   4.442   6.467
 9466TIP3    H128343   2.102   4.527   6.455
 9466TIP3    H228344   2.214   4.459   6.532
 9467TIP3   OH228345   5.987   6.796   1.094
 9467TIP3    H128346   6.020   6.871   1.045
 9467TIP3    H228347   6.012   6.720   1.042
 9468TIP3   OH228348   2.707   0.092   3.897
 9468TIP3    H128349   2.711   0.053   3.810
 9468TIP3    H228350   2.716   0.186   3.882
 9469TIP3   OH228351   2.066   4.496   2.004
 9469TIP3    H128352   2.098   4.498   2.094
 9469TIP3    H228353   2.141   4.464   1.953
 9470TIP3   OH228354   7.527   6.492   6.647
 9470TIP3    H128355   7.572   6.459   6.724
 9470TIP3    H228356   7.480   6.569   6.678
 9471TIP3   OH228357   3.024   0.387   5.452
 9471TIP3    H128358   2.966   0.324   5.494
 9471TIP3    H228359   2.980   0.410   5.370
 9472TIP3   OH228360   3.307   4.765   5.985
 9472TIP3    H128361   3.310   4.860   5.982
 9472TIP3    H228362   3.385   4.740   6.035
 9473TIP3   OH228363   3.159   2.919   1.556
 9473TIP3    H128364   3.241   2.956   1.523
 9473TIP3    H228365   3.186   2.858   1.625
 9474TIP3   OH228366   5.463   2.635   2.708
 9474TIP3    H128367   5.428   2.615   2.622
 9474TIP3    H228368   5.395   2.607   2.769
 9475TIP3   OH228369   6.015   3.463   3.900
 9475TIP3    H128370   6.003   3.382   3.949
 9475TIP3    H228371   6.011   3.437   3.808
 9476TIP3   OH228372   6.542   6.731   0.154
 9476TIP3    H128373   6.516   6.653   0.105
 9476TIP3    H228374   6.459   6.774   0.176
 9477TIP3   OH228375   6.868   0.623   2.154
 9477TIP3    H128376   6.795   0.628   2.093
 9477TIP3    H228377   6.917   0.546   2.126
 9478TIP3   OH228378   2.738   0.788   6.088
 9478TIP3    H128379   2.711   0.772   6.178
 9478TIP3    H228380   2.783   0.707   6.062
 9479TIP3   OH228381   4.228   2.547   3.762
 9479TIP3    H128382   4.301   2.571   3.705
 9479TIP3    H228383   4.150   2.576   3.715
 9480TIP3   OH228384   3.459   3.702   1.442
 9480TIP3    H128385   3.435   3.672   1.529
 9480TIP3    H228386   3.377   3.732   1.403
 9481TIP3   OH228387   3.779   3.687   3.717
 9481TIP3    H128388   3.788   3.782   3.715
 9481TIP3    H228389   3.815   3.658   3.633
 9482TIP3   OH228390   3.017   0.381   4.879
 9482TIP3    H128391   2.972   0.434   4.812
 9482TIP3    H228392   3.093   0.434   4.904
 9483TIP3   OH228393   0.550   7.173   3.352
 9483TIP3    H128394   0.576   7.098   3.299
 9483TIP3    H228395   0.586   7.155   3.439
 9484TIP3   OH228396   7.149   0.570   3.341
 9484TIP3    H128397   7.184   0.484   3.321
 9484TIP3    H228398   7.222   0.618   3.380
 9485TIP3   OH228399   6.739   0.724   0.645
 9485TIP3    H128400   6.708   0.800   0.596
 9485TIP3    H228401   6.671   0.657   0.631
 9486TIP3   OH228402   5.408   6.613   0.360
 9486TIP3    H128403   5.367   6.526   0.364
 9486TIP3    H228404   5.355   6.667   0.419
 9487TIP3   OH228405   2.626   3.986   3.923
 9487TIP3    H128406   2.654   4.028   3.842
 9487TIP3    H228407   2.536   4.016   3.936
 9488TIP3   OH228408   3.614   6.915   0.169
 9488TIP3    H128409   3.551   6.843   0.171
 9488TIP3    H228410   3.580   6.976   0.104
 9489TIP3   OH228411   2.845   6.987   6.285
 9489TIP3    H128412   2.883   6.917   6.337
 9489TIP3    H228413   2.917   7.019   6.231
 9490TIP3   OH228414   0.784   2.251   4.663
 9490TIP3    H128415   0.724   2.226   4.733
 9490TIP3    H228416   0.868   2.263   4.706
 9491TIP3   OH228417   7.944   0.342   0.703
 9491TIP3    H128418   7.879   0.403   0.667
 9491TIP3    H228419   7.893   0.263   0.724
 9492TIP3   OH228420   2.338   0.197   2.928
 9492TIP3    H128421   2.291   0.251   2.865
 9492TIP3    H228422   2.386   0.134   2.874
 9493TIP3   OH228423   1.323   2.654   2.303
 9493TIP3    H128424   1.342   2.587   2.238
 9493TIP3    H228425   1.405   2.665   2.352
 9494TIP3   OH228426   6.201   3.186   0.411
 9494TIP3    H128427   6.157   3.126   0.471
 9494TIP3    H228428   6.290   3.194   0.446
 9495TIP3   OH228429   4.042   4.970   3.265
 9495TIP3    H128430   4.039   4.877   3.242
 9495TIP3    H228431   4.135   4.988   3.280
 9496TIP3   OH228432   3.652   4.674   1.294
 9496TIP3    H128433   3.699   4.616   1.354
 9496TIP3    H228434   3.568   4.630   1.279
 9497TIP3   OH228435   5.252   6.876   4.397
 9497TIP3    H128436   5.273   6.909   4.310
 9497TIP3    H228437   5.246   6.954   4.452
 9498TIP3   OH228438   2.651   1.308   6.745
 9498TIP3    H128439   2.744   1.295   6.725
 9498TIP3    H228440   2.627   1.386   6.695
 9499TIP3   OH228441   0.714   1.062   3.533
 9499TIP3    H128442   0.619   1.074   3.533
 9499TIP3    H228443   0.748   1.143   3.572
 9500TIP3   OH228444   7.738   5.713   5.629
 9500TIP3    H128445   7.817   5.708   5.683
 9500TIP3    H228446   7.755   5.784   5.568
 9501TIP3   OH228447   8.136   5.480   2.844
 9501TIP3    H128448   8.211   5.481   2.784
 9501TIP3    H228449   8.175   5.465   2.931
 9502TIP3   OH228450   6.269   6.739   0.953
 9502TIP3    H128451   6.333   6.672   0.977
 9502TIP3    H228452   6.312   6.822   0.977
 9503TIP3   OH228453   4.225   3.400   3.538
 9503TIP3    H128454   4.206   3.475   3.594
 9503TIP3    H228455   4.291   3.350   3.587
 9504TIP3   OH228456   6.889   0.202   3.769
 9504TIP3    H128457   6.950   0.200   3.695
 9504TIP3    H228458   6.805   0.177   3.731
 9505TIP3   OH228459   2.349   3.563   5.115
 9505TIP3    H128460   2.355   3.657   5.131
 9505TIP3    H228461   2.346   3.524   5.202
 9506TIP3   OH228462   5.893   0.791   3.715
 9506TIP3    H128463   5.986   0.794   3.739
 9506TIP3    H228464   5.849   0.844   3.781
 9507TIP3   OH228465   5.001   6.531   5.663
 9507TIP3    H128466   4.959   6.587   5.729
 9507TIP3    H228467   4.969   6.443   5.683
 9508TIP3   OH228468   0.527   3.975   5.862
 9508TIP3    H128469   0.583   3.981   5.940
 9508TIP3    H228470   0.466   3.904   5.881
 9509TIP3   OH228471   5.698   0.798   5.297
 9509TIP3    H128472   5.755   0.872   5.279
 9509TIP3    H228473   5.671   0.809   5.388
 9510TIP3   OH228474   3.501   4.263   4.039
 9510TIP3    H128475   3.517   4.173   4.012
 9510TIP3    H228476   3.519   4.263   4.133
 9511TIP3   OH228477   4.422   6.006   1.113
 9511TIP3    H128478   4.390   5.925   1.153
 9511TIP3    H228479   4.500   5.980   1.065
 9512TIP3   OH228480   3.447   0.619   1.858
 9512TIP3    H128481   3.359   0.590   1.836
 9512TIP3    H228482   3.457   0.704   1.813
 9513TIP3   OH228483   5.714   3.707   5.492
 9513TIP3    H128484   5.682   3.622   5.522
 9513TIP3    H228485   5.642   3.767   5.510
 9514TIP3   OH228486   8.134   1.567   0.453
 9514TIP3    H128487   8.165   1.498   0.395
 9514TIP3    H228488   8.046   1.539   0.479
 9515TIP3   OH228489   1.619   1.699   3.389
 9515TIP3    H128490   1.594   1.718   3.299
 9515TIP3    H228491   1.604   1.781   3.436
 9516TIP3   OH228492   6.033   0.055   0.392
 9516TIP3    H128493   6.096  -0.006   0.430
 9516TIP3    H228494   6.011   0.016   0.307
 9517TIP3   OH228495   6.513   6.640   5.974
 9517TIP3    H128496   6.447   6.644   5.905
 9517TIP3    H228497   6.511   6.549   6.004
 9518TIP3   OH228498   1.728   1.607   4.349
 9518TIP3    H128499   1.796   1.634   4.410
 9518TIP3    H228500   1.728   1.512   4.353
 9519TIP3   OH228501   1.313   5.091   3.754
 9519TIP3    H128502   1.390   5.034   3.754
 9519TIP3    H228503   1.265   5.067   3.833
 9520TIP3   OH228504   2.224   3.362   0.786
 9520TIP3    H128505   2.309   3.325   0.759
 9520TIP3    H228506   2.226   3.358   0.881
 9521TIP3   OH228507   6.404   3.802   0.188
 9521TIP3    H128508   6.408   3.723   0.243
 9521TIP3    H228509   6.312   3.809   0.163
 9522TIP3   OH228510   2.533   5.472   0.630
 9522TIP3    H128511   2.542   5.397   0.571
 9522TIP3    H228512   2.606   5.463   0.691
 9523TIP3   OH228513   0.108   3.568   6.290
 9523TIP3    H128514   0.202   3.572   6.306
 9523TIP3    H228515   0.091   3.637   6.226
 9524TIP3   OH228516   0.331   5.530   3.813
 9524TIP3    H128517   0.265   5.473   3.774
 9524TIP3    H228518   0.286   5.614   3.824
 9525TIP3   OH228519   1.761   0.378   4.432
 9525TIP3    H128520   1.795   0.414   4.514
 9525TIP3    H228521   1.667   0.367   4.448
 9526TIP3   OH228522   6.071   4.359   3.108
 9526TIP3    H128523   6.072   4.367   3.012
 9526TIP3    H228524   6.082   4.449   3.139
 9527TIP3   OH228525   3.157   3.632   1.902
 9527TIP3    H128526   3.222   3.697   1.930
 9527TIP3    H228527   3.203   3.548   1.911
 9528TIP3   OH228528   3.230   4.989   6.697
 9528TIP3    H128529   3.236   5.078   6.732
 9528TIP3    H228530   3.289   4.937   6.752
 9529TIP3   OH228531   1.414   0.250   0.588
 9529TIP3    H128532   1.388   0.192   0.660
 9529TIP3    H228533   1.484   0.305   0.625
 9530TIP3   OH228534   3.331   0.686   6.359
 9530TIP3    H128535   3.306   0.608   6.409
 9530TIP3    H228536   3.278   0.681   6.279
 9531TIP3   OH228537   6.072   5.788   4.566
 9531TIP3    H128538   6.062   5.877   4.602
 9531TIP3    H228539   6.166   5.777   4.556
 9532TIP3   OH228540   1.784   2.337   0.598
 9532TIP3    H128541   1.841   2.317   0.523
 9532TIP3    H228542   1.833   2.305   0.674
 9533TIP3   OH228543   6.172   2.129   2.676
 9533TIP3    H128544   6.116   2.091   2.743
 9533TIP3    H228545   6.221   2.054   2.641
 9534TIP3   OH228546   3.969   7.758   2.378
 9534TIP3    H128547   3.993   7.828   2.317
 9534TIP3    H228548   3.894   7.793   2.426
 9535TIP3   OH228549   2.918   0.853   1.383
 9535TIP3    H128550   2.961   0.917   1.327
 9535TIP3    H228551   2.990   0.806   1.425
 9536TIP3   OH228552   3.410   7.746   3.061
 9536TIP3    H128553   3.406   7.653   3.040
 9536TIP3    H228554   3.490   7.777   3.020
 9537TIP3   OH228555   7.239   3.103   3.631
 9537TIP3    H128556   7.311   3.041   3.619
 9537TIP3    H228557   7.189   3.068   3.704
 9538TIP3   OH228558   2.264   1.004   6.680
 9538TIP3    H128559   2.346   1.039   6.715
 9538TIP3    H228560   2.198   1.029   6.745
 9539TIP3   OH228561   5.513   3.241   6.666
 9539TIP3    H128562   5.525   3.149   6.640
 9539TIP3    H228563   5.443   3.273   6.608
 9540TIP3   OH228564   7.788   1.860   5.086
 9540TIP3    H128565   7.702   1.902   5.086
 9540TIP3    H228566   7.824   1.877   4.999
 9541TIP3   OH228567   2.855   7.640   4.543
 9541TIP3    H128568   2.850   7.724   4.497
 9541TIP3    H228569   2.932   7.648   4.599
 9542TIP3   OH228570   5.589   1.457   6.000
 9542TIP3    H128571   5.634   1.421   5.923
 9542TIP3    H228572   5.599   1.552   5.990
 9543TIP3   OH228573   4.784   7.321   3.628
 9543TIP3    H128574   4.702   7.322   3.679
 9543TIP3    H228575   4.846   7.370   3.683
 9544TIP3   OH228576   7.062   3.719   1.339
 9544TIP3    H128577   7.078   3.689   1.429
 9544TIP3    H228578   6.967   3.721   1.331
 9545TIP3   OH228579   5.665   3.172   1.819
 9545TIP3    H128580   5.739   3.215   1.776
 9545TIP3    H228581   5.633   3.108   1.755
 9546TIP3   OH228582   2.139   3.761   5.319
 9546TIP3    H128583   2.128   3.855   5.311
 9546TIP3    H228584   2.098   3.725   5.240
 9547TIP3   OH228585   7.585   4.888   4.785
 9547TIP3    H128586   7.509   4.946   4.790
 9547TIP3    H228587   7.632   4.903   4.867
 9548TIP3   OH228588   5.678   7.157   4.158
 9548TIP3    H128589   5.617   7.212   4.207
 9548TIP3    H228590   5.724   7.107   4.226
 9549TIP3   OH228591   3.217   0.233   6.116
 9549TIP3    H128592   3.148   0.256   6.179
 9549TIP3    H228593   3.170   0.192   6.044
 9550TIP3   OH228594   1.780   5.400   5.667
 9550TIP3    H128595   1.846   5.416   5.599
 9550TIP3    H228596   1.829   5.360   5.739
 9551TIP3   OH228597   0.742   2.401   2.277
 9551TIP3    H128598   0.657   2.377   2.313
 9551TIP3    H228599   0.744   2.363   2.190
 9552TIP3   OH228600   6.537   3.274   2.100
 9552TIP3    H128601   6.520   3.219   2.177
 9552TIP3    H228602   6.629   3.260   2.081
 9553TIP3   OH228603   4.676   5.377   6.549
 9553TIP3    H128604   4.609   5.309   6.547
 9553TIP3    H228605   4.627   5.459   6.561
 9554TIP3   OH228606   2.072   4.745   0.250
 9554TIP3    H128607   2.053   4.665   0.299
 9554TIP3    H228608   2.167   4.753   0.253
 9555TIP3   OH228609   1.119   1.400   0.439
 9555TIP3    H128610   1.062   1.355   0.501
 9555TIP3    H228611   1.167   1.329   0.396
 9556TIP3   OH228612   2.153   5.522   6.179
 9556TIP3    H128613   2.178   5.522   6.271
 9556TIP3    H228614   2.234   5.544   6.132
 9557TIP3   OH228615   0.101   1.396   2.010
 9557TIP3    H128616   0.047   1.406   1.932
 9557TIP3    H228617   0.081   1.309   2.044
 9558TIP3   OH228618   7.796   6.168   1.829
 9558TIP3    H128619   7.871   6.219   1.799
 9558TIP3    H228620   7.763   6.217   1.904
 9559TIP3   OH228621   1.280   1.138   2.946
 9559TIP3    H128622   1.359   1.192   2.944
 9559TIP3    H228623   1.244   1.146   2.858
 9560TIP3   OH228624   4.838   2.319   3.955
 9560TIP3    H128625   4.745   2.341   3.954
 9560TIP3    H228626   4.852   2.269   3.874
 9561TIP3   OH228627   1.126   0.978   4.824
 9561TIP3    H128628   1.031   0.974   4.808
 9561TIP3    H228629   1.137   1.055   4.880
 9562TIP3   OH228630   2.880   2.353   2.969
 9562TIP3    H128631   2.810   2.371   3.031
 9562TIP3    H228632   2.958   2.391   3.010
 9563TIP3   OH228633   5.953   4.347   2.501
 9563TIP3    H128634   5.979   4.438   2.511
 9563TIP3    H228635   6.026   4.297   2.537
 9564TIP3   OH228636   8.304   2.997   5.489
 9564TIP3    H128637   8.215   2.964   5.483
 9564TIP3    H228638   8.313   3.055   5.413
 9565TIP3   OH228639   0.183   1.841   2.222
 9565TIP3    H128640   0.278   1.846   2.224
 9565TIP3    H228641   0.156   1.920   2.174
 9566TIP3   OH228642   0.543   1.170   4.369
 9566TIP3    H128643   0.526   1.132   4.283
 9566TIP3    H228644   0.633   1.204   4.362
 9567TIP3   OH228645   3.922   5.436   5.102
 9567TIP3    H128646   3.943   5.473   5.016
 9567TIP3    H228647   3.882   5.508   5.150
 9568TIP3   OH228648   2.168   5.383   1.141
 9568TIP3    H128649   2.187   5.471   1.109
 9568TIP3    H228650   2.222   5.375   1.220
 9569TIP3   OH228651   7.980   2.995   1.884
 9569TIP3    H128652   7.956   3.019   1.795
 9569TIP3    H228653   7.902   3.011   1.936
 9570TIP3   OH228654   0.334   4.041   2.928
 9570TIP3    H128655   0.403   4.106   2.913
 9570TIP3    H228656   0.267   4.061   2.862
 9571TIP3   OH228657   8.211   6.910   1.243
 9571TIP3    H128658   8.255   6.970   1.303
 9571TIP3    H228659   8.198   6.830   1.295
 9572TIP3   OH228660   4.958   1.611   1.503
 9572TIP3    H128661   4.961   1.677   1.433
 9572TIP3    H228662   4.917   1.657   1.577
 9573TIP3   OH228663   2.996   0.307   4.300
 9573TIP3    H128664   2.959   0.322   4.387
 9573TIP3    H228665   3.004   0.395   4.262
 9574TIP3   OH228666   4.232   6.967   1.317
 9574TIP3    H128667   4.160   6.907   1.336
 9574TIP3    H228668   4.197   7.026   1.250
 9575TIP3   OH228669   5.699   7.086   4.482
 9575TIP3    H128670   5.712   7.033   4.562
 9575TIP3    H228671   5.776   7.143   4.479
 9576TIP3   OH228672   5.447   6.608   3.416
 9576TIP3    H128673   5.365   6.567   3.446
 9576TIP3    H228674   5.496   6.623   3.497
 9577TIP3   OH228675   6.479   5.030   3.448
 9577TIP3    H128676   6.501   4.963   3.512
 9577TIP3    H228677   6.550   5.094   3.454
 9578TIP3   OH228678   3.174   4.694   4.089
 9578TIP3    H128679   3.254   4.642   4.091
 9578TIP3    H228680   3.141   4.684   4.000
 9579TIP3   OH228681   8.068   1.342   4.729
 9579TIP3    H128682   8.078   1.402   4.656
 9579TIP3    H228683   8.027   1.394   4.798
 9580TIP3   OH228684   2.206   4.092   0.068
 9580TIP3    H128685   2.115   4.118   0.052
 9580TIP3    H228686   2.250   4.172   0.096
 9581TIP3   OH228687   6.876   3.570   3.428
 9581TIP3    H128688   6.810   3.599   3.364
 9581TIP3    H228689   6.884   3.643   3.489
 9582TIP3   OH228690   5.224   1.442   4.911
 9582TIP3    H128691   5.161   1.466   4.844
 9582TIP3    H228692   5.181   1.465   4.994
 9583TIP3   OH228693   2.294   0.457   1.075
 9583TIP3    H128694   2.337   0.462   0.989
 9583TIP3    H228695   2.207   0.493   1.061
 9584TIP3   OH228696   8.001   0.842   6.518
 9584TIP3    H128697   8.033   0.927   6.488
 9584TIP3    H228698   8.026   0.781   6.449
 9585TIP3   OH228699   0.523   3.157   3.354
 9585TIP3    H128700   0.493   3.110   3.432
 9585TIP3    H228701   0.619   3.150   3.357
 9586TIP3   OH228702   0.146   3.083   0.706
 9586TIP3    H128703   0.185   3.157   0.753
 9586TIP3    H228704   0.215   3.016   0.707
 9587TIP3   OH228705   3.929   7.707   0.277
 9587TIP3    H128706   3.875   7.636   0.311
 9587TIP3    H228707   3.966   7.749   0.355
 9588TIP3   OH228708   6.950   1.470   5.659
 9588TIP3    H128709   6.867   1.487   5.614
 9588TIP3    H228710   6.925   1.458   5.751
 9589TIP3   OH228711   3.295   3.339   2.426
 9589TIP3    H128712   3.273   3.248   2.446
 9589TIP3    H228713   3.298   3.382   2.512
 9590TIP3   OH228714   7.451   3.423   5.672
 9590TIP3    H128715   7.400   3.348   5.704
 9590TIP3    H228716   7.467   3.404   5.580
 9591TIP3   OH228717   4.264   2.507   0.278
 9591TIP3    H128718   4.337   2.487   0.337
 9591TIP3    H228719   4.187   2.508   0.335
 9592TIP3   OH228720   0.434   2.363   3.077
 9592TIP3    H128721   0.349   2.321   3.070
 9592TIP3    H228722   0.417   2.447   3.120
 9593TIP3   OH228723   2.921   3.451   6.593
 9593TIP3    H128724   2.836   3.459   6.636
 9593TIP3    H228725   2.925   3.525   6.533
 9594TIP3   OH228726   1.175   4.630   5.630
 9594TIP3    H128727   1.234   4.554   5.632
 9594TIP3    H228728   1.095   4.596   5.588
 9595TIP3   OH228729   3.577   6.438   4.305
 9595TIP3    H128730   3.598   6.487   4.384
 9595TIP3    H228731   3.550   6.352   4.337
 9596TIP3   OH228732   1.886   3.000   5.872
 9596TIP3    H128733   1.951   2.948   5.825
 9596TIP3    H228734   1.833   2.936   5.919
 9597TIP3   OH228735   3.145   0.689   3.187
 9597TIP3    H128736   3.221   0.746   3.172
 9597TIP3    H228737   3.097   0.691   3.104
 9598TIP3   OH228738   8.235   6.783   4.904
 9598TIP3    H128739   8.169   6.852   4.913
 9598TIP3    H228740   8.205   6.714   4.964
 9599TIP3   OH228741   0.833   0.187   2.430
 9599TIP3    H128742   0.879   0.253   2.378
 9599TIP3    H228743   0.902   0.135   2.470
 9600TIP3   OH228744   4.071   4.009   0.114
 9600TIP3    H128745   4.033   3.929   0.078
 9600TIP3    H228746   4.029   4.020   0.199
 9601TIP3   OH228747   3.936   4.943   4.528
 9601TIP3    H128748   3.977   4.970   4.446
 9601TIP3    H228749   3.929   5.023   4.579
 9602TIP3   OH228750   1.957   3.501   6.615
 9602TIP3    H128751   1.880   3.535   6.661
 9602TIP3    H228752   2.027   3.503   6.681
 9603TIP3   OH228753   7.850   1.860   6.128
 9603TIP3    H128754   7.921   1.836   6.188
 9603TIP3    H228755   7.873   1.949   6.099
 9604TIP3   OH228756   2.449   3.784   0.923
 9604TIP3    H128757   2.506   3.837   0.978
 9604TIP3    H228758   2.502   3.762   0.847
 9605TIP3   OH228759   1.070   5.455   1.981
 9605TIP3    H128760   1.164   5.475   1.980
 9605TIP3    H228761   1.047   5.453   2.074
 9606TIP3   OH228762   5.203   4.069   0.242
 9606TIP3    H128763   5.253   4.094   0.320
 9606TIP3    H228764   5.143   4.001   0.274
 9607TIP3   OH228765   2.561   3.560   6.315
 9607TIP3    H128766   2.606   3.537   6.233
 9607TIP3    H228767   2.472   3.582   6.287
 9608TIP3   OH228768   0.108   3.480   1.905
 9608TIP3    H128769   0.084   3.387   1.902
 9608TIP3    H228770   0.038   3.524   1.857
 9609TIP3   OH228771   1.252   2.563   1.258
 9609TIP3    H128772   1.175   2.616   1.237
 9609TIP3    H228773   1.218   2.473   1.260
 9610TIP3   OH228774   5.524   1.232   3.067
 9610TIP3    H128775   5.578   1.153   3.055
 9610TIP3    H228776   5.556   1.293   3.001
 9611TIP3   OH228777   2.894   3.917   1.209
 9611TIP3    H128778   2.880   3.828   1.240
 9611TIP3    H228779   2.957   3.955   1.271
 9612TIP3   OH228780   8.281   2.071   0.433
 9612TIP3    H128781   8.207   2.014   0.410
 9612TIP3    H228782   8.244   2.135   0.494
 9613TIP3   OH228783   6.493   5.135   2.792
 9613TIP3    H128784   6.476   5.195   2.864
 9613TIP3    H228785   6.577   5.093   2.815
 9614TIP3   OH228786   4.616   1.670   3.572
 9614TIP3    H128787   4.611   1.757   3.610
 9614TIP3    H228788   4.633   1.684   3.479
 9615TIP3   OH228789   4.259   4.022   6.127
 9615TIP3    H128790   4.218   4.065   6.202
 9615TIP3    H228791   4.218   4.063   6.050
 9616TIP3   OH228792  -0.024   5.658   6.550
 9616TIP3    H128793   0.062   5.694   6.528
 9616TIP3    H228794  -0.027   5.660   6.646
 9617TIP3   OH228795   2.984   3.490   2.480
 9617TIP3    H128796   2.963   3.583   2.481
 9617TIP3    H228797   3.076   3.486   2.454
 9618TIP3   OH228798   6.330   2.701   0.845
 9618TIP3    H128799   6.329   2.743   0.759
 9618TIP3    H228800   6.420   2.669   0.855
 9619TIP3   OH228801   5.528   1.102   5.732
 9619TIP3    H128802   5.489   1.025   5.773
 9619TIP3    H228803   5.505   1.174   5.790
 9620TIP3   OH228804   2.108   7.460   5.227
 9620TIP3    H128805   2.122   7.513   5.305
 9620TIP3    H228806   2.047   7.511   5.174
 9621TIP3   OH228807   5.044   7.527   0.262
 9621TIP3    H128808   5.080   7.501   0.347
 9621TIP3    H228809   5.121   7.538   0.206
 9622TIP3   OH228810   1.441   1.257   3.701
 9622TIP3    H128811   1.408   1.276   3.789
 9622TIP3    H228812   1.480   1.169   3.709
 9623TIP3   OH228813   6.865   1.208   1.414
 9623TIP3    H128814   6.953   1.246   1.412
 9623TIP3    H228815   6.837   1.209   1.322
 9624TIP3   OH228816   1.773   0.551   3.402
 9624TIP3    H128817   1.795   0.518   3.315
 9624TIP3    H228818   1.851   0.534   3.455
 9625TIP3   OH228819   0.186   7.694   2.312
 9625TIP3    H128820   0.268   7.681   2.265
 9625TIP3    H228821   0.121   7.710   2.244
 9626TIP3   OH228822   0.666   3.044   1.337
 9626TIP3    H128823   0.689   3.129   1.373
 9626TIP3    H228824   0.621   3.063   1.254
 9627TIP3   OH228825   6.205   7.078   6.425
 9627TIP3    H128826   6.251   7.014   6.370
 9627TIP3    H228827   6.273   7.138   6.454
 9628TIP3   OH228828   4.536   3.672   6.656
 9628TIP3    H128829   4.444   3.653   6.672
 9628TIP3    H228830   4.583   3.617   6.719
 9629TIP3   OH228831   3.016   3.509   3.772
 9629TIP3    H128832   2.958   3.540   3.841
 9629TIP3    H228833   3.002   3.414   3.769
 9630TIP3   OH228834   1.915   2.782   0.270
 9630TIP3    H128835   1.870   2.856   0.231
 9630TIP3    H228836   1.847   2.717   0.287
 9631TIP3   OH228837   3.127   4.119   4.109
 9631TIP3    H128838   3.089   4.059   4.174
 9631TIP3    H228839   3.167   4.189   4.161
 9632TIP3   OH228840   2.675   4.107   0.151
 9632TIP3    H128841   2.754   4.081   0.198
 9632TIP3    H228842   2.624   4.156   0.215
 9633TIP3   OH228843   5.945   2.909   5.247
 9633TIP3    H128844   5.968   2.979   5.309
 9633TIP3    H228845   5.887   2.951   5.184
 9634TIP3   OH228846   1.179   4.259   6.570
 9634TIP3    H128847   1.127   4.238   6.492
 9634TIP3    H228848   1.217   4.175   6.597
 9635TIP3   OH228849   6.923   1.975   4.040
 9635TIP3    H128850   6.968   2.054   4.011
 9635TIP3    H228851   6.850   2.008   4.093
 9636TIP3   OH228852   0.110   1.018   0.391
 9636TIP3    H128853   0.189   0.998   0.340
 9636TIP3    H228854   0.075   0.932   0.414
 9637TIP3   OH228855   5.166   2.295   5.649
 9637TIP3    H128856   5.152   2.308   5.555
 9637TIP3    H228857   5.253   2.332   5.666
 9638TIP3   OH228858   6.097   6.746   2.477
 9638TIP3    H128859   6.152   6.779   2.548
 9638TIP3    H228860   6.039   6.820   2.456
 9639TIP3   OH228861   1.531   2.087   0.519
 9639TIP3    H128862   1.594   2.062   0.586
 9639TIP3    H228863   1.449   2.046   0.547
 9640TIP3   OH228864   5.300   6.871   1.683
 9640TIP3    H128865   5.304   6.779   1.707
 9640TIP3    H228866   5.390   6.894   1.659
 9641TIP3   OH228867   0.572   1.269   6.210
 9641TIP3    H128868   0.481   1.241   6.197
 9641TIP3    H228869   0.611   1.200   6.263
 9642TIP3   OH228870   8.010   1.579   2.115
 9642TIP3    H128871   7.934   1.602   2.167
 9642TIP3    H228872   8.057   1.662   2.104
 9643TIP3   OH228873   6.589   7.422   1.947
 9643TIP3    H128874   6.640   7.419   1.866
 9643TIP3    H228875   6.558   7.332   1.959
 9644TIP3   OH228876   0.586   1.295   0.903
 9644TIP3    H128877   0.672   1.331   0.881
 9644TIP3    H228878   0.602   1.235   0.975
 9645TIP3   OH228879   2.294   6.638   2.421
 9645TIP3    H128880   2.219   6.696   2.430
 9645TIP3    H228881   2.256   6.555   2.390
 9646TIP3   OH228882   2.727   4.304   4.700
 9646TIP3    H128883   2.797   4.242   4.722
 9646TIP3    H228884   2.721   4.361   4.776
 9647TIP3   OH228885   4.544   5.160   2.813
 9647TIP3    H128886   4.503   5.246   2.821
 9647TIP3    H228887   4.582   5.159   2.725
 9648TIP3   OH228888  -0.035   7.558   6.702
 9648TIP3    H128889  -0.016   7.466   6.720
 9648TIP3    H228890   0.012   7.606   6.771
 9649TIP3   OH228891   2.250   1.001   0.732
 9649TIP3    H128892   2.244   0.982   0.825
 9649TIP3    H228893   2.162   1.028   0.707
 9650TIP3   OH228894   0.711   1.627   3.460
 9650TIP3    H128895   0.753   1.631   3.546
 9650TIP3    H228896   0.641   1.563   3.471
 9651TIP3   OH228897   2.290   6.500   4.272
 9651TIP3    H128898   2.357   6.532   4.211
 9651TIP3    H228899   2.340   6.469   4.347
 9652TIP3   OH228900   4.411   4.935   2.072
 9652TIP3    H128901   4.459   4.976   1.999
 9652TIP3    H228902   4.378   4.853   2.036
 9653TIP3   OH228903   5.642   6.442   4.204
 9653TIP3    H128904   5.622   6.515   4.261
 9653TIP3    H228905   5.686   6.481   4.128
 9654TIP3   OH228906   6.549   5.667   1.286
 9654TIP3    H128907   6.586   5.582   1.261
 9654TIP3    H228908   6.532   5.659   1.380
 9655TIP3   OH228909   7.476   1.070   6.301
 9655TIP3    H128910   7.415   1.133   6.263
 9655TIP3    H228911   7.423   1.015   6.358
 9656TIP3   OH228912   2.024   0.276   6.681
 9656TIP3    H128913   2.118   0.293   6.679
 9656TIP3    H228914   1.987   0.339   6.618
 9657TIP3   OH228915   4.527   0.923   4.814
 9657TIP3    H128916   4.551   0.958   4.728
 9657TIP3    H228917   4.547   0.829   4.808
 9658TIP3   OH228918   5.087   2.359   5.386
 9658TIP3    H128919   5.048   2.437   5.424
 9658TIP3    H228920   5.022   2.328   5.322
 9659TIP3   OH228921   8.224   3.854   2.704
 9659TIP3    H128922   8.155   3.917   2.723
 9659TIP3    H228923   8.289   3.904   2.654
 9660TIP3   OH228924   7.763   0.581   5.101
 9660TIP3    H128925   7.843   0.630   5.119
 9660TIP3    H228926   7.787   0.489   5.112
 9661TIP3   OH228927   5.640   7.335   0.453
 9661TIP3    H128928   5.640   7.308   0.361
 9661TIP3    H228929   5.716   7.290   0.490
 9662TIP3   OH228930   7.956   6.246   5.450
 9662TIP3    H128931   7.929   6.227   5.540
 9662TIP3    H228932   7.931   6.337   5.435
 9663TIP3   OH228933   7.764   6.118   2.299
 9663TIP3    H128934   7.695   6.057   2.325
 9663TIP3    H228935   7.730   6.160   2.220
 9664TIP3   OH228936   7.899   6.357   4.550
 9664TIP3    H128937   7.855   6.406   4.620
 9664TIP3    H228938   7.955   6.295   4.596
 9665TIP3   OH228939   5.515   7.314   4.936
 9665TIP3    H128940   5.560   7.376   4.994
 9665TIP3    H228941   5.437   7.362   4.906
 9666TIP3   OH228942   1.481   1.513   4.251
 9666TIP3    H128943   1.516   1.429   4.280
 9666TIP3    H228944   1.558   1.569   4.243
 9667TIP3   OH228945   0.705   4.408   5.947
 9667TIP3    H128946   0.776   4.351   5.974
 9667TIP3    H228947   0.655   4.357   5.884
 9668TIP3   OH228948   1.086   6.646   6.657
 9668TIP3    H128949   1.100   6.647   6.752
 9668TIP3    H228950   1.151   6.584   6.623
 9669TIP3   OH228951   3.230   0.070   3.612
 9669TIP3    H128952   3.195   0.136   3.552
 9669TIP3    H228953   3.322   0.094   3.623
 9670TIP3   OH228954   5.383   2.631   4.209
 9670TIP3    H128955   5.385   2.727   4.211
 9670TIP3    H228956   5.474   2.604   4.220
 9671TIP3   OH228957   7.036   5.901   5.857
 9671TIP3    H128958   7.098   5.973   5.853
 9671TIP3    H228959   6.959   5.937   5.901
 9672TIP3   OH228960   6.718   7.521   1.345
 9672TIP3    H128961   6.752   7.478   1.423
 9672TIP3    H228962   6.739   7.613   1.357
 9673TIP3   OH228963   5.105   2.112   4.660
 9673TIP3    H128964   5.110   2.140   4.752
 9673TIP3    H228965   5.185   2.062   4.646
 9674TIP3   OH228966   8.174   0.060   4.921
 9674TIP3    H128967   8.169   0.126   4.990
 9674TIP3    H228968   8.268   0.048   4.906
 9675TIP3   OH228969   6.442   4.521   6.143
 9675TIP3    H128970   6.495   4.600   6.149
 9675TIP3    H228971   6.375   4.541   6.078
 9676TIP3   OH228972   3.231   5.235   1.246
 9676TIP3    H128973   3.195   5.157   1.202
 9676TIP3    H228974   3.244   5.208   1.337
 9677TIP3   OH228975   3.480   3.625   2.258
 9677TIP3    H128976   3.556   3.610   2.313
 9677TIP3    H228977   3.514   3.669   2.180
 9678TIP3   OH228978   0.770   2.441   1.195
 9678TIP3    H128979   0.738   2.352   1.212
 9678TIP3    H228980   0.836   2.429   1.126
 9679TIP3   OH228981   3.777   4.304   3.218
 9679TIP3    H128982   3.865   4.339   3.230
 9679TIP3    H228983   3.754   4.327   3.128
 9680TIP3   OH228984   1.362   6.150   1.570
 9680TIP3    H128985   1.359   6.246   1.580
 9680TIP3    H228986   1.291   6.130   1.510
 9681TIP3   OH228987   7.093   7.763   5.733
 9681TIP3    H128988   7.166   7.701   5.734
 9681TIP3    H228989   7.026   7.720   5.680
 9682TIP3   OH228990   4.028   5.365   1.532
 9682TIP3    H128991   4.091   5.431   1.502
 9682TIP3    H228992   3.943   5.405   1.517
 9683TIP3   OH228993   0.836   5.630   5.614
 9683TIP3    H128994   0.768   5.695   5.634
 9683TIP3    H228995   0.840   5.629   5.518
 9684TIP3   OH228996   3.951   1.981   2.266
 9684TIP3    H128997   3.932   1.888   2.283
 9684TIP3    H228998   3.865   2.022   2.262
 9685TIP3   OH228999   4.851   3.010   4.602
 9685TIP3    H129000   4.932   2.998   4.651
 9685TIP3    H229001   4.879   3.018   4.511
 9686TIP3   OH229002   2.141   4.976   1.491
 9686TIP3    H129003   2.049   5.000   1.481
 9686TIP3    H229004   2.149   4.892   1.445
 9687TIP3   OH229005   6.004   5.278   3.868
 9687TIP3    H129006   6.014   5.280   3.963
 9687TIP3    H229007   5.910   5.275   3.853
 9688TIP3   OH229008   1.487   4.549   3.652
 9688TIP3    H129009   1.428   4.623   3.637
 9688TIP3    H229010   1.574   4.589   3.663
 9689TIP3   OH229011   5.617   5.598   5.971
 9689TIP3    H129012   5.565   5.555   5.903
 9689TIP3    H229013   5.557   5.661   6.011
 9690TIP3   OH229014   6.086   0.799   4.114
 9690TIP3    H129015   6.130   0.844   4.187
 9690TIP3    H229016   6.039   0.727   4.156
 9691TIP3   OH229017   6.556   0.301   2.166
 9691TIP3    H129018   6.600   0.369   2.217
 9691TIP3    H229019   6.534   0.343   2.083
 9692TIP3   OH229020   1.993   4.379   3.971
 9692TIP3    H129021   1.912   4.418   4.004
 9692TIP3    H229022   1.964   4.315   3.906
 9693TIP3   OH229023   2.513   2.999   2.804
 9693TIP3    H129024   2.502   3.094   2.808
 9693TIP3    H229025   2.499   2.970   2.894
 9694TIP3   OH229026   2.650   2.382   2.642
 9694TIP3    H129027   2.737   2.412   2.668
 9694TIP3    H229028   2.627   2.316   2.707
 9695TIP3   OH229029   8.266   2.659   2.135
 9695TIP3    H129030   8.338   2.670   2.073
 9695TIP3    H229031   8.279   2.572   2.172
 9696TIP3   OH229032   2.122   3.034   6.430
 9696TIP3    H129033   2.170   2.958   6.398
 9696TIP3    H229034   2.043   3.036   6.376
 9697TIP3   OH229035   4.603   2.429   5.528
 9697TIP3    H129036   4.561   2.419   5.443
 9697TIP3    H229037   4.656   2.508   5.520
 9698TIP3   OH229038   4.966   5.516   4.538
 9698TIP3    H129039   4.920   5.592   4.501
 9698TIP3    H229040   4.897   5.466   4.580
 9699TIP3   OH229041   7.612   1.871   6.472
 9699TIP3    H129042   7.646   1.940   6.528
 9699TIP3    H229043   7.603   1.795   6.529
 9700TIP3   OH229044   2.505   4.641   3.651
 9700TIP3    H129045   2.419   4.626   3.612
 9700TIP3    H229046   2.563   4.580   3.605
 9701TIP3   OH229047   1.304   6.606   0.895
 9701TIP3    H129048   1.209   6.601   0.900
 9701TIP3    H229049   1.323   6.626   0.803
 9702TIP3   OH229050   4.025   5.630   4.605
 9702TIP3    H129051   4.056   5.705   4.657
 9702TIP3    H229052   4.011   5.561   4.670
 9703TIP3   OH229053   2.456   6.802   2.595
 9703TIP3    H129054   2.489   6.775   2.680
 9703TIP3    H229055   2.367   6.767   2.591
 9704TIP3   OH229056   8.171   4.062   4.292
 9704TIP3    H129057   8.099   4.022   4.341
 9704TIP3    H229058   8.146   4.053   4.200
 9705TIP3   OH229059   0.947   0.788   0.924
 9705TIP3    H129060   0.976   0.786   0.832
 9705TIP3    H229061   0.863   0.834   0.922
 9706TIP3   OH229062   5.637   2.699   2.442
 9706TIP3    H129063   5.624   2.711   2.536
 9706TIP3    H229064   5.551   2.717   2.404
 9707TIP3   OH229065   3.509   5.786   1.052
 9707TIP3    H129066   3.440   5.847   1.027
 9707TIP3    H229067   3.465   5.701   1.056
 9708TIP3   OH229068   6.069   3.728   3.330
 9708TIP3    H129069   6.079   3.781   3.251
 9708TIP3    H229070   6.146   3.747   3.383
 9709TIP3   OH229071   7.989   2.785   1.205
 9709TIP3    H129072   8.080   2.792   1.235
 9709TIP3    H229073   7.983   2.844   1.131
 9710TIP3   OH229074   7.438   2.552   1.676
 9710TIP3    H129075   7.532   2.558   1.690
 9710TIP3    H229076   7.400   2.620   1.732
 9711TIP3   OH229077   2.429   2.770   2.638
 9711TIP3    H129078   2.469   2.850   2.673
 9711TIP3    H229079   2.502   2.720   2.602
 9712TIP3   OH229080   2.104   6.077   2.831
 9712TIP3    H129081   2.025   6.129   2.820
 9712TIP3    H229082   2.098   6.043   2.921
 9713TIP3   OH229083   5.985   6.534   0.007
 9713TIP3    H129084   5.994   6.440   0.023
 9713TIP3    H229085   5.963   6.571   0.092
 9714TIP3   OH229086   5.100   4.796   0.336
 9714TIP3    H129087   5.171   4.779   0.398
 9714TIP3    H229088   5.114   4.733   0.266
 9715TIP3   OH229089   0.043   3.381   4.400
 9715TIP3    H129090   0.038   3.475   4.388
 9715TIP3    H229091  -0.007   3.345   4.326
 9716TIP3   OH229092   4.539   0.290   3.224
 9716TIP3    H129093   4.557   0.383   3.207
 9716TIP3    H229094   4.550   0.248   3.139
 9717TIP3   OH229095   7.135   6.726   5.946
 9717TIP3    H129096   7.075   6.794   5.915
 9717TIP3    H229097   7.204   6.723   5.880
 9718TIP3   OH229098   8.325   4.879   1.594
 9718TIP3    H129099   8.269   4.857   1.520
 9718TIP3    H229100   8.293   4.826   1.666
 9719TIP3   OH229101   7.721   0.754   0.153
 9719TIP3    H129102   7.730   0.798   0.068
 9719TIP3    H229103   7.705   0.662   0.131
 9720TIP3   OH229104   5.557   5.497   0.522
 9720TIP3    H129105   5.462   5.495   0.531
 9720TIP3    H229106   5.589   5.512   0.611
 9721TIP3   OH229107   3.460   6.309   5.340
 9721TIP3    H129108   3.432   6.244   5.404
 9721TIP3    H229109   3.551   6.328   5.363
 9722TIP3   OH229110   4.841   6.817   1.882
 9722TIP3    H129111   4.799   6.734   1.905
 9722TIP3    H229112   4.853   6.812   1.787
 9723TIP3   OH229113   2.337   2.786   0.245
 9723TIP3    H129114   2.278   2.724   0.287
 9723TIP3    H229115   2.280   2.858   0.216
 9724TIP3   OH229116   2.061   2.577   0.879
 9724TIP3    H129117   1.972   2.608   0.898
 9724TIP3    H229118   2.083   2.521   0.953
 9725TIP3   OH229119   3.924   3.232   4.659
 9725TIP3    H129120   3.871   3.267   4.587
 9725TIP3    H229121   3.959   3.149   4.625
 9726TIP3   OH229122   6.672   6.244   4.235
 9726TIP3    H129123   6.602   6.300   4.202
 9726TIP3    H229124   6.741   6.305   4.261
 9727TIP3   OH229125   4.841   4.767   3.704
 9727TIP3    H129126   4.896   4.699   3.743
 9727TIP3    H229127   4.837   4.835   3.771
 9728TIP3   OH229128   2.751   6.693   4.666
 9728TIP3    H129129   2.841   6.721   4.647
 9728TIP3    H229130   2.741   6.704   4.760
 9729TIP3   OH229131   1.187   7.652   4.548
 9729TIP3    H129132   1.118   7.587   4.557
 9729TIP3    H229133   1.155   7.713   4.482
 9730TIP3   OH229134   5.774   2.701   4.820
 9730TIP3    H129135   5.744   2.700   4.911
 9730TIP3    H229136   5.789   2.794   4.801
 9731TIP3   OH229137   7.733   0.273   4.273
 9731TIP3    H129138   7.735   0.224   4.355
 9731TIP3    H229139   7.643   0.305   4.266
 9732TIP3   OH229140   2.290   4.782   2.132
 9732TIP3    H129141   2.262   4.720   2.200
 9732TIP3    H229142   2.362   4.738   2.088
 9733TIP3   OH229143   1.202   1.779   5.315
 9733TIP3    H129144   1.202   1.711   5.382
 9733TIP3    H229145   1.122   1.829   5.332
 9734TIP3   OH229146   3.022   5.960   3.323
 9734TIP3    H129147   3.045   5.918   3.240
 9734TIP3    H229148   2.932   5.931   3.341
 9735TIP3   OH229149   4.936   7.515   1.124
 9735TIP3    H129150   4.893   7.442   1.169
 9735TIP3    H229151   4.893   7.520   1.039
 9736TIP3   OH229152   7.726   1.579   4.417
 9736TIP3    H129153   7.770   1.602   4.499
 9736TIP3    H229154   7.771   1.631   4.350
 9737TIP3   OH229155   8.203   5.855   4.080
 9737TIP3    H129156   8.282   5.885   4.035
 9737TIP3    H229157   8.195   5.915   4.154
 9738TIP3   OH229158   6.591   7.470   2.584
 9738TIP3    H129159   6.526   7.442   2.648
 9738TIP3    H229160   6.540   7.516   2.517
 9739TIP3   OH229161   5.549   4.426   1.206
 9739TIP3    H129162   5.486   4.387   1.145
 9739TIP3    H229163   5.610   4.474   1.150
 9740TIP3   OH229164   7.772   5.447   3.513
 9740TIP3    H129165   7.866   5.437   3.533
 9740TIP3    H229166   7.747   5.363   3.476
 9741TIP3   OH229167   2.448   3.736   2.745
 9741TIP3    H129168   2.513   3.672   2.718
 9741TIP3    H229169   2.364   3.692   2.735
 9742TIP3   OH229170   6.739   2.736   0.535
 9742TIP3    H129171   6.655   2.698   0.511
 9742TIP3    H229172   6.804   2.685   0.487
 9743TIP3   OH229173   6.773   2.561   2.587
 9743TIP3    H129174   6.771   2.648   2.625
 9743TIP3    H229175   6.724   2.569   2.505
 9744TIP3   OH229176   1.854   6.191   2.805
 9744TIP3    H129177   1.795   6.201   2.730
 9744TIP3    H229178   1.805   6.229   2.879
 9745TIP3   OH229179   0.850   1.789   5.681
 9745TIP3    H129180   0.840   1.697   5.705
 9745TIP3    H229181   0.788   1.835   5.737
 9746TIP3   OH229182   4.812   6.239   1.795
 9746TIP3    H129183   4.872   6.212   1.725
 9746TIP3    H229184   4.846   6.323   1.825
 9747TIP3   OH229185   2.263   4.624   3.550
 9747TIP3    H129186   2.237   4.675   3.473
 9747TIP3    H229187   2.229   4.675   3.624
 9748TIP3   OH229188   1.526   0.595   4.327
 9748TIP3    H129189   1.545   0.652   4.402
 9748TIP3    H229190   1.436   0.566   4.341
 9749TIP3   OH229191   6.599   7.349   6.051
 9749TIP3    H129192   6.650   7.396   6.117
 9749TIP3    H229193   6.635   7.261   6.050
 9750TIP3   OH229194   3.442   7.740   3.708
 9750TIP3    H129195   3.487   7.662   3.674
 9750TIP3    H229196   3.350   7.728   3.682
 9751TIP3   OH229197   6.827   5.326   6.448
 9751TIP3    H129198   6.785   5.406   6.416
 9751TIP3    H229199   6.755   5.275   6.484
 9752TIP3   OH229200   6.121   2.972   4.337
 9752TIP3    H129201   6.049   2.940   4.392
 9752TIP3    H229202   6.077   3.005   4.258
 9753TIP3   OH229203   0.195   2.369   4.741
 9753TIP3    H129204   0.141   2.290   4.732
 9753TIP3    H229205   0.236   2.380   4.655
 9754TIP3   OH229206   0.556   3.852   1.519
 9754TIP3    H129207   0.583   3.873   1.608
 9754TIP3    H229208   0.546   3.756   1.518
 9755TIP3   OH229209   7.729   2.913   0.185
 9755TIP3    H129210   7.821   2.939   0.178
 9755TIP3    H229211   7.703   2.891   0.096
 9756TIP3   OH229212   0.355   2.764   4.254
 9756TIP3    H129213   0.319   2.819   4.323
 9756TIP3    H229214   0.343   2.816   4.174
 9757TIP3   OH229215   8.024   4.060   0.197
 9757TIP3    H129216   7.947   4.112   0.172
 9757TIP3    H229217   8.037   4.079   0.290
 9758TIP3   OH229218   4.681   0.622   5.864
 9758TIP3    H129219   4.749   0.555   5.870
 9758TIP3    H229220   4.694   0.662   5.778
 9759TIP3   OH229221   7.276   0.612   1.950
 9759TIP3    H129222   7.327   0.551   2.002
 9759TIP3    H229223   7.214   0.557   1.901
 9760TIP3   OH229224   2.282   5.831   1.878
 9760TIP3    H129225   2.343   5.792   1.815
 9760TIP3    H229226   2.289   5.925   1.862
 9761TIP3   OH229227   2.782   1.520   2.897
 9761TIP3    H129228   2.849   1.453   2.910
 9761TIP3    H229229   2.818   1.577   2.829
 9762TIP3   OH229230   3.617   0.945   4.443
 9762TIP3    H129231   3.686   0.939   4.509
 9762TIP3    H229232   3.609   0.856   4.408
 9763TIP3   OH229233   5.768   1.625   2.260
 9763TIP3    H129234   5.838   1.625   2.325
 9763TIP3    H229235   5.813   1.621   2.176
 9764TIP3   OH229236   5.217   0.656   1.016
 9764TIP3    H129237   5.151   0.714   0.979
 9764TIP3    H229238   5.215   0.673   1.110
 9765TIP3   OH229239   8.249   2.460   6.277
 9765TIP3    H129240   8.201   2.448   6.359
 9765TIP3    H229241   8.341   2.464   6.303
 9766TIP3   OH229242   0.944   3.580   3.771
 9766TIP3    H129243   0.855   3.547   3.786
 9766TIP3    H229244   0.954   3.580   3.676
 9767TIP3   OH229245   1.818   7.484   2.457
 9767TIP3    H129246   1.887   7.418   2.458
 9767TIP3    H229247   1.741   7.439   2.491
 9768TIP3   OH229248   0.236   4.418   2.506
 9768TIP3    H129249   0.294   4.467   2.447
 9768TIP3    H229250   0.272   4.434   2.593
 9769TIP3   OH229251   4.968   1.323   6.679
 9769TIP3    H129252   5.028   1.254   6.651
 9769TIP3    H229253   5.005   1.403   6.643
 9770TIP3   OH229254   5.519   0.918   2.193
 9770TIP3    H129255   5.531   0.996   2.248
 9770TIP3    H229256   5.471   0.950   2.117
 9771TIP3   OH229257   8.027   2.891   5.212
 9771TIP3    H129258   8.095   2.831   5.183
 9771TIP3    H229259   7.946   2.839   5.211
 9772TIP3   OH229260   5.385   3.306   3.464
 9772TIP3    H129261   5.476   3.306   3.493
 9772TIP3    H229262   5.386   3.352   3.380
 9773TIP3   OH229263   0.743   6.010   0.654
 9773TIP3    H129264   0.724   5.936   0.712
 9773TIP3    H229265   0.716   5.980   0.567
 9774TIP3   OH229266   3.554   1.952   3.136
 9774TIP3    H129267   3.545   1.918   3.226
 9774TIP3    H229268   3.648   1.945   3.118
 9775TIP3   OH229269   5.304   2.952   1.159
 9775TIP3    H129270   5.266   2.906   1.235
 9775TIP3    H229271   5.398   2.940   1.169
 9776TIP3   OH229272   3.394   5.860   2.673
 9776TIP3    H129273   3.365   5.950   2.683
 9776TIP3    H229274   3.459   5.848   2.742
 9777TIP3   OH229275   7.842   2.626   5.506
 9777TIP3    H129276   7.764   2.603   5.454
 9777TIP3    H229277   7.916   2.593   5.454
 9778TIP3   OH229278   5.910   7.487   6.030
 9778TIP3    H129279   5.921   7.392   6.023
 9778TIP3    H229280   5.815   7.500   6.035
 9779TIP3   OH229281   2.531   7.633   0.225
 9779TIP3    H129282   2.512   7.689   0.149
 9779TIP3    H229283   2.452   7.636   0.278
 9780TIP3   OH229284   6.380   4.455   5.574
 9780TIP3    H129285   6.323   4.472   5.499
 9780TIP3    H229286   6.334   4.389   5.626
 9781TIP3   OH229287   2.922   5.095   6.585
 9781TIP3    H129288   2.999   5.151   6.593
 9781TIP3    H229289   2.868   5.138   6.519
 9782TIP3   OH229290   7.189   5.228   0.785
 9782TIP3    H129291   7.160   5.181   0.863
 9782TIP3    H229292   7.163   5.319   0.801
 9783TIP3   OH229293   3.574   7.414   3.925
 9783TIP3    H129294   3.508   7.453   3.983
 9783TIP3    H229295   3.524   7.357   3.867
 9784TIP3   OH229296   1.210   7.239   3.152
 9784TIP3    H129297   1.213   7.143   3.155
 9784TIP3    H229298   1.205   7.259   3.058
 9785TIP3   OH229299   0.890   2.190   0.166
 9785TIP3    H129300   0.905   2.248   0.092
 9785TIP3    H229301   0.855   2.248   0.234
 9786TIP3   OH229302   8.154   6.879   3.593
 9786TIP3    H129303   8.090   6.950   3.582
 9786TIP3    H229304   8.111   6.818   3.652
 9787TIP3   OH229305   6.448   0.245   3.901
 9787TIP3    H129306   6.408   0.163   3.929
 9787TIP3    H229307   6.374   0.302   3.880
 9788TIP3   OH229308   7.142   3.701   5.073
 9788TIP3    H129309   7.097   3.732   5.152
 9788TIP3    H229310   7.084   3.633   5.038
 9789TIP3   OH229311   4.171   5.700   4.362
 9789TIP3    H129312   4.137   5.646   4.434
 9789TIP3    H229313   4.160   5.790   4.393
 9790TIP3   OH229314   7.126   1.509   2.708
 9790TIP3    H129315   7.045   1.560   2.718
 9790TIP3    H229316   7.112   1.459   2.627
 9791TIP3   OH229317   7.097   0.644   6.341
 9791TIP3    H129318   7.031   0.681   6.400
 9791TIP3    H229319   7.131   0.568   6.387
 9792TIP3   OH229320   4.536   7.558   0.743
 9792TIP3    H129321   4.604   7.491   0.755
 9792TIP3    H229322   4.475   7.544   0.815
 9793TIP3   OH229323   7.586   3.463   1.616
 9793TIP3    H129324   7.613   3.481   1.526
 9793TIP3    H229325   7.634   3.384   1.641
 9794TIP3   OH229326   2.930   0.776   6.362
 9794TIP3    H129327   2.856   0.725   6.396
 9794TIP3    H229328   3.007   0.731   6.396
 9795TIP3   OH229329   0.882   7.697   3.145
 9795TIP3    H129330   0.932   7.739   3.074
 9795TIP3    H229331   0.852   7.614   3.107
 9796TIP3   OH229332   7.402   6.406   0.099
 9796TIP3    H129333   7.437   6.343   0.162
 9796TIP3    H229334   7.401   6.489   0.146
 9797TIP3   OH229335   6.407   6.611   4.357
 9797TIP3    H129336   6.412   6.691   4.305
 9797TIP3    H229337   6.491   6.608   4.404
 9798TIP3   OH229338   2.409   2.590   2.148
 9798TIP3    H129339   2.431   2.657   2.212
 9798TIP3    H229340   2.403   2.637   2.065
 9799TIP3   OH229341   1.893   6.773   2.821
 9799TIP3    H129342   1.899   6.679   2.839
 9799TIP3    H229343   1.838   6.780   2.744
 9800TIP3   OH229344   2.215   4.649   2.481
 9800TIP3    H129345   2.219   4.613   2.569
 9800TIP3    H229346   2.270   4.727   2.484
 9801TIP3   OH229347   7.338   3.816   2.814
 9801TIP3    H129348   7.336   3.903   2.774
 9801TIP3    H229349   7.375   3.759   2.747
 9802TIP3   OH229350   7.721   5.468   5.508
 9802TIP3    H129351   7.732   5.539   5.571
 9802TIP3    H229352   7.739   5.388   5.558
 9803TIP3   OH229353   1.836   2.309   0.303
 9803TIP3    H129354   1.773   2.237   0.307
 9803TIP3    H229355   1.922   2.268   0.305
 9804TIP3   OH229356   3.759   3.581   3.139
 9804TIP3    H129357   3.826   3.644   3.111
 9804TIP3    H229358   3.696   3.581   3.067
 9805TIP3   OH229359   6.376   1.864   4.429
 9805TIP3    H129360   6.361   1.904   4.514
 9805TIP3    H229361   6.388   1.938   4.369
 9806TIP3   OH229362   3.235   7.557   4.622
 9806TIP3    H129363   3.202   7.498   4.690
 9806TIP3    H229364   3.196   7.642   4.641
 9807TIP3   OH229365   4.171   4.208   3.268
 9807TIP3    H129366   4.243   4.144   3.266
 9807TIP3    H229367   4.115   4.179   3.340
 9808TIP3   OH229368   5.988   2.726   3.854
 9808TIP3    H129369   5.960   2.805   3.901
 9808TIP3    H229370   6.079   2.714   3.878
 9809TIP3   OH229371   1.023   5.829   0.639
 9809TIP3    H129372   1.002   5.807   0.729
 9809TIP3    H229373   1.010   5.923   0.633
 9810TIP3   OH229374   1.676   2.278   5.891
 9810TIP3    H129375   1.715   2.302   5.807
 9810TIP3    H229376   1.723   2.199   5.917
 9811TIP3   OH229377   2.321   5.197   5.894
 9811TIP3    H129378   2.290   5.133   5.958
 9811TIP3    H229379   2.376   5.256   5.945
 9812TIP3   OH229380   7.095   2.348   0.762
 9812TIP3    H129381   7.137   2.421   0.807
 9812TIP3    H229382   7.168   2.293   0.732
 9813TIP3   OH229383   4.898   7.514   0.018
 9813TIP3    H129384   4.919   7.493   0.109
 9813TIP3    H229385   4.983   7.509  -0.027
 9814TIP3   OH229386   5.306   3.079   5.380
 9814TIP3    H129387   5.280   3.071   5.289
 9814TIP3    H229388   5.343   2.993   5.402
 9815TIP3   OH229389   4.560   6.027   4.896
 9815TIP3    H129390   4.487   6.039   4.957
 9815TIP3    H229391   4.582   5.934   4.904
 9816TIP3   OH229392   4.653   3.256   5.227
 9816TIP3    H129393   4.617   3.185   5.280
 9816TIP3    H229394   4.580   3.317   5.216
 9817TIP3   OH229395   4.716   6.375   4.020
 9817TIP3    H129396   4.665   6.456   4.022
 9817TIP3    H229397   4.773   6.381   4.097
 9818TIP3   OH229398   6.326   2.788   4.514
 9818TIP3    H129399   6.327   2.797   4.609
 9818TIP3    H229400   6.342   2.876   4.482
 9819TIP3   OH229401   0.542   3.909   3.571
 9819TIP3    H129402   0.548   3.814   3.583
 9819TIP3    H229403   0.606   3.929   3.503
 9820TIP3   OH229404   4.698   2.686   1.251
 9820TIP3    H129405   4.749   2.694   1.170
 9820TIP3    H229406   4.694   2.775   1.286
 9821TIP3   OH229407   0.422   4.312   3.307
 9821TIP3    H129408   0.407   4.326   3.401
 9821TIP3    H229409   0.414   4.218   3.296
 9822TIP3   OH229410   2.471   2.707   5.132
 9822TIP3    H129411   2.551   2.674   5.091
 9822TIP3    H229412   2.492   2.796   5.158
 9823TIP3   OH229413   7.232   5.165   5.774
 9823TIP3    H129414   7.307   5.216   5.742
 9823TIP3    H229415   7.244   5.078   5.736
 9824TIP3   OH229416   1.620   3.629   0.489
 9824TIP3    H129417   1.619   3.536   0.465
 9824TIP3    H229418   1.528   3.655   0.487
 9825TIP3   OH229419   0.813   1.946   3.776
 9825TIP3    H129420   0.904   1.923   3.760
 9825TIP3    H229421   0.763   1.871   3.742
 9826TIP3   OH229422   2.011   0.265   0.730
 9826TIP3    H129423   2.002   0.358   0.750
 9826TIP3    H229424   2.103   0.246   0.746
 9827TIP3   OH229425   2.731   4.918   5.665
 9827TIP3    H129426   2.766   4.996   5.707
 9827TIP3    H229427   2.794   4.849   5.686
 9828TIP3   OH229428   4.430   5.645   0.880
 9828TIP3    H129429   4.339   5.669   0.865
 9828TIP3    H229430   4.434   5.623   0.973
 9829TIP3   OH229431   3.194   0.550   1.086
 9829TIP3    H129432   3.212   0.577   0.997
 9829TIP3    H229433   3.216   0.457   1.088
 9830TIP3   OH229434   6.869   3.537   1.827
 9830TIP3    H129435   6.955   3.528   1.868
 9830TIP3    H229436   6.813   3.569   1.898
 9831TIP3   OH229437   5.844   5.028   1.167
 9831TIP3    H129438   5.861   5.117   1.136
 9831TIP3    H229439   5.858   5.032   1.261
 9832TIP3   OH229440   6.366   6.524   3.037
 9832TIP3    H129441   6.394   6.443   2.992
 9832TIP3    H229442   6.448   6.565   3.065
 9833TIP3   OH229443   0.426   6.652   1.683
 9833TIP3    H129444   0.519   6.676   1.687
 9833TIP3    H229445   0.405   6.652   1.589
 9834TIP3   OH229446   4.327   7.682   3.309
 9834TIP3    H129447   4.255   7.659   3.250
 9834TIP3    H229448   4.292   7.669   3.397
 9835TIP3   OH229449   4.816   1.124   1.819
 9835TIP3    H129450   4.742   1.124   1.759
 9835TIP3    H229451   4.871   1.051   1.788
 9836TIP3   OH229452   1.489   5.636   0.282
 9836TIP3    H129453   1.447   5.601   0.361
 9836TIP3    H229454   1.572   5.589   0.275
 9837TIP3   OH229455   3.118   6.263   5.639
 9837TIP3    H129456   3.123   6.277   5.545
 9837TIP3    H229457   3.034   6.219   5.653
 9838TIP3   OH229458   3.094   3.821   6.421
 9838TIP3    H129459   3.189   3.829   6.424
 9838TIP3    H229460   3.077   3.764   6.346
 9839TIP3   OH229461   0.646   6.244   1.765
 9839TIP3    H129462   0.602   6.216   1.685
 9839TIP3    H229463   0.739   6.238   1.744
 9840TIP3   OH229464   4.454   2.053   6.013
 9840TIP3    H129465   4.486   2.102   6.089
 9840TIP3    H229466   4.442   2.119   5.944
 9841TIP3   OH229467   2.911   3.143   0.092
 9841TIP3    H129468   2.933   3.164   0.183
 9841TIP3    H229469   2.832   3.194   0.074
 9842TIP3   OH229470   3.608   2.884   6.374
 9842TIP3    H129471   3.660   2.949   6.327
 9842TIP3    H229472   3.520   2.892   6.337
 9843TIP3   OH229473   0.572   4.889   1.159
 9843TIP3    H129474   0.487   4.910   1.121
 9843TIP3    H229475   0.557   4.888   1.253
 9844TIP3   OH229476   0.682   1.837   0.463
 9844TIP3    H129477   0.771   1.828   0.496
 9844TIP3    H229478   0.628   1.845   0.541
 9845TIP3   OH229479   6.635   7.008   6.245
 9845TIP3    H129480   6.626   7.101   6.269
 9845TIP3    H229481   6.592   7.001   6.160
 9846TIP3   OH229482   2.237   2.882   4.868
 9846TIP3    H129483   2.215   2.974   4.882
 9846TIP3    H229484   2.244   2.872   4.773
 9847TIP3   OH229485   4.050   2.282   4.385
 9847TIP3    H129486   4.025   2.371   4.361
 9847TIP3    H229487   4.082   2.244   4.303
 9848TIP3   OH229488   3.083   7.260   4.563
 9848TIP3    H129489   3.001   7.219   4.590
 9848TIP3    H229490   3.120   7.294   4.645
 9849TIP3   OH229491   5.046   7.312   5.017
 9849TIP3    H129492   4.985   7.318   5.090
 9849TIP3    H229493   4.997   7.347   4.942
 9850TIP3   OH229494   4.751   6.924   6.433
 9850TIP3    H129495   4.838   6.886   6.416
 9850TIP3    H229496   4.769   7.013   6.464
 9851TIP3   OH229497   6.572   3.539   5.933
 9851TIP3    H129498   6.551   3.622   5.890
 9851TIP3    H229499   6.489   3.491   5.935
 9852TIP3   OH229500   4.342   4.429   0.159
 9852TIP3    H129501   4.261   4.448   0.207
 9852TIP3    H229502   4.378   4.515   0.138
 9853TIP3   OH229503   2.840   2.855   0.002
 9853TIP3    H129504   2.812   2.894  -0.081
 9853TIP3    H229505   2.803   2.913   0.068
 9854TIP3   OH229506   3.867   4.062   0.399
 9854TIP3    H129507   3.845   4.101   0.484
 9854TIP3    H229508   3.787   4.072   0.347
 9855TIP3   OH229509   5.190   1.883   4.326
 9855TIP3    H129510   5.225   1.890   4.414
 9855TIP3    H229511   5.106   1.929   4.330
 9856TIP3   OH229512   3.483   4.289   6.266
 9856TIP3    H129513   3.425   4.242   6.206
 9856TIP3    H229514   3.508   4.368   6.218
 9857TIP3   OH229515   7.775   4.229   3.434
 9857TIP3    H129516   7.827   4.154   3.462
 9857TIP3    H229517   7.712   4.242   3.505
 9858TIP3   OH229518   0.851   2.620   0.901
 9858TIP3    H129519   0.884   2.538   0.937
 9858TIP3    H229520   0.759   2.602   0.880
 9859TIP3   OH229521   2.051   4.922   1.879
 9859TIP3    H129522   2.043   4.827   1.864
 9859TIP3    H229523   1.987   4.960   1.818
 9860TIP3   OH229524   3.881   6.066   3.598
 9860TIP3    H129525   3.931   6.122   3.657
 9860TIP3    H229526   3.840   6.125   3.535
 9861TIP3   OH229527   5.460   5.202   1.855
 9861TIP3    H129528   5.545   5.167   1.826
 9861TIP3    H229529   5.482   5.265   1.923
 9862TIP3   OH229530   4.558   0.606   0.948
 9862TIP3    H129531   4.629   0.588   1.010
 9862TIP3    H229532   4.482   0.625   1.003
 9863TIP3   OH229533   1.145   1.530   1.798
 9863TIP3    H129534   1.239   1.521   1.812
 9863TIP3    H229535   1.137   1.588   1.722
 9864TIP3   OH229536   3.446   4.531   0.528
 9864TIP3    H129537   3.527   4.482   0.516
 9864TIP3    H229538   3.376   4.470   0.503
 9865TIP3   OH229539   2.364   6.606   5.264
 9865TIP3    H129540   2.279   6.573   5.237
 9865TIP3    H229541   2.427   6.558   5.210
 9866TIP3   OH229542   4.682   5.065   3.499
 9866TIP3    H129543   4.724   5.109   3.573
 9866TIP3    H229544   4.753   5.018   3.456
 9867TIP3   OH229545   4.716   3.720   0.441
 9867TIP3    H129546   4.752   3.658   0.504
 9867TIP3    H229547   4.621   3.710   0.448
 9868TIP3   OH229548   5.812   7.558   2.594
 9868TIP3    H129549   5.768   7.642   2.584
 9868TIP3    H229550   5.869   7.569   2.670
 9869TIP3   OH229551   1.215   2.279   3.051
 9869TIP3    H129552   1.214   2.367   3.012
 9869TIP3    H229553   1.296   2.276   3.102
 9870TIP3   OH229554   7.922   7.228   1.449
 9870TIP3    H129555   7.842   7.258   1.493
 9870TIP3    H229556   7.939   7.142   1.487
 9871TIP3   OH229557   3.131   1.758   4.861
 9871TIP3    H129558   3.091   1.740   4.947
 9871TIP3    H229559   3.115   1.851   4.846
 9872TIP3   OH229560   7.096   1.328   0.563
 9872TIP3    H129561   7.035   1.254   0.566
 9872TIP3    H229562   7.147   1.314   0.483
 9873TIP3   OH229563   2.474   7.294   2.410
 9873TIP3    H129564   2.559   7.284   2.452
 9873TIP3    H229565   2.427   7.213   2.430
 9874TIP3   OH229566   2.659   0.825   1.456
 9874TIP3    H129567   2.648   0.820   1.361
 9874TIP3    H229568   2.753   0.815   1.469
 9875TIP3   OH229569   4.342   3.746   0.853
 9875TIP3    H129570   4.371   3.816   0.911
 9875TIP3    H229571   4.268   3.707   0.898
 9876TIP3   OH229572   2.727   3.727   2.346
 9876TIP3    H129573   2.700   3.635   2.351
 9876TIP3    H229574   2.797   3.735   2.411
 9877TIP3   OH229575   8.118   3.123   3.256
 9877TIP3    H129576   8.098   3.107   3.348
 9877TIP3    H229577   8.168   3.047   3.228
 9878TIP3   OH229578   0.940   5.107   6.422
 9878TIP3    H129579   0.934   5.186   6.477
 9878TIP3    H229580   0.890   5.129   6.344
 9879TIP3   OH229581   2.266   1.447   5.766
 9879TIP3    H129582   2.306   1.361   5.773
 9879TIP3    H229583   2.300   1.496   5.840
 9880TIP3   OH229584   2.953   2.979   5.696
 9880TIP3    H129585   3.042   2.981   5.660
 9880TIP3    H229586   2.904   2.923   5.635
 9881TIP3   OH229587   4.103   5.036   4.312
 9881TIP3    H129588   4.073   5.116   4.270
 9881TIP3    H229589   4.118   4.975   4.239
 9882TIP3   OH229590   6.812   3.993   4.291
 9882TIP3    H129591   6.882   4.035   4.341
 9882TIP3    H229592   6.812   3.902   4.321
 9883TIP3   OH229593   7.188   5.706   1.162
 9883TIP3    H129594   7.217   5.688   1.251
 9883TIP3    H229595   7.158   5.797   1.164
 9884TIP3   OH229596   7.829   2.158   0.637
 9884TIP3    H129597   7.750   2.107   0.654
 9884TIP3    H229598   7.870   2.113   0.562
 9885TIP3   OH229599   1.365   3.708   0.956
 9885TIP3    H129600   1.450   3.717   0.999
 9885TIP3    H229601   1.377   3.637   0.893
 9886TIP3   OH229602   3.554   4.523   3.618
 9886TIP3    H129603   3.539   4.460   3.689
 9886TIP3    H229604   3.582   4.469   3.544
 9887TIP3   OH229605   0.612   1.835   5.119
 9887TIP3    H129606   0.589   1.917   5.164
 9887TIP3    H229607   0.707   1.835   5.117
 9888TIP3   OH229608   2.040   1.803   6.587
 9888TIP3    H129609   2.101   1.876   6.594
 9888TIP3    H229610   1.961   1.842   6.550
 9889TIP3   OH229611   1.124   4.422   3.756
 9889TIP3    H129612   1.110   4.382   3.671
 9889TIP3    H229613   1.041   4.409   3.802
 9890TIP3   OH229614   3.571   6.150   1.819
 9890TIP3    H129615   3.619   6.177   1.741
 9890TIP3    H229616   3.523   6.228   1.846
 9891TIP3   OH229617   6.569   2.900   1.138
 9891TIP3    H129618   6.604   2.918   1.051
 9891TIP3    H229619   6.612   2.818   1.165
 9892TIP3   OH229620   5.012   2.362   4.555
 9892TIP3    H129621   5.064   2.353   4.475
 9892TIP3    H229622   5.032   2.285   4.607
 9893TIP3   OH229623   5.613   5.324   1.189
 9893TIP3    H129624   5.696   5.290   1.154
 9893TIP3    H229625   5.585   5.257   1.251
 9894TIP3   OH229626   1.239   3.395   5.973
 9894TIP3    H129627   1.269   3.305   5.967
 9894TIP3    H229628   1.167   3.393   6.036
 9895TIP3   OH229629   2.917   0.848   3.280
 9895TIP3    H129630   2.999   0.812   3.246
 9895TIP3    H229631   2.861   0.858   3.203
 9896TIP3   OH229632   7.073   0.119   3.150
 9896TIP3    H129633   7.010   0.121   3.221
 9896TIP3    H229634   7.030   0.164   3.077
 9897TIP3   OH229635   0.897   4.236   4.698
 9897TIP3    H129636   0.974   4.278   4.659
 9897TIP3    H229637   0.925   4.147   4.716
 9898TIP3   OH229638   8.211   2.361   5.501
 9898TIP3    H129639   8.162   2.287   5.537
 9898TIP3    H229640   8.278   2.320   5.446
 9899TIP3   OH229641   0.775   7.074   6.747
 9899TIP3    H129642   0.704   7.039   6.802
 9899TIP3    H229643   0.820   6.996   6.714
 9900TIP3   OH229644   1.777   5.402   6.273
 9900TIP3    H129645   1.753   5.310   6.262
 9900TIP3    H229646   1.818   5.406   6.359
 9901TIP3   OH229647   6.706   6.737   2.748
 9901TIP3    H129648   6.689   6.773   2.661
 9901TIP3    H229649   6.651   6.789   2.807
 9902TIP3   OH229650   5.963   5.598   4.103
 9902TIP3    H129651   5.881   5.551   4.093
 9902TIP3    H229652   5.969   5.617   4.196
 9903TIP3   OH229653   7.011   0.770   5.538
 9903TIP3    H129654   7.048   0.684   5.518
 9903TIP3    H229655   7.050   0.828   5.472
 9904TIP3   OH229656   1.075   1.779   1.971
 9904TIP3    H129657   1.107   1.705   1.919
 9904TIP3    H229658   1.141   1.847   1.959
 9905TIP3   OH229659   7.714   5.510   4.846
 9905TIP3    H129660   7.787   5.459   4.812
 9905TIP3    H229661   7.639   5.451   4.844
 9906TIP3   OH229662   8.122   7.160   4.517
 9906TIP3    H129663   8.140   7.220   4.589
 9906TIP3    H229664   8.042   7.114   4.544
 9907TIP3   OH229665   7.595   5.205   3.824
 9907TIP3    H129666   7.671   5.171   3.871
 9907TIP3    H229667   7.545   5.127   3.799
 9908TIP3   OH229668   4.781   5.764   5.479
 9908TIP3    H129669   4.716   5.726   5.537
 9908TIP3    H229670   4.865   5.736   5.516
 9909TIP3   OH229671   0.619   0.568   0.826
 9909TIP3    H129672   0.532   0.535   0.804
 9909TIP3    H229673   0.609   0.603   0.914
 9910TIP3   OH229674   3.497   5.978   2.398
 9910TIP3    H129675   3.499   6.043   2.328
 9910TIP3    H229676   3.410   5.940   2.393
 9911TIP3   OH229677   0.624   0.364   5.808
 9911TIP3    H129678   0.686   0.323   5.748
 9911TIP3    H229679   0.571   0.420   5.752
 9912TIP3   OH229680   3.760   3.963   3.711
 9912TIP3    H129681   3.810   4.031   3.666
 9912TIP3    H229682   3.668   3.985   3.694
 9913TIP3   OH229683   7.628   1.904   1.463
 9913TIP3    H129684   7.711   1.915   1.510
 9913TIP3    H229685   7.632   1.967   1.392
 9914TIP3   OH229686   5.961   7.801   5.093
 9914TIP3    H129687   6.048   7.792   5.131
 9914TIP3    H229688   5.904   7.753   5.154
 9915TIP3   OH229689   5.234   1.337   1.167
 9915TIP3    H129690   5.251   1.430   1.152
 9915TIP3    H229691   5.321   1.299   1.184
 9916TIP3   OH229692   3.507   1.129   2.404
 9916TIP3    H129693   3.517   1.034   2.393
 9916TIP3    H229694   3.501   1.162   2.314
 9917TIP3   OH229695   4.269   1.197   2.019
 9917TIP3    H129696   4.221   1.145   1.954
 9917TIP3    H229697   4.314   1.133   2.073
 9918TIP3   OH229698   7.762   4.880   0.785
 9918TIP3    H129699   7.791   4.934   0.711
 9918TIP3    H229700   7.683   4.836   0.754
 9919TIP3   OH229701   2.426   2.540   5.714
 9919TIP3    H129702   2.510   2.580   5.738
 9919TIP3    H229703   2.430   2.452   5.752
 9920TIP3   OH229704   1.112   1.152   4.598
 9920TIP3    H129705   1.164   1.074   4.615
 9920TIP3    H229706   1.128   1.209   4.674
 9921TIP3   OH229707   1.132   3.641   6.717
 9921TIP3    H129708   1.163   3.594   6.795
 9921TIP3    H229709   1.112   3.573   6.654
 9922TIP3   OH229710   0.981   5.442   2.262
 9922TIP3    H129711   0.962   5.536   2.263
 9922TIP3    H229712   0.976   5.416   2.354
 9923TIP3   OH229713   5.699   7.034   5.480
 9923TIP3    H129714   5.676   7.127   5.472
 9923TIP3    H229715   5.766   7.033   5.548
 9924TIP3   OH229716   7.394   7.467   0.554
 9924TIP3    H129717   7.314   7.519   0.542
 9924TIP3    H229718   7.455   7.501   0.488
 9925TIP3   OH229719   1.231   2.004   6.080
 9925TIP3    H129720   1.214   1.998   6.174
 9925TIP3    H229721   1.226   1.914   6.049
 9926TIP3   OH229722   2.422   0.352   4.680
 9926TIP3    H129723   2.438   0.445   4.668
 9926TIP3    H229724   2.489   0.309   4.628
 9927TIP3   OH229725   5.696   7.304   1.112
 9927TIP3    H129726   5.771   7.245   1.113
 9927TIP3    H229727   5.676   7.319   1.204
 9928TIP3   OH229728   3.933   4.562   4.036
 9928TIP3    H129729   3.871   4.557   3.962
 9928TIP3    H229730   3.879   4.543   4.113
 9929TIP3   OH229731   4.688   2.350   4.327
 9929TIP3    H129732   4.602   2.332   4.291
 9929TIP3    H229733   4.742   2.276   4.299
 9930TIP3   OH229734   7.746   4.230   3.761
 9930TIP3    H129735   7.663   4.253   3.720
 9930TIP3    H229736   7.786   4.315   3.783
 9931TIP3   OH229737   8.049   5.810   4.866
 9931TIP3    H129738   8.106   5.739   4.836
 9931TIP3    H229739   8.005   5.774   4.943
 9932TIP3   OH229740   3.954   6.926   2.040
 9932TIP3    H129741   3.883   6.982   2.011
 9932TIP3    H229742   4.033   6.979   2.029
 9933TIP3   OH229743   1.455   6.091   6.533
 9933TIP3    H129744   1.385   6.041   6.573
 9933TIP3    H229745   1.456   6.063   6.441
 9934TIP3   OH229746   3.237   0.477   6.503
 9934TIP3    H129747   3.216   0.501   6.594
 9934TIP3    H229748   3.279   0.391   6.511
 9935TIP3   OH229749   5.762   2.255   6.132
 9935TIP3    H129750   5.684   2.282   6.085
 9935TIP3    H229751   5.834   2.298   6.087
 9936TIP3   OH229752   2.582   1.131   4.361
 9936TIP3    H129753   2.566   1.137   4.455
 9936TIP3    H229754   2.579   1.222   4.331
 9937TIP3   OH229755   1.516   7.453   4.158
 9937TIP3    H129756   1.526   7.468   4.064
 9937TIP3    H229757   1.504   7.358   4.166
 9938TIP3   OH229758   3.237   1.102   1.888
 9938TIP3    H129759   3.271   1.189   1.908
 9938TIP3    H229760   3.219   1.104   1.794
 9939TIP3   OH229761  -0.007   5.897   3.220
 9939TIP3    H129762   0.039   5.820   3.253
 9939TIP3    H229763  -0.061   5.925   3.294
 9940TIP3   OH229764   5.032   0.786   3.640
 9940TIP3    H129765   5.106   0.761   3.694
 9940TIP3    H229766   5.071   0.823   3.560
 9941TIP3   OH229767   0.022   6.130   0.929
 9941TIP3    H129768   0.065   6.209   0.896
 9941TIP3    H229769  -0.027   6.159   1.006
 9942TIP3   OH229770   6.749   7.458   2.841
 9942TIP3    H129771   6.714   7.453   2.752
 9942TIP3    H229772   6.763   7.367   2.866
 9943TIP3   OH229773   7.821   6.517   2.825
 9943TIP3    H129774   7.791   6.502   2.915
 9943TIP3    H229775   7.810   6.611   2.811
 9944TIP3   OH229776   2.101   1.310   6.485
 9944TIP3    H129777   2.039   1.260   6.432
 9944TIP3    H229778   2.066   1.399   6.486
 9945TIP3   OH229779   1.623   1.974   4.009
 9945TIP3    H129780   1.550   1.947   3.953
 9945TIP3    H229781   1.673   2.035   3.955
 9946TIP3   OH229782   5.037   1.977   2.427
 9946TIP3    H129783   5.115   1.960   2.480
 9946TIP3    H229784   5.000   1.890   2.410
 9947TIP3   OH229785   7.368   1.745   0.394
 9947TIP3    H129786   7.329   1.812   0.450
 9947TIP3    H229787   7.443   1.789   0.353
 9948TIP3   OH229788   2.853   7.117   6.605
 9948TIP3    H129789   2.911   7.151   6.536
 9948TIP3    H229790   2.805   7.194   6.635
 9949TIP3   OH229791   7.731   4.969   4.281
 9949TIP3    H129792   7.811   4.964   4.334
 9949TIP3    H229793   7.667   5.012   4.338
 9950TIP3   OH229794   8.125   4.939   2.625
 9950TIP3    H129795   8.211   4.960   2.661
 9950TIP3    H229796   8.071   5.014   2.648
 9951TIP3   OH229797   0.435   2.642   6.487
 9951TIP3    H129798   0.386   2.600   6.558
 9951TIP3    H229799   0.522   2.656   6.524
 9952TIP3   OH229800   3.655   2.852   4.217
 9952TIP3    H129801   3.683   2.900   4.139
 9952TIP3    H229802   3.690   2.764   4.204
 9953TIP3   OH229803   1.638   3.625   2.109
 9953TIP3    H129804   1.584   3.621   2.188
 9953TIP3    H229805   1.721   3.662   2.138
 9954TIP3   OH229806   6.675   3.236   0.615
 9954TIP3    H129807   6.725   3.155   0.624
 9954TIP3    H229808   6.728   3.291   0.556
 9955TIP3   OH229809   6.951   6.260   1.014
 9955TIP3    H129810   6.939   6.234   1.106
 9955TIP3    H229811   6.876   6.316   0.995
 9956TIP3   OH229812   7.498   3.514   4.361
 9956TIP3    H129813   7.537   3.515   4.449
 9956TIP3    H229814   7.413   3.471   4.373
 9957TIP3   OH229815   0.525   7.094   5.623
 9957TIP3    H129816   0.582   7.169   5.642
 9957TIP3    H229817   0.469   7.087   5.700
 9958TIP3   OH229818   7.457   2.328   6.235
 9958TIP3    H129819   7.436   2.235   6.245
 9958TIP3    H229820   7.520   2.331   6.163
 9959TIP3   OH229821   1.430   1.908   5.247
 9959TIP3    H129822   1.418   1.982   5.188
 9959TIP3    H229823   1.342   1.888   5.278
 9960TIP3   OH229824   4.292   3.940   4.426
 9960TIP3    H129825   4.326   3.851   4.420
 9960TIP3    H229826   4.270   3.964   4.336
 9961TIP3   OH229827   0.460   0.085   6.112
 9961TIP3    H129828   0.470   0.150   6.042
 9961TIP3    H229829   0.402   0.019   6.075
 9962TIP3   OH229830   7.397   1.958   1.613
 9962TIP3    H129831   7.397   1.870   1.652
 9962TIP3    H229832   7.440   1.947   1.529
 9963TIP3   OH229833   2.380   3.666   6.722
 9963TIP3    H129834   2.376   3.740   6.661
 9963TIP3    H229835   2.395   3.590   6.666
 9964TIP3   OH229836   4.880   1.835   1.970
 9964TIP3    H129837   4.935   1.903   2.010
 9964TIP3    H229838   4.942   1.774   1.931
 9965TIP3   OH229839   7.170   0.994   3.020
 9965TIP3    H129840   7.105   0.924   3.019
 9965TIP3    H229841   7.122   1.071   2.990
 9966TIP3   OH229842   7.226   4.532   1.517
 9966TIP3    H129843   7.298   4.596   1.519
 9966TIP3    H229844   7.150   4.580   1.551
 9967TIP3   OH229845   6.623   4.672   6.432
 9967TIP3    H129846   6.664   4.588   6.414
 9967TIP3    H229847   6.561   4.654   6.503
 9968TIP3   OH229848   7.917   7.593   3.079
 9968TIP3    H129849   7.956   7.590   2.991
 9968TIP3    H229850   7.986   7.563   3.137
 9969TIP3   OH229851   7.074   0.605   4.067
 9969TIP3    H129852   7.087   0.626   3.974
 9969TIP3    H229853   7.108   0.516   4.077
 9970TIP3   OH229854   1.880   0.663   3.951
 9970TIP3    H129855   1.934   0.728   3.997
 9970TIP3    H229856   1.820   0.631   4.018
 9971TIP3   OH229857   3.561   1.602   3.589
 9971TIP3    H129858   3.543   1.644   3.673
 9971TIP3    H229859   3.651   1.627   3.568
 9972TIP3   OH229860   0.050   3.785   0.950
 9972TIP3    H129861  -0.033   3.752   0.915
 9972TIP3    H229862   0.027   3.867   0.994
 9973TIP3   OH229863   0.422   2.391   2.419
 9973TIP3    H129864   0.414   2.302   2.385
 9973TIP3    H229865   0.378   2.446   2.354
 9974TIP3   OH229866   0.351   0.665   4.526
 9974TIP3    H129867   0.367   0.725   4.453
 9974TIP3    H229868   0.391   0.583   4.498
 9975TIP3   OH229869   7.798   7.706   5.356
 9975TIP3    H129870   7.840   7.772   5.300
 9975TIP3    H229871   7.765   7.755   5.431
 9976TIP3   OH229872   0.725   5.318   3.584
 9976TIP3    H129873   0.730   5.348   3.675
 9976TIP3    H229874   0.655   5.370   3.545
 9977TIP3   OH229875   2.563   3.518   3.137
 9977TIP3    H129876   2.618   3.558   3.204
 9977TIP3    H229877   2.475   3.521   3.173
 9978TIP3   OH229878   6.138   0.243   6.155
 9978TIP3    H129879   6.155   0.321   6.208
 9978TIP3    H229880   6.042   0.238   6.151
 9979TIP3   OH229881   0.844   5.211   3.238
 9979TIP3    H129882   0.921   5.158   3.260
 9979TIP3    H229883   0.831   5.267   3.315
 9980TIP3   OH229884   0.206   5.868   4.251
 9980TIP3    H129885   0.290   5.888   4.293
 9980TIP3    H229886   0.142   5.883   4.320
 9981TIP3   OH229887   2.560   1.027   5.548
 9981TIP3    H129888   2.544   1.080   5.469
 9981TIP3    H229889   2.486   0.966   5.551
 9982TIP3   OH229890   3.493   3.344   2.186
 9982TIP3    H129891   3.496   3.437   2.208
 9982TIP3    H229892   3.476   3.300   2.269
 9983TIP3   OH229893   6.616   3.241   4.311
 9983TIP3    H129894   6.537   3.187   4.316
 9983TIP3    H229895   6.583   3.329   4.295
 9984TIP3   OH229896   1.068   6.241   4.315
 9984TIP3    H129897   1.154   6.278   4.335
 9984TIP3    H229898   1.077   6.206   4.227
 9985TIP3   OH229899   1.459   6.739   0.373
 9985TIP3    H129900   1.409   6.684   0.313
 9985TIP3    H229901   1.550   6.711   0.362
 9986TIP3   OH229902   6.289   6.803   0.175
 9986TIP3    H129903   6.194   6.792   0.162
 9986TIP3    H229904   6.297   6.836   0.264
 9987TIP3   OH229905   2.815   3.599   0.884
 9987TIP3    H129906   2.781   3.640   0.963
 9987TIP3    H229907   2.906   3.576   0.906
 9988TIP3   OH229908   4.875   7.700   6.741
 9988TIP3    H129909   4.810   7.766   6.716
 9988TIP3    H229910   4.825   7.632   6.786
 9989TIP3   OH229911   5.286   1.936   2.559
 9989TIP3    H129912   5.326   1.874   2.619
 9989TIP3    H229913   5.308   2.022   2.594
 9990TIP3   OH229914   1.979   6.931   2.013
 9990TIP3    H129915   2.061   6.885   2.033
 9990TIP3    H229916   1.919   6.861   1.986
 9991TIP3   OH229917   7.253   6.862   0.941
 9991TIP3    H129918   7.269   6.779   0.896
 9991TIP3    H229919   7.322   6.867   1.007
 9992TIP3   OH229920   3.418   6.655   5.707
 9992TIP3    H129921   3.328   6.688   5.713
 9992TIP3    H229922   3.450   6.687   5.623
 9993TIP3   OH229923   0.960   6.993   0.278
 9993TIP3    H129924   0.931   6.960   0.362
 9993TIP3    H229925   1.011   7.072   0.299
 9994TIP3   OH229926   6.028   3.178   3.262
 9994TIP3    H129927   6.109   3.159   3.215
 9994TIP3    H229928   6.055   3.240   3.330
 9995TIP3   OH229929   3.196   2.636   6.400
 9995TIP3    H129930   3.177   2.551   6.439
 9995TIP3    H229931   3.283   2.659   6.433
 9996TIP3   OH229932   2.138   4.705   4.865
 9996TIP3    H129933   2.086   4.711   4.785
 9996TIP3    H229934   2.110   4.780   4.918
 9997TIP3   OH229935   6.115   3.877   2.849
 9997TIP3    H129936   6.043   3.941   2.850
 9997TIP3    H229937   6.073   3.795   2.820
 9998TIP3   OH229938   0.130   1.821   3.393
 9998TIP3    H129939   0.184   1.860   3.462
 9998TIP3    H229940   0.042   1.818   3.430
 9999TIP3   OH229941   4.947   5.933   5.141
 9999TIP3    H129942   5.018   5.906   5.199
 9999TIP3    H229943   4.893   5.855   5.130
10000TIP3   OH229944   5.485   3.677   0.978
10000TIP3    H129945   5.522   3.634   1.055
10000TIP3    H229946   5.498   3.614   0.907
10001TIP3   OH229947   1.379   7.581   2.492
10001TIP3    H129948   1.427   7.500   2.510
10001TIP3    H229949   1.373   7.624   2.578
10002TIP3   OH229950   2.329   2.818   6.386
10002TIP3    H129951   2.417   2.804   6.350
10002TIP3    H229952   2.327   2.762   6.464
10003TIP3   OH229953   4.525   1.362   3.602
10003TIP3    H129954   4.558   1.441   3.644
10003TIP3    H229955   4.570   1.291   3.646
10004TIP3   OH229956   0.151   7.278   4.444
10004TIP3    H129957   0.114   7.237   4.522
10004TIP3    H229958   0.243   7.250   4.443
10005TIP3   OH229959   6.666   2.407   1.065
10005TIP3    H129960   6.604   2.342   1.033
10005TIP3    H229961   6.673   2.390   1.159
10006TIP3   OH229962   1.868   4.544   4.950
10006TIP3    H129963   1.857   4.637   4.970
10006TIP3    H229964   1.786   4.519   4.908
10007TIP3   OH229965   5.262   4.984   6.387
10007TIP3    H129966   5.277   4.935   6.307
10007TIP3    H229967   5.337   5.043   6.394
10008TIP3   OH229968   5.969   5.857   2.831
10008TIP3    H129969   5.961   5.791   2.899
10008TIP3    H229970   5.884   5.902   2.831
10009TIP3   OH229971   4.522   2.997   6.350
10009TIP3    H129972   4.470   3.050   6.290
10009TIP3    H229973   4.610   3.034   6.345
10010TIP3   OH229974   7.007   4.494   0.371
10010TIP3    H129975   6.951   4.442   0.313
10010TIP3    H229976   7.032   4.570   0.319
10011TIP3   OH229977   6.670   1.088  -0.017
10011TIP3    H129978   6.630   1.172   0.003
10011TIP3    H229979   6.675   1.042   0.067
10012TIP3   OH229980   1.334   0.133   6.479
10012TIP3    H129981   1.360   0.191   6.407
10012TIP3    H229982   1.240   0.119   6.466
10013TIP3   OH229983   0.181   7.553   1.005
10013TIP3    H129984   0.113   7.619   0.998
10013TIP3    H229985   0.245   7.590   1.066
10014TIP3   OH229986   2.016   7.712   4.802
10014TIP3    H129987   2.061   7.777   4.748
10014TIP3    H229988   1.928   7.706   4.764
10015TIP3   OH229989   1.826   3.523   2.989
10015TIP3    H129990   1.731   3.528   2.983
10015TIP3    H229991   1.843   3.457   3.056
10016TIP3   OH229992   6.726   5.036   2.891
10016TIP3    H129993   6.818   5.061   2.895
10016TIP3    H229994   6.724   4.945   2.919
10017TIP3   OH229995   7.412   5.222   2.306
10017TIP3    H129996   7.500   5.220   2.342
10017TIP3    H229997   7.399   5.135   2.268
10018TIP3   OH229998   5.895   4.479   5.293
10018TIP3    H129999   5.877   4.401   5.241
10018TIP3    H230000   5.920   4.546   5.229
10019TIP3   OH230001   0.153   5.936   3.981
10019TIP3    H130002   0.124   6.027   3.988
10019TIP3    H230003   0.170   5.910   4.072
10020TIP3   OH230004   7.040   3.533   4.669
10020TIP3    H130005   6.970   3.598   4.676
10020TIP3    H230006   7.121   3.582   4.685
10021TIP3   OH230007   5.674   6.820   1.361
10021TIP3    H130008   5.753   6.767   1.358
10021TIP3    H230009   5.663   6.842   1.454
10022TIP3   OH230010   4.471   3.901   0.663
10022TIP3    H130011   4.451   3.844   0.588
10022TIP3    H230012   4.412   3.871   0.732
10023TIP3   OH230013   1.334   5.618   5.162
10023TIP3    H130014   1.277   5.591   5.090
10023TIP3    H230015   1.323   5.549   5.228
10024TIP3   OH230016   0.254   1.659   5.459
10024TIP3    H130017   0.229   1.576   5.417
10024TIP3    H230018   0.333   1.638   5.508
10025TIP3   OH230019   3.771   1.213   2.741
10025TIP3    H130020   3.860   1.208   2.706
10025TIP3    H230021   3.731   1.285   2.692
10026TIP3   OH230022   1.196   5.129   1.906
10026TIP3    H130023   1.239   5.214   1.897
10026TIP3    H230024   1.165   5.128   1.997
10027TIP3   OH230025   7.863   4.883   2.517
10027TIP3    H130026   7.949   4.845   2.534
10027TIP3    H230027   7.861   4.898   2.423
10028TIP3   OH230028   7.473   7.076   5.828
10028TIP3    H130029   7.433   7.149   5.781
10028TIP3    H230030   7.450   7.092   5.920
10029TIP3   OH230031   3.930   2.111   6.442
10029TIP3    H130032   3.955   2.076   6.357
10029TIP3    H230033   3.837   2.134   6.432
10030TIP3   OH230034   1.799   0.339   2.573
10030TIP3    H130035   1.818   0.426   2.607
10030TIP3    H230036   1.857   0.281   2.621
10031TIP3   OH230037   2.493   7.069   6.419
10031TIP3    H130038   2.440   7.028   6.351
10031TIP3    H230039   2.471   7.020   6.499
10032TIP3   OH230040   3.502   6.578   6.338
10032TIP3    H130041   3.532   6.510   6.278
10032TIP3    H230042   3.541   6.659   6.304
10033TIP3   OH230043   3.037   0.488   3.737
10033TIP3    H130044   3.124   0.455   3.714
10033TIP3    H230045   2.982   0.467   3.662
10034TIP3   OH230046   3.379   5.354   0.564
10034TIP3    H130047   3.413   5.292   0.499
10034TIP3    H230048   3.302   5.311   0.600
10035TIP3   OH230049   4.741   0.282   5.300
10035TIP3    H130050   4.764   0.190   5.312
10035TIP3    H230051   4.655   0.291   5.341
10036TIP3   OH230052   4.520   3.392   1.977
10036TIP3    H130053   4.511   3.378   2.072
10036TIP3    H230054   4.605   3.435   1.968
10037TIP3   OH230055   1.525   1.773   1.726
10037TIP3    H130056   1.544   1.858   1.765
10037TIP3    H230057   1.538   1.786   1.632
10038TIP3   OH230058   0.024   4.950   4.154
10038TIP3    H130059   0.104   4.955   4.102
10038TIP3    H230060   0.015   5.037   4.193
10039TIP3   OH230061   0.095   7.202   3.982
10039TIP3    H130062   0.185   7.177   3.998
10039TIP3    H230063   0.054   7.125   3.943
10040TIP3   OH230064   5.925   1.914   5.598
10040TIP3    H130065   5.910   1.847   5.530
10040TIP3    H230066   5.934   1.864   5.679
10041TIP3   OH230067   1.613   5.974   1.241
10041TIP3    H130068   1.639   5.935   1.157
10041TIP3    H230069   1.522   5.947   1.252
10042TIP3   OH230070   3.894   0.902   3.945
10042TIP3    H130071   3.864   0.888   4.035
10042TIP3    H230072   3.921   0.994   3.943
10043TIP3   OH230073   7.701   4.357   3.206
10043TIP3    H130074   7.732   4.306   3.131
10043TIP3    H230075   7.742   4.315   3.282
10044TIP3   OH230076   5.013   6.333   3.164
10044TIP3    H130077   5.018   6.248   3.120
10044TIP3    H230078   5.095   6.341   3.211
10045TIP3   OH230079   7.728   6.279   3.526
10045TIP3    H130080   7.744   6.262   3.433
10045TIP3    H230081   7.635   6.261   3.539
10046TIP3   OH230082   3.007   5.683   5.835
10046TIP3    H130083   2.939   5.720   5.779
10046TIP3    H230084   3.018   5.593   5.804
10047TIP3   OH230085   3.348   0.324   2.974
10047TIP3    H130086   3.344   0.392   2.906
10047TIP3    H230087   3.413   0.262   2.942
10048TIP3   OH230088   2.926   7.336   3.074
10048TIP3    H130089   2.876   7.254   3.073
10048TIP3    H230090   2.894   7.382   3.151
10049TIP3   OH230091   6.865   5.586   5.140
10049TIP3    H130092   6.925   5.636   5.085
10049TIP3    H230093   6.782   5.634   5.135
10050TIP3   OH230094   1.016   0.232   6.040
10050TIP3    H130095   0.950   0.163   6.048
10050TIP3    H230096   1.078   0.199   5.976
10051TIP3   OH230097   8.273   1.918   2.975
10051TIP3    H130098   8.212   1.926   3.048
10051TIP3    H230099   8.351   1.878   3.013
10052TIP3   OH230100   4.412   0.750   2.761
10052TIP3    H130101   4.335   0.708   2.723
10052TIP3    H230102   4.423   0.830   2.710
10053TIP3   OH230103   5.557   6.641   5.138
10053TIP3    H130104   5.567   6.596   5.222
10053TIP3    H230105   5.560   6.734   5.160
10054TIP3   OH230106   4.787   6.570   2.008
10054TIP3    H130107   4.823   6.514   2.077
10054TIP3    H230108   4.712   6.521   1.975
10055TIP3   OH230109   6.709   7.741   1.830
10055TIP3    H130110   6.746   7.780   1.909
10055TIP3    H230111   6.614   7.741   1.846
10056TIP3   OH230112   7.463   6.652   3.722
10056TIP3    H130113   7.422   6.697   3.796
10056TIP3    H230114   7.473   6.562   3.752
10057TIP3   OH230115   2.529   5.906   5.865
10057TIP3    H130116   2.477   5.986   5.876
10057TIP3    H230117   2.584   5.903   5.943
10058TIP3   OH230118   5.609   5.861   3.538
10058TIP3    H130119   5.572   5.838   3.623
10058TIP3    H230120   5.679   5.923   3.559
10059TIP3   OH230121   0.182   0.642   3.228
10059TIP3    H130122   0.162   0.675   3.141
10059TIP3    H230123   0.277   0.651   3.236
10060TIP3   OH230124   0.321   3.047   1.687
10060TIP3    H130125   0.265   2.982   1.730
10060TIP3    H230126   0.291   3.048   1.596
10061TIP3   OH230127   0.144   1.553   3.351
10061TIP3    H130128   0.166   1.646   3.361
10061TIP3    H230129   0.189   1.527   3.271
10062TIP3   OH230130   4.332   0.467   6.155
10062TIP3    H130131   4.391   0.399   6.187
10062TIP3    H230132   4.383   0.514   6.089
10063TIP3   OH230133   7.065   4.665   3.258
10063TIP3    H130134   7.076   4.702   3.170
10063TIP3    H230135   7.041   4.574   3.243
10064TIP3   OH230136   6.676   6.620   1.201
10064TIP3    H130137   6.682   6.634   1.295
10064TIP3    H230138   6.763   6.589   1.176
10065TIP3   OH230139   3.029   4.783   3.065
10065TIP3    H130140   3.046   4.701   3.020
10065TIP3    H230141   3.115   4.825   3.073
10066TIP3   OH230142   3.664   2.320   2.393
10066TIP3    H130143   3.574   2.298   2.413
10066TIP3    H230144   3.694   2.251   2.334
10067TIP3   OH230145   8.125   2.080   5.633
10067TIP3    H130146   8.067   2.032   5.574
10067TIP3    H230147   8.174   2.011   5.678
10068TIP3   OH230148   7.312   4.179   3.002
10068TIP3    H130149   7.372   4.248   3.029
10068TIP3    H230150   7.368   4.115   2.958
10069TIP3   OH230151   5.727   7.568   4.464
10069TIP3    H130152   5.702   7.476   4.472
10069TIP3    H230153   5.643   7.614   4.456
10070TIP3   OH230154   7.514   7.454   3.951
10070TIP3    H130155   7.490   7.366   3.924
10070TIP3    H230156   7.432   7.503   3.952
10071TIP3   OH230157   0.184   3.203   4.095
10071TIP3    H130158   0.153   3.292   4.111
10071TIP3    H230159   0.145   3.151   4.165
10072TIP3   OH230160   5.035   3.977   4.308
10072TIP3    H130161   5.046   4.033   4.231
10072TIP3    H230162   4.967   3.914   4.281
10073TIP3   OH230163   1.870   2.184   1.298
10073TIP3    H130164   1.934   2.232   1.350
10073TIP3    H230165   1.806   2.152   1.362
10074TIP3   OH230166   0.862   3.326   5.769
10074TIP3    H130167   0.899   3.238   5.769
10074TIP3    H230168   0.813   3.331   5.686
10075TIP3   OH230169   7.070   5.929   3.579
10075TIP3    H130170   7.115   5.914   3.496
10075TIP3    H230171   6.997   5.867   3.578
10076TIP3   OH230172   1.425   0.238   0.076
10076TIP3    H130173   1.349   0.186   0.100
10076TIP3    H230174   1.396   0.289   0.000
10077TIP3   OH230175   0.319   3.251   2.151
10077TIP3    H130176   0.239   3.201   2.172
10077TIP3    H230177   0.385   3.184   2.132
10078TIP3   OH230178   1.161   7.770   1.119
10078TIP3    H130179   1.128   7.681   1.119
10078TIP3    H230180   1.176   7.791   1.027
10079TIP3   OH230181   6.034   1.490   3.333
10079TIP3    H130182   6.095   1.474   3.404
10079TIP3    H230183   5.987   1.570   3.357
10080TIP3   OH230184   2.552   7.504   5.137
10080TIP3    H130185   2.461   7.475   5.148
10080TIP3    H230186   2.581   7.461   5.057
10081TIP3   OH230187   4.473   2.966   3.714
10081TIP3    H130188   4.437   2.920   3.638
10081TIP3    H230189   4.568   2.967   3.699
10082TIP3   OH230190   6.550   1.401   1.672
10082TIP3    H130191   6.528   1.469   1.608
10082TIP3    H230192   6.551   1.447   1.756
10083TIP3   OH230193   3.653   2.739   0.291
10083TIP3    H130194   3.676   2.719   0.200
10083TIP3    H230195   3.568   2.782   0.285
10084TIP3   OH230196   4.894   3.725   1.438
10084TIP3    H130197   4.876   3.722   1.344
10084TIP3    H230198   4.988   3.712   1.445
10085TIP3   OH230199   7.246   4.554  -0.049
10085TIP3    H130200   7.268   4.608   0.027
10085TIP3    H230201   7.165   4.592  -0.083
10086TIP3   OH230202   3.710   1.157   5.866
10086TIP3    H130203   3.632   1.207   5.887
10086TIP3    H230204   3.711   1.154   5.770
10087TIP3   OH230205   3.328   3.853   3.826
10087TIP3    H130206   3.328   3.768   3.871
10087TIP3    H230207   3.350   3.833   3.736
10088TIP3   OH230208   2.362   4.895   1.119
10088TIP3    H130209   2.447   4.940   1.118
10088TIP3    H230210   2.363   4.843   1.199
10089TIP3   OH230211   0.144   0.150   4.755
10089TIP3    H130212   0.205   0.080   4.731
10089TIP3    H230213   0.140   0.147   4.850
10090TIP3   OH230214   1.033   1.354   3.594
10090TIP3    H130215   1.112   1.406   3.581
10090TIP3    H230216   1.021   1.308   3.510
10091TIP3   OH230217   7.964   0.625   2.823
10091TIP3    H130218   8.021   0.566   2.873
10091TIP3    H230219   7.881   0.625   2.871
10092TIP3   OH230220   4.465   2.701   3.254
10092TIP3    H130221   4.407   2.671   3.184
10092TIP3    H230222   4.553   2.691   3.218
10093TIP3   OH230223   1.410   4.202   4.557
10093TIP3    H130224   1.429   4.123   4.607
10093TIP3    H230225   1.484   4.209   4.496
10094TIP3   OH230226   7.094   6.262   2.453
10094TIP3    H130227   7.123   6.353   2.443
10094TIP3    H230228   7.096   6.227   2.364
10095TIP3   OH230229   3.080   3.939   1.020
10095TIP3    H130230   3.122   4.021   1.046
10095TIP3    H230231   3.017   3.922   1.090
10096TIP3   OH230232   0.602   5.629   6.387
10096TIP3    H130233   0.688   5.653   6.351
10096TIP3    H230234   0.589   5.692   6.458
10097TIP3   OH230235   7.407   0.492   4.552
10097TIP3    H130236   7.467   0.520   4.483
10097TIP3    H230237   7.382   0.573   4.596
10098TIP3   OH230238   0.809   0.267   5.037
10098TIP3    H130239   0.724   0.282   4.996
10098TIP3    H230240   0.788   0.221   5.119
10099TIP3   OH230241   8.079   0.737   2.109
10099TIP3    H130242   8.141   0.711   2.041
10099TIP3    H230243   8.081   0.664   2.172
10100TIP3   OH230244   1.058   5.752   5.301
10100TIP3    H130245   0.983   5.722   5.250
10100TIP3    H230246   1.134   5.737   5.245
10101TIP3   OH230247   4.353   4.191   1.243
10101TIP3    H130248   4.267   4.225   1.216
10101TIP3    H230249   4.403   4.270   1.264
10102TIP3   OH230250   4.057   1.283   2.901
10102TIP3    H130251   4.104   1.339   2.962
10102TIP3    H230252   3.966   1.284   2.932
10103TIP3   OH230253   7.625   4.012   2.908
10103TIP3    H130254   7.700   3.954   2.903
10103TIP3    H230255   7.652   4.081   2.969
10104TIP3   OH230256   4.005   6.314   3.655
10104TIP3    H130257   3.969   6.389   3.701
10104TIP3    H230258   4.028   6.348   3.568
10105TIP3   OH230259   4.295   7.643   2.010
10105TIP3    H130260   4.379   7.689   1.997
10105TIP3    H230261   4.309   7.557   1.970
10106TIP3   OH230262   1.223   4.451   0.144
10106TIP3    H130263   1.270   4.436   0.226
10106TIP3    H230264   1.163   4.523   0.163
10107TIP3   OH230265   1.923   6.899   0.114
10107TIP3    H130266   1.924   6.976   0.058
10107TIP3    H230267   1.909   6.933   0.202
10108TIP3   OH230268   3.982   5.596   4.183
10108TIP3    H130269   3.968   5.625   4.093
10108TIP3    H230270   4.061   5.642   4.212
10109TIP3   OH230271   1.329   4.739   4.996
10109TIP3    H130272   1.375   4.819   4.970
10109TIP3    H230273   1.251   4.771   5.041
10110TIP3   OH230274   2.546   6.537   0.572
10110TIP3    H130275   2.463   6.572   0.604
10110TIP3    H230276   2.603   6.536   0.649
10111TIP3   OH230277   5.531   7.216   1.636
10111TIP3    H130278   5.500   7.127   1.652
10111TIP3    H230279   5.583   7.238   1.713
10112TIP3   OH230280   7.610   4.442   5.389
10112TIP3    H130281   7.640   4.527   5.422
10112TIP3    H230282   7.515   4.444   5.401
10113TIP3   OH230283   1.003   0.798   6.024
10113TIP3    H130284   1.025   0.799   5.931
10113TIP3    H230285   0.925   0.743   6.029
10114TIP3   OH230286   8.128   5.591   5.191
10114TIP3    H130287   8.210   5.631   5.161
10114TIP3    H230288   8.061   5.657   5.175
10115TIP3   OH230289   6.089   4.120   4.918
10115TIP3    H130290   6.118   4.211   4.912
10115TIP3    H230291   6.003   4.120   4.876
10116TIP3   OH230292   4.203   5.599   3.237
10116TIP3    H130293   4.279   5.546   3.216
10116TIP3    H230294   4.162   5.554   3.311
10117TIP3   OH230295   0.435   0.532   3.232
10117TIP3    H130296   0.501   0.465   3.213
10117TIP3    H230297   0.463   0.607   3.180
10118TIP3   OH230298   1.910   5.663   4.235
10118TIP3    H130299   1.951   5.620   4.310
10118TIP3    H230300   1.839   5.604   4.209
10119TIP3   OH230301   4.934   3.785   0.759
10119TIP3    H130302   4.922   3.878   0.744
10119TIP3    H230303   4.987   3.780   0.839
10120TIP3   OH230304   5.199   2.603   0.932
10120TIP3    H130305   5.201   2.567   0.844
10120TIP3    H230306   5.117   2.570   0.969
10121TIP3   OH230307   5.730   5.707   3.080
10121TIP3    H130308   5.676   5.646   3.130
10121TIP3    H230309   5.718   5.791   3.124
10122TIP3   OH230310   0.559   0.605   0.212
10122TIP3    H130311   0.638   0.576   0.256
10122TIP3    H230312   0.495   0.616   0.283
10123TIP3   OH230313   0.824   1.268   5.650
10123TIP3    H130314   0.776   1.226   5.579
10123TIP3    H230315   0.833   1.199   5.717
10124TIP3   OH230316   4.576   0.537   1.720
10124TIP3    H130317   4.617   0.452   1.734
10124TIP3    H230318   4.595   0.586   1.799
10125TIP3   OH230319   1.524   3.248   2.438
10125TIP3    H130320   1.525   3.327   2.492
10125TIP3    H230321   1.484   3.275   2.356
10126TIP3   OH230322   2.668   7.693   1.179
10126TIP3    H130323   2.739   7.752   1.156
10126TIP3    H230324   2.664   7.630   1.106
10127TIP3   OH230325   2.623   7.589   3.787
10127TIP3    H130326   2.633   7.549   3.873
10127TIP3    H230327   2.706   7.573   3.742
10128TIP3   OH230328   5.461   0.982   3.387
10128TIP3    H130329   5.528   1.046   3.408
10128TIP3    H230330   5.454   0.985   3.291
10129TIP3   OH230331   6.382   6.255   2.909
10129TIP3    H130332   6.418   6.175   2.946
10129TIP3    H230333   6.307   6.227   2.857
10130TIP3   OH230334   4.650   5.247   5.700
10130TIP3    H130335   4.721   5.309   5.682
10130TIP3    H230336   4.690   5.161   5.690
10131TIP3   OH230337   7.344   7.191   4.160
10131TIP3    H130338   7.408   7.168   4.092
10131TIP3    H230339   7.395   7.189   4.241
10132TIP3   OH230340   6.752   6.348   6.695
10132TIP3    H130341   6.700   6.361   6.774
10132TIP3    H230342   6.767   6.437   6.662
10133TIP3   OH230343   1.236   4.512   5.299
10133TIP3    H130344   1.168   4.546   5.241
10133TIP3    H230345   1.210   4.421   5.314
10134TIP3   OH230346   3.011   1.476   1.669
10134TIP3    H130347   3.003   1.406   1.605
10134TIP3    H230348   3.102   1.471   1.699
10135TIP3   OH230349   3.307   2.994   0.882
10135TIP3    H130350   3.267   2.908   0.891
10135TIP3    H230351   3.285   3.039   0.964
10136TIP3   OH230352   2.130   3.329   6.461
10136TIP3    H130353   2.137   3.242   6.500
10136TIP3    H230354   2.067   3.375   6.516
10137TIP3   OH230355   8.309   1.272   1.738
10137TIP3    H130356   8.317   1.311   1.651
10137TIP3    H230357   8.281   1.182   1.721
10138TIP3   OH230358   3.875   1.107   3.206
10138TIP3    H130359   3.901   1.025   3.248
10138TIP3    H230360   3.871   1.170   3.278
10139TIP3   OH230361   0.622   7.362   6.540
10139TIP3    H130362   0.647   7.435   6.484
10139TIP3    H230363   0.685   7.293   6.518
10140TIP3   OH230364   6.049   6.172   5.810
10140TIP3    H130365   6.073   6.138   5.723
10140TIP3    H230366   5.973   6.228   5.793
10141TIP3   OH230367   2.150   7.463   1.357
10141TIP3    H130368   2.221   7.522   1.329
10141TIP3    H230369   2.116   7.504   1.437
10142TIP3   OH230370   6.824   0.167   0.360
10142TIP3    H130371   6.832   0.192   0.268
10142TIP3    H230372   6.828   0.249   0.408
10143TIP3   OH230373   2.593   6.361   6.219
10143TIP3    H130374   2.535   6.284   6.220
10143TIP3    H230375   2.567   6.411   6.296
10144TIP3   OH230376   3.180   4.922   0.807
10144TIP3    H130377   3.242   4.850   0.816
10144TIP3    H230378   3.193   4.955   0.719
10145TIP3   OH230379   3.811   0.715   5.475
10145TIP3    H130380   3.716   0.723   5.472
10145TIP3    H230381   3.833   0.662   5.399
10146TIP3   OH230382   5.894   6.177   5.174
10146TIP3    H130383   5.969   6.117   5.170
10146TIP3    H230384   5.886   6.211   5.085
10147TIP3   OH230385   1.581   3.020   6.684
10147TIP3    H130386   1.669   3.023   6.646
10147TIP3    H230387   1.524   2.996   6.612
10148TIP3   OH230388   1.779   5.529   0.248
10148TIP3    H130389   1.758   5.510   0.157
10148TIP3    H230390   1.864   5.487   0.263
10149TIP3   OH230391   1.542   5.114   2.382
10149TIP3    H130392   1.457   5.153   2.361
10149TIP3    H230393   1.566   5.150   2.467
10150TIP3   OH230394   0.847   3.867   2.788
10150TIP3    H130395   0.938   3.858   2.815
10150TIP3    H230396   0.840   3.816   2.708
10151TIP3   OH230397   1.022   3.602   5.272
10151TIP3    H130398   1.103   3.583   5.320
10151TIP3    H230399   0.990   3.684   5.311
10152TIP3   OH230400   5.878   3.898   3.951
10152TIP3    H130401   5.869   3.986   3.916
10152TIP3    H230402   5.871   3.841   3.875
10153TIP3   OH230403   1.579   5.179   5.792
10153TIP3    H130404   1.657   5.227   5.766
10153TIP3    H230405   1.511   5.207   5.731
10154TIP3   OH230406   5.588   5.408   0.253
10154TIP3    H130407   5.548   5.322   0.258
10154TIP3    H230408   5.575   5.446   0.340
10155TIP3   OH230409   4.760   3.189   6.317
10155TIP3    H130410   4.710   3.243   6.377
10155TIP3    H230411   4.834   3.244   6.290
10156TIP3   OH230412   3.904   4.323   2.592
10156TIP3    H130413   3.920   4.325   2.498
10156TIP3    H230414   3.831   4.383   2.606
10157TIP3   OH230415   2.904   7.495   2.603
10157TIP3    H130416   2.894   7.584   2.635
10157TIP3    H230417   2.865   7.495   2.516
10158TIP3   OH230418   5.762   0.323   0.121
10158TIP3    H130419   5.717   0.340   0.203
10158TIP3    H230420   5.775   0.228   0.118
10159TIP3   OH230421   0.644   2.290   0.859
10159TIP3    H130422   0.714   2.322   0.802
10159TIP3    H230423   0.577   2.358   0.854
10160TIP3   OH230424   5.053   0.825   6.228
10160TIP3    H130425   4.984   0.786   6.282
10160TIP3    H230426   5.096   0.751   6.187
10161TIP3   OH230427   3.602   6.911   0.678
10161TIP3    H130428   3.552   6.990   0.698
10161TIP3    H230429   3.623   6.918   0.585
10162TIP3   OH230430   4.032   5.887   1.079
10162TIP3    H130431   4.056   5.868   1.169
10162TIP3    H230432   3.945   5.848   1.068
10163TIP3   OH230433   4.397   7.311   3.206
10163TIP3    H130434   4.470   7.365   3.177
10163TIP3    H230435   4.429   7.221   3.197
10164TIP3   OH230436   7.315   3.935   2.058
10164TIP3    H130437   7.295   3.843   2.036
10164TIP3    H230438   7.295   3.983   1.977
10165TIP3   OH230439   7.301   5.511   4.099
10165TIP3    H130440   7.389   5.521   4.135
10165TIP3    H230441   7.306   5.554   4.014
10166TIP3   OH230442   7.879   6.192   4.333
10166TIP3    H130443   7.856   6.269   4.385
10166TIP3    H230444   7.858   6.117   4.388
10167TIP3   OH230445   3.104   3.228   1.990
10167TIP3    H130446   3.086   3.146   2.037
10167TIP3    H230447   3.087   3.207   1.898
10168TIP3   OH230448   1.876   0.955   1.177
10168TIP3    H130449   1.940   1.016   1.140
10168TIP3    H230450   1.902   0.870   1.143
10169TIP3   OH230451   1.957   0.842   6.309
10169TIP3    H130452   1.916   0.825   6.394
10169TIP3    H230453   1.885   0.874   6.254
10170TIP3   OH230454   5.895   4.051   0.122
10170TIP3    H130455   5.990   4.060   0.117
10170TIP3    H230456   5.880   3.960   0.146
10171TIP3   OH230457   4.303   6.599   6.386
10171TIP3    H130458   4.333   6.606   6.477
10171TIP3    H230459   4.379   6.567   6.338
10172TIP3   OH230460   4.362   7.087   2.720
10172TIP3    H130461   4.274   7.080   2.757
10172TIP3    H230462   4.376   7.004   2.675
10173TIP3   OH230463   6.816   3.621   0.998
10173TIP3    H130464   6.758   3.545   1.002
10173TIP3    H230465   6.764   3.693   1.034
10174TIP3   OH230466   0.888   4.912   5.408
10174TIP3    H130467   0.967   4.899   5.355
10174TIP3    H230468   0.873   4.827   5.449
10175TIP3   OH230469   5.952   7.175   1.390
10175TIP3    H130470   5.982   7.173   1.300
10175TIP3    H230471   5.868   7.221   1.387
10176TIP3   OH230472   0.117   2.945   1.854
10176TIP3    H130473   0.063   2.866   1.850
10176TIP3    H230474   0.158   2.941   1.940
10177TIP3   OH230475   0.663   1.398   3.271
10177TIP3    H130476   0.590   1.397   3.333
10177TIP3    H230477   0.626   1.435   3.191
10178TIP3   OH230478   6.294   3.108   6.638
10178TIP3    H130479   6.385   3.096   6.613
10178TIP3    H230480   6.297   3.133   6.730
10179TIP3   OH230481   4.808   3.729   6.247
10179TIP3    H130482   4.812   3.818   6.213
10179TIP3    H230483   4.788   3.675   6.171
10180TIP3   OH230484   2.181   6.603   3.295
10180TIP3    H130485   2.092   6.575   3.272
10180TIP3    H230486   2.230   6.522   3.307
10181TIP3   OH230487   4.331   0.592   3.222
10181TIP3    H130488   4.367   0.676   3.252
10181TIP3    H230489   4.279   0.561   3.296
10182TIP3   OH230490   0.324   0.279   1.245
10182TIP3    H130491   0.343   0.365   1.283
10182TIP3    H230492   0.387   0.272   1.172
10183TIP3   OH230493   2.563   3.942   0.470
10183TIP3    H130494   2.637   3.975   0.419
10183TIP3    H230495   2.491   3.937   0.406
10184TIP3   OH230496   5.059   0.881   1.604
10184TIP3    H130497   5.152   0.899   1.589
10184TIP3    H230498   5.046   0.900   1.697
10185TIP3   OH230499   7.175   1.470   1.709
10185TIP3    H130500   7.221   1.403   1.659
10185TIP3    H230501   7.168   1.544   1.649
10186TIP3   OH230502   5.750   3.783   1.349
10186TIP3    H130503   5.719   3.750   1.265
10186TIP3    H230504   5.809   3.855   1.327
10187TIP3   OH230505   7.986   0.607   3.204
10187TIP3    H130506   7.916   0.541   3.207
10187TIP3    H230507   7.947   0.681   3.156
10188TIP3   OH230508   6.093   4.960   1.860
10188TIP3    H130509   6.032   4.966   1.933
10188TIP3    H230510   6.104   4.866   1.846
10189TIP3   OH230511   3.364   0.143   1.675
10189TIP3    H130512   3.460   0.148   1.678
10189TIP3    H230513   3.337   0.216   1.619
10190TIP3   OH230514   5.233   6.286   0.022
10190TIP3    H130515   5.200   6.262  -0.064
10190TIP3    H230516   5.304   6.347   0.005
10191TIP3   OH230517   2.957   3.859   4.932
10191TIP3    H130518   2.915   3.777   4.956
10191TIP3    H230519   3.040   3.833   4.891
10192TIP3   OH230520   3.467   0.095   5.426
10192TIP3    H130521   3.542   0.155   5.422
10192TIP3    H230522   3.391   0.153   5.434
10193TIP3   OH230523   5.010   4.507   6.697
10193TIP3    H130524   4.991   4.555   6.616
10193TIP3    H230525   5.040   4.421   6.666
10194TIP3   OH230526   5.119   5.639   2.214
10194TIP3    H130527   5.095   5.665   2.303
10194TIP3    H230528   5.149   5.720   2.172
10195TIP3   OH230529   5.803   0.689   2.749
10195TIP3    H130530   5.851   0.645   2.679
10195TIP3    H230531   5.801   0.625   2.821
10196TIP3   OH230532   1.073   6.635   2.767
10196TIP3    H130533   1.101   6.708   2.822
10196TIP3    H230534   1.112   6.653   2.682
10197TIP3   OH230535   0.700   6.773   0.815
10197TIP3    H130536   0.738   6.852   0.853
10197TIP3    H230537   0.607   6.792   0.806
10198TIP3   OH230538   2.061   5.794   5.775
10198TIP3    H130539   2.080   5.703   5.798
10198TIP3    H230540   2.147   5.834   5.767
10199TIP3   OH230541   7.399   3.794   0.946
10199TIP3    H130542   7.425   3.875   0.902
10199TIP3    H230543   7.329   3.821   1.006
10200TIP3   OH230544   1.384   1.760   6.298
10200TIP3    H130545   1.344   1.783   6.382
10200TIP3    H230546   1.432   1.838   6.272
10201TIP3   OH230547   7.699   1.193   5.480
10201TIP3    H130548   7.663   1.250   5.548
10201TIP3    H230549   7.768   1.143   5.524
10202TIP3   OH230550   3.724   5.925   1.103
10202TIP3    H130551   3.691   5.999   1.154
10202TIP3    H230552   3.645   5.878   1.076
10203TIP3   OH230553   5.442   1.365   6.198
10203TIP3    H130554   5.358   1.323   6.176
10203TIP3    H230555   5.472   1.403   6.116
10204TIP3   OH230556   3.489   0.110   5.844
10204TIP3    H130557   3.435   0.164   5.786
10204TIP3    H230558   3.524   0.041   5.788
10205TIP3   OH230559   2.061   6.826   0.765
10205TIP3    H130560   2.146   6.868   0.777
10205TIP3    H230561   2.065   6.748   0.821
10206TIP3   OH230562   5.690   4.496   4.302
10206TIP3    H130563   5.760   4.534   4.249
10206TIP3    H230564   5.712   4.403   4.307
10207TIP3   OH230565   2.026   2.161   4.754
10207TIP3    H130566   2.036   2.073   4.719
10207TIP3    H230567   2.098   2.171   4.816
10208TIP3   OH230568   2.618   6.810   1.322
10208TIP3    H130569   2.697   6.810   1.268
10208TIP3    H230570   2.650   6.827   1.411
10209TIP3   OH230571   0.756   4.865   6.103
10209TIP3    H130572   0.711   4.812   6.169
10209TIP3    H230573   0.765   4.806   6.027
10210TIP3   OH230574   5.722   2.197   0.463
10210TIP3    H130575   5.807   2.233   0.490
10210TIP3    H230576   5.743   2.144   0.386
10211TIP3   OH230577   4.812   1.180   2.713
10211TIP3    H130578   4.856   1.097   2.699
10211TIP3    H230579   4.883   1.244   2.720
10212TIP3   OH230580   2.162   6.043   5.221
10212TIP3    H130581   2.177   5.958   5.179
10212TIP3    H230582   2.249   6.082   5.229
10213TIP3   OH230583   3.317   2.316   6.481
10213TIP3    H130584   3.329   2.335   6.388
10213TIP3    H230585   3.230   2.350   6.502
10214TIP3   OH230586   7.834   6.847   3.849
10214TIP3    H130587   7.768   6.829   3.782
10214TIP3    H230588   7.829   6.941   3.863
10215TIP3   OH230589   3.151   7.311   5.277
10215TIP3    H130590   3.059   7.326   5.255
10215TIP3    H230591   3.198   7.379   5.229
10216TIP3   OH230592   0.989   1.902   5.460
10216TIP3    H130593   1.022   1.987   5.489
10216TIP3    H230594   0.944   1.866   5.536
10217TIP3   OH230595   1.070   6.009   1.159
10217TIP3    H130596   1.084   5.927   1.207
10217TIP3    H230597   1.105   6.076   1.217
10218TIP3   OH230598   8.308   3.337   1.105
10218TIP3    H130599   8.241   3.384   1.154
10218TIP3    H230600   8.282   3.245   1.109
10219TIP3   OH230601   0.614   3.332   4.362
10219TIP3    H130602   0.580   3.244   4.378
10219TIP3    H230603   0.645   3.330   4.272
10220TIP3   OH230604   5.010   6.110   3.386
10220TIP3    H130605   5.002   6.044   3.455
10220TIP3    H230606   5.000   6.194   3.432
10221TIP3   OH230607   7.999   3.858   6.736
10221TIP3    H130608   7.962   3.770   6.734
10221TIP3    H230609   7.936   3.910   6.786
10222TIP3   OH230610   7.925   1.228   0.067
10222TIP3    H130611   7.890   1.153   0.116
10222TIP3    H230612   8.020   1.220   0.077
10223TIP3   OH230613   3.383   3.659   2.669
10223TIP3    H130614   3.440   3.602   2.617
10223TIP3    H230615   3.439   3.734   2.692
10224TIP3   OH230616   8.243   5.036   6.199
10224TIP3    H130617   8.228   5.053   6.292
10224TIP3    H230618   8.227   4.942   6.189
10225TIP3   OH230619   8.180   6.484   3.345
10225TIP3    H130620   8.126   6.508   3.420
10225TIP3    H230621   8.135   6.408   3.307
10226TIP3   OH230622   3.307   1.181   0.289
10226TIP3    H130623   3.253   1.254   0.258
10226TIP3    H230624   3.274   1.163   0.377
10227TIP3   OH230625   0.289   1.436   0.523
10227TIP3    H130626   0.214   1.490   0.547
10227TIP3    H230627   0.359   1.498   0.504
10228TIP3   OH230628   7.615   2.496   4.346
10228TIP3    H130629   7.702   2.529   4.322
10228TIP3    H230630   7.616   2.494   4.442
10229TIP3   OH230631   5.227   1.192   3.113
10229TIP3    H130632   5.313   1.201   3.072
10229TIP3    H230633   5.235   1.116   3.170
10230TIP3   OH230634   2.521   1.681   4.423
10230TIP3    H130635   2.588   1.746   4.404
10230TIP3    H230636   2.467   1.678   4.344
10231TIP3   OH230637   3.117   4.349   5.973
10231TIP3    H130638   3.100   4.438   5.941
10231TIP3    H230639   3.062   4.293   5.918
10232TIP3   OH230640   6.871   4.067   5.685
10232TIP3    H130641   6.958   4.027   5.679
10232TIP3    H230642   6.870   4.131   5.614
10233TIP3   OH230643   2.552   7.410   0.578
10233TIP3    H130644   2.501   7.469   0.632
10233TIP3    H230645   2.636   7.454   0.566
10234TIP3   OH230646   5.779   6.291   6.133
10234TIP3    H130647   5.861   6.244   6.115
10234TIP3    H230648   5.747   6.253   6.215
10235TIP3   OH230649   7.436   2.842   0.375
10235TIP3    H130650   7.431   2.920   0.430
10235TIP3    H230651   7.471   2.774   0.433
10236TIP3   OH230652   5.649   6.338   2.542
10236TIP3    H130653   5.678   6.310   2.628
10236TIP3    H230654   5.689   6.275   2.481
10237TIP3   OH230655   4.830   2.084   2.958
10237TIP3    H130656   4.749   2.111   2.915
10237TIP3    H230657   4.813   2.095   3.051
10238TIP3   OH230658   6.017   4.871   3.976
10238TIP3    H130659   6.061   4.827   4.048
10238TIP3    H230660   5.971   4.945   4.017
10239TIP3   OH230661   5.794   2.457   6.575
10239TIP3    H130662   5.789   2.543   6.535
10239TIP3    H230663   5.848   2.405   6.515
10240TIP3   OH230664   4.722   6.111   4.108
10240TIP3    H130665   4.726   6.200   4.074
10240TIP3    H230666   4.742   6.055   4.033
10241TIP3   OH230667   1.077   3.344   3.562
10241TIP3    H130668   1.141   3.291   3.611
10241TIP3    H230669   1.000   3.288   3.556
10242TIP3   OH230670   3.183   7.601   2.894
10242TIP3    H130671   3.105   7.624   2.843
10242TIP3    H230672   3.175   7.506   2.908
10243TIP3   OH230673   0.284   1.161   6.339
10243TIP3    H130674   0.351   1.144   6.405
10243TIP3    H230675   0.220   1.091   6.352
10244TIP3   OH230676   6.680   6.713   0.427
10244TIP3    H130677   6.608   6.674   0.476
10244TIP3    H230678   6.638   6.770   0.363
10245TIP3   OH230679   7.488   0.446   5.646
10245TIP3    H130680   7.563   0.504   5.633
10245TIP3    H230681   7.505   0.371   5.589
10246TIP3   OH230682   1.337   1.415   1.574
10246TIP3    H130683   1.416   1.376   1.534
10246TIP3    H230684   1.366   1.442   1.661
10247TIP3   OH230685   3.386   1.883   3.385
10247TIP3    H130686   3.395   1.976   3.365
10247TIP3    H230687   3.335   1.881   3.466
10248TIP3   OH230688   0.052   5.796   2.103
10248TIP3    H130689   0.094   5.869   2.148
10248TIP3    H230690  -0.034   5.829   2.077
10249TIP3   OH230691   3.716   1.282   4.124
10249TIP3    H130692   3.653   1.346   4.091
10249TIP3    H230693   3.725   1.304   4.217
10250TIP3   OH230694   1.763   0.322   4.840
10250TIP3    H130695   1.730   0.232   4.833
10250TIP3    H230696   1.690   0.377   4.812
10251TIP3   OH230697   2.597   3.472   1.962
10251TIP3    H130698   2.616   3.430   2.047
10251TIP3    H230699   2.660   3.433   1.902
10252TIP3   OH230700   3.922   2.400   3.976
10252TIP3    H130701   3.911   2.386   3.882
10252TIP3    H230702   3.880   2.485   3.993
10253TIP3   OH230703   4.204   5.134   3.636
10253TIP3    H130704   4.204   5.177   3.550
10253TIP3    H230705   4.290   5.091   3.640
10254TIP3   OH230706   0.739   0.031   2.071
10254TIP3    H130707   0.700  -0.053   2.096
10254TIP3    H230708   0.669   0.095   2.083
10255TIP3   OH230709   3.607   2.419   3.976
10255TIP3    H130710   3.541   2.464   4.029
10255TIP3    H230711   3.648   2.489   3.925
10256TIP3   OH230712   0.191   3.836   5.578
10256TIP3    H130713   0.096   3.844   5.565
10256TIP3    H230714   0.202   3.758   5.631
10257TIP3   OH230715   1.222   0.875   0.039
10257TIP3    H130716   1.265   0.878   0.124
10257TIP3    H230717   1.135   0.839   0.057
10258TIP3   OH230718   7.957   5.031   4.434
10258TIP3    H130719   8.044   5.028   4.395
10258TIP3    H230720   7.934   5.124   4.432
10259TIP3   OH230721   0.505   7.074   1.181
10259TIP3    H130722   0.576   7.051   1.241
10259TIP3    H230723   0.539   7.147   1.129
10260TIP3   OH230724   7.244   6.900   2.488
10260TIP3    H130725   7.158   6.867   2.513
10260TIP3    H230726   7.274   6.948   2.565
10261TIP3   OH230727   1.975   6.082   5.731
10261TIP3    H130728   1.992   5.991   5.756
10261TIP3    H230729   2.037   6.100   5.661
10262TIP3   OH230730   5.048   5.119   2.890
10262TIP3    H130731   5.133   5.080   2.872
10262TIP3    H230732   4.990   5.081   2.825
10263TIP3   OH230733   7.308   4.233   4.501
10263TIP3    H130734   7.311   4.176   4.578
10263TIP3    H230735   7.334   4.319   4.533
10264TIP3   OH230736   1.477   2.470   5.630
10264TIP3    H130737   1.518   2.553   5.652
10264TIP3    H230738   1.503   2.453   5.539
10265TIP3   OH230739   1.203   5.686   6.259
10265TIP3    H130740   1.186   5.676   6.352
10265TIP3    H230741   1.118   5.712   6.222
10266TIP3   OH230742   5.307   5.296   3.611
10266TIP3    H130743   5.370   5.276   3.542
10266TIP3    H230744   5.227   5.250   3.585
10267TIP3   OH230745   4.984   3.860   6.715
10267TIP3    H130746   4.909   3.873   6.657
10267TIP3    H230747   4.982   3.766   6.736
10268TIP3   OH230748   0.243   2.849   5.527
10268TIP3    H130749   0.164   2.885   5.486
10268TIP3    H230750   0.221   2.757   5.544
10269TIP3   OH230751   5.748   3.961   3.243
10269TIP3    H130752   5.839   3.957   3.273
10269TIP3    H230753   5.736   4.050   3.210
10270TIP3   OH230754   8.251   4.980   0.186
10270TIP3    H130755   8.305   5.029   0.124
10270TIP3    H230756   8.231   5.042   0.255
10271TIP3   OH230757   7.716   5.645   0.972
10271TIP3    H130758   7.683   5.651   0.882
10271TIP3    H230759   7.761   5.560   0.975
10272TIP3   OH230760   1.537   3.018   5.010
10272TIP3    H130761   1.537   3.067   5.092
10272TIP3    H230762   1.629   2.993   4.998
10273TIP3   OH230763   7.728   2.034   3.677
10273TIP3    H130764   7.663   1.967   3.698
10273TIP3    H230765   7.794   2.027   3.746
10274TIP3   OH230766   4.536   0.329   6.238
10274TIP3    H130767   4.613   0.344   6.183
10274TIP3    H230768   4.510   0.239   6.219
10275TIP3   OH230769   2.009   7.233   1.319
10275TIP3    H130770   1.955   7.236   1.240
10275TIP3    H230771   2.056   7.316   1.319
10276TIP3   OH230772   4.180   7.138   3.477
10276TIP3    H130773   4.200   7.231   3.467
10276TIP3    H230774   4.186   7.102   3.388
10277TIP3   OH230775   5.350   6.223   2.709
10277TIP3    H130776   5.383   6.133   2.711
10277TIP3    H230777   5.367   6.252   2.619
10278TIP3   OH230778   5.532   1.260   4.746
10278TIP3    H130779   5.515   1.339   4.798
10278TIP3    H230780   5.499   1.282   4.658
10279TIP3   OH230781   8.300   7.611   5.624
10279TIP3    H130782   8.364   7.619   5.553
10279TIP3    H230783   8.351   7.584   5.700
10280TIP3   OH230784   3.598   3.234   1.945
10280TIP3    H130785   3.650   3.311   1.922
10280TIP3    H230786   3.558   3.257   2.028
10281TIP3   OH230787   0.648   3.784   2.959
10281TIP3    H130788   0.707   3.824   2.895
10281TIP3    H230789   0.671   3.827   3.042
10282TIP3   OH230790   0.884   0.806   1.190
10282TIP3    H130791   0.823   0.766   1.251
10282TIP3    H230792   0.871   0.758   1.108
10283TIP3   OH230793   5.717   5.450   3.234
10283TIP3    H130794   5.793   5.395   3.215
10283TIP3    H230795   5.728   5.474   3.327
10284TIP3   OH230796   4.439   2.677   2.553
10284TIP3    H130797   4.488   2.614   2.501
10284TIP3    H230798   4.389   2.623   2.614
10285TIP3   OH230799   7.975   1.119   3.587
10285TIP3    H130800   8.007   1.123   3.677
10285TIP3    H230801   7.976   1.210   3.557
10286TIP3   OH230802   0.637   1.886   1.804
10286TIP3    H130803   0.717   1.859   1.849
10286TIP3    H230804   0.575   1.905   1.874
10287TIP3   OH230805   6.302   6.241   1.800
10287TIP3    H130806   6.248   6.199   1.867
10287TIP3    H230807   6.291   6.186   1.723
10288TIP3   OH230808   0.148   5.170   3.156
10288TIP3    H130809   0.165   5.129   3.241
10288TIP3    H230810   0.235   5.190   3.121
10289TIP3   OH230811   1.419   1.494   5.311
10289TIP3    H130812   1.480   1.462   5.244
10289TIP3    H230813   1.373   1.566   5.268
10290TIP3   OH230814   7.545   4.551   0.576
10290TIP3    H130815   7.626   4.499   0.578
10290TIP3    H230816   7.542   4.586   0.487
10291TIP3   OH230817   1.852   0.108   4.371
10291TIP3    H130818   1.807   0.193   4.374
10291TIP3    H230819   1.882   0.094   4.460
10292TIP3   OH230820   4.495   4.190   4.339
10292TIP3    H130821   4.413   4.155   4.373
10292TIP3    H230822   4.558   4.175   4.409
10293TIP3   OH230823   2.296   5.680   4.046
10293TIP3    H130824   2.351   5.608   4.077
10293TIP3    H230825   2.287   5.737   4.122
10294TIP3   OH230826   1.867   7.281   6.164
10294TIP3    H130827   1.820   7.213   6.213
10294TIP3    H230828   1.959   7.266   6.184
10295TIP3   OH230829   4.151   1.952   6.052
10295TIP3    H130830   4.244   1.967   6.072
10295TIP3    H230831   4.118   2.039   6.030
10296TIP3   OH230832   3.018   5.506   1.130
10296TIP3    H130833   3.046   5.597   1.118
10296TIP3    H230834   2.957   5.490   1.059
10297TIP3   OH230835   6.462   2.465   5.409
10297TIP3    H130836   6.496   2.377   5.425
10297TIP3    H230837   6.436   2.464   5.316
10298TIP3   OH230838   0.141   1.678   1.698
10298TIP3    H130839   0.173   1.747   1.756
10298TIP3    H230840   0.071   1.636   1.746
10299TIP3   OH230841   5.961   1.736   1.450
10299TIP3    H130842   6.049   1.722   1.417
10299TIP3    H230843   5.965   1.821   1.494
10300TIP3   OH230844   7.347   0.388   1.000
10300TIP3    H130845   7.305   0.474   0.999
10300TIP3    H230846   7.368   0.373   1.093
10301TIP3   OH230847   4.435   4.436   4.712
10301TIP3    H130848   4.495   4.443   4.639
10301TIP3    H230849   4.349   4.421   4.672
10302TIP3   OH230850   3.240   4.812   4.490
10302TIP3    H130851   3.202   4.868   4.422
10302TIP3    H230852   3.297   4.871   4.540
10303TIP3   OH230853   7.462   2.935   3.651
10303TIP3    H130854   7.441   2.843   3.663
10303TIP3    H230855   7.553   2.943   3.679
10304TIP3   OH230856   3.257   4.276   2.819
10304TIP3    H130857   3.168   4.310   2.810
10304TIP3    H230858   3.247   4.194   2.866
10305TIP3   OH230859   5.617   7.640   4.897
10305TIP3    H130860   5.701   7.675   4.868
10305TIP3    H230861   5.605   7.559   4.847
10306TIP3   OH230862   8.173   2.653   0.367
10306TIP3    H130863   8.094   2.669   0.316
10306TIP3    H230864   8.244   2.688   0.314
10307TIP3   OH230865   7.356   1.828   3.155
10307TIP3    H130866   7.371   1.836   3.249
10307TIP3    H230867   7.409   1.897   3.116
10308TIP3   OH230868   7.456   4.256   3.956
10308TIP3    H130869   7.418   4.320   4.016
10308TIP3    H230870   7.383   4.227   3.901
10309TIP3   OH230871   6.519   2.366   0.773
10309TIP3    H130872   6.551   2.449   0.809
10309TIP3    H230873   6.461   2.391   0.701
10310TIP3   OH230874   5.589   4.208   0.707
10310TIP3    H130875   5.521   4.269   0.735
10310TIP3    H230876   5.543   4.145   0.651
10311TIP3   OH230877   7.353   7.795   3.074
10311TIP3    H130878   7.381   7.708   3.105
10311TIP3    H230879   7.334   7.782   2.981
10312TIP3   OH230880   4.046   1.742   3.732
10312TIP3    H130881   4.068   1.834   3.714
10312TIP3    H230882   3.955   1.744   3.761
10313TIP3   OH230883   0.357   2.706   3.762
10313TIP3    H130884   0.329   2.675   3.848
10313TIP3    H230885   0.318   2.793   3.755
10314TIP3   OH230886   0.905   2.820   2.814
10314TIP3    H130887   0.840   2.761   2.852
10314TIP3    H230888   0.863   2.856   2.736
10315TIP3   OH230889   2.795   2.913   5.968
10315TIP3    H130890   2.806   2.953   5.882
10315TIP3    H230891   2.757   2.983   6.022
10316TIP3   OH230892   7.404   7.369   2.458
10316TIP3    H130893   7.462   7.322   2.519
10316TIP3    H230894   7.461   7.434   2.417
10317TIP3   OH230895   2.733   5.613   1.249
10317TIP3    H130896   2.724   5.667   1.327
10317TIP3    H230897   2.822   5.631   1.218
10318TIP3   OH230898   2.741   4.589   0.562
10318TIP3    H130899   2.801   4.520   0.533
10318TIP3    H230900   2.691   4.611   0.483
10319TIP3   OH230901   4.825   1.368   1.562
10319TIP3    H130902   4.793   1.299   1.504
10319TIP3    H230903   4.853   1.438   1.502
10320TIP3   OH230904   3.367   0.847   5.994
10320TIP3    H130905   3.443   0.817   6.044
10320TIP3    H230906   3.393   0.836   5.903
10321TIP3   OH230907   6.547   1.753   1.715
10321TIP3    H130908   6.530   1.691   1.644
10321TIP3    H230909   6.462   1.766   1.757
10322TIP3   OH230910   6.928   4.828   2.737
10322TIP3    H130911   6.947   4.918   2.765
10322TIP3    H230912   6.867   4.794   2.802
10323TIP3   OH230913   1.419   5.855   4.880
10323TIP3    H130914   1.338   5.870   4.832
10323TIP3    H230915   1.440   5.763   4.865
10324TIP3   OH230916   2.558   0.545   6.011
10324TIP3    H130917   2.624   0.600   5.968
10324TIP3    H230918   2.606   0.466   6.036
10325TIP3   OH230919   4.334   6.054   2.983
10325TIP3    H130920   4.410   6.062   2.925
10325TIP3    H230921   4.325   5.959   2.997
10326TIP3   OH230922   2.510   3.098   2.111
10326TIP3    H130923   2.417   3.076   2.103
10326TIP3    H230924   2.529   3.085   2.204
10327TIP3   OH230925   0.560   2.855   1.567
10327TIP3    H130926   0.518   2.872   1.483
10327TIP3    H230927   0.546   2.935   1.618
10328TIP3   OH230928   7.065   1.244   4.532
10328TIP3    H130929   7.109   1.260   4.448
10328TIP3    H230930   7.027   1.157   4.523
10329TIP3   OH230931   0.981   0.948   3.899
10329TIP3    H130932   0.927   1.023   3.872
10329TIP3    H230933   1.003   0.965   3.990
10330TIP3   OH230934   5.260   6.718   0.552
10330TIP3    H130935   5.218   6.649   0.605
10330TIP3    H230936   5.191   6.784   0.541
10331TIP3   OH230937   4.346   7.397   5.767
10331TIP3    H130938   4.414   7.346   5.723
10331TIP3    H230939   4.268   7.342   5.764
10332TIP3   OH230940   6.954   3.097   4.098
10332TIP3    H130941   6.868   3.128   4.069
10332TIP3    H230942   6.990   3.170   4.149
10333TIP3   OH230943   3.399   6.697   3.585
10333TIP3    H130944   3.305   6.710   3.598
10333TIP3    H230945   3.426   6.641   3.658
10334TIP3   OH230946   0.874   5.766   5.101
10334TIP3    H130947   0.817   5.732   5.032
10334TIP3    H230948   0.874   5.860   5.088
10335TIP3   OH230949   1.120   3.827   3.070
10335TIP3    H130950   1.048   3.888   3.088
10335TIP3    H230951   1.178   3.876   3.012
10336TIP3   OH230952   7.550   6.205   4.662
10336TIP3    H130953   7.523   6.115   4.646
10336TIP3    H230954   7.531   6.220   4.754
10337TIP3   OH230955   0.950   4.050   5.588
10337TIP3    H130956   0.940   4.107   5.511
10337TIP3    H230957   1.043   4.058   5.611
10338TIP3   OH230958   2.876   3.207   0.702
10338TIP3    H130959   2.928   3.262   0.761
10338TIP3    H230960   2.837   3.268   0.640
10339TIP3   OH230961   7.519   1.846   3.704
10339TIP3    H130962   7.424   1.831   3.696
10339TIP3    H230963   7.559   1.765   3.673
10340TIP3   OH230964   0.815   3.352   4.673
10340TIP3    H130965   0.839   3.298   4.598
10340TIP3    H230966   0.828   3.295   4.749
10341TIP3   OH230967   4.435   6.661   2.817
10341TIP3    H130968   4.524   6.669   2.851
10341TIP3    H230969   4.403   6.578   2.854
10342TIP3   OH230970   5.071   4.007   3.579
10342TIP3    H130971   5.139   4.075   3.582
10342TIP3    H230972   4.989   4.055   3.585
10343TIP3   OH230973   0.486   6.272   6.402
10343TIP3    H130974   0.392   6.275   6.385
10343TIP3    H230975   0.518   6.200   6.347
10344TIP3   OH230976   0.614   4.913   3.053
10344TIP3    H130977   0.628   4.973   3.126
10344TIP3    H230978   0.701   4.882   3.030
10345TIP3   OH230979   5.622   1.338   1.537
10345TIP3    H130980   5.633   1.264   1.597
10345TIP3    H230981   5.710   1.376   1.529
10346TIP3   OH230982   0.501   6.666   4.992
10346TIP3    H130983   0.407   6.664   4.974
10346TIP3    H230984   0.508   6.692   5.084
10347TIP3   OH230985   5.301   1.883   0.320
10347TIP3    H130986   5.327   1.908   0.231
10347TIP3    H230987   5.378   1.903   0.374
10348TIP3   OH230988   2.844   1.190   2.425
10348TIP3    H130989   2.863   1.164   2.335
10348TIP3    H230990   2.759   1.234   2.420
10349TIP3   OH230991   5.131   5.538   1.042
10349TIP3    H130992   5.148   5.535   0.948
10349TIP3    H230993   5.166   5.622   1.070
10350TIP3   OH230994   3.108   6.409   3.154
10350TIP3    H130995   3.061   6.357   3.219
10350TIP3    H230996   3.198   6.376   3.158
10351TIP3   OH230997   2.055   4.907   0.488
10351TIP3    H130998   2.027   4.876   0.401
10351TIP3    H230999   2.140   4.949   0.472
10352TIP3   OH231000   7.389   6.815   1.219
10352TIP3    H131001   7.438   6.894   1.244
10352TIP3    H231002   7.455   6.746   1.214
10353TIP3   OH231003   1.713   6.027   3.212
10353TIP3    H131004   1.709   6.025   3.308
10353TIP3    H231005   1.799   5.989   3.191
10354TIP3   OH231006   6.538   4.581   0.932
10354TIP3    H131007   6.534   4.524   0.855
10354TIP3    H231008   6.452   4.624   0.934
10355TIP3   OH231009   0.683   0.133   2.760
10355TIP3    H131010   0.661   0.040   2.770
10355TIP3    H231011   0.761   0.145   2.815
10356TIP3   OH231012   1.297   0.437   4.444
10356TIP3    H131013   1.322   0.459   4.534
10356TIP3    H231014   1.365   0.376   4.414
10357TIP3   OH231015   3.164   2.981   4.302
10357TIP3    H131016   3.249   2.937   4.311
10357TIP3    H231017   3.186   3.073   4.285
10358TIP3   OH231018   3.365   2.796   6.564
10358TIP3    H131019   3.319   2.796   6.648
10358TIP3    H231020   3.423   2.871   6.567
10359TIP3   OH231021   2.574   2.973   1.334
10359TIP3    H131022   2.603   2.891   1.374
10359TIP3    H231023   2.609   2.970   1.245
10360TIP3   OH231024   5.576   1.700   4.801
10360TIP3    H131025   5.554   1.624   4.854
10360TIP3    H231026   5.594   1.664   4.714
10361TIP3   OH231027   2.910   0.156   0.654
10361TIP3    H131028   2.931   0.203   0.735
10361TIP3    H231029   2.991   0.157   0.604
10362TIP3   OH231030   2.415   5.772   6.255
10362TIP3    H131031   2.324   5.757   6.279
10362TIP3    H231032   2.464   5.759   6.336
10363TIP3   OH231033   5.103   5.462   4.782
10363TIP3    H131034   5.054   5.482   4.702
10363TIP3    H231035   5.058   5.511   4.851
10364TIP3   OH231036   1.821   3.672   5.768
10364TIP3    H131037   1.887   3.623   5.817
10364TIP3    H231038   1.763   3.707   5.835
10365TIP3   OH231039   2.814   4.804   5.027
10365TIP3    H131040   2.876   4.844   5.088
10365TIP3    H231041   2.842   4.712   5.021
10366TIP3   OH231042   7.934   6.204   0.790
10366TIP3    H131043   7.948   6.181   0.882
10366TIP3    H231044   7.923   6.120   0.745
10367TIP3   OH231045   0.399   4.779   5.238
10367TIP3    H131046   0.490   4.764   5.213
10367TIP3    H231047   0.372   4.698   5.280
10368TIP3   OH231048   3.177   0.408   3.176
10368TIP3    H131049   3.240   0.377   3.111
10368TIP3    H231050   3.140   0.488   3.137
10369TIP3   OH231051   0.655   5.151   4.797
10369TIP3    H131052   0.748   5.154   4.775
10369TIP3    H231053   0.615   5.101   4.726
10370TIP3   OH231054   8.028   5.296   3.553
10370TIP3    H131055   8.108   5.345   3.573
10370TIP3    H231056   8.058   5.226   3.494
10371TIP3   OH231057   3.846   4.882   1.683
10371TIP3    H131058   3.895   4.831   1.619
10371TIP3    H231059   3.759   4.842   1.684
10372TIP3   OH231060   3.623   7.603   0.222
10372TIP3    H131061   3.610   7.628   0.314
10372TIP3    H231062   3.680   7.526   0.226
10373TIP3   OH231063   0.971   5.022   1.471
10373TIP3    H131064   0.900   5.060   1.419
10373TIP3    H231065   0.935   4.939   1.503
10374TIP3   OH231066   4.485   6.961   1.350
10374TIP3    H131067   4.390   6.955   1.340
10374TIP3    H231068   4.520   6.952   1.262
10375TIP3   OH231069   4.137   1.441   3.839
10375TIP3    H131070   4.046   1.462   3.819
10375TIP3    H231071   4.176   1.419   3.755
10376TIP3   OH231072   6.236   0.738   6.712
10376TIP3    H131073   6.259   0.766   6.801
10376TIP3    H231074   6.202   0.650   6.723
10377TIP3   OH231075   0.818   1.115   3.265
10377TIP3    H131076   0.776   1.200   3.251
10377TIP3    H231077   0.771   1.075   3.337
10378TIP3   OH231078   8.011   4.494   0.112
10378TIP3    H131079   8.031   4.578   0.071
10378TIP3    H231080   8.078   4.483   0.179
10379TIP3   OH231081   5.560   5.452   4.509
10379TIP3    H131082   5.642   5.436   4.556
10379TIP3    H231083   5.491   5.423   4.570
10380TIP3   OH231084   0.427   2.465   4.492
10380TIP3    H131085   0.470   2.495   4.412
10380TIP3    H231086   0.345   2.426   4.462
10381TIP3   OH231087   2.792   5.307   5.927
10381TIP3    H131088   2.732   5.381   5.919
10381TIP3    H231089   2.765   5.247   5.857
10382TIP3   OH231090   0.500   4.263   2.210
10382TIP3    H131091   0.497   4.357   2.226
10382TIP3    H231092   0.576   4.232   2.260
10383TIP3   OH231093   5.290   3.463   2.565
10383TIP3    H131094   5.349   3.524   2.610
10383TIP3    H231095   5.269   3.507   2.482
10384TIP3   OH231096   5.450   0.983   5.215
10384TIP3    H131097   5.468   1.073   5.244
10384TIP3    H231098   5.535   0.941   5.211
10385TIP3   OH231099   6.634   2.283   6.480
10385TIP3    H131100   6.560   2.274   6.420
10385TIP3    H231101   6.593   2.287   6.567
10386TIP3   OH231102   3.501   1.091   4.966
10386TIP3    H131103   3.543   1.013   5.003
10386TIP3    H231104   3.507   1.078   4.872
10387TIP3   OH231105   1.118   1.415   3.092
10387TIP3    H131106   1.041   1.472   3.093
10387TIP3    H231107   1.107   1.361   3.014
10388TIP3   OH231108   1.606   1.013   1.658
10388TIP3    H131109   1.564   0.928   1.656
10388TIP3    H231110   1.571   1.056   1.736
10389TIP3   OH231111   7.421   0.225   1.271
10389TIP3    H131112   7.430   0.191   1.360
10389TIP3    H231113   7.498   0.282   1.260
10390TIP3   OH231114   7.507   0.691   3.694
10390TIP3    H131115   7.599   0.667   3.711
10390TIP3    H231116   7.495   0.773   3.742
10391TIP3   OH231117   3.247  -0.079   1.571
10391TIP3    H131118   3.277   0.010   1.591
10391TIP3    H231119   3.158  -0.068   1.539
10392TIP3   OH231120   2.052   0.299   4.913
10392TIP3    H131121   1.962   0.311   4.881
10392TIP3    H231122   2.087   0.388   4.919
10393TIP3   OH231123   3.635   6.825   5.780
10393TIP3    H131124   3.700   6.820   5.709
10393TIP3    H231125   3.568   6.761   5.755
10394TIP3   OH231126   5.341   5.489   5.362
10394TIP3    H131127   5.267   5.545   5.336
10394TIP3    H231128   5.301   5.421   5.415
10395TIP3   OH231129   1.297   7.223   1.635
10395TIP3    H131130   1.268   7.175   1.712
10395TIP3    H231131   1.391   7.208   1.631
10396TIP3   OH231132   7.512   6.776   0.152
10396TIP3    H131133   7.588   6.815   0.194
10396TIP3    H231134   7.479   6.713   0.216
10397TIP3   OH231135   3.562   0.262   0.477
10397TIP3    H131136   3.571   0.181   0.426
10397TIP3    H231137   3.500   0.240   0.547
10398TIP3   OH231138   7.915   4.621   5.767
10398TIP3    H131139   7.837   4.677   5.765
10398TIP3    H231140   7.988   4.682   5.759
10399TIP3   OH231141   0.540   5.151   4.240
10399TIP3    H131142   0.545   5.071   4.188
10399TIP3    H231143   0.623   5.195   4.226
10400TIP3   OH231144   5.227   5.345   0.136
10400TIP3    H131145   5.192   5.256   0.137
10400TIP3    H231146   5.312   5.337   0.094
10401TIP3   OH231147   0.446   2.007   3.248
10401TIP3    H131148   0.496   1.966   3.318
10401TIP3    H231149   0.442   1.940   3.179
10402TIP3   OH231150   6.734   3.004   0.903
10402TIP3    H131151   6.824   3.023   0.932
10402TIP3    H231152   6.741   2.995   0.808
10403TIP3   OH231153   7.340   3.141   4.115
10403TIP3    H131154   7.385   3.225   4.120
10403TIP3    H231155   7.411   3.077   4.106
10404TIP3   OH231156   3.047   1.281   5.628
10404TIP3    H131157   3.108   1.215   5.661
10404TIP3    H231158   3.008   1.320   5.706
10405TIP3   OH231159   4.052   3.020   2.505
10405TIP3    H131160   4.126   2.960   2.517
10405TIP3    H231161   3.976   2.962   2.499
10406TIP3   OH231162   6.487   0.273   3.181
10406TIP3    H131163   6.505   0.194   3.233
10406TIP3    H231164   6.572   0.296   3.143
10407TIP3   OH231165   2.182   5.676   1.108
10407TIP3    H131166   2.190   5.693   1.014
10407TIP3    H231167   2.272   5.683   1.141
10408TIP3   OH231168   4.569   0.395   3.731
10408TIP3    H131169   4.506   0.379   3.660
10408TIP3    H231170   4.526   0.460   3.786
10409TIP3   OH231171   4.139   6.774   3.852
10409TIP3    H131172   4.128   6.848   3.793
10409TIP3    H231173   4.077   6.708   3.820
10410TIP3   OH231174   6.111   6.394   4.320
10410TIP3    H131175   6.142   6.440   4.241
10410TIP3    H231176   6.062   6.319   4.286
10411TIP3   OH231177   4.937   4.677   6.480
10411TIP3    H131178   4.890   4.646   6.403
10411TIP3    H231179   5.019   4.714   6.446
10412TIP3   OH231180   3.643   0.598   0.590
10412TIP3    H131181   3.685   0.608   0.504
10412TIP3    H231182   3.551   0.583   0.570
10413TIP3   OH231183   8.104   0.339   5.841
10413TIP3    H131184   8.071   0.249   5.834
10413TIP3    H231185   8.050   0.379   5.909
10414TIP3   OH231186   8.031   5.251   1.420
10414TIP3    H131187   7.964   5.226   1.356
10414TIP3    H231188   8.020   5.189   1.492
10415TIP3   OH231189   8.195   6.401   0.178
10415TIP3    H131190   8.173   6.461   0.107
10415TIP3    H231191   8.114   6.351   0.192
10416TIP3   OH231192   4.904   2.654   1.986
10416TIP3    H131193   4.940   2.613   2.064
10416TIP3    H231194   4.809   2.646   1.997
10417TIP3   OH231195   3.434   3.047   3.674
10417TIP3    H131196   3.450   2.962   3.716
10417TIP3    H231197   3.495   3.106   3.717
10418TIP3   OH231198   0.649   7.559   2.407
10418TIP3    H131199   0.606   7.644   2.400
10418TIP3    H231200   0.690   7.547   2.321
10419TIP3   OH231201   7.284   4.624   2.398
10419TIP3    H131202   7.214   4.625   2.462
10419TIP3    H231203   7.332   4.706   2.413
10420TIP3   OH231204   2.111   5.966   0.949
10420TIP3    H131205   2.151   5.962   1.036
10420TIP3    H231206   2.132   5.881   0.909
10421TIP3   OH231207   2.849   0.497   2.219
10421TIP3    H131208   2.828   0.536   2.134
10421TIP3    H231209   2.811   0.556   2.283
10422TIP3   OH231210   1.898   4.136   1.336
10422TIP3    H131211   1.892   4.091   1.420
10422TIP3    H231212   1.872   4.070   1.272
10423TIP3   OH231213   1.946   3.603   3.859
10423TIP3    H131214   1.936   3.616   3.765
10423TIP3    H231215   1.902   3.520   3.877
10424TIP3   OH231216   5.728   6.446   0.678
10424TIP3    H131217   5.658   6.488   0.729
10424TIP3    H231218   5.735   6.499   0.599
10425TIP3   OH231219   4.748   0.367   4.904
10425TIP3    H131220   4.750   0.380   4.810
10425TIP3    H231221   4.664   0.404   4.931
10426TIP3   OH231222   1.757   6.165   6.672
10426TIP3    H131223   1.704   6.143   6.748
10426TIP3    H231224   1.697   6.157   6.598
10427TIP3   OH231225   6.500   4.299   6.295
10427TIP3    H131226   6.431   4.318   6.358
10427TIP3    H231227   6.490   4.366   6.227
10428TIP3   OH231228   4.685   3.376   0.864
10428TIP3    H131229   4.672   3.471   0.860
10428TIP3    H231230   4.698   3.357   0.957
10429TIP3   OH231231   0.923   6.906   2.973
10429TIP3    H131232   1.017   6.888   2.971
10429TIP3    H231233   0.911   6.975   2.907
10430TIP3   OH231234   1.463   2.313   1.956
10430TIP3    H131235   1.488   2.228   1.993
10430TIP3    H231236   1.529   2.330   1.889
10431TIP3   OH231237   4.434   1.341   6.512
10431TIP3    H131238   4.515   1.389   6.498
10431TIP3    H231239   4.370   1.385   6.455
10432TIP3   OH231240   6.326   1.981   5.424
10432TIP3    H131241   6.380   1.977   5.503
10432TIP3    H231242   6.238   2.003   5.455
10433TIP3   OH231243   4.498   0.638   2.464
10433TIP3    H131244   4.426   0.579   2.438
10433TIP3    H231245   4.530   0.600   2.546
10434TIP3   OH231246   6.995   2.588   1.108
10434TIP3    H131247   7.027   2.673   1.138
10434TIP3    H231248   7.046   2.569   1.029
10435TIP3   OH231249   8.014   0.373   4.021
10435TIP3    H131250   8.050   0.326   4.096
10435TIP3    H231251   8.085   0.432   3.994
10436TIP3   OH231252   2.331   1.533   0.155
10436TIP3    H131253   2.298   1.539   0.244
10436TIP3    H231254   2.253   1.522   0.101
10437TIP3   OH231255   0.294   0.307   2.890
10437TIP3    H131256   0.218   0.249   2.881
10437TIP3    H231257   0.356   0.258   2.943
10438TIP3   OH231258   2.715   4.319   0.409
10438TIP3    H131259   2.799   4.331   0.454
10438TIP3    H231260   2.715   4.385   0.340
10439TIP3   OH231261   1.910   1.119   2.499
10439TIP3    H131262   1.967   1.113   2.423
10439TIP3    H231263   1.957   1.174   2.562
10440TIP3   OH231264   0.716   5.125   1.398
10440TIP3    H131265   0.684   5.163   1.316
10440TIP3    H231266   0.669   5.042   1.406
10441TIP3   OH231267   7.038   3.752   0.268
10441TIP3    H131268   7.052   3.763   0.173
10441TIP3    H231269   6.946   3.774   0.281
10442TIP3   OH231270   0.280   4.281   5.702
10442TIP3    H131271   0.189   4.289   5.674
10442TIP3    H231272   0.299   4.365   5.744
10443TIP3   OH231273   7.531   4.739   5.395
10443TIP3    H131274   7.625   4.758   5.391
10443TIP3    H231275   7.500   4.755   5.306
10444TIP3   OH231276   1.128   4.864   1.837
10444TIP3    H131277   1.159   4.953   1.858
10444TIP3    H231278   1.051   4.852   1.892
10445TIP3   OH231279   3.610   5.734   0.784
10445TIP3    H131280   3.546   5.665   0.764
10445TIP3    H231281   3.592   5.757   0.875
10446TIP3   OH231282   6.985   5.586   3.871
10446TIP3    H131283   6.890   5.574   3.873
10446TIP3    H231284   7.000   5.670   3.914
10447TIP3   OH231285   6.033   4.250   6.075
10447TIP3    H131286   6.046   4.318   6.140
10447TIP3    H231287   6.112   4.252   6.021
10448TIP3   OH231288   3.906   7.778   6.525
10448TIP3    H131289   3.893   7.720   6.600
10448TIP3    H231290   3.993   7.817   6.541
10449TIP3   OH231291   5.440   5.187   5.479
10449TIP3    H131292   5.475   5.257   5.533
10449TIP3    H231293   5.346   5.201   5.479
10450TIP3   OH231294   7.429   1.157   3.007
10450TIP3    H131295   7.358   1.142   2.944
10450TIP3    H231296   7.447   1.070   3.044
10451TIP3   OH231297   5.105   5.952   5.996
10451TIP3    H131298   5.200   5.951   6.009
10451TIP3    H231299   5.095   5.975   5.903
10452TIP3   OH231300   3.453   5.069   5.334
10452TIP3    H131301   3.533   5.117   5.358
10452TIP3    H231302   3.382   5.124   5.367
10453TIP3   OH231303   5.967   4.455   0.407
10453TIP3    H131304   5.935   4.426   0.493
10453TIP3    H231305   6.034   4.392   0.384
10454TIP3   OH231306   4.098   4.512   0.252
10454TIP3    H131307   4.085   4.478   0.340
10454TIP3    H231308   4.091   4.607   0.260
10455TIP3   OH231309   1.496   3.307   4.924
10455TIP3    H131310   1.486   3.214   4.908
10455TIP3    H231311   1.587   3.317   4.954
10456TIP3   OH231312   2.609   6.498   3.248
10456TIP3    H131313   2.675   6.509   3.316
10456TIP3    H231314   2.659   6.477   3.169
10457TIP3   OH231315   8.258   1.922   0.182
10457TIP3    H131316   8.224   1.836   0.159
10457TIP3    H231317   8.334   1.905   0.237
10458TIP3   OH231318   4.298   6.774   3.549
10458TIP3    H131319   4.256   6.859   3.533
10458TIP3    H231320   4.374   6.774   3.491
10459TIP3   OH231321   4.143   1.529   2.554
10459TIP3    H131322   4.068   1.583   2.528
10459TIP3    H231323   4.174   1.490   2.473
10460TIP3   OH231324   5.165   2.322   4.352
10460TIP3    H131325   5.218   2.251   4.317
10460TIP3    H231326   5.126   2.363   4.274
10461TIP3   OH231327   4.968   6.733   2.220
10461TIP3    H131328   5.039   6.686   2.264
10461TIP3    H231329   4.984   6.718   2.127
10462TIP3   OH231330   0.494   6.607   5.764
10462TIP3    H131331   0.521   6.552   5.838
10462TIP3    H231332   0.525   6.560   5.687
10463TIP3   OH231333   4.888   4.914   6.274
10463TIP3    H131334   4.805   4.906   6.229
10463TIP3    H231335   4.953   4.880   6.212
10464TIP3   OH231336   3.234   0.197   1.247
10464TIP3    H131337   3.142   0.170   1.253
10464TIP3    H231338   3.242   0.236   1.160
10465TIP3   OH231339   1.153   4.436   4.137
10465TIP3    H131340   1.097   4.475   4.204
10465TIP3    H231341   1.106   4.359   4.108
10466TIP3   OH231342   4.345   2.371   2.271
10466TIP3    H131343   4.316   2.462   2.265
10466TIP3    H231344   4.271   2.320   2.239
10467TIP3   OH231345   3.125   0.464   0.581
10467TIP3    H131346   3.057   0.474   0.513
10467TIP3    H231347   3.131   0.370   0.594
10468TIP3   OH231348   0.778   2.672   5.305
10468TIP3    H131349   0.780   2.768   5.301
10468TIP3    H231350   0.784   2.652   5.399
10469TIP3   OH231351   8.317   5.025   4.521
10469TIP3    H131352   8.367   4.952   4.486
10469TIP3    H231353   8.247   4.984   4.572
10470TIP3   OH231354   1.660   6.641   6.031
10470TIP3    H131355   1.574   6.653   6.072
10470TIP3    H231356   1.673   6.719   5.978
10471TIP3   OH231357   7.601   1.408   4.586
10471TIP3    H131358   7.632   1.476   4.526
10471TIP3    H231359   7.557   1.345   4.530
10472TIP3   OH231360   4.320   4.011   5.801
10472TIP3    H131361   4.313   3.923   5.836
10472TIP3    H231362   4.389   4.006   5.734
10473TIP3   OH231363   6.788   3.223   1.717
10473TIP3    H131364   6.827   3.288   1.775
10473TIP3    H231365   6.788   3.142   1.768
10474TIP3   OH231366   6.566   4.890   3.228
10474TIP3    H131367   6.531   4.953   3.291
10474TIP3    H231368   6.650   4.927   3.201
10475TIP3   OH231369   4.338   1.254   2.277
10475TIP3    H131370   4.304   1.179   2.325
10475TIP3    H231371   4.433   1.241   2.275
10476TIP3   OH231372   1.869   1.214   0.825
10476TIP3    H131373   1.907   1.165   0.752
10476TIP3    H231374   1.782   1.176   0.837
10477TIP3   OH231375   6.672   1.797   5.091
10477TIP3    H131376   6.665   1.851   5.012
10477TIP3    H231377   6.677   1.707   5.059
10478TIP3   OH231378   1.494   5.205   1.287
10478TIP3    H131379   1.492   5.212   1.192
10478TIP3    H231380   1.420   5.148   1.308
10479TIP3   OH231381   3.271   6.375   5.151
10479TIP3    H131382   3.269   6.314   5.078
10479TIP3    H231383   3.330   6.334   5.215
10480TIP3   OH231384   6.971   3.491   5.012
10480TIP3    H131385   6.937   3.481   4.923
10480TIP3    H231386   6.895   3.480   5.068
10481TIP3   OH231387   1.536   1.741   3.135
10481TIP3    H131388   1.613   1.719   3.082
10481TIP3    H231389   1.463   1.735   3.074
10482TIP3   OH231390   6.893   6.863   3.171
10482TIP3    H131391   6.958   6.809   3.217
10482TIP3    H231392   6.944   6.934   3.132
10483TIP3   OH231393   5.891   6.479   3.759
10483TIP3    H131394   5.888   6.564   3.715
10483TIP3    H231395   5.836   6.422   3.705
10484TIP3   OH231396   2.396   1.102   1.733
10484TIP3    H131397   2.321   1.042   1.728
10484TIP3    H231398   2.390   1.142   1.819
10485TIP3   OH231399   6.041   2.286   5.740
10485TIP3    H131400   6.133   2.275   5.767
10485TIP3    H231401   6.046   2.319   5.650
10486TIP3   OH231402   4.077   7.481   1.439
10486TIP3    H131403   4.166   7.493   1.472
10486TIP3    H231404   4.083   7.500   1.346
10487TIP3   OH231405   1.508   1.658   4.547
10487TIP3    H131406   1.458   1.581   4.521
10487TIP3    H231407   1.599   1.636   4.528
10488TIP3   OH231408   4.360   6.222   0.057
10488TIP3    H131409   4.434   6.176   0.096
10488TIP3    H231410   4.294   6.224   0.127
10489TIP3   OH231411   7.393   5.291   1.862
10489TIP3    H131412   7.459   5.222   1.866
10489TIP3    H231413   7.380   5.317   1.954
10490TIP3   OH231414   5.878   4.819   5.647
10490TIP3    H131415   5.939   4.750   5.672
10490TIP3    H231416   5.809   4.774   5.598
10491TIP3   OH231417   2.432   4.487   1.111
10491TIP3    H131418   2.377   4.551   1.158
10491TIP3    H231419   2.520   4.524   1.117
10492TIP3   OH231420   6.182   6.205   1.312
10492TIP3    H131421   6.097   6.234   1.280
10492TIP3    H231422   6.245   6.243   1.251
10493TIP3   OH231423   1.947   3.135   0.954
10493TIP3    H131424   1.942   3.150   0.859
10493TIP3    H231425   2.020   3.075   0.965
10494TIP3   OH231426   0.605   1.567   3.072
10494TIP3    H131427   0.589   1.562   2.978
10494TIP3    H231428   0.631   1.658   3.087
10495TIP3   OH231429   0.230   0.235   3.505
10495TIP3    H131430   0.308   0.181   3.499
10495TIP3    H231431   0.159   0.178   3.474
10496TIP3   OH231432   5.221   2.096   1.930
10496TIP3    H131433   5.256   2.073   2.016
10496TIP3    H231434   5.208   2.191   1.934
10497TIP3   OH231435   3.970   3.629   0.952
10497TIP3    H131436   4.041   3.645   1.013
10497TIP3    H231437   3.949   3.716   0.917
10498TIP3   OH231438   4.161   1.784   5.076
10498TIP3    H131439   4.125   1.700   5.106
10498TIP3    H231440   4.173   1.772   4.982
10499TIP3   OH231441   0.543   1.687   6.764
10499TIP3    H131442   0.580   1.774   6.782
10499TIP3    H231443   0.586   1.659   6.683
10500TIP3   OH231444   5.325   2.392   4.115
10500TIP3    H131445   5.338   2.486   4.130
10500TIP3    H231446   5.371   2.349   4.186
10501TIP3   OH231447   0.278   4.220   3.778
10501TIP3    H131448   0.338   4.175   3.720
10501TIP3    H231449   0.294   4.183   3.864
10502TIP3   OH231450   2.234   6.663   0.887
10502TIP3    H131451   2.292   6.704   0.951
10502TIP3    H231452   2.249   6.569   0.899
10503TIP3   OH231453   7.933   3.373   1.069
10503TIP3    H131454   7.903   3.439   1.007
10503TIP3    H231455   7.877   3.384   1.145
10504TIP3   OH231456   7.547   6.200   6.663
10504TIP3    H131457   7.464   6.212   6.617
10504TIP3    H231458   7.548   6.269   6.729
10505TIP3   OH231459   0.445   6.873   5.772
10505TIP3    H131460   0.375   6.906   5.829
10505TIP3    H231461   0.444   6.778   5.787
10506TIP3   OH231462   4.335   2.946   1.148
10506TIP3    H131463   4.331   2.851   1.161
10506TIP3    H231464   4.379   2.979   1.226
10507TIP3   OH231465   5.670   2.875   4.014
10507TIP3    H131466   5.653   2.829   3.931
10507TIP3    H231467   5.716   2.810   4.068
10508TIP3   OH231468   0.250   6.983   0.402
10508TIP3    H131469   0.157   6.964   0.388
10508TIP3    H231470   0.251   7.063   0.454
10509TIP3   OH231471   0.104   7.103   2.096
10509TIP3    H131472   0.048   7.110   2.019
10509TIP3    H231473   0.168   7.174   2.086
10510TIP3   OH231474   5.138   1.608   2.638
10510TIP3    H131475   5.225   1.570   2.654
10510TIP3    H231476   5.137   1.628   2.545
10511TIP3   OH231477   0.152   1.758   3.128
10511TIP3    H131478   0.227   1.808   3.096
10511TIP3    H231479   0.143   1.784   3.220
10512TIP3   OH231480   6.999   4.624   6.248
10512TIP3    H131481   6.931   4.559   6.237
10512TIP3    H231482   6.953   4.708   6.248
10513TIP3   OH231483   0.720   3.842   2.382
10513TIP3    H131484   0.664   3.828   2.305
10513TIP3    H231485   0.805   3.865   2.346
10514TIP3   OH231486   1.969   2.593   3.634
10514TIP3    H131487   1.982   2.499   3.621
10514TIP3    H231488   2.056   2.631   3.628
10515TIP3   OH231489   7.564   1.203   2.316
10515TIP3    H131490   7.488   1.156   2.349
10515TIP3    H231491   7.566   1.284   2.366
10516TIP3   OH231492   4.703   5.560   3.392
10516TIP3    H131493   4.738   5.617   3.324
10516TIP3    H231494   4.756   5.480   3.385
10517TIP3   OH231495   3.928   7.208   1.212
10517TIP3    H131496   4.000   7.156   1.176
10517TIP3    H231497   3.941   7.206   1.306
10518TIP3   OH231498   7.990   2.981   0.171
10518TIP3    H131499   8.029   2.949   0.252
10518TIP3    H231500   8.037   3.062   0.152
10519TIP3   OH231501   2.891   1.828   2.154
10519TIP3    H131502   2.873   1.919   2.180
10519TIP3    H231503   2.877   1.778   2.234
10520TIP3   OH231504   2.213   4.902   0.898
10520TIP3    H131505   2.269   4.869   0.968
10520TIP3    H231506   2.151   4.960   0.941
10521TIP3   OH231507   0.900   7.513   4.117
10521TIP3    H131508   0.953   7.446   4.075
10521TIP3    H231509   0.812   7.498   4.084
10522TIP3   OH231510   1.813   0.136   3.295
10522TIP3    H131511   1.812   0.084   3.215
10522TIP3    H231512   1.900   0.122   3.333
10523TIP3   OH231513   3.123   5.615   6.726
10523TIP3    H131514   3.099   5.579   6.640
10523TIP3    H231515   3.173   5.694   6.706
10524TIP3   OH231516   1.205   1.624   4.376
10524TIP3    H131517   1.299   1.632   4.358
10524TIP3    H231518   1.200   1.608   4.470
10525TIP3   OH231519   7.697   3.051   3.695
10525TIP3    H131520   7.701   3.096   3.779
10525TIP3    H231521   7.788   3.046   3.666
10526TIP3   OH231522   3.132   4.061   2.916
10526TIP3    H131523   3.205   4.010   2.880
10526TIP3    H231524   3.090   4.002   2.978
10527TIP3   OH231525   1.302   0.354   4.941
10527TIP3    H131526   1.213   0.350   4.976
10527TIP3    H231527   1.337   0.266   4.956
10528TIP3   OH231528   2.378   7.089   2.864
10528TIP3    H131529   2.383   7.056   2.954
10528TIP3    H231530   2.298   7.050   2.829
10529TIP3   OH231531   5.748   5.308   3.789
10529TIP3    H131532   5.687   5.376   3.819
10529TIP3    H231533   5.699   5.226   3.800
10530TIP3   OH231534   5.077   3.076   0.422
10530TIP3    H131535   5.091   3.074   0.517
10530TIP3    H231536   5.161   3.049   0.385
10531TIP3   OH231537   4.482   3.328   5.835
10531TIP3    H131538   4.507   3.344   5.744
10531TIP3    H231539   4.436   3.407   5.861
10532TIP3   OH231540   6.823   7.057   6.014
10532TIP3    H131541   6.888   7.039   5.946
10532TIP3    H231542   6.868   7.037   6.096
10533TIP3   OH231543   5.614   1.587   4.551
10533TIP3    H131544   5.612   1.590   4.456
10533TIP3    H231545   5.623   1.494   4.572
10534TIP3   OH231546   5.450   7.135   4.741
10534TIP3    H131547   5.465   7.044   4.768
10534TIP3    H231548   5.451   7.185   4.823
10535TIP3   OH231549   7.481   2.074   0.923
10535TIP3    H131550   7.532   2.148   0.956
10535TIP3    H231551   7.420   2.053   0.994
10536TIP3   OH231552   6.716   4.115   6.354
10536TIP3    H131553   6.731   4.038   6.299
10536TIP3    H231554   6.638   4.156   6.317
10537TIP3   OH231555   3.273   2.037   6.541
10537TIP3    H131556   3.301   2.125   6.520
10537TIP3    H231557   3.339   2.004   6.602
10538TIP3   OH231558   1.780   0.040   6.712
10538TIP3    H131559   1.857   0.031   6.769
10538TIP3    H231560   1.734   0.117   6.747
10539TIP3   OH231561   5.676   4.612   6.198
10539TIP3    H131562   5.739   4.573   6.259
10539TIP3    H231563   5.688   4.706   6.209
10540TIP3   OH231564   2.027   0.542   6.406
10540TIP3    H131565   2.064   0.461   6.371
10540TIP3    H231566   2.096   0.607   6.396
10541TIP3   OH231567   1.788   2.680   2.675
10541TIP3    H131568   1.781   2.772   2.648
10541TIP3    H231569   1.852   2.642   2.615
10542TIP3   OH231570   5.982   0.481   6.751
10542TIP3    H131571   5.969   0.440   6.665
10542TIP3    H231572   5.977   0.408   6.813
10543TIP3   OH231573   5.631   3.830   2.106
10543TIP3    H131574   5.702   3.768   2.092
10543TIP3    H231575   5.671   3.916   2.090
10544TIP3   OH231576   5.043   5.488   1.342
10544TIP3    H131577   5.091   5.570   1.332
10544TIP3    H231578   4.980   5.488   1.270
10545TIP3   OH231579   3.909   4.401   2.856
10545TIP3    H131580   3.893   4.338   2.786
10545TIP3    H231581   3.960   4.471   2.815
10546TIP3   OH231582   1.348   6.655   4.618
10546TIP3    H131583   1.347   6.622   4.528
10546TIP3    H231584   1.397   6.588   4.667
10547TIP3   OH231585   5.937   7.624   0.774
10547TIP3    H131586   5.893   7.559   0.828
10547TIP3    H231587   5.919   7.708   0.817
10548TIP3   OH231588   0.819   1.890   0.202
10548TIP3    H131589   0.745   1.875   0.260
10548TIP3    H231590   0.833   1.985   0.204
10549TIP3   OH231591   0.941   3.395   3.989
10549TIP3    H131592   0.962   3.446   3.911
10549TIP3    H231593   0.939   3.460   4.060
10550TIP3   OH231594   6.574   1.446   2.742
10550TIP3    H131595   6.599   1.361   2.706
10550TIP3    H231596   6.482   1.434   2.768
10551TIP3   OH231597   3.873   1.422   3.712
10551TIP3    H131598   3.810   1.351   3.698
10551TIP3    H231599   3.819   1.498   3.734
10552TIP3   OH231600   1.776   4.086   0.883
10552TIP3    H131601   1.717   4.067   0.811
10552TIP3    H231602   1.816   4.001   0.903
10553TIP3   OH231603   0.868   7.437   5.803
10553TIP3    H131604   0.803   7.504   5.781
10553TIP3    H231605   0.952   7.477   5.782
10554TIP3   OH231606   8.183   2.932   2.232
10554TIP3    H131607   8.212   2.919   2.322
10554TIP3    H231608   8.198   2.847   2.189
10555TIP3   OH231609   3.371   7.739   3.340
10555TIP3    H131610   3.405   7.734   3.250
10555TIP3    H231611   3.292   7.686   3.339
10556TIP3   OH231612   8.109   1.829   0.478
10556TIP3    H131613   8.059   1.817   0.559
10556TIP3    H231614   8.120   1.741   0.444
10557TIP3   OH231615   4.939   4.152   2.760
10557TIP3    H131616   4.924   4.187   2.848
10557TIP3    H231617   4.966   4.062   2.774
10558TIP3   OH231618   6.962   6.297   6.427
10558TIP3    H131619   6.967   6.386   6.392
10558TIP3    H231620   6.902   6.304   6.502
10559TIP3   OH231621   4.420   2.706   5.411
10559TIP3    H131622   4.338   2.739   5.448
10559TIP3    H231623   4.394   2.664   5.329
10560TIP3   OH231624   1.808   4.280   2.650
10560TIP3    H131625   1.789   4.372   2.636
10560TIP3    H231626   1.850   4.277   2.736
10561TIP3   OH231627   6.510   7.675   3.738
10561TIP3    H131628   6.549   7.744   3.791
10561TIP3    H231629   6.584   7.621   3.711
10562TIP3   OH231630   2.239   4.716   2.748
10562TIP3    H131631   2.268   4.803   2.776
10562TIP3    H231632   2.304   4.656   2.785
10563TIP3   OH231633   3.792   0.985   2.217
10563TIP3    H131634   3.819   1.031   2.296
10563TIP3    H231635   3.763   1.054   2.157
10564TIP3   OH231636   2.945   0.097   6.394
10564TIP3    H131637   2.864   0.060   6.429
10564TIP3    H231638   3.013   0.039   6.428
10565TIP3   OH231639   2.021   1.535   4.866
10565TIP3    H131640   1.938   1.584   4.864
10565TIP3    H231641   2.011   1.476   4.940
10566TIP3   OH231642   6.954   3.003   1.545
10566TIP3    H131643   6.924   3.079   1.595
10566TIP3    H231644   6.904   3.007   1.464
10567TIP3   OH231645   3.904   6.318   4.732
10567TIP3    H131646   3.922   6.387   4.669
10567TIP3    H231647   3.935   6.353   4.816
10568TIP3   OH231648   0.647   5.488   4.828
10568TIP3    H131649   0.680   5.424   4.891
10568TIP3    H231650   0.658   5.572   4.872
10569TIP3   OH231651   3.065   3.726   3.254
10569TIP3    H131652   3.150   3.724   3.300
10569TIP3    H231653   3.004   3.686   3.315
10570TIP3   OH231654   5.835   6.176   2.364
10570TIP3    H131655   5.929   6.174   2.344
10570TIP3    H231656   5.796   6.226   2.292
10571TIP3   OH231657   0.105   3.697   2.863
10571TIP3    H131658   0.075   3.716   2.952
10571TIP3    H231659   0.040   3.739   2.806
10572TIP3   OH231660   7.724   5.453   5.238
10572TIP3    H131661   7.818   5.452   5.224
10572TIP3    H231662   7.713   5.461   5.333
10573TIP3   OH231663   6.580   1.074   3.034
10573TIP3    H131664   6.553   1.134   2.965
10573TIP3    H231665   6.570   0.987   2.996
10574TIP3   OH231666   3.749   0.568   3.060
10574TIP3    H131667   3.673   0.552   3.116
10574TIP3    H231668   3.797   0.485   3.062
10575TIP3   OH231669   7.118   2.263   6.082
10575TIP3    H131670   7.113   2.245   5.988
10575TIP3    H231671   7.148   2.354   6.087
10576TIP3   OH231672   3.273   0.163   4.128
10576TIP3    H131673   3.262   0.096   4.196
10576TIP3    H231674   3.255   0.118   4.046
10577TIP3   OH231675   5.238   7.763   6.347
10577TIP3    H131676   5.333   7.772   6.358
10577TIP3    H231677   5.203   7.848   6.374
10578TIP3   OH231678   6.835   2.110   2.693
10578TIP3    H131679   6.879   2.188   2.658
10578TIP3    H231680   6.904   2.064   2.742
10579TIP3   OH231681   5.197   1.027   6.310
10579TIP3    H131682   5.273   0.971   6.298
10579TIP3    H231683   5.123   0.966   6.314
10580TIP3   OH231684   7.607   2.773   2.016
10580TIP3    H131685   7.640   2.788   1.928
10580TIP3    H231686   7.608   2.859   2.058
10581TIP3   OH231687   1.745   6.391   0.818
10581TIP3    H131688   1.706   6.320   0.767
10581TIP3    H231689   1.711   6.471   0.778
10582TIP3   OH231690   8.020   7.242   0.679
10582TIP3    H131691   8.003   7.211   0.768
10582TIP3    H231692   8.031   7.162   0.627
10583TIP3   OH231693   7.546   5.850   0.964
10583TIP3    H131694   7.603   5.774   0.978
10583TIP3    H231695   7.533   5.887   1.051
10584TIP3   OH231696   3.816   6.092   6.615
10584TIP3    H131697   3.891   6.040   6.643
10584TIP3    H231698   3.811   6.164   6.678
10585TIP3   OH231699   6.930   5.078   4.435
10585TIP3    H131700   6.922   5.167   4.400
10585TIP3    H231701   6.870   5.076   4.510
10586TIP3   OH231702   1.606   4.688   2.079
10586TIP3    H131703   1.564   4.771   2.100
10586TIP3    H231704   1.623   4.648   2.165
10587TIP3   OH231705   2.824   6.890   4.305
10587TIP3    H131706   2.913   6.905   4.337
10587TIP3    H231707   2.767   6.918   4.377
10588TIP3   OH231708   0.526   0.914   2.114
10588TIP3    H131709   0.538   0.855   2.188
10588TIP3    H231710   0.614   0.926   2.078
10589TIP3   OH231711   0.457   3.242   6.249
10589TIP3    H131712   0.393   3.187   6.202
10589TIP3    H231713   0.408   3.277   6.323
10590TIP3   OH231714   5.849   6.235   1.807
10590TIP3    H131715   5.883   6.280   1.729
10590TIP3    H231716   5.843   6.304   1.873
10591TIP3   OH231717   2.335   2.693   1.909
10591TIP3    H131718   2.244   2.676   1.885
10591TIP3    H231719   2.355   2.778   1.870
10592TIP3   OH231720   5.176   0.480   6.373
10592TIP3    H131721   5.261   0.523   6.363
10592TIP3    H231722   5.195   0.403   6.426
10593TIP3   OH231723   7.677   4.942   2.270
10593TIP3    H131724   7.617   4.945   2.344
10593TIP3    H231725   7.640   5.003   2.206
10594TIP3   OH231726   5.980   7.643   4.457
10594TIP3    H131727   5.890   7.610   4.460
10594TIP3    H231728   5.998   7.653   4.363
10595TIP3   OH231729   6.397   3.749   3.597
10595TIP3    H131730   6.449   3.750   3.677
10595TIP3    H231731   6.389   3.656   3.574
10596TIP3   OH231732   3.836   4.827   5.248
10596TIP3    H131733   3.802   4.907   5.288
10596TIP3    H231734   3.802   4.827   5.159
10597TIP3   OH231735   8.379   6.433   0.909
10597TIP3    H131736   8.287   6.457   0.895
10597TIP3    H231737   8.410   6.495   0.975
10598TIP3   OH231738   2.836   4.981   1.350
10598TIP3    H131739   2.826   4.940   1.436
10598TIP3    H231740   2.852   5.073   1.370
10599TIP3   OH231741   1.645   4.143   3.588
10599TIP3    H131742   1.657   4.080   3.517
10599TIP3    H231743   1.664   4.094   3.668
10600TIP3   OH231744   2.560   7.421   1.180
10600TIP3    H131745   2.593   7.472   1.254
10600TIP3    H231746   2.581   7.330   1.203
10601TIP3   OH231747   0.109   3.993   1.607
10601TIP3    H131748   0.184   4.053   1.606
10601TIP3    H231749   0.054   4.025   1.679
10602TIP3   OH231750   1.680   3.375   4.554
10602TIP3    H131751   1.624   3.387   4.477
10602TIP3    H231752   1.640   3.302   4.601
10603TIP3   OH231753   1.064   3.314   2.208
10603TIP3    H131754   0.984   3.322   2.260
10603TIP3    H231755   1.060   3.388   2.147
10604TIP3   OH231756   3.871   4.721   0.123
10604TIP3    H131757   3.933   4.785   0.157
10604TIP3    H231758   3.785   4.759   0.141
10605TIP3   OH231759   7.953   2.564   5.734
10605TIP3    H131760   8.045   2.585   5.719
10605TIP3    H231761   7.910   2.584   5.651
10606TIP3   OH231762   7.505   6.015   2.387
10606TIP3    H131763   7.442   5.983   2.452
10606TIP3    H231764   7.511   5.944   2.323
10607TIP3   OH231765   4.422   4.369   4.127
10607TIP3    H131766   4.451   4.327   4.209
10607TIP3    H231767   4.419   4.462   4.148
10608TIP3   OH231768   7.346   4.778   4.057
10608TIP3    H131769   7.256   4.775   4.089
10608TIP3    H231770   7.372   4.687   4.049
10609TIP3   OH231771   3.247   1.578   2.549
10609TIP3    H131772   3.264   1.548   2.638
10609TIP3    H231773   3.177   1.521   2.517
10610TIP3   OH231774   6.818   5.134   5.841
10610TIP3    H131775   6.829   5.040   5.855
10610TIP3    H231776   6.724   5.148   5.853
10611TIP3   OH231777   3.759   3.465   0.841
10611TIP3    H131778   3.764   3.504   0.754
10611TIP3    H231779   3.819   3.517   0.895
10612TIP3   OH231780   0.735   5.902   6.126
10612TIP3    H131781   0.801   5.935   6.066
10612TIP3    H231782   0.714   5.815   6.093
10613TIP3   OH231783   4.298   3.538   6.699
10613TIP3    H131784   4.210   3.514   6.672
10613TIP3    H231785   4.354   3.469   6.664
10614TIP3   OH231786   6.551   6.680   0.770
10614TIP3    H131787   6.605   6.616   0.724
10614TIP3    H231788   6.463   6.666   0.736
10615TIP3   OH231789   3.525   1.295   6.232
10615TIP3    H131790   3.450   1.300   6.174
10615TIP3    H231791   3.506   1.220   6.289
10616TIP3   OH231792   6.794   2.148   2.141
10616TIP3    H131793   6.843   2.191   2.211
10616TIP3    H231794   6.816   2.055   2.149
10617TIP3   OH231795   1.014   3.992   5.976
10617TIP3    H131796   1.100   3.960   6.004
10617TIP3    H231797   0.999   3.950   5.891
10618TIP3   OH231798   4.187   0.461   6.750
10618TIP3    H131799   4.167   0.533   6.689
10618TIP3    H231800   4.230   0.395   6.695
10619TIP3   OH231801   2.603   2.549   6.059
10619TIP3    H131802   2.641   2.583   5.978
10619TIP3    H231803   2.679   2.523   6.112
10620TIP3   OH231804   7.374   6.218   0.597
10620TIP3    H131805   7.280   6.203   0.589
10620TIP3    H231806   7.404   6.150   0.657
10621TIP3   OH231807   1.941   0.751   6.577
10621TIP3    H131808   1.948   0.678   6.515
10621TIP3    H231809   2.008   0.732   6.643
10622TIP3   OH231810   4.031   1.269   2.601
10622TIP3    H131811   4.084   1.222   2.537
10622TIP3    H231812   4.093   1.296   2.668
10623TIP3   OH231813   2.705   4.830   3.229
10623TIP3    H131814   2.661   4.855   3.310
10623TIP3    H231815   2.794   4.864   3.239
10624TIP3   OH231816   0.721   6.709   0.148
10624TIP3    H131817   0.689   6.631   0.193
10624TIP3    H231818   0.653   6.775   0.163
10625TIP3   OH231819   8.011   1.646   3.982
10625TIP3    H131820   8.037   1.605   3.899
10625TIP3    H231821   7.932   1.696   3.960
10626TIP3   OH231822   4.117   2.860   0.757
10626TIP3    H131823   4.139   2.950   0.736
10626TIP3    H231824   4.096   2.820   0.673
10627TIP3   OH231825   6.442   6.709   1.775
10627TIP3    H131826   6.390   6.719   1.695
10627TIP3    H231827   6.448   6.614   1.788
10628TIP3   OH231828   6.136   4.770   5.135
10628TIP3    H131829   6.176   4.728   5.059
10628TIP3    H231830   6.042   4.766   5.118
10629TIP3   OH231831   5.375   6.746   5.769
10629TIP3    H131832   5.303   6.730   5.831
10629TIP3    H231833   5.432   6.808   5.814
10630TIP3   OH231834   8.260   3.480   4.903
10630TIP3    H131835   8.325   3.512   4.965
10630TIP3    H231836   8.311   3.437   4.834
10631TIP3   OH231837   1.887   7.708   1.346
10631TIP3    H131838   1.920   7.688   1.434
10631TIP3    H231839   1.808   7.760   1.362
10632TIP3   OH231840   0.364   3.044   5.403
10632TIP3    H131841   0.329   2.963   5.440
10632TIP3    H231842   0.428   3.074   5.468
10633TIP3   OH231843   1.056   5.460   4.233
10633TIP3    H131844   1.095   5.404   4.166
10633TIP3    H231845   0.966   5.429   4.240
10634TIP3   OH231846   0.995   6.970   3.421
10634TIP3    H131847   1.016   6.925   3.339
10634TIP3    H231848   0.971   6.900   3.481
10635TIP3   OH231849   1.102   6.226   0.170
10635TIP3    H131850   1.014   6.241   0.205
10635TIP3    H231851   1.116   6.298   0.109
10636TIP3   OH231852   6.098   4.915   6.426
10636TIP3    H131853   6.110   4.922   6.331
10636TIP3    H231854   6.033   4.982   6.448
10637TIP3   OH231855   4.826   0.666   2.556
10637TIP3    H131856   4.785   0.593   2.510
10637TIP3    H231857   4.837   0.733   2.488
10638TIP3   OH231858   0.544   0.260   5.110
10638TIP3    H131859   0.497   0.219   5.183
10638TIP3    H231860   0.534   0.199   5.037
10639TIP3   OH231861   1.275   3.469   3.179
10639TIP3    H131862   1.296   3.544   3.233
10639TIP3    H231863   1.215   3.503   3.112
10640TIP3   OH231864   3.804   0.386   4.042
10640TIP3    H131865   3.781   0.340   4.122
10640TIP3    H231866   3.781   0.477   4.059
10641TIP3   OH231867   7.428   3.217   1.521
10641TIP3    H131868   7.487   3.276   1.567
10641TIP3    H231869   7.341   3.255   1.531
10642TIP3   OH231870   1.970   6.974   6.064
10642TIP3    H131871   1.968   6.908   5.994
10642TIP3    H231872   2.063   6.994   6.076
10643TIP3   OH231873   6.621   2.351   2.270
10643TIP3    H131874   6.629   2.326   2.178
10643TIP3    H231875   6.703   2.322   2.310
10644TIP3   OH231876   7.098   0.274   0.641
10644TIP3    H131877   7.159   0.246   0.709
10644TIP3    H231878   7.154   0.303   0.569
10645TIP3   OH231879   1.130   3.489   0.008
10645TIP3    H131880   1.093   3.404   0.030
10645TIP3    H231881   1.135   3.536   0.091
10646TIP3   OH231882   4.086   6.329   4.052
10646TIP3    H131883   3.992   6.313   4.056
10646TIP3    H231884   4.120   6.259   3.996
10647TIP3   OH231885   5.769   4.039   1.662
10647TIP3    H131886   5.700   3.973   1.651
10647TIP3    H231887   5.844   3.991   1.697
10648TIP3   OH231888   6.163   2.542   3.666
10648TIP3    H131889   6.127   2.577   3.584
10648TIP3    H231890   6.091   2.492   3.704
10649TIP3   OH231891   1.414   1.462   0.863
10649TIP3    H131892   1.493   1.426   0.822
10649TIP3    H231893   1.361   1.385   0.885
10650TIP3   OH231894   2.027   7.553   0.235
10650TIP3    H131895   2.013   7.470   0.189
10650TIP3    H231896   2.082   7.529   0.310
10651TIP3   OH231897   6.910   3.570   2.544
10651TIP3    H131898   6.931   3.484   2.580
10651TIP3    H231899   6.919   3.560   2.449
10652TIP3   OH231900   1.460   5.231   5.500
10652TIP3    H131901   1.512   5.311   5.496
10652TIP3    H231902   1.513   5.166   5.454
10653TIP3   OH231903   7.563   4.704   0.999
10653TIP3    H131904   7.658   4.693   0.990
10653TIP3    H231905   7.532   4.714   0.909
10654TIP3   OH231906   3.812   3.382   6.760
10654TIP3    H131907   3.717   3.379   6.745
10654TIP3    H231908   3.836   3.292   6.782
10655TIP3   OH231909   2.029   4.668   6.403
10655TIP3    H131910   1.956   4.724   6.429
10655TIP3    H231911   2.081   4.722   6.343
10656TIP3   OH231912   7.780   0.136   2.052
10656TIP3    H131913   7.783   0.042   2.066
10656TIP3    H231914   7.872   0.163   2.049
10657TIP3   OH231915   1.143   0.375   2.228
10657TIP3    H131916   1.163   0.355   2.320
10657TIP3    H231917   1.056   0.336   2.214
10658TIP3   OH231918   1.455   5.380   4.963
10658TIP3    H131919   1.380   5.368   5.021
10658TIP3    H231920   1.429   5.339   4.880
10659TIP3   OH231921   1.199   4.161   3.503
10659TIP3    H131922   1.237   4.073   3.503
10659TIP3    H231923   1.274   4.220   3.501
10660TIP3   OH231924   4.246   6.531   2.172
10660TIP3    H131925   4.245   6.600   2.106
10660TIP3    H231926   4.322   6.477   2.149
10661TIP3   OH231927   2.882   0.610   6.573
10661TIP3    H131928   2.937   0.626   6.649
10661TIP3    H231929   2.793   0.622   6.605
10662TIP3   OH231930   4.639   1.821   0.573
10662TIP3    H131931   4.553   1.826   0.614
10662TIP3    H231932   4.653   1.908   0.535
10663TIP3   OH231933   1.097   0.544   2.022
10663TIP3    H131934   1.083   0.495   2.103
10663TIP3    H231935   1.066   0.486   1.953
10664TIP3   OH231936   2.150   5.108   4.934
10664TIP3    H131937   2.135   5.198   4.906
10664TIP3    H231938   2.085   5.056   4.886
10665TIP3   OH231939   5.763   6.553   3.324
10665TIP3    H131940   5.851   6.589   3.310
10665TIP3    H231941   5.711   6.589   3.252
10666TIP3   OH231942   6.942   1.922   0.705
10666TIP3    H131943   6.930   1.969   0.788
10666TIP3    H231944   7.015   1.862   0.722
10667TIP3   OH231945   4.082   2.322   1.946
10667TIP3    H131946   4.000   2.278   1.921
10667TIP3    H231947   4.121   2.265   2.012
10668TIP3   OH231948   5.249   3.780   2.871
10668TIP3    H131949   5.239   3.797   2.778
10668TIP3    H231950   5.249   3.685   2.878
10669TIP3   OH231951   5.535   6.086   6.226
10669TIP3    H131952   5.478   6.097   6.302
10669TIP3    H231953   5.622   6.072   6.262
10670TIP3   OH231954   2.565   5.471   2.675
10670TIP3    H131955   2.496   5.502   2.617
10670TIP3    H231956   2.522   5.457   2.759
10671TIP3   OH231957   8.012   7.563   0.267
10671TIP3    H131958   8.056   7.519   0.340
10671TIP3    H231959   8.055   7.528   0.189
10672TIP3   OH231960   3.777   7.513   0.450
10672TIP3    H131961   3.844   7.528   0.517
10672TIP3    H231962   3.747   7.424   0.464
10673TIP3   OH231963   7.503   4.553   4.003
10673TIP3    H131964   7.563   4.627   4.012
10673TIP3    H231965   7.556   4.476   4.024
10674TIP3   OH231966   6.386   1.854   2.877
10674TIP3    H131967   6.446   1.784   2.854
10674TIP3    H231968   6.427   1.934   2.843
10675TIP3   OH231969   0.643   6.493   5.566
10675TIP3    H131970   0.698   6.567   5.592
10675TIP3    H231971   0.620   6.512   5.475
10676TIP3   OH231972   5.191   2.359   3.060
10676TIP3    H131973   5.139   2.341   2.981
10676TIP3    H231974   5.127   2.359   3.131
10677TIP3   OH231975   1.140   0.357   0.271
10677TIP3    H131976   1.055   0.367   0.315
10677TIP3    H231977   1.177   0.445   0.271
10678TIP3   OH231978   5.157   1.159   2.333
10678TIP3    H131979   5.124   1.195   2.251
10678TIP3    H231980   5.123   1.218   2.400
10679TIP3   OH231981   1.012   0.146   6.498
10679TIP3    H131982   1.005   0.153   6.594
10679TIP3    H231983   0.953   0.074   6.475
10680TIP3   OH231984   2.370   5.720   6.004
10680TIP3    H131985   2.377   5.764   6.089
10680TIP3    H231986   2.415   5.778   5.943
10681TIP3   OH231987   7.179   7.315   6.556
10681TIP3    H131988   7.203   7.392   6.608
10681TIP3    H231989   7.160   7.350   6.469
10682TIP3   OH231990   3.385   7.380   4.142
10682TIP3    H131991   3.315   7.419   4.089
10682TIP3    H231992   3.362   7.402   4.232
10683TIP3   OH231993   3.710   5.699   2.688
10683TIP3    H131994   3.669   5.616   2.662
10683TIP3    H231995   3.746   5.681   2.775
10684TIP3   OH231996   7.701   6.089   0.613
10684TIP3    H131997   7.642   6.048   0.676
10684TIP3    H231998   7.714   6.024   0.545
10685TIP3   OH231999   1.323   0.449   1.657
10685TIP3    H132000   1.309   0.544   1.650
10685TIP3    H232001   1.416   0.441   1.680
10686TIP3   OH232002   5.839   3.163   2.042
10686TIP3    H132003   5.766   3.183   1.983
10686TIP3    H232004   5.848   3.068   2.039
10687TIP3   OH232005   7.821   3.027   0.624
10687TIP3    H132006   7.863   2.955   0.576
10687TIP3    H232007   7.893   3.070   0.670
10688TIP3   OH232008   6.272   0.025   3.950
10688TIP3    H132009   6.332  -0.023   4.006
10688TIP3    H232010   6.253  -0.035   3.878
10689TIP3   OH232011   5.364   7.767   0.462
10689TIP3    H132012   5.338   7.731   0.377
10689TIP3    H232013   5.299   7.834   0.480
10690TIP3   OH232014   7.833   7.826   4.232
10690TIP3    H132015   7.758   7.851   4.179
10690TIP3    H232016   7.899   7.797   4.169
10691TIP3   OH232017   0.566   7.682   6.837
10691TIP3    H132018   0.529   7.708   6.752
10691TIP3    H232019   0.499   7.706   6.901
10692TIP3   OH232020   4.256   5.294   2.781
10692TIP3    H132021   4.309   5.324   2.855
10692TIP3    H232022   4.205   5.221   2.816
10693TIP3   OH232023   3.668   2.022   0.811
10693TIP3    H132024   3.700   1.946   0.762
10693TIP3    H232025   3.644   2.086   0.744
10694TIP3   OH232026   2.339   4.424   1.815
10694TIP3    H132027   2.421   4.378   1.796
10694TIP3    H232028   2.271   4.365   1.785
10695TIP3   OH232029   5.609   0.699   3.717
10695TIP3    H132030   5.564   0.773   3.757
10695TIP3    H232031   5.577   0.623   3.766
10696TIP3   OH232032   5.613   3.260   1.443
10696TIP3    H132033   5.574   3.182   1.482
10696TIP3    H232034   5.539   3.317   1.424
10697TIP3   OH232035   0.111   7.351   3.107
10697TIP3    H132036   0.186   7.293   3.120
10697TIP3    H232037   0.034   7.295   3.124
10698TIP3   OH232038   1.947   6.252   2.439
10698TIP3    H132039   2.015   6.193   2.405
10698TIP3    H232040   1.994   6.313   2.496
10699TIP3   OH232041   7.362   6.834   4.541
10699TIP3    H132042   7.396   6.865   4.457
10699TIP3    H232043   7.278   6.878   4.551
10700TIP3   OH232044   4.374   0.312   0.542
10700TIP3    H132045   4.309   0.269   0.487
10700TIP3    H232046   4.438   0.244   0.563
10701TIP3   OH232047   2.803   1.996   5.204
10701TIP3    H132048   2.843   2.057   5.142
10701TIP3    H232049   2.709   2.012   5.196
10702TIP3   OH232050   1.074   5.991   0.041
10702TIP3    H132051   1.078   6.071   0.093
10702TIP3    H232052   1.019   6.014  -0.034
10703TIP3   OH232053   3.818   6.921   2.536
10703TIP3    H132054   3.802   6.851   2.600
10703TIP3    H232055   3.909   6.946   2.549
10704TIP3   OH232056   6.978   4.799   0.546
10704TIP3    H132057   6.892   4.777   0.510
10704TIP3    H232058   6.968   4.789   0.640
10705TIP3   OH232059   3.682   3.731   2.075
10705TIP3    H132060   3.703   3.763   1.987
10705TIP3    H232061   3.691   3.808   2.131
10706TIP3   OH232062   5.585   2.878   2.648
10706TIP3    H132063   5.543   2.818   2.709
10706TIP3    H232064   5.525   2.953   2.642
10707TIP3   OH232065   4.159   2.719   3.371
10707TIP3    H132066   4.242   2.694   3.329
10707TIP3    H232067   4.096   2.722   3.299
10708TIP3   OH232068   7.344   7.371   6.277
10708TIP3    H132069   7.390   7.331   6.351
10708TIP3    H232070   7.276   7.425   6.318
10709TIP3   OH232071   7.831   5.699   2.528
10709TIP3    H132072   7.759   5.677   2.469
10709TIP3    H232073   7.868   5.780   2.493
10710TIP3   OH232074   7.985   4.633   4.769
10710TIP3    H132075   8.038   4.608   4.693
10710TIP3    H232076   7.906   4.672   4.731
10711TIP3   OH232077   3.616   3.263   1.196
10711TIP3    H132078   3.681   3.308   1.142
10711TIP3    H232079   3.595   3.325   1.266
10712TIP3   OH232080   4.301   6.958   2.460
10712TIP3    H132081   4.313   6.866   2.436
10712TIP3    H232082   4.351   7.007   2.394
10713TIP3   OH232083   8.142   3.814   0.497
10713TIP3    H132084   8.092   3.894   0.510
10713TIP3    H232085   8.085   3.757   0.447
10714TIP3   OH232086   7.096   2.466   4.418
10714TIP3    H132087   7.090   2.393   4.356
10714TIP3    H232088   7.183   2.503   4.403
10715TIP3   OH232089   2.157   3.334   2.192
10715TIP3    H132090   2.089   3.330   2.126
10715TIP3    H232091   2.237   3.356   2.143
10716TIP3   OH232092   7.631   7.235   6.773
10716TIP3    H132093   7.623   7.330   6.764
10716TIP3    H232094   7.543   7.206   6.797
10717TIP3   OH232095   5.109   3.989   5.993
10717TIP3    H132096   5.177   3.923   5.996
10717TIP3    H232097   5.151   4.066   5.955
10718TIP3   OH232098   2.707   1.434   1.275
10718TIP3    H132099   2.698   1.454   1.368
10718TIP3    H232100   2.696   1.339   1.269
10719TIP3   OH232101   6.077   4.622   1.461
10719TIP3    H132102   6.086   4.716   1.446
10719TIP3    H232103   6.013   4.594   1.395
10720TIP3   OH232104   1.899   4.025   1.581
10720TIP3    H132105   1.960   4.035   1.654
10720TIP3    H232106   1.941   3.961   1.523
10721TIP3   OH232107   4.374   6.628   6.650
10721TIP3    H132108   4.460   6.603   6.683
10721TIP3    H232109   4.341   6.690   6.714
10722TIP3   OH232110   0.054   6.170   4.085
10722TIP3    H132111  -0.029   6.178   4.039
10722TIP3    H232112   0.089   6.260   4.086
10723TIP3   OH232113   0.609   4.527   2.579
10723TIP3    H132114   0.633   4.567   2.496
10723TIP3    H232115   0.693   4.497   2.616
10724TIP3   OH232116   6.177   2.700   4.268
10724TIP3    H132117   6.234   2.632   4.303
10724TIP3    H232118   6.203   2.780   4.313
10725TIP3   OH232119   5.108   1.557   6.650
10725TIP3    H132120   5.070   1.628   6.598
10725TIP3    H232121   5.201   1.558   6.628
10726TIP3   OH232122   7.142   0.264   1.651
10726TIP3    H132123   7.237   0.261   1.637
10726TIP3    H232124   7.106   0.270   1.562
10727TIP3   OH232125   1.049   0.220   5.627
10727TIP3    H132126   1.116   0.288   5.628
10727TIP3    H232127   1.071   0.165   5.702
10728TIP3   OH232128   4.211   4.822   5.705
10728TIP3    H132129   4.128   4.837   5.749
10728TIP3    H232130   4.197   4.743   5.653
10729TIP3   OH232131   2.970   0.699   0.953
10729TIP3    H132132   3.045   0.652   0.988
10729TIP3    H232133   2.980   0.789   0.986
10730TIP3   OH232134   5.231   4.623   4.434
10730TIP3    H132135   5.302   4.633   4.497
10730TIP3    H232136   5.256   4.679   4.360
10731TIP3   OH232137   2.467   6.819   4.889
10731TIP3    H132138   2.381   6.839   4.926
10731TIP3    H232139   2.450   6.749   4.826
10732TIP3   OH232140   1.534   4.023   5.398
10732TIP3    H132141   1.507   4.113   5.418
10732TIP3    H232142   1.542   4.021   5.303
10733TIP3   OH232143   1.269   5.563   3.425
10733TIP3    H132144   1.270   5.652   3.460
10733TIP3    H232145   1.177   5.544   3.409
10734TIP3   OH232146   5.608   4.299   4.636
10734TIP3    H132147   5.590   4.221   4.690
10734TIP3    H232148   5.694   4.329   4.666
10735TIP3   OH232149   4.248   7.162   3.899
10735TIP3    H132150   4.162   7.145   3.860
10735TIP3    H232151   4.300   7.196   3.826
10736TIP3   OH232152   1.214   7.590   5.303
10736TIP3    H132153   1.186   7.499   5.305
10736TIP3    H232154   1.214   7.618   5.394
10737TIP3   OH232155   8.132   4.153   4.769
10737TIP3    H132156   8.108   4.067   4.804
10737TIP3    H232157   8.226   4.159   4.783
10738TIP3   OH232158   4.904   6.942   2.511
10738TIP3    H132159   4.987   6.976   2.479
10738TIP3    H232160   4.843   6.953   2.438
10739TIP3   OH232161   6.207   3.045   2.173
10739TIP3    H132162   6.274   3.104   2.210
10739TIP3    H232163   6.186   2.986   2.245
10740TIP3   OH232164   5.729   5.122   1.808
10740TIP3    H132165   5.749   5.098   1.718
10740TIP3    H232166   5.741   5.041   1.858
10741TIP3   OH232167   2.589   2.412   3.835
10741TIP3    H132168   2.526   2.378   3.899
10741TIP3    H232169   2.665   2.355   3.844
10742TIP3   OH232170   2.521   4.869   3.484
10742TIP3    H132171   2.571   4.930   3.539
10742TIP3    H232172   2.506   4.793   3.541
10743TIP3   OH232173   0.804   3.508   0.453
10743TIP3    H132174   0.779   3.564   0.380
10743TIP3    H232175   0.838   3.567   0.519
10744TIP3   OH232176   2.565   5.257   5.403
10744TIP3    H132177   2.550   5.351   5.392
10744TIP3    H232178   2.528   5.237   5.489
10745TIP3   OH232179   2.439   5.482   6.512
10745TIP3    H132180   2.345   5.496   6.514
10745TIP3    H232181   2.459   5.439   6.595
10746TIP3   OH232182   4.570   7.553   3.711
10746TIP3    H132183   4.631   7.592   3.649
10746TIP3    H232184   4.623   7.532   3.788
10747TIP3   OH232185   4.307   0.362   5.270
10747TIP3    H132186   4.251   0.394   5.200
10747TIP3    H232187   4.297   0.266   5.267
10748TIP3   OH232188   7.559   5.437   2.133
10748TIP3    H132189   7.629   5.478   2.082
10748TIP3    H232190   7.573   5.343   2.122
10749TIP3   OH232191   4.239   1.507   3.339
10749TIP3    H132192   4.265   1.479   3.426
10749TIP3    H232193   4.164   1.565   3.354
10750TIP3   OH232194   7.906   5.482   2.710
10750TIP3    H132195   7.981   5.465   2.767
10750TIP3    H232196   7.928   5.562   2.663
10751TIP3   OH232197   0.535   3.781   0.854
10751TIP3    H132198   0.521   3.796   0.948
10751TIP3    H232199   0.458   3.817   0.812
10752TIP3   OH232200   6.376   6.744   1.502
10752TIP3    H132201   6.344   6.779   1.419
10752TIP3    H232202   6.430   6.669   1.478
10753TIP3   OH232203   7.207   3.681   4.284
10753TIP3    H132204   7.227   3.589   4.298
10753TIP3    H232205   7.242   3.725   4.362
10754TIP3   OH232206   2.275   5.236   4.446
10754TIP3    H132207   2.354   5.210   4.492
10754TIP3    H232208   2.266   5.330   4.464
10755TIP3   OH232209   6.755   4.977   0.626
10755TIP3    H132210   6.795   5.011   0.546
10755TIP3    H232211   6.824   4.984   0.692
10756TIP3   OH232212   7.053   3.836   4.099
10756TIP3    H132213   7.082   3.768   4.160
10756TIP3    H232214   7.082   3.918   4.138
10757TIP3   OH232215   5.556   0.214   6.375
10757TIP3    H132216   5.554   0.149   6.446
10757TIP3    H232217   5.498   0.179   6.308
10758TIP3   OH232218   1.335   1.502   6.250
10758TIP3    H132219   1.365   1.593   6.252
10758TIP3    H232220   1.411   1.453   6.221
10759TIP3   OH232221   3.178   4.639  -0.038
10759TIP3    H132222   3.272   4.644  -0.021
10759TIP3    H232223   3.143   4.720  -0.002
10760TIP3   OH232224   3.295   6.315   2.456
10760TIP3    H132225   3.204   6.299   2.431
10760TIP3    H232226   3.347   6.278   2.384
10761TIP3   OH232227   1.305   0.127   2.296
10761TIP3    H132228   1.238   0.192   2.274
10761TIP3    H232229   1.370   0.176   2.346
10762TIP3   OH232230   7.426   4.375   2.481
10762TIP3    H132231   7.423   4.468   2.460
10762TIP3    H232232   7.512   4.346   2.452
10763TIP3   OH232233   2.531   6.286   6.720
10763TIP3    H132234   2.598   6.232   6.763
10763TIP3    H232235   2.550   6.278   6.627
10764TIP3   OH232236   1.605   5.884   3.951
10764TIP3    H132237   1.629   5.969   3.989
10764TIP3    H232238   1.683   5.857   3.903
10765TIP3   OH232239   0.140   7.186   4.743
10765TIP3    H132240   0.067   7.165   4.684
10765TIP3    H232241   0.146   7.111   4.801
10766TIP3   OH232242   7.870   1.013   0.245
10766TIP3    H132243   7.779   1.035   0.264
10766TIP3    H232244   7.865   0.927   0.203
10767TIP3   OH232245   3.757   4.549   4.250
10767TIP3    H132246   3.672   4.573   4.214
10767TIP3    H232247   3.765   4.601   4.330
10768TIP3   OH232248   7.154   0.774   2.750
10768TIP3    H132249   7.214   0.723   2.696
10768TIP3    H232250   7.178   0.751   2.840
10769TIP3   OH232251   6.545   4.785   3.618
10769TIP3    H132252   6.568   4.694   3.639
10769TIP3    H232253   6.450   4.789   3.631
10770TIP3   OH232254   6.991   5.315   5.717
10770TIP3    H132255   6.926   5.259   5.758
10770TIP3    H232256   7.075   5.283   5.749
10771TIP3   OH232257   7.413   4.904   5.776
10771TIP3    H132258   7.381   4.866   5.694
10771TIP3    H232259   7.498   4.861   5.790
10772TIP3   OH232260   5.729   5.011   3.811
10772TIP3    H132261   5.730   4.951   3.885
10772TIP3    H232262   5.815   5.000   3.770
10773TIP3   OH232263   5.174   1.784   2.182
10773TIP3    H132264   5.239   1.826   2.239
10773TIP3    H232265   5.226   1.742   2.113
10774TIP3   OH232266   3.575   0.544   5.907
10774TIP3    H132267   3.669   0.537   5.924
10774TIP3    H232268   3.534   0.550   5.993
10775TIP3   OH232269   7.702   0.346   0.470
10775TIP3    H132270   7.712   0.401   0.548
10775TIP3    H232271   7.718   0.257   0.503
10776TIP3   OH232272   7.754   2.448   0.344
10776TIP3    H132273   7.763   2.407   0.258
10776TIP3    H232274   7.671   2.495   0.339
10777TIP3   OH232275   2.681   2.700   5.820
10777TIP3    H132276   2.756   2.671   5.767
10777TIP3    H232277   2.707   2.786   5.851
10778TIP3   OH232278   2.522   3.545   1.520
10778TIP3    H132279   2.474   3.475   1.475
10778TIP3    H232280   2.614   3.517   1.516
10779TIP3   OH232281   3.985   7.611   2.092
10779TIP3    H132282   4.065   7.646   2.051
10779TIP3    H232283   3.970   7.668   2.167
10780TIP3   OH232284   4.304   0.181   4.253
10780TIP3    H132285   4.285   0.251   4.190
10780TIP3    H232286   4.352   0.225   4.324
10781TIP3   OH232287   0.483   0.975   5.488
10781TIP3    H132288   0.488   0.965   5.393
10781TIP3    H232289   0.394   1.009   5.503
10782TIP3   OH232290   5.578   7.388   6.685
10782TIP3    H132291   5.508   7.453   6.689
10782TIP3    H232292   5.654   7.437   6.654
10783TIP3   OH232293   7.671   3.484   1.211
10783TIP3    H132294   7.621   3.504   1.291
10783TIP3    H232295   7.665   3.565   1.160
10784TIP3   OH232296   2.343   1.248   5.062
10784TIP3    H132297   2.274   1.260   4.996
10784TIP3    H232298   2.410   1.311   5.038
10785TIP3   OH232299   4.628   6.776   4.365
10785TIP3    H132300   4.670   6.791   4.450
10785TIP3    H232301   4.540   6.745   4.386
10786TIP3   OH232302   3.732   2.677   3.361
10786TIP3    H132303   3.645   2.656   3.328
10786TIP3    H232304   3.786   2.602   3.338
10787TIP3   OH232305   7.999  -0.031   3.518
10787TIP3    H132306   7.935  -0.072   3.460
10787TIP3    H232307   7.961   0.054   3.540
10788TIP3   OH232308   8.084   0.362   3.567
10788TIP3    H132309   8.131   0.335   3.646
10788TIP3    H232310   8.045   0.446   3.590
10789TIP3   OH232311   4.444   0.578   0.369
10789TIP3    H132312   4.516   0.633   0.399
10789TIP3    H232313   4.475   0.488   0.382
10790TIP3   OH232314   1.554   1.013   3.119
10790TIP3    H132315   1.641   1.032   3.084
10790TIP3    H232316   1.530   1.091   3.169
10791TIP3   OH232317   4.264   5.193   2.211
10791TIP3    H132318   4.222   5.135   2.274
10791TIP3    H232319   4.310   5.134   2.150
10792TIP3   OH232320   0.469   2.454   0.557
10792TIP3    H132321   0.447   2.389   0.490
10792TIP3    H232322   0.406   2.438   0.627
10793TIP3   OH232323   0.258   5.093   4.107
10793TIP3    H132324   0.345   5.058   4.128
10793TIP3    H232325   0.240   5.154   4.179
10794TIP3   OH232326   6.846   5.827   1.606
10794TIP3    H132327   6.914   5.791   1.549
10794TIP3    H232328   6.791   5.752   1.628
10795TIP3   OH232329   4.178   6.272   6.741
10795TIP3    H132330   4.184   6.291   6.647
10795TIP3    H232331   4.235   6.195   6.753
10796TIP3   OH232332   5.213   3.385   0.909
10796TIP3    H132333   5.254   3.311   0.864
10796TIP3    H232334   5.246   3.381   0.999
10797TIP3   OH232335   0.448   2.494   5.282
10797TIP3    H132336   0.479   2.504   5.372
10797TIP3    H232337   0.501   2.554   5.231
10798TIP3   OH232338   2.629   3.487   5.413
10798TIP3    H132339   2.549   3.539   5.405
10798TIP3    H232340   2.602   3.410   5.463
10799TIP3   OH232341   5.800   6.813   1.752
10799TIP3    H132342   5.799   6.717   1.758
10799TIP3    H232343   5.886   6.833   1.715
10800TIP3   OH232344   0.955   7.351   6.435
10800TIP3    H132345   0.903   7.423   6.402
10800TIP3    H232346   0.951   7.359   6.530
10801TIP3   OH232347   5.336   4.774   3.902
10801TIP3    H132348   5.388   4.729   3.836
10801TIP3    H232349   5.373   4.862   3.906
10802TIP3   OH232350   6.780   1.391   0.982
10802TIP3    H132351   6.712   1.456   0.962
10802TIP3    H232352   6.846   1.405   0.914
10803TIP3   OH232353   6.797   0.183   2.725
10803TIP3    H132354   6.729   0.195   2.658
10803TIP3    H232355   6.763   0.112   2.780
10804TIP3   OH232356   2.976   2.925   6.200
10804TIP3    H132357   2.920   2.916   6.278
10804TIP3    H232358   2.918   2.905   6.127
10805TIP3   OH232359   6.590   0.409   0.569
10805TIP3    H132360   6.685   0.394   0.566
10805TIP3    H232361   6.563   0.408   0.477
10806TIP3   OH232362   0.569   4.692   1.730
10806TIP3    H132363   0.602   4.737   1.807
10806TIP3    H232364   0.475   4.713   1.728
10807TIP3   OH232365   0.293   5.781   5.648
10807TIP3    H132366   0.347   5.773   5.727
10807TIP3    H232367   0.348   5.830   5.587
10808TIP3   OH232368   6.547   0.955   1.571
10808TIP3    H132369   6.519   1.032   1.522
10808TIP3    H232370   6.634   0.935   1.538
10809TIP3   OH232371   4.284   0.493   2.377
10809TIP3    H132372   4.195   0.530   2.378
10809TIP3    H232373   4.270   0.398   2.378
10810TIP3   OH232374   5.852   0.394   0.549
10810TIP3    H132375   5.762   0.363   0.536
10810TIP3    H232376   5.897   0.371   0.467
10811TIP3   OH232377   5.439   6.874   1.211
10811TIP3    H132378   5.513   6.867   1.271
10811TIP3    H232379   5.479   6.880   1.124
10812TIP3   OH232380   8.003   4.169   2.282
10812TIP3    H132381   8.021   4.262   2.292
10812TIP3    H232382   7.924   4.165   2.229
10813TIP3   OH232383   1.281   6.459   5.080
10813TIP3    H132384   1.240   6.430   4.999
10813TIP3    H232385   1.322   6.542   5.058
10814TIP3   OH232386   1.779   1.478   3.359
10814TIP3    H132387   1.729   1.405   3.395
10814TIP3    H232388   1.727   1.555   3.380
10815TIP3   OH232389   0.240   5.239   6.478
10815TIP3    H132390   0.308   5.306   6.486
10815TIP3    H232391   0.158   5.286   6.493
10816TIP3   OH232392   4.275   1.998   2.429
10816TIP3    H132393   4.251   1.943   2.504
10816TIP3    H232394   4.368   2.017   2.443
10817TIP3   OH232395   3.686   2.591   5.979
10817TIP3    H132396   3.712   2.667   5.928
10817TIP3    H232397   3.590   2.590   5.974
10818TIP3   OH232398   6.944   0.111   4.619
10818TIP3    H132399   6.908   0.032   4.659
10818TIP3    H232400   7.033   0.117   4.654
10819TIP3   OH232401   8.330   2.165   3.683
10819TIP3    H132402   8.373   2.242   3.646
10819TIP3    H232403   8.278   2.129   3.610
10820TIP3   OH232404   1.133   6.989   6.724
10820TIP3    H132405   1.146   7.033   6.808
10820TIP3    H232406   1.050   6.942   6.734
10821TIP3   OH232407   4.053   3.461   1.329
10821TIP3    H132408   4.063   3.456   1.424
10821TIP3    H232409   4.008   3.544   1.314
10822TIP3   OH232410   7.484   1.656   0.041
10822TIP3    H132411   7.497   1.698   0.127
10822TIP3    H232412   7.550   1.697  -0.015
10823TIP3   OH232413   5.410   2.839   2.355
10823TIP3    H132414   5.454   2.924   2.356
10823TIP3    H232415   5.324   2.856   2.316
10824TIP3   OH232416   7.353   2.495   4.248
10824TIP3    H132417   7.349   2.583   4.210
10824TIP3    H232418   7.446   2.475   4.254
10825TIP3   OH232419   5.928   4.560   0.867
10825TIP3    H132420   5.967   4.646   0.849
10825TIP3    H232421   5.894   4.531   0.783
10826TIP3   OH232422   7.646   0.204   6.495
10826TIP3    H132423   7.600   0.158   6.424
10826TIP3    H232424   7.618   0.160   6.575
10827TIP3   OH232425   1.062   0.512   0.583
10827TIP3    H132426   1.047   0.605   0.567
10827TIP3    H232427   1.121   0.509   0.658
10828TIP3   OH232428   4.465   6.351   6.077
10828TIP3    H132429   4.418   6.327   6.157
10828TIP3    H232430   4.482   6.445   6.087
10829TIP3   OH232431   6.250   5.316   2.976
10829TIP3    H132432   6.253   5.247   2.910
10829TIP3    H232433   6.327   5.301   3.031
10830TIP3   OH232434   2.640   6.924  -0.022
10830TIP3    H132435   2.724   6.896  -0.060
10830TIP3    H232436   2.660   7.005   0.024
10831TIP3   OH232437   6.922   6.898   3.525
10831TIP3    H132438   6.946   6.805   3.519
10831TIP3    H232439   6.827   6.897   3.534
10832TIP3   OH232440   0.881   3.240   4.920
10832TIP3    H132441   0.840   3.183   4.985
10832TIP3    H232442   0.891   3.324   4.965
10833TIP3   OH232443   6.561   2.678   6.525
10833TIP3    H132444   6.479   2.713   6.559
10833TIP3    H232445   6.543   2.661   6.432
10834TIP3   OH232446   7.849   0.358   3.252
10834TIP3    H132447   7.779   0.314   3.298
10834TIP3    H232448   7.929   0.318   3.285
10835TIP3   OH232449   2.233   7.332   3.400
10835TIP3    H132450   2.260   7.348   3.491
10835TIP3    H232451   2.145   7.370   3.394
10836TIP3   OH232452   1.722   4.713   3.661
10836TIP3    H132453   1.742   4.737   3.570
10836TIP3    H232454   1.802   4.734   3.709
10837TIP3   OH232455   8.020   0.995   0.975
10837TIP3    H132456   7.951   0.951   0.924
10837TIP3    H232457   8.066   0.923   1.018
10838TIP3   OH232458   2.228   6.826   2.036
10838TIP3    H132459   2.236   6.731   2.046
10838TIP3    H232460   2.316   6.859   2.057
10839TIP3   OH232461   2.679   7.351   5.438
10839TIP3    H132462   2.697   7.265   5.400
10839TIP3    H232463   2.583   7.357   5.438
10840TIP3   OH232464   2.896   0.475   5.213
10840TIP3    H132465   2.911   0.509   5.125
10840TIP3    H232466   2.825   0.413   5.203
10841TIP3   OH232467   0.603   1.879   6.432
10841TIP3    H132468   0.558   1.943   6.487
10841TIP3    H232469   0.679   1.853   6.483
10842TIP3   OH232470   4.205   7.781   6.757
10842TIP3    H132471   4.175   7.813   6.672
10842TIP3    H232472   4.300   7.792   6.755
10843TIP3   OH232473   5.362   3.033   2.614
10843TIP3    H132474   5.335   3.085   2.689
10843TIP3    H232475   5.284   2.980   2.593
10844TIP3   OH232476   4.576   0.140   3.870
10844TIP3    H132477   4.623   0.223   3.868
10844TIP3    H232478   4.583   0.110   3.960
10845TIP3   OH232479   1.058   3.141   0.739
10845TIP3    H132480   0.963   3.139   0.752
10845TIP3    H232481   1.091   3.067   0.790
10846TIP3   OH232482   1.508   7.460   0.301
10846TIP3    H132483   1.467   7.546   0.315
10846TIP3    H232484   1.534   7.461   0.209
10847TIP3   OH232485   5.478   2.103   4.001
10847TIP3    H132486   5.419   2.124   4.073
10847TIP3    H232487   5.427   2.123   3.922
10848TIP3   OH232488   2.093   2.101   6.633
10848TIP3    H132489   2.143   2.181   6.615
10848TIP3    H232490   2.004   2.121   6.603
10849TIP3   OH232491   2.146   4.820   3.718
10849TIP3    H132492   2.080   4.788   3.780
10849TIP3    H232493   2.119   4.909   3.697
10850TIP3   OH232494   5.950   7.776   0.104
10850TIP3    H132495   6.012   7.821   0.163
10850TIP3    H232496   5.915   7.705   0.157
10851TIP3   OH232497   5.108   6.176   5.202
10851TIP3    H132498   5.087   6.101   5.147
10851TIP3    H232499   5.056   6.248   5.164
10852TIP3   OH232500   1.088   0.341   6.339
10852TIP3    H132501   1.081   0.260   6.389
10852TIP3    H232502   1.019   0.334   6.273
10853TIP3   OH232503   3.126   5.595   5.364
10853TIP3    H132504   3.140   5.551   5.448
10853TIP3    H232505   3.078   5.674   5.387
10854TIP3   OH232506   0.919   5.102   5.757
10854TIP3    H132507   0.959   5.156   5.826
10854TIP3    H232508   0.981   5.108   5.684
10855TIP3   OH232509   0.845   4.009   6.589
10855TIP3    H132510   0.898   3.963   6.655
10855TIP3    H232511   0.820   3.940   6.527
10856TIP3   OH232512   3.962   7.362   4.441
10856TIP3    H132513   3.924   7.306   4.373
10856TIP3    H232514   3.888   7.410   4.478
10857TIP3   OH232515   7.455   3.667   5.300
10857TIP3    H132516   7.397   3.740   5.322
10857TIP3    H232517   7.535   3.709   5.267
10858TIP3   OH232518   1.695   5.063   5.431
10858TIP3    H132519   1.646   4.986   5.403
10858TIP3    H232520   1.773   5.028   5.473
10859TIP3   OH232521   0.697   3.525   1.829
10859TIP3    H132522   0.713   3.468   1.904
10859TIP3    H232523   0.604   3.513   1.810
10860TIP3   OH232524   1.645   3.777   4.096
10860TIP3    H132525   1.691   3.860   4.083
10860TIP3    H232526   1.706   3.724   4.148
10861TIP3   OH232527   6.388   5.822   3.832
10861TIP3    H132528   6.407   5.897   3.888
10861TIP3    H232529   6.405   5.854   3.743
10862TIP3   OH232530   5.966   2.386   2.035
10862TIP3    H132531   6.024   2.312   2.050
10862TIP3    H232532   5.937   2.376   1.944
10863TIP3   OH232533   0.482   7.399   5.885
10863TIP3    H132534   0.543   7.358   5.824
10863TIP3    H232535   0.537   7.431   5.956
10864TIP3   OH232536   5.635   4.989   4.079
10864TIP3    H132537   5.591   5.072   4.097
10864TIP3    H232538   5.728   5.007   4.097
10865TIP3   OH232539   7.020   6.871   4.786
10865TIP3    H132540   7.041   6.934   4.717
10865TIP3    H232541   7.027   6.785   4.743
10866TIP3   OH232542   7.406   0.908   5.127
10866TIP3    H132543   7.459   0.829   5.138
10866TIP3    H232544   7.464   0.971   5.083
10867TIP3   OH232545   1.405   2.624   3.549
10867TIP3    H132546   1.345   2.676   3.603
10867TIP3    H232547   1.470   2.686   3.517
10868TIP3   OH232548   1.222   4.369   2.300
10868TIP3    H132549   1.274   4.315   2.241
10868TIP3    H232550   1.175   4.429   2.243
10869TIP3   OH232551   3.381   1.859   5.401
10869TIP3    H132552   3.438   1.900   5.465
10869TIP3    H232553   3.380   1.920   5.327
10870TIP3   OH232554   2.994   6.712   5.440
10870TIP3    H132555   2.902   6.698   5.459
10870TIP3    H232556   2.997   6.799   5.400
10871TIP3   OH232557   3.313   4.292   1.358
10871TIP3    H132558   3.366   4.338   1.424
10871TIP3    H232559   3.377   4.267   1.290
10872TIP3   OH232560   7.125   7.501   1.317
10872TIP3    H132561   7.036   7.471   1.299
10872TIP3    H232562   7.155   7.536   1.233
10873TIP3   OH232563   6.609   4.336   3.148
10873TIP3    H132564   6.631   4.268   3.212
10873TIP3    H232565   6.515   4.351   3.159
10874TIP3   OH232566   4.901   0.067   4.615
10874TIP3    H132567   4.968   0.102   4.674
10874TIP3    H232568   4.945   0.056   4.531
10875TIP3   OH232569   3.213   4.038   0.401
10875TIP3    H132570   3.175   4.109   0.350
10875TIP3    H232571   3.250   3.978   0.336
10876TIP3   OH232572   4.593   3.781   2.125
10876TIP3    H132573   4.685   3.772   2.151
10876TIP3    H232574   4.575   3.875   2.135
10877TIP3   OH232575   4.171   5.333   0.542
10877TIP3    H132576   4.098   5.291   0.496
10877TIP3    H232577   4.132   5.368   0.622
10878TIP3   OH232578   6.490   3.465   2.344
10878TIP3    H132579   6.478   3.426   2.431
10878TIP3    H232580   6.411   3.442   2.296
10879TIP3   OH232581   1.344   2.333   4.002
10879TIP3    H132582   1.272   2.287   4.043
10879TIP3    H232583   1.347   2.299   3.912
10880TIP3   OH232584   7.705   5.552   6.691
10880TIP3    H132585   7.770   5.614   6.724
10880TIP3    H232586   7.723   5.470   6.738
10881TIP3   OH232587   2.581   3.496   4.113
10881TIP3    H132588   2.543   3.412   4.088
10881TIP3    H232589   2.602   3.486   4.206
10882TIP3   OH232590   4.212   5.063   0.463
10882TIP3    H132591   4.154   5.061   0.387
10882TIP3    H232592   4.232   5.156   0.476
10883TIP3   OH232593   3.782   5.292   5.742
10883TIP3    H132594   3.863   5.341   5.758
10883TIP3    H232595   3.813   5.207   5.709
10884TIP3   OH232596   4.192   3.070   6.559
10884TIP3    H132597   4.208   3.095   6.649
10884TIP3    H232598   4.202   2.975   6.559
10885TIP3   OH232599   4.838   6.394   1.239
10885TIP3    H132600   4.883   6.409   1.156
10885TIP3    H232601   4.816   6.301   1.238
10886TIP3   OH232602   5.669   4.155   0.271
10886TIP3    H132603   5.735   4.098   0.233
10886TIP3    H232604   5.672   4.136   0.365
10887TIP3   OH232605   2.189   0.367   2.774
10887TIP3    H132606   2.235   0.412   2.703
10887TIP3    H232607   2.126   0.432   2.807
10888TIP3   OH232608   4.102   2.104   1.657
10888TIP3    H132609   4.054   2.080   1.736
10888TIP3    H232610   4.188   2.133   1.689
10889TIP3   OH232611   5.733   2.582   0.989
10889TIP3    H132612   5.746   2.488   1.001
10889TIP3    H232613   5.646   2.599   1.026
10890TIP3   OH232614   1.325   3.449   4.713
10890TIP3    H132615   1.331   3.494   4.797
10890TIP3    H232616   1.322   3.356   4.736
10891TIP3   OH232617   6.948   1.939   0.353
10891TIP3    H132618   6.859   1.965   0.332
10891TIP3    H232619   6.981   2.009   0.410
10892TIP3   OH232620   2.778   0.079   5.762
10892TIP3    H132621   2.721   0.139   5.809
10892TIP3    H232622   2.794   0.121   5.678
10893TIP3   OH232623   1.752   3.222   5.762
10893TIP3    H132624   1.774   3.129   5.764
10893TIP3    H232625   1.803   3.261   5.834
10894TIP3   OH232626   6.881   5.643   3.301
10894TIP3    H132627   6.822   5.584   3.346
10894TIP3    H232628   6.828   5.683   3.232
10895TIP3   OH232629   1.820   1.967   4.983
10895TIP3    H132630   1.847   1.935   5.069
10895TIP3    H232631   1.841   2.061   4.985
10896TIP3   OH232632   4.783   2.645   3.854
10896TIP3    H132633   4.852   2.590   3.817
10896TIP3    H232634   4.707   2.588   3.860
10897TIP3   OH232635   6.046   1.228   1.764
10897TIP3    H132636   6.123   1.174   1.783
10897TIP3    H232637   5.982   1.202   1.830
10898TIP3   OH232638   0.010   1.475   4.285
10898TIP3    H132639  -0.057   1.495   4.220
10898TIP3    H232640   0.031   1.560   4.325
10899TIP3   OH232641   5.254   1.172   6.078
10899TIP3    H132642   5.214   1.137   6.157
10899TIP3    H232643   5.181   1.208   6.028
10900TIP3   OH232644   7.201   6.858   1.456
10900TIP3    H132645   7.247   6.920   1.513
10900TIP3    H232646   7.176   6.910   1.379
10901TIP3   OH232647   6.814   7.009   2.235
10901TIP3    H132648   6.747   7.074   2.213
10901TIP3    H232649   6.773   6.925   2.213
10902TIP3   OH232650   4.283   7.092   0.559
10902TIP3    H132651   4.190   7.089   0.582
10902TIP3    H232652   4.301   7.007   0.518
10903TIP3   OH232653   1.550   0.419   5.876
10903TIP3    H132654   1.557   0.357   5.803
10903TIP3    H232655   1.628   0.403   5.929
10904TIP3   OH232656   3.606   4.695   3.114
10904TIP3    H132657   3.578   4.787   3.115
10904TIP3    H232658   3.672   4.690   3.183
10905TIP3   OH232659   1.052   2.320   4.747
10905TIP3    H132660   1.025   2.350   4.834
10905TIP3    H232661   1.134   2.272   4.763
10906TIP3   OH232662   1.191   2.835   4.225
10906TIP3    H132663   1.170   2.904   4.163
10906TIP3    H232664   1.223   2.763   4.171
10907TIP3   OH232665   1.896   4.108   2.295
10907TIP3    H132666   1.893   4.114   2.391
10907TIP3    H232667   1.989   4.100   2.275
10908TIP3   OH232668   2.945   6.144   5.167
10908TIP3    H132669   2.855   6.125   5.139
10908TIP3    H232670   2.993   6.063   5.151
10909TIP3   OH232671   5.793   6.097   3.869
10909TIP3    H132672   5.799   6.034   3.941
10909TIP3    H232673   5.699   6.106   3.853
10910TIP3   OH232674   4.631   4.563   2.519
10910TIP3    H132675   4.585   4.508   2.456
10910TIP3    H232676   4.674   4.502   2.579
10911TIP3   OH232677   3.409   7.741   0.034
10911TIP3    H132678   3.321   7.753   0.070
10911TIP3    H232679   3.465   7.729   0.111
10912TIP3   OH232680   7.289   6.491   6.029
10912TIP3    H132681   7.246   6.575   6.043
10912TIP3    H232682   7.222   6.438   5.986
10913TIP3   OH232683   6.252   7.467   4.923
10913TIP3    H132684   6.339   7.459   4.960
10913TIP3    H232685   6.202   7.396   4.963
10914TIP3   OH232686   2.531   1.807   3.289
10914TIP3    H132687   2.468   1.821   3.218
10914TIP3    H232688   2.608   1.859   3.263
10915TIP3   OH232689   7.485   5.996   4.206
10915TIP3    H132690   7.552   6.064   4.202
10915TIP3    H232691   7.514   5.939   4.278
10916TIP3   OH232692   7.900   1.400   0.796
10916TIP3    H132693   7.852   1.479   0.769
10916TIP3    H232694   7.950   1.374   0.719
10917TIP3   OH232695   0.478   5.792   4.272
10917TIP3    H132696   0.499   5.706   4.236
10917TIP3    H232697   0.552   5.847   4.249
10918TIP3   OH232698   6.811   3.098   1.290
10918TIP3    H132699   6.842   3.144   1.212
10918TIP3    H232700   6.779   3.014   1.256
10919TIP3   OH232701   1.038   3.658   2.365
10919TIP3    H132702   0.979   3.659   2.441
10919TIP3    H232703   0.980   3.668   2.290
10920TIP3   OH232704   7.263   7.558   6.673
10920TIP3    H132705   7.338   7.597   6.627
10920TIP3    H232706   7.292   7.549   6.763
10921TIP3   OH232707   7.285   2.032   0.309
10921TIP3    H132708   7.369   2.054   0.350
10921TIP3    H232709   7.234   1.992   0.379
10922TIP3   OH232710   2.055   3.913   0.260
10922TIP3    H132711   2.089   3.937   0.174
10922TIP3    H232712   2.106   3.966   0.322
10923TIP3   OH232713   8.124   6.468   6.367
10923TIP3    H132714   8.136   6.413   6.444
10923TIP3    H232715   8.159   6.416   6.294
10924TIP3   OH232716   2.823   2.448   6.618
10924TIP3    H132717   2.771   2.505   6.675
10924TIP3    H232718   2.761   2.382   6.587
10925TIP3   OH232719   1.454   4.619   2.551
10925TIP3    H132720   1.406   4.538   2.566
10925TIP3    H232721   1.405   4.663   2.481
10926TIP3   OH232722   6.619   0.926   0.501
10926TIP3    H132723   6.586   1.011   0.530
10926TIP3    H232724   6.544   0.867   0.509
10927TIP3   OH232725   0.907   0.734   5.502
10927TIP3    H132726   0.856   0.700   5.429
10927TIP3    H232727   0.843   0.750   5.571
10928TIP3   OH232728   1.436   6.349   6.425
10928TIP3    H132729   1.496   6.345   6.350
10928TIP3    H232730   1.457   6.271   6.476
10929TIP3   OH232731   4.332   0.937   0.344
10929TIP3    H132732   4.384   1.012   0.374
10929TIP3    H232733   4.388   0.892   0.281
10930TIP3   OH232734   7.870   2.721   0.302
10930TIP3    H132735   7.806   2.790   0.285
10930TIP3    H232736   7.823   2.639   0.284
10931TIP3   OH232737   2.212   1.748   4.531
10931TIP3    H132738   2.252   1.828   4.495
10931TIP3    H232739   2.151   1.780   4.598
10932TIP3   OH232740   6.635   5.745   4.537
10932TIP3    H132741   6.717   5.717   4.496
10932TIP3    H232742   6.622   5.835   4.506
10933TIP3   OH232743   8.104   4.331   1.892
10933TIP3    H132744   8.037   4.281   1.939
10933TIP3    H232745   8.153   4.375   1.960
10934TIP3   OH232746   1.112   2.041   0.223
10934TIP3    H132747   1.036   2.087   0.186
10934TIP3    H232748   1.163   2.016   0.146
10935TIP3   OH232749   8.089   7.784   2.367
10935TIP3    H132750   8.132   7.727   2.431
10935TIP3    H232751   8.136   7.867   2.374
10936TIP3   OH232752   2.147   1.135   0.397
10936TIP3    H132753   2.081   1.204   0.390
10936TIP3    H232754   2.227   1.174   0.362
10937TIP3   OH232755   7.687   3.513   2.740
10937TIP3    H132756   7.672   3.554   2.825
10937TIP3    H232757   7.780   3.528   2.723
10938TIP3   OH232758   5.143   0.075   0.521
10938TIP3    H132759   5.068   0.072   0.579
10938TIP3    H232760   5.163   0.168   0.511
10939TIP3   OH232761   4.753   4.243   1.505
10939TIP3    H132762   4.772   4.157   1.541
10939TIP3    H232763   4.768   4.304   1.578
10940TIP3   OH232764   5.363   3.683   1.529
10940TIP3    H132765   5.292   3.619   1.522
10940TIP3    H232766   5.375   3.695   1.623
10941TIP3   OH232767   0.855   2.790   6.224
10941TIP3    H132768   0.777   2.830   6.262
10941TIP3    H232769   0.847   2.806   6.130
10942TIP3   OH232770   2.055   3.508   0.354
10942TIP3    H132771   2.015   3.527   0.439
10942TIP3    H232772   2.131   3.566   0.351
10943TIP3   OH232773   6.686   7.408   0.964
10943TIP3    H132774   6.618   7.470   0.990
10943TIP3    H232775   6.698   7.422   0.870
10944TIP3   OH232776   1.509   2.702   4.487
10944TIP3    H132777   1.483   2.683   4.577
10944TIP3    H232778   1.502   2.798   4.481
10945TIP3   OH232779   5.274   4.808   5.422
10945TIP3    H132780   5.358   4.853   5.424
10945TIP3    H232781   5.238   4.828   5.336
10946TIP3   OH232782   3.823   7.316   3.945
10946TIP3    H132783   3.744   7.368   3.928
10946TIP3    H232784   3.790   7.228   3.962
10947TIP3   OH232785   6.145   6.221   2.531
10947TIP3    H132786   6.112   6.303   2.569
10947TIP3    H232787   6.100   6.152   2.579
10948TIP3   OH232788   2.634   5.174   0.128
10948TIP3    H132789   2.603   5.265   0.130
10948TIP3    H232790   2.723   5.179   0.162
10949TIP3   OH232791   5.126   3.533   1.540
10949TIP3    H132792   5.122   3.497   1.452
10949TIP3    H232793   5.096   3.461   1.597
10950TIP3   OH232794   6.486   0.047   6.335
10950TIP3    H132795   6.400   0.021   6.367
10950TIP3    H232796   6.545   0.030   6.409
10951TIP3   OH232797   1.062   7.796   5.250
10951TIP3    H132798   1.133   7.735   5.272
10951TIP3    H232799   0.983   7.756   5.285
10952TIP3   OH232800   3.920   5.107   2.390
10952TIP3    H132801   3.985   5.110   2.460
10952TIP3    H232802   3.943   5.029   2.339
10953TIP3   OH232803   1.144   6.145   4.073
10953TIP3    H132804   1.214   6.109   4.128
10953TIP3    H232805   1.178   6.139   3.984
10954TIP3   OH232806   5.006   4.892   4.205
10954TIP3    H132807   4.943   4.962   4.218
10954TIP3    H232808   5.019   4.854   4.291
10955TIP3   OH232809   4.983   1.688   5.502
10955TIP3    H132810   4.965   1.697   5.408
10955TIP3    H232811   5.068   1.730   5.515
10956TIP3   OH232812   7.285   5.462   1.027
10956TIP3    H132813   7.242   5.537   1.066
10956TIP3    H232814   7.330   5.498   0.950
10957TIP3   OH232815   1.485   4.877   0.631
10957TIP3    H132816   1.521   4.947   0.577
10957TIP3    H232817   1.486   4.912   0.720
10958TIP3   OH232818   1.777   2.187   2.375
10958TIP3    H132819   1.837   2.118   2.400
10958TIP3    H232820   1.744   2.222   2.458
10959TIP3   OH232821   6.334   0.766   6.443
10959TIP3    H132822   6.278   0.748   6.519
10959TIP3    H232823   6.373   0.681   6.421
10960TIP3   OH232824   3.220   3.239   5.064
10960TIP3    H132825   3.211   3.311   5.002
10960TIP3    H232826   3.130   3.221   5.092
10961TIP3   OH232827   4.247   5.208   3.067
10961TIP3    H132828   4.306   5.155   3.120
10961TIP3    H232829   4.168   5.154   3.058
10962TIP3   OH232830   0.017   7.303   5.592
10962TIP3    H132831   0.028   7.220   5.547
10962TIP3    H232832   0.004   7.367   5.521
10963TIP3   OH232833   6.551   1.502   0.742
10963TIP3    H132834   6.627   1.560   0.731
10963TIP3    H232835   6.537   1.500   0.836
10964TIP3   OH232836   2.363   5.149   0.738
10964TIP3    H132837   2.417   5.147   0.817
10964TIP3    H232838   2.279   5.185   0.767
10965TIP3   OH232839   3.399   6.086   0.119
10965TIP3    H132840   3.446   6.135   0.186
10965TIP3    H232841   3.391   5.998   0.155
10966TIP3   OH232842   2.077   7.640   2.602
10966TIP3    H132843   2.045   7.694   2.530
10966TIP3    H232844   2.166   7.616   2.575
10967TIP3   OH232845   3.145   4.908   2.246
10967TIP3    H132846   3.125   4.900   2.153
10967TIP3    H232847   3.220   4.849   2.260
10968TIP3   OH232848   3.908   4.413   0.069
10968TIP3    H132849   3.979   4.405   0.133
10968TIP3    H232850   3.885   4.506   0.069
10969TIP3   OH232851   4.779   5.902   1.395
10969TIP3    H132852   4.739   5.921   1.479
10969TIP3    H232853   4.742   5.817   1.369
10970TIP3   OH232854   1.730   3.320   5.129
10970TIP3    H132855   1.758   3.399   5.083
10970TIP3    H232856   1.714   3.349   5.219
10971TIP3   OH232857   7.291   1.564   3.222
10971TIP3    H132858   7.220   1.539   3.163
10971TIP3    H232859   7.271   1.654   3.247
10972TIP3   OH232860   6.778   1.227   3.891
10972TIP3    H132861   6.763   1.308   3.841
10972TIP3    H232862   6.712   1.166   3.858
10973TIP3   OH232863   4.370   5.544   4.227
10973TIP3    H132864   4.280   5.554   4.258
10973TIP3    H232865   4.423   5.582   4.297
10974TIP3   OH232866   3.742   4.870   2.757
10974TIP3    H132867   3.770   4.885   2.667
10974TIP3    H232868   3.816   4.823   2.797
10975TIP3   OH232869   6.252   1.718   2.565
10975TIP3    H132870   6.169   1.712   2.519
10975TIP3    H232871   6.230   1.756   2.650
10976TIP3   OH232872   7.175   4.739   1.282
10976TIP3    H132873   7.236   4.683   1.234
10976TIP3    H232874   7.228   4.811   1.315
10977TIP3   OH232875   8.181   5.284   4.949
10977TIP3    H132876   8.243   5.313   5.016
10977TIP3    H232877   8.116   5.233   4.997
10978TIP3   OH232878   7.317   0.154   3.571
10978TIP3    H132879   7.373   0.084   3.536
10978TIP3    H232880   7.367   0.234   3.554
10979TIP3   OH232881   1.328   4.762   3.606
10979TIP3    H132882   1.294   4.825   3.670
10979TIP3    H232883   1.266   4.766   3.533
10980TIP3   OH232884   2.622   5.449   4.992
10980TIP3    H132885   2.657   5.367   5.027
10980TIP3    H232886   2.662   5.457   4.905
10981TIP3   OH232887   3.654   3.771   2.682
10981TIP3    H132888   3.634   3.862   2.660
10981TIP3    H232889   3.749   3.769   2.691
10982TIP3   OH232890   5.070   5.131   1.322
10982TIP3    H132891   5.096   5.112   1.412
10982TIP3    H232892   4.975   5.126   1.323
10983TIP3   OH232893   4.873  -0.040   1.212
10983TIP3    H132894   4.794  -0.074   1.255
10983TIP3    H232895   4.842   0.032   1.157
10984TIP3   OH232896   1.396   1.955   3.855
10984TIP3    H132897   1.324   1.905   3.893
10984TIP3    H232898   1.353   2.025   3.805
10985TIP3   OH232899   3.833   3.578   3.958
10985TIP3    H132900   3.823   3.623   3.874
10985TIP3    H232901   3.817   3.646   4.024
10986TIP3   OH232902   1.623   4.735   6.818
10986TIP3    H132903   1.602   4.650   6.780
10986TIP3    H232904   1.707   4.758   6.779
10987TIP3   OH232905   4.193   2.597   4.275
10987TIP3    H132906   4.284   2.602   4.304
10987TIP3    H232907   4.198   2.606   4.180
10988TIP3   OH232908   4.154   1.134   1.650
10988TIP3    H132909   4.233   1.085   1.670
10988TIP3    H232910   4.134   1.112   1.559
10989TIP3   OH232911   1.803   6.552   2.645
10989TIP3    H132912   1.831   6.631   2.598
10989TIP3    H232913   1.739   6.512   2.586
10990TIP3   OH232914   4.419   2.356   3.220
10990TIP3    H132915   4.428   2.366   3.125
10990TIP3    H232916   4.360   2.427   3.246
10991TIP3   OH232917   4.910   3.203   0.734
10991TIP3    H132918   4.850   3.243   0.797
10991TIP3    H232919   4.859   3.193   0.654
10992TIP3   OH232920   3.107   5.076   5.065
10992TIP3    H132921   3.071   5.102   4.980
10992TIP3    H232922   3.043   5.106   5.129
10993TIP3   OH232923   1.720   0.708   0.336
10993TIP3    H132924   1.659   0.641   0.367
10993TIP3    H232925   1.663   0.777   0.301
10994TIP3   OH232926   2.117   1.517   2.021
10994TIP3    H132927   2.159   1.599   2.049
10994TIP3    H232928   2.132   1.514   1.926
10995TIP3   OH232929   7.120   3.908   4.645
10995TIP3    H132930   7.160   3.823   4.663
10995TIP3    H232931   7.194   3.963   4.618
10996TIP3   OH232932   6.884   7.113   0.299
10996TIP3    H132933   6.842   7.191   0.262
10996TIP3    H232934   6.978   7.131   0.293
10997TIP3   OH232935   5.787   1.417   0.734
10997TIP3    H132936   5.728   1.453   0.668
10997TIP3    H232937   5.875   1.442   0.704
10998TIP3   OH232938   6.423   5.205   4.348
10998TIP3    H132939   6.479   5.283   4.347
10998TIP3    H232940   6.477   5.137   4.388
10999TIP3   OH232941   5.244   1.729   5.568
10999TIP3    H132942   5.292   1.647   5.578
10999TIP3    H232943   5.303   1.786   5.519
11000TIP3   OH232944   5.049   0.985   0.481
11000TIP3    H132945   5.072   0.978   0.389
11000TIP3    H232946   5.130   0.964   0.528
11001TIP3   OH232947   6.312   4.123   4.269
11001TIP3    H132948   6.382   4.062   4.244
11001TIP3    H232949   6.357   4.195   4.312
11002TIP3   OH232950   4.123   7.442   5.379
11002TIP3    H132951   4.082   7.522   5.410
11002TIP3    H232952   4.217   7.462   5.379
11003TIP3   OH232953   7.849   5.735   4.042
11003TIP3    H132954   7.781   5.668   4.044
11003TIP3    H232955   7.928   5.688   4.015
11004TIP3   OH232956   7.788   7.631   2.774
11004TIP3    H132957   7.877   7.602   2.756
11004TIP3    H232958   7.750   7.562   2.828
11005TIP3   OH232959   3.143   6.576   1.563
11005TIP3    H132960   3.236   6.572   1.584
11005TIP3    H232961   3.099   6.539   1.640
11006TIP3   OH232962   7.636   6.491   4.046
11006TIP3    H132963   7.629   6.497   4.141
11006TIP3    H232964   7.563   6.434   4.020
11007TIP3   OH232965   5.864   4.381   0.643
11007TIP3    H132966   5.779   4.366   0.685
11007TIP3    H232967   5.915   4.303   0.665
11008TIP3   OH232968   7.566   4.663   4.639
11008TIP3    H132969   7.557   4.748   4.683
11008TIP3    H232970   7.617   4.681   4.561
11009TIP3   OH232971   5.221   2.326   3.608
11009TIP3    H132972   5.290   2.390   3.592
11009TIP3    H232973   5.187   2.349   3.694
11010TIP3   OH232974   0.396   4.066   4.957
11010TIP3    H132975   0.474   4.122   4.957
11010TIP3    H232976   0.407   4.010   4.881
11011TIP3   OH232977   0.381   6.172   0.284
11011TIP3    H132978   0.323   6.097   0.295
11011TIP3    H232979   0.323   6.248   0.282
11012TIP3   OH232980   6.026   2.176   3.416
11012TIP3    H132981   5.992   2.180   3.327
11012TIP3    H232982   6.013   2.084   3.442
11013TIP3   OH232983   2.517   3.080   3.830
11013TIP3    H132984   2.570   3.006   3.799
11013TIP3    H232985   2.438   3.040   3.865
11014TIP3   OH232986   7.660   7.082   0.792
11014TIP3    H132987   7.603   7.139   0.741
11014TIP3    H232988   7.639   6.993   0.763
11015TIP3   OH232989   2.601   6.566   6.026
11015TIP3    H132990   2.607   6.471   6.019
11015TIP3    H232991   2.649   6.587   6.106
11016TIP3   OH232992   6.457   3.706   1.804
11016TIP3    H132993   6.481   3.625   1.849
11016TIP3    H232994   6.510   3.774   1.845
11017TIP3   OH232995   8.191   6.964   2.222
11017TIP3    H132996   8.245   7.042   2.214
11017TIP3    H232997   8.236   6.910   2.287
11018TIP3   OH232998   3.019   7.711   1.367
11018TIP3    H132999   2.995   7.775   1.301
11018TIP3    H233000   3.098   7.746   1.408
11019TIP3   OH233001   3.106   6.286   5.347
11019TIP3    H133002   3.025   6.270   5.298
11019TIP3    H233003   3.171   6.306   5.280
11020TIP3   OH233004   7.650   7.333   1.049
11020TIP3    H133005   7.590   7.304   0.979
11020TIP3    H233006   7.696   7.254   1.075
11021TIP3   OH233007   5.702   0.327   3.372
11021TIP3    H133008   5.794   0.355   3.368
11021TIP3    H233009   5.652   0.407   3.351
11022TIP3   OH233010   1.562   4.361   1.685
11022TIP3    H133011   1.489   4.307   1.655
11022TIP3    H233012   1.582   4.329   1.773
11023TIP3   OH233013   2.695   7.412   1.432
11023TIP3    H133014   2.741   7.357   1.495
11023TIP3    H233015   2.609   7.427   1.471
11024TIP3   OH233016   0.235   5.933   6.149
11024TIP3    H133017   0.268   5.967   6.066
11024TIP3    H233018   0.142   5.916   6.132
11025TIP3   OH233019   6.725   2.554   4.238
11025TIP3    H133020   6.680   2.627   4.280
11025TIP3    H233021   6.716   2.481   4.300
11026TIP3   OH233022   7.917   3.677   5.744
11026TIP3    H133023   7.837   3.722   5.718
11026TIP3    H233024   7.893   3.584   5.744
11027TIP3   OH233025   6.461   3.134   1.279
11027TIP3    H133026   6.432   3.096   1.363
11027TIP3    H233027   6.527   3.073   1.247
11028TIP3   OH233028   7.860   7.202   5.426
11028TIP3    H133029   7.831   7.187   5.336
11028TIP3    H233030   7.831   7.291   5.446
11029TIP3   OH233031   4.015   6.154   1.649
11029TIP3    H133032   3.993   6.155   1.742
11029TIP3    H233033   4.105   6.124   1.646
11030TIP3   OH233034   1.842   2.372   3.489
11030TIP3    H133035   1.752   2.347   3.471
11030TIP3    H233036   1.842   2.467   3.486
11031TIP3   OH233037   1.022   3.144   5.213
11031TIP3    H133038   1.003   3.185   5.297
11031TIP3    H233039   0.942   3.095   5.192
11032TIP3   OH233040   7.664   6.620   5.209
11032TIP3    H133041   7.575   6.632   5.242
11032TIP3    H233042   7.698   6.709   5.199
11033TIP3   OH233043   3.059   6.255   1.206
11033TIP3    H133044   3.063   6.273   1.112
11033TIP3    H233045   3.127   6.190   1.222
11034TIP3   OH233046   1.641   0.054   2.163
11034TIP3    H133047   1.694   0.092   2.233
11034TIP3    H233048   1.648   0.117   2.091
11035TIP3   OH233049   3.984   7.297   2.900
11035TIP3    H133050   3.949   7.219   2.856
11035TIP3    H233051   3.954   7.370   2.847
11036TIP3   OH233052   3.924   0.398   3.637
11036TIP3    H133053   3.893   0.310   3.658
11036TIP3    H233054   3.850   0.455   3.656
11037TIP3   OH233055   1.558   3.502   5.713
11037TIP3    H133056   1.620   3.460   5.773
11037TIP3    H233057   1.472   3.485   5.751
11038TIP3   OH233058   2.078   5.474   4.520
11038TIP3    H133059   2.038   5.412   4.459
11038TIP3    H233060   2.005   5.510   4.570
11039TIP3   OH233061   5.335   2.759   3.554
11039TIP3    H133062   5.277   2.763   3.630
11039TIP3    H233063   5.374   2.672   3.558
11040TIP3   OH233064   6.375   5.830   4.225
11040TIP3    H133065   6.338   5.872   4.302
11040TIP3    H233066   6.344   5.884   4.152
11041TIP3   OH233067   7.170   2.614   0.271
11041TIP3    H133068   7.206   2.542   0.323
11041TIP3    H233069   7.247   2.659   0.236
11042TIP3   OH233070   1.769   7.436   0.869
11042TIP3    H133071   1.806   7.519   0.900
11042TIP3    H233072   1.810   7.421   0.784
11043TIP3   OH233073   0.815   2.211   2.743
11043TIP3    H133074   0.762   2.202   2.663
11043TIP3    H233075   0.811   2.125   2.784
11044TIP3   OH233076   4.545   6.939   1.636
11044TIP3    H133077   4.553   6.953   1.542
11044TIP3    H233078   4.621   6.885   1.659
11045TIP3   OH233079   4.850   7.255   3.320
11045TIP3    H133080   4.863   7.160   3.309
11045TIP3    H233081   4.792   7.262   3.396
11046TIP3   OH233082   8.028   4.769   6.251
11046TIP3    H133083   8.028   4.748   6.345
11046TIP3    H233084   7.937   4.792   6.232
11047TIP3   OH233085   2.453   6.457   5.034
11047TIP3    H133086   2.468   6.416   4.949
11047TIP3    H233087   2.457   6.385   5.097
11048TIP3   OH233088   0.220   7.675   3.197
11048TIP3    H133089   0.140   7.715   3.163
11048TIP3    H233090   0.286   7.692   3.130
11049TIP3   OH233091   1.638   2.873   3.226
11049TIP3    H133092   1.548   2.848   3.246
11049TIP3    H233093   1.639   2.886   3.131
11050TIP3   OH233094   1.512   2.630   1.359
11050TIP3    H133095   1.523   2.700   1.423
11050TIP3    H233096   1.429   2.649   1.316
11051TIP3   OH233097   4.984   0.025   3.228
11051TIP3    H133098   4.907   0.083   3.224
11051TIP3    H233099   5.037   0.062   3.298
11052TIP3   OH233100   0.895   1.344   1.847
11052TIP3    H133101   0.966   1.407   1.837
11052TIP3    H233102   0.879   1.340   1.941
11053TIP3   OH233103   1.138   2.680   5.981
11053TIP3    H133104   1.189   2.602   6.002
11053TIP3    H233105   1.053   2.664   6.022
11054TIP3   OH233106   3.520   0.530   1.125
11054TIP3    H133107   3.501   0.559   1.215
11054TIP3    H233108   3.610   0.558   1.109
11055TIP3   OH233109   2.673   0.070   1.833
11055TIP3    H133110   2.617   0.144   1.857
11055TIP3    H233111   2.753   0.083   1.882
11056TIP3   OH233112   7.917   1.952   3.451
11056TIP3    H133113   7.846   1.996   3.497
11056TIP3    H233114   7.885   1.863   3.435
11057TIP3   OH233115   4.945   7.528   1.430
11057TIP3    H133116   4.968   7.577   1.351
11057TIP3    H233117   4.887   7.588   1.478
11058TIP3   OH233118   0.068   1.704   1.001
11058TIP3    H133119   0.036   1.660   0.922
11058TIP3    H233120   0.057   1.797   0.984
11059TIP3   OH233121   1.785   5.003   3.849
11059TIP3    H133122   1.789   5.078   3.789
11059TIP3    H233123   1.866   5.009   3.900
11060TIP3   OH233124   3.732   1.901   4.463
11060TIP3    H133125   3.688   1.982   4.485
11060TIP3    H233126   3.729   1.897   4.368
11061TIP3   OH233127   0.108   7.362  -0.001
11061TIP3    H133128   0.085   7.285  -0.054
11061TIP3    H233129   0.025   7.394   0.033
11062TIP3   OH233130   6.519   2.021   2.328
11062TIP3    H133131   6.504   2.116   2.336
11062TIP3    H233132   6.503   2.002   2.236
11063TIP3   OH233133   3.370   0.290   0.658
11063TIP3    H133134   3.349   0.214   0.712
11063TIP3    H233135   3.365   0.365   0.717
11064TIP3   OH233136   3.172   4.084   2.305
11064TIP3    H133137   3.131   4.000   2.285
11064TIP3    H233138   3.192   4.122   2.219
11065TIP3   OH233139   6.366   5.785   3.155
11065TIP3    H133140   6.404   5.703   3.188
11065TIP3    H233141   6.272   5.773   3.165
11066TIP3   OH233142   1.021   6.582   0.954
11066TIP3    H133143   0.982   6.523   1.019
11066TIP3    H233144   0.973   6.564   0.873
11067TIP3   OH233145   0.128   6.477   4.050
11067TIP3    H133146   0.106   6.497   4.141
11067TIP3    H233147   0.049   6.499   4.001
11068TIP3   OH233148   0.195   1.153   6.748
11068TIP3    H133149   0.104   1.134   6.768
11068TIP3    H233150   0.199   1.249   6.743
11069TIP3   OH233151   3.286   6.224   3.775
11069TIP3    H133152   3.201   6.189   3.749
11069TIP3    H233153   3.276   6.319   3.766
11070TIP3   OH233154   6.976   5.948   4.939
11070TIP3    H133155   7.044   5.918   4.879
11070TIP3    H233156   7.017   5.945   5.025
11071TIP3   OH233157   0.731   1.978   2.204
11071TIP3    H133158   0.791   1.979   2.278
11071TIP3    H233159   0.704   2.069   2.193
11072TIP3   OH233160   0.261   1.641   2.605
11072TIP3    H133161   0.246   1.625   2.698
11072TIP3    H233162   0.264   1.736   2.597
11073TIP3   OH233163   3.848   3.096   3.002
11073TIP3    H133164   3.923   3.114   2.945
11073TIP3    H233165   3.847   3.169   3.064
11074TIP3   OH233166   7.867   6.144   5.701
11074TIP3    H133167   7.854   6.122   5.793
11074TIP3    H233168   7.868   6.060   5.656
11075TIP3   OH233169   0.269   6.935   1.683
11075TIP3    H133170   0.332   6.979   1.740
11075TIP3    H233171   0.191   6.991   1.686
11076TIP3   OH233172   4.944   0.631   6.408
11076TIP3    H133173   5.023   0.577   6.401
11076TIP3    H233174   4.897   0.595   6.484
11077TIP3   OH233175   1.204   0.766   1.051
11077TIP3    H133176   1.233   0.676   1.070
11077TIP3    H233177   1.109   0.759   1.045
11078TIP3   OH233178   5.683   3.879   3.591
11078TIP3    H133179   5.775   3.896   3.568
11078TIP3    H233180   5.670   3.925   3.673
11079TIP3   OH233181   1.662   2.572   1.906
11079TIP3    H133182   1.675   2.485   1.943
11079TIP3    H233183   1.738   2.586   1.850
11080TIP3   OH233184   2.116   4.855   4.532
11080TIP3    H133185   2.023   4.840   4.549
11080TIP3    H233186   2.118   4.916   4.459
11081TIP3   OH233187   7.971   1.666   5.574
11081TIP3    H133188   7.968   1.758   5.601
11081TIP3    H233189   8.060   1.652   5.542
11082TIP3   OH233190   0.175   5.500   5.835
11082TIP3    H133191   0.157   5.472   5.925
11082TIP3    H233192   0.271   5.505   5.830
11083TIP3   OH233193   5.625   1.574   4.268
11083TIP3    H133194   5.699   1.632   4.282
11083TIP3    H233195   5.552   1.632   4.246
11084TIP3   OH233196   1.486   7.684   5.299
11084TIP3    H133197   1.457   7.749   5.363
11084TIP3    H233198   1.414   7.621   5.294
11085TIP3   OH233199   2.435   1.165   6.045
11085TIP3    H133200   2.344   1.184   6.071
11085TIP3    H233201   2.433   1.169   5.949
11086TIP3   OH233202   0.528   6.574   6.773
11086TIP3    H133203   0.488   6.488   6.782
11086TIP3    H233204   0.613   6.557   6.731
11087TIP3   OH233205   3.531   5.496   3.843
11087TIP3    H133206   3.466   5.561   3.816
11087TIP3    H233207   3.487   5.446   3.912
11088TIP3   OH233208   1.527   4.212   2.928
11088TIP3    H133209   1.600   4.170   2.882
11088TIP3    H233210   1.569   4.278   2.983
11089TIP3   OH233211   6.371   3.493   0.864
11089TIP3    H133212   6.285   3.452   0.873
11089TIP3    H233213   6.360   3.582   0.897
11090TIP3   OH233214   6.556   5.985   1.403
11090TIP3    H133215   6.533   5.900   1.364
11090TIP3    H233216   6.521   5.981   1.492
11091TIP3   OH233217   1.892   1.535   2.541
11091TIP3    H133218   1.948   1.591   2.488
11091TIP3    H233219   1.805   1.545   2.503
11092TIP3   OH233220   3.196   5.603   0.346
11092TIP3    H133221   3.289   5.579   0.347
11092TIP3    H233222   3.183   5.652   0.427
11093TIP3   OH233223   3.775   6.500   2.577
11093TIP3    H133224   3.783   6.462   2.489
11093TIP3    H233225   3.681   6.509   2.591
11094TIP3   OH233226   5.491   6.017   4.658
11094TIP3    H133227   5.513   5.938   4.707
11094TIP3    H233228   5.457   6.078   4.723
11095TIP3   OH233229   5.127   3.291   6.339
11095TIP3    H133230   5.076   3.229   6.288
11095TIP3    H233231   5.089   3.377   6.319
11096TIP3   OH233232   1.846   2.172   4.236
11096TIP3    H133233   1.905   2.100   4.217
11096TIP3    H233234   1.764   2.130   4.261
11097TIP3   OH233235   5.005   1.246   4.117
11097TIP3    H133236   5.033   1.305   4.187
11097TIP3    H233237   4.962   1.173   4.162
11098TIP3   OH233238   6.914   3.216   4.461
11098TIP3    H133239   6.842   3.242   4.403
11098TIP3    H233240   6.994   3.243   4.413
11099TIP3   OH233241   0.523   7.593   4.589
11099TIP3    H133242   0.610   7.560   4.612
11099TIP3    H233243   0.485   7.525   4.534
11100TIP3   OH233244   4.907   3.594   1.146
11100TIP3    H133245   4.898   3.523   1.209
11100TIP3    H233246   4.821   3.598   1.103
11101TIP3   OH233247   0.007   0.447   0.914
11101TIP3    H133248   0.056   0.529   0.927
11101TIP3    H233249   0.017   0.399   0.996
11102TIP3   OH233250   4.313   6.272   6.282
11102TIP3    H133251   4.284   6.316   6.362
11102TIP3    H233252   4.315   6.179   6.305
11103TIP3   OH233253   6.884   2.409   0.617
11103TIP3    H133254   6.957   2.396   0.678
11103TIP3    H233255   6.830   2.331   0.627
11104TIP3   OH233256   7.345   6.946   2.136
11104TIP3    H133257   7.257   6.982   2.149
11104TIP3    H233258   7.402   7.008   2.181
11105TIP3   OH233259   7.345   1.103   0.173
11105TIP3    H133260   7.321   1.109   0.080
11105TIP3    H233261   7.325   1.012   0.197
11106TIP3   OH233262   3.987   5.151   2.843
11106TIP3    H133263   3.933   5.218   2.800
11106TIP3    H233264   3.948   5.068   2.817
11107TIP3   OH233265   3.234   5.369   0.967
11107TIP3    H133266   3.208   5.279   0.951
11107TIP3    H233267   3.173   5.400   1.034
11108TIP3   OH233268   1.463   3.695   5.560
11108TIP3    H133269   1.494   3.777   5.599
11108TIP3    H233270   1.505   3.626   5.611
11109TIP3   OH233271   7.719   1.194   6.344
11109TIP3    H133272   7.699   1.197   6.438
11109TIP3    H233273   7.647   1.144   6.306
11110TIP3   OH233274   7.242   1.798   2.285
11110TIP3    H133275   7.261   1.879   2.237
11110TIP3    H233276   7.329   1.762   2.305
11111TIP3   OH233277   5.571   5.569   2.081
11111TIP3    H133278   5.594   5.523   2.001
11111TIP3    H233279   5.476   5.555   2.089
11112TIP3   OH233280   3.571   4.722   2.497
11112TIP3    H133281   3.598   4.700   2.586
11112TIP3    H233282   3.646   4.767   2.459
11113TIP3   OH233283   4.564   5.956   6.300
11113TIP3    H133284   4.482   5.933   6.342
11113TIP3    H233285   4.592   5.876   6.256
11114TIP3   OH233286   6.099   7.659   6.311
11114TIP3    H133287   6.013   7.698   6.328
11114TIP3    H233288   6.097   7.637   6.218
11115TIP3   OH233289   6.384   0.173   5.998
11115TIP3    H133290   6.366   0.087   5.962
11115TIP3    H233291   6.314   0.187   6.062
11116TIP3   OH233292   4.048   0.882   6.335
11116TIP3    H133293   4.120   0.906   6.393
11116TIP3    H233294   4.084   0.812   6.279
11117TIP3   OH233295   8.060   1.875   4.398
11117TIP3    H133296   8.136   1.931   4.385
11117TIP3    H233297   7.987   1.925   4.363
11118TIP3   OH233298   7.222   0.660   0.412
11118TIP3    H133299   7.157   0.692   0.475
11118TIP3    H233300   7.220   0.565   0.421
11119TIP3   OH233301   4.701   6.124   4.585
11119TIP3    H133302   4.748   6.058   4.635
11119TIP3    H233303   4.724   6.108   4.494
11120TIP3   OH233304   6.503   4.994   6.333
11120TIP3    H133305   6.557   5.068   6.362
11120TIP3    H233306   6.458   4.965   6.412
11121TIP3   OH233307   8.236   7.473   0.826
11121TIP3    H133308   8.226   7.396   0.769
11121TIP3    H233309   8.146   7.503   0.841
11122TIP3   OH233310   7.776   4.508   1.611
11122TIP3    H133311   7.773   4.433   1.551
11122TIP3    H233312   7.863   4.545   1.599
11123TIP3   OH233313   3.833   2.468   0.932
11123TIP3    H133314   3.827   2.373   0.941
11123TIP3    H233315   3.828   2.500   1.022
11124TIP3   OH233316   2.200   6.718   4.703
11124TIP3    H133317   2.284   6.678   4.681
11124TIP3    H233318   2.186   6.783   4.635
11125TIP3   OH233319   8.146   3.166   2.029
11125TIP3    H133320   8.091   3.100   1.988
11125TIP3    H233321   8.179   3.124   2.109
11126TIP3   OH233322   3.822   7.508   1.841
11126TIP3    H133323   3.844   7.513   1.934
11126TIP3    H233324   3.730   7.535   1.837
11127TIP3   OH233325   6.431   6.860   2.028
11127TIP3    H133326   6.460   6.798   1.961
11127TIP3    H233327   6.435   6.812   2.110
11128TIP3   OH233328   1.769   2.549   6.211
11128TIP3    H133329   1.817   2.605   6.271
11128TIP3    H233330   1.803   2.572   6.124
11129TIP3   OH233331   3.333   6.555   4.126
11129TIP3    H133332   3.290   6.477   4.163
11129TIP3    H233333   3.348   6.612   4.201
11130TIP3   OH233334   5.879   0.776   4.895
11130TIP3    H133335   5.851   0.865   4.914
11130TIP3    H233336   5.856   0.727   4.974
11131TIP3   OH233337   5.664   4.847   5.877
11131TIP3    H133338   5.715   4.883   5.805
11131TIP3    H233339   5.705   4.762   5.895
11132TIP3   OH233340   3.702   6.993   5.988
11132TIP3    H133341   3.641   6.949   5.928
11132TIP3    H233342   3.738   6.922   6.042
11133TIP3   OH233343   1.052   0.280   3.469
11133TIP3    H133344   1.027   0.188   3.462
11133TIP3    H233345   0.977   0.328   3.434
11134TIP3   OH233346   4.122   6.461   6.153
11134TIP3    H133347   4.175   6.383   6.167
11134TIP3    H233348   4.142   6.517   6.228
11135TIP3   OH233349   7.566   3.525   0.346
11135TIP3    H133350   7.635   3.466   0.376
11135TIP3    H233351   7.561   3.592   0.415
11136TIP3   OH233352   2.892   6.867   1.239
11136TIP3    H133353   2.944   6.947   1.233
11136TIP3    H233354   2.946   6.807   1.290
11137TIP3   OH233355   2.733   5.328   1.648
11137TIP3    H133356   2.725   5.376   1.730
11137TIP3    H233357   2.821   5.350   1.616
11138TIP3   OH233358   0.828   1.417   0.861
11138TIP3    H133359   0.852   1.419   0.954
11138TIP3    H233360   0.808   1.509   0.840
11139TIP3   OH233361   1.312   3.382   0.278
11139TIP3    H133362   1.326   3.301   0.230
11139TIP3    H233363   1.269   3.355   0.360
11140TIP3   OH233364   6.471   7.565   0.619
11140TIP3    H133365   6.474   7.476   0.584
11140TIP3    H233366   6.384   7.572   0.659
11141TIP3   OH233367   2.383   4.163   1.641
11141TIP3    H133368   2.386   4.075   1.603
11141TIP3    H233369   2.351   4.219   1.571
11142TIP3   OH233370   3.138   4.218   1.084
11142TIP3    H133371   3.229   4.230   1.056
11142TIP3    H233372   3.124   4.287   1.149
11143TIP3   OH233373   0.393   2.340   2.709
11143TIP3    H133374   0.318   2.391   2.738
11143TIP3    H233375   0.405   2.364   2.617
11144TIP3   OH233376   3.486   0.275   1.320
11144TIP3    H133377   3.485   0.369   1.341
11144TIP3    H233378   3.394   0.249   1.326
11145TIP3   OH233379   4.262   2.507   4.543
11145TIP3    H133380   4.336   2.529   4.487
11145TIP3    H233381   4.185   2.531   4.491
11146TIP3   OH233382   6.810   3.921   0.279
11146TIP3    H133383   6.893   3.965   0.290
11146TIP3    H233384   6.749   3.968   0.336
11147TIP3   OH233385   3.646   6.431   3.431
11147TIP3    H133386   3.697   6.456   3.354
11147TIP3    H233387   3.555   6.434   3.401
11148TIP3   OH233388   8.260   0.899   2.267
11148TIP3    H133389   8.342   0.895   2.217
11148TIP3    H233390   8.202   0.836   2.224
11149TIP3   OH233391   8.038   0.400   1.668
11149TIP3    H133392   7.982   0.353   1.729
11149TIP3    H233393   8.103   0.444   1.723
11150TIP3   OH233394   4.589   1.578   2.378
11150TIP3    H133395   4.639   1.612   2.453
11150TIP3    H233396   4.527   1.516   2.416
11151TIP3   OH233397   6.320   6.977   2.387
11151TIP3    H133398   6.271   6.895   2.385
11151TIP3    H233399   6.254   7.043   2.410
11152TIP3   OH233400   0.394   3.912   1.288
11152TIP3    H133401   0.422   3.848   1.222
11152TIP3    H233402   0.447   3.891   1.365
11153TIP3   OH233403   2.178   2.713   0.664
11153TIP3    H133404   2.266   2.733   0.695
11153TIP3    H233405   2.133   2.677   0.741
11154TIP3   OH233406   6.293   3.365   3.929
11154TIP3    H133407   6.273   3.457   3.947
11154TIP3    H233408   6.273   3.354   3.836
11155TIP3   OH233409   2.747   7.466   2.013
11155TIP3    H133410   2.779   7.550   1.981
11155TIP3    H233411   2.822   7.426   2.056
11156TIP3   OH233412   7.040   3.424   2.202
11156TIP3    H133413   7.127   3.445   2.236
11156TIP3    H233414   6.994   3.508   2.199
11157TIP3   OH233415   2.299   5.986   1.144
11157TIP3    H133416   2.354   6.055   1.180
11157TIP3    H233417   2.248   5.954   1.219
11158TIP3   OH233418   2.767   2.474   0.806
11158TIP3    H133419   2.759   2.565   0.777
11158TIP3    H233420   2.726   2.422   0.737
11159TIP3   OH233421   1.532   0.567   2.380
11159TIP3    H133422   1.455   0.614   2.348
11159TIP3    H233423   1.533   0.582   2.474
11160TIP3   OH233424   3.326   7.014   5.873
11160TIP3    H133425   3.358   7.014   5.963
11160TIP3    H233426   3.272   6.936   5.866
11161TIP3   OH233427   1.124   2.977   5.590
11161TIP3    H133428   1.120   2.888   5.624
11161TIP3    H233429   1.101   3.032   5.666
11162TIP3   OH233430   5.275   0.455   3.131
11162TIP3    H133431   5.235   0.489   3.211
11162TIP3    H233432   5.223   0.378   3.109
11163TIP3   OH233433   5.977   0.899   6.595
11163TIP3    H133434   6.046   0.935   6.540
11163TIP3    H233435   6.018   0.827   6.642
11164TIP3   OH233436   6.008   6.410   0.722
11164TIP3    H133437   6.036   6.364   0.643
11164TIP3    H233438   5.915   6.428   0.709
11165TIP3   OH233439   5.021   3.753   1.707
11165TIP3    H133440   4.952   3.687   1.710
11165TIP3    H233441   5.096   3.707   1.668
11166TIP3   OH233442   1.361   5.473   2.558
11166TIP3    H133443   1.435   5.527   2.586
11166TIP3    H233444   1.283   5.526   2.577
11167TIP3   OH233445   4.880   4.889   0.930
11167TIP3    H133446   4.803   4.940   0.902
11167TIP3    H233447   4.924   4.946   0.994
11168TIP3   OH233448   4.191   6.203   0.253
11168TIP3    H133449   4.174   6.134   0.318
11168TIP3    H233450   4.108   6.250   0.246
11169TIP3   OH233451   7.701   3.762   5.204
11169TIP3    H133452   7.781   3.803   5.236
11169TIP3    H233453   7.727   3.674   5.179
11170TIP3   OH233454   3.618   7.135   6.304
11170TIP3    H133455   3.710   7.159   6.289
11170TIP3    H233456   3.569   7.187   6.241
11171TIP3   OH233457   5.481   0.548   1.802
11171TIP3    H133458   5.424   0.472   1.799
11171TIP3    H233459   5.500   0.560   1.896
11172TIP3   OH233460   7.493   3.229   6.403
11172TIP3    H133461   7.480   3.134   6.395
11172TIP3    H233462   7.524   3.256   6.317
11173TIP3   OH233463   7.199   2.461   3.667
11173TIP3    H133464   7.288   2.494   3.654
11173TIP3    H233465   7.193   2.445   3.761
11174TIP3   OH233466   1.422   7.706   4.683
11174TIP3    H133467   1.424   7.763   4.607
11174TIP3    H233468   1.332   7.673   4.687
11175TIP3   OH233469   3.265   0.889   0.697
11175TIP3    H133470   3.266   0.803   0.740
11175TIP3    H233471   3.233   0.949   0.765
11176TIP3   OH233472   4.870   3.948   1.094
11176TIP3    H133473   4.888   4.037   1.065
11176TIP3    H233474   4.780   3.952   1.128
11177TIP3   OH233475   7.757   1.469   5.022
11177TIP3    H133476   7.753   1.409   4.948
11177TIP3    H233477   7.768   1.412   5.098
11178TIP3   OH233478   2.047   4.138   2.863
11178TIP3    H133479   2.081   4.227   2.872
11178TIP3    H233480   2.072   4.094   2.945
11179TIP3   OH233481   2.063   0.083   3.962
11179TIP3    H133482   1.984   0.098   3.911
11179TIP3    H233483   2.125   0.149   3.930
11180TIP3   OH233484   4.050   6.823   0.269
11180TIP3    H133485   4.002   6.897   0.231
11180TIP3    H233486   3.993   6.792   0.339
11181TIP3   OH233487   4.213   2.725   6.211
11181TIP3    H133488   4.269   2.743   6.136
11181TIP3    H233489   4.168   2.808   6.228
11182TIP3   OH233490   2.187   7.818   3.571
11182TIP3    H133491   2.123   7.818   3.500
11182TIP3    H233492   2.256   7.758   3.541
11183TIP3   OH233493   4.814   2.878   2.952
11183TIP3    H133494   4.818   2.961   3.000
11183TIP3    H233495   4.745   2.891   2.887
11184TIP3   OH233496   6.464   5.585   3.312
11184TIP3    H133497   6.430   5.541   3.390
11184TIP3    H233498   6.547   5.541   3.295
11185TIP3   OH233499   7.783   6.191   2.649
11185TIP3    H133500   7.708   6.251   2.648
11185TIP3    H233501   7.747   6.107   2.620
11186TIP3   OH233502   8.092   5.101   3.383
11186TIP3    H133503   8.059   5.013   3.403
11186TIP3    H233504   8.179   5.104   3.423
11187TIP3   OH233505   1.550   4.711   4.614
11187TIP3    H133506   1.575   4.773   4.682
11187TIP3    H233507   1.454   4.705   4.622
11188TIP3   OH233508   7.234   6.866   5.152
11188TIP3    H133509   7.267   6.946   5.111
11188TIP3    H233510   7.183   6.897   5.227
11189TIP3   OH233511   6.096   6.873   0.600
11189TIP3    H133512   6.120   6.810   0.532
11189TIP3    H233513   6.179   6.892   0.645
11190TIP3   OH233514   3.195   3.248   1.124
11190TIP3    H133515   3.218   3.164   1.163
11190TIP3    H233516   3.239   3.313   1.180
11191TIP3   OH233517   4.454   2.664   1.516
11191TIP3    H133518   4.452   2.755   1.546
11191TIP3    H233519   4.428   2.668   1.424
11192TIP3   OH233520   0.869   7.428   2.058
11192TIP3    H133521   0.904   7.452   1.972
11192TIP3    H233522   0.900   7.498   2.116
11193TIP3   OH233523   6.913   3.479   6.343
11193TIP3    H133524   6.944   3.567   6.366
11193TIP3    H233525   6.830   3.494   6.298
11194TIP3   OH233526   1.103   6.544   3.431
11194TIP3    H133527   1.159   6.473   3.463
11194TIP3    H233528   1.069   6.585   3.511
11195TIP3   OH233529   6.563   2.700   4.025
11195TIP3    H133530   6.559   2.786   4.068
11195TIP3    H233531   6.590   2.640   4.095
11196TIP3   OH233532   4.575   5.345   3.554
11196TIP3    H133533   4.492   5.368   3.511
11196TIP3    H233534   4.640   5.399   3.510
11197TIP3   OH233535   3.662   4.909   0.229
11197TIP3    H133536   3.580   4.886   0.273
11197TIP3    H233537   3.638   4.924   0.138
11198TIP3   OH233538   4.322   5.032   1.318
11198TIP3    H133539   4.330   5.038   1.413
11198TIP3    H233540   4.229   5.014   1.302
11199TIP3   OH233541   0.242   1.574   4.539
11199TIP3    H133542   0.286   1.656   4.561
11199TIP3    H233543   0.277   1.550   4.453
11200TIP3   OH233544   5.170   3.764   2.615
11200TIP3    H133545   5.214   3.850   2.611
11200TIP3    H233546   5.201   3.718   2.537
11201TIP3   OH233547   3.744   5.771   5.684
11201TIP3    H133548   3.779   5.833   5.620
11201TIP3    H233549   3.798   5.784   5.762
11202TIP3   OH233550   2.280   7.576   1.797
11202TIP3    H133551   2.185   7.577   1.808
11202TIP3    H233552   2.303   7.483   1.793
11203TIP3   OH233553   2.998   5.416   1.606
11203TIP3    H133554   2.996   5.470   1.686
11203TIP3    H233555   3.033   5.474   1.539
11204TIP3   OH233556   6.291   1.897   6.467
11204TIP3    H133557   6.238   1.970   6.499
11204TIP3    H233558   6.261   1.883   6.377
11205TIP3   OH233559   4.449   5.360   2.359
11205TIP3    H133560   4.400   5.299   2.304
11205TIP3    H233561   4.513   5.401   2.301
11206TIP3   OH233562   4.128   5.118   2.582
11206TIP3    H133563   4.181   5.069   2.519
11206TIP3    H233564   4.191   5.170   2.631
11207TIP3   OH233565   3.747   6.678   1.447
11207TIP3    H133566   3.720   6.770   1.446
11207TIP3    H233567   3.672   6.630   1.412
11208TIP3   OH233568   7.098   3.057   2.199
11208TIP3    H133569   7.065   3.111   2.271
11208TIP3    H233570   7.140   2.982   2.241
11209TIP3   OH233571   0.465   2.852   1.299
11209TIP3    H133572   0.505   2.781   1.249
11209TIP3    H233573   0.535   2.915   1.312
11210TIP3   OH233574   5.107   2.299   2.685
11210TIP3    H133575   5.198   2.275   2.666
11210TIP3    H233576   5.069   2.219   2.722
11211TIP3   OH233577   3.184   5.608   6.254
11211TIP3    H133578   3.129   5.564   6.318
11211TIP3    H233579   3.151   5.698   6.252
11212TIP3   OH233580   7.312   0.729   3.506
11212TIP3    H133581   7.262   0.806   3.532
11212TIP3    H233582   7.378   0.718   3.575
11213TIP3   OH233583   4.939   6.444   0.989
11213TIP3    H133584   4.913   6.504   0.918
11213TIP3    H233585   4.893   6.363   0.969
11214TIP3   OH233586   1.716   2.286   1.816
11214TIP3    H133587   1.706   2.332   1.733
11214TIP3    H233588   1.722   2.193   1.792
11215TIP3   OH233589   1.955   6.010   0.070
11215TIP3    H133590   1.921   6.099   0.076
11215TIP3    H233591   1.912   5.963   0.141
11216TIP3   OH233592   1.453   1.518   1.808
11216TIP3    H133593   1.525   1.504   1.869
11216TIP3    H233594   1.469   1.606   1.772
11217TIP3   OH233595   0.603   5.434   0.717
11217TIP3    H133596   0.575   5.479   0.638
11217TIP3    H233597   0.650   5.357   0.685
11218TIP3   OH233598   4.829   4.857   4.628
11218TIP3    H133599   4.802   4.948   4.617
11218TIP3    H233600   4.870   4.854   4.714
11219TIP3   OH233601   1.447   0.103   2.880
11219TIP3    H133602   1.430   0.011   2.860
11219TIP3    H233603   1.420   0.113   2.971
11220TIP3   OH233604   5.383   7.645   6.002
11220TIP3    H133605   5.391   7.550   5.989
11220TIP3    H233606   5.297   7.655   6.044
11221TIP3   OH233607   4.502   7.415   5.147
11221TIP3    H133608   4.423   7.434   5.096
11221TIP3    H233609   4.495   7.322   5.170
11222TIP3   OH233610   6.219   1.950   3.425
11222TIP3    H133611   6.254   1.878   3.373
11222TIP3    H233612   6.257   2.029   3.385
11223TIP3   OH233613   0.562   6.641   3.936
11223TIP3    H133614   0.515   6.560   3.959
11223TIP3    H233615   0.493   6.706   3.925
11224TIP3   OH233616   4.451   3.760   3.995
11224TIP3    H133617   4.489   3.845   3.971
11224TIP3    H233618   4.357   3.773   3.986
11225TIP3   OH233619   0.065   6.856   3.432
11225TIP3    H133620  -0.005   6.866   3.496
11225TIP3    H233621   0.134   6.809   3.479
11226TIP3   OH233622   5.693   2.438   3.622
11226TIP3    H133623   5.769   2.390   3.655
11226TIP3    H233624   5.667   2.494   3.695
11227TIP3   OH233625   2.004   5.391   3.369
11227TIP3    H133626   2.013   5.415   3.277
11227TIP3    H233627   1.946   5.314   3.368
11228TIP3   OH233628   6.115   3.590   0.889
11228TIP3    H133629   6.103   3.500   0.919
11228TIP3    H233630   6.110   3.643   0.969
11229TIP3   OH233631   6.687   6.844   1.731
11229TIP3    H133632   6.618   6.783   1.758
11229TIP3    H233633   6.671   6.923   1.782
11230TIP3   OH233634   2.818   5.747   6.316
11230TIP3    H133635   2.847   5.834   6.344
11230TIP3    H233636   2.872   5.727   6.239
11231TIP3   OH233637   2.750   6.488   2.759
11231TIP3    H133638   2.673   6.477   2.704
11231TIP3    H233639   2.745   6.578   2.792
11232TIP3   OH233640   1.687   0.819   6.517
11232TIP3    H133641   1.769   0.806   6.565
11232TIP3    H233642   1.668   0.733   6.479
11233TIP3   OH233643   7.333   6.166   1.454
11233TIP3    H133644   7.338   6.142   1.362
11233TIP3    H233645   7.282   6.248   1.455
11234TIP3   OH233646   1.131   0.861   1.321
11234TIP3    H133647   1.045   0.849   1.282
11234TIP3    H233648   1.140   0.956   1.330
11235TIP3   OH233649   8.312   7.546   3.896
11235TIP3    H133650   8.255   7.595   3.837
11235TIP3    H233651   8.252   7.500   3.954
11236TIP3   OH233652   4.077   4.456   3.801
11236TIP3    H133653   4.166   4.470   3.834
11236TIP3    H233654   4.020   4.483   3.873
11237TIP3   OH233655   7.592   6.385   5.460
11237TIP3    H133656   7.657   6.455   5.463
11237TIP3    H233657   7.554   6.391   5.373
11238TIP3   OH233658   2.702   4.516   1.076
11238TIP3    H133659   2.774   4.455   1.061
11238TIP3    H233660   2.731   4.598   1.036
11239TIP3   OH233661   3.954   7.770   5.031
11239TIP3    H133662   3.973   7.863   5.036
11239TIP3    H233663   3.867   7.765   4.991
11240TIP3   OH233664   2.798   6.036   6.320
11240TIP3    H133665   2.864   6.058   6.385
11240TIP3    H233666   2.809   6.101   6.251
11241TIP3   OH233667   4.462   7.776   6.400
11241TIP3    H133668   4.501   7.720   6.333
11241TIP3    H233669   4.413   7.716   6.456
11242TIP3   OH233670   0.050   2.907   2.500
11242TIP3    H133671   0.068   2.827   2.549
11242TIP3    H233672   0.133   2.955   2.502
11243TIP3   OH233673   3.967   4.225   2.113
11243TIP3    H133674   3.883   4.256   2.079
11243TIP3    H233675   4.032   4.256   2.050
11244TIP3   OH233676   4.003   3.140   2.771
11244TIP3    H133677   4.007   3.113   2.679
11244TIP3    H233678   4.003   3.236   2.768
11245TIP3   OH233679   8.000   6.459   6.745
11245TIP3    H133680   7.926   6.515   6.722
11245TIP3    H233681   7.975   6.373   6.711
11246TIP3   OH233682   8.073   6.827   5.508
11246TIP3    H133683   8.150   6.877   5.533
11246TIP3    H233684   8.085   6.741   5.549
11247TIP3   OH233685   8.022   0.146   2.138
11247TIP3    H133686   8.058   0.211   2.199
11247TIP3    H233687   8.096   0.090   2.115
11248TIP3   OH233688   5.216   7.194   3.153
11248TIP3    H133689   5.207   7.288   3.143
11248TIP3    H233690   5.144   7.157   3.102
11249TIP3   OH233691   5.697   0.682   0.364
11249TIP3    H133692   5.771   0.687   0.304
11249TIP3    H233693   5.726   0.727   0.442
11250TIP3   OH233694   6.260   7.586   1.379
11250TIP3    H133695   6.215   7.669   1.392
11250TIP3    H233696   6.300   7.567   1.465
11251TIP3   OH233697   5.771   4.178   5.591
11251TIP3    H133698   5.784   4.125   5.513
11251TIP3    H233699   5.781   4.268   5.561
11252TIP3   OH233700   2.757   2.903   5.183
11252TIP3    H133701   2.777   2.951   5.103
11252TIP3    H233702   2.674   2.938   5.213
11253TIP3   OH233703   4.589   1.315   0.477
11253TIP3    H133704   4.570   1.340   0.567
11253TIP3    H233705   4.673   1.270   0.481
11254TIP3   OH233706   2.978   1.762   1.703
11254TIP3    H133707   2.961   1.668   1.698
11254TIP3    H233708   3.013   1.775   1.791
11255TIP3   OH233709   6.946   0.842   6.141
11255TIP3    H133710   6.923   0.787   6.066
11255TIP3    H233711   6.973   0.779   6.209
11256TIP3   OH233712   3.014   0.937   5.519
11256TIP3    H133713   3.079   0.933   5.449
11256TIP3    H233714   2.997   0.846   5.543
11257TIP3   OH233715   7.789   2.581   3.457
11257TIP3    H133716   7.709   2.624   3.427
11257TIP3    H233717   7.820   2.636   3.530
11258TIP3   OH233718   5.487   6.110   3.836
11258TIP3    H133719   5.417   6.091   3.773
11258TIP3    H233720   5.453   6.078   3.920
11259TIP3   OH233721   2.245   5.595   3.803
11259TIP3    H133722   2.219   5.684   3.777
11259TIP3    H233723   2.272   5.604   3.895
11260TIP3   OH233724   0.693   5.366   2.710
11260TIP3    H133725   0.620   5.416   2.674
11260TIP3    H233726   0.771   5.417   2.688
11261TIP3   OH233727   1.647   0.244   6.300
11261TIP3    H133728   1.718   0.297   6.264
11261TIP3    H233729   1.567   0.287   6.271
11262TIP3   OH233730   0.532   6.597   6.212
11262TIP3    H133731   0.582   6.632   6.138
11262TIP3    H233732   0.595   6.594   6.284
11263TIP3   OH233733   3.798   0.807   1.254
11263TIP3    H133734   3.886   0.843   1.241
11263TIP3    H233735   3.789   0.741   1.186
11264TIP3   OH233736   4.233   0.873   2.945
11264TIP3    H133737   4.298   0.862   2.875
11264TIP3    H233738   4.240   0.965   2.970
11265TIP3   OH233739   7.164   7.382   5.779
11265TIP3    H133740   7.136   7.388   5.687
11265TIP3    H233741   7.084   7.362   5.827
11266TIP3   OH233742   5.716   5.894   5.549
11266TIP3    H133743   5.636   5.854   5.514
11266TIP3    H233744   5.782   5.879   5.482
11267TIP3   OH233745   5.154   4.748   3.357
11267TIP3    H133746   5.190   4.754   3.445
11267TIP3    H233747   5.211   4.803   3.303
11268TIP3   OH233748   0.341   0.974   2.970
11268TIP3    H133749   0.253   0.961   2.934
11268TIP3    H233750   0.399   0.950   2.898
11269TIP3   OH233751   3.700   0.821   0.741
11269TIP3    H133752   3.765   0.866   0.686
11269TIP3    H233753   3.684   0.738   0.696
11270TIP3   OH233754   3.169   2.339   3.430
11270TIP3    H133755   3.156   2.345   3.524
11270TIP3    H233756   3.091   2.381   3.392
11271TIP3   OH233757   4.119   3.884   1.879
11271TIP3    H133758   4.159   3.955   1.829
11271TIP3    H233759   4.173   3.876   1.957
11272TIP3   OH233760   2.829   4.990   0.764
11272TIP3    H133761   2.833   5.010   0.670
11272TIP3    H233762   2.793   4.901   0.768
11273TIP3   OH233763   2.647   0.545   2.823
11273TIP3    H133764   2.712   0.559   2.754
11273TIP3    H233765   2.570   0.593   2.793
11274TIP3   OH233766   0.991   5.139   3.972
11274TIP3    H133767   0.946   5.194   4.037
11274TIP3    H233768   0.960   5.173   3.887
11275TIP3   OH233769   3.243   0.371   1.571
11275TIP3    H133770   3.317   0.402   1.519
11275TIP3    H233771   3.174   0.354   1.506
11276TIP3   OH233772   6.235   3.832   1.954
11276TIP3    H133773   6.313   3.788   1.920
11276TIP3    H233774   6.236   3.918   1.913
11277TIP3   OH233775   7.768   6.429   4.988
11277TIP3    H133776   7.744   6.499   5.049
11277TIP3    H233777   7.843   6.387   5.028
11278TIP3   OH233778   6.607   4.726   0.570
11278TIP3    H133779   6.513   4.737   0.584
11278TIP3    H233780   6.647   4.803   0.611
11279TIP3   OH233781   1.652   2.372   2.167
11279TIP3    H133782   1.707   2.441   2.205
11279TIP3    H233783   1.568   2.415   2.151
11280TIP3   OH233784   1.085   4.085   4.150
11280TIP3    H133785   1.070   4.114   4.240
11280TIP3    H233786   1.019   4.132   4.099
11281TIP3   OH233787   0.458   7.665   0.360
11281TIP3    H133788   0.441   7.704   0.275
11281TIP3    H233789   0.402   7.587   0.363
11282TIP3   OH233790   5.880   6.764   5.171
11282TIP3    H133791   5.831   6.738   5.250
11282TIP3    H233792   5.840   6.847   5.144
11283TIP3   OH233793   4.288   0.485   1.619
11283TIP3    H133794   4.377   0.500   1.653
11283TIP3    H233795   4.273   0.392   1.634
11284TIP3   OH233796   3.368   1.259   4.159
11284TIP3    H133797   3.410   1.239   4.243
11284TIP3    H233798   3.283   1.296   4.183
11285TIP3   OH233799   4.223   1.561   5.382
11285TIP3    H133800   4.242   1.468   5.398
11285TIP3    H233801   4.144   1.560   5.328
11286TIP3   OH233802   4.721   6.797   4.100
11286TIP3    H133803   4.695   6.779   4.190
11286TIP3    H233804   4.695   6.718   4.052
11287TIP3   OH233805   6.130   5.521   0.834
11287TIP3    H133806   6.064   5.565   0.780
11287TIP3    H233807   6.126   5.565   0.919
11288TIP3   OH233808   7.537   4.625   1.720
11288TIP3    H133809   7.611   4.588   1.671
11288TIP3    H233810   7.501   4.550   1.768
11289TIP3   OH233811   5.031   7.657   3.399
11289TIP3    H133812   5.037   7.574   3.351
11289TIP3    H233813   4.950   7.648   3.450
11290TIP3   OH233814   0.947   4.203   6.356
11290TIP3    H133815   0.895   4.162   6.425
11290TIP3    H233816   0.944   4.140   6.283
11291TIP3   OH233817   4.084   0.692   4.266
11291TIP3    H133818   4.147   0.759   4.238
11291TIP3    H233819   4.044   0.728   4.345
11292TIP3   OH233820   2.335   2.222   3.030
11292TIP3    H133821   2.274   2.287   2.994
11292TIP3    H233822   2.280   2.147   3.051
11293TIP3   OH233823   7.359   3.100   0.791
11293TIP3    H133824   7.316   3.175   0.750
11293TIP3    H233825   7.419   3.067   0.724
11294TIP3   OH233826   4.897   1.094   5.044
11294TIP3    H133827   4.958   1.073   4.974
11294TIP3    H233828   4.838   1.160   5.007
11295TIP3   OH233829   3.250   3.480   6.501
11295TIP3    H133830   3.252   3.458   6.408
11295TIP3    H233831   3.196   3.560   6.505
11296TIP3   OH233832   7.725   5.763   2.808
11296TIP3    H133833   7.817   5.741   2.822
11296TIP3    H233834   7.679   5.722   2.881
11297TIP3   OH233835   4.815   2.228   2.217
11297TIP3    H133836   4.903   2.191   2.209
11297TIP3    H233837   4.759   2.168   2.166
11298TIP3   OH233838   8.238   6.201   1.491
11298TIP3    H133839   8.190   6.145   1.552
11298TIP3    H233840   8.196   6.287   1.500
11299TIP3   OH233841   7.427   3.883   3.909
11299TIP3    H133842   7.517   3.906   3.886
11299TIP3    H233843   7.435   3.835   3.991
11300TIP3   OH233844   6.857   6.476   1.646
11300TIP3    H133845   6.905   6.556   1.626
11300TIP3    H233846   6.775   6.507   1.685
11301TIP3   OH233847   3.212   0.057   3.875
11301TIP3    H133848   3.307   0.056   3.883
11301TIP3    H233849   3.196   0.057   3.781
11302TIP3   OH233850   7.448   5.242   2.679
11302TIP3    H133851   7.433   5.222   2.771
11302TIP3    H233852   7.542   5.263   2.675
11303TIP3   OH233853   5.039   4.177   4.117
11303TIP3    H133854   4.968   4.221   4.070
11303TIP3    H233855   5.105   4.245   4.130
11304TIP3   OH233856   0.906   0.825   3.353
11304TIP3    H133857   0.848   0.839   3.278
11304TIP3    H233858   0.977   0.888   3.339
11305TIP3   OH233859   6.882   0.988   3.690
11305TIP3    H133860   6.915   1.028   3.771
11305TIP3    H233861   6.820   0.922   3.719
11306TIP3   OH233862   1.593   4.647   5.864
11306TIP3    H133863   1.683   4.628   5.839
11306TIP3    H233864   1.571   4.726   5.814
11307TIP3   OH233865   7.473   5.974   0.722
11307TIP3    H133866   7.399   5.918   0.697
11307TIP3    H233867   7.495   5.946   0.811
11308TIP3   OH233868   3.538   1.980   4.736
11308TIP3    H133869   3.447   2.009   4.726
11308TIP3    H233870   3.578   1.997   4.651
11309TIP3   OH233871   7.882   4.214   1.776
11309TIP3    H133872   7.910   4.165   1.699
11309TIP3    H233873   7.862   4.302   1.743
11310TIP3   OH233874   1.969   5.023   5.746
11310TIP3    H133875   1.961   4.971   5.667
11310TIP3    H233876   2.027   4.972   5.803
11311TIP3   OH233877   2.998   5.495   5.129
11311TIP3    H133878   2.979   5.401   5.126
11311TIP3    H233879   3.001   5.516   5.222
11312TIP3   OH233880   2.290   4.250   1.013
11312TIP3    H133881   2.293   4.306   1.090
11312TIP3    H233882   2.382   4.232   0.992
11313TIP3   OH233883   1.721   5.275   2.137
11313TIP3    H133884   1.680   5.235   2.214
11313TIP3    H233885   1.810   5.295   2.165
11314TIP3   OH233886   6.785   7.135   1.833
11314TIP3    H133887   6.737   7.184   1.766
11314TIP3    H233888   6.771   7.185   1.914
11315TIP3   OH233889   4.797   3.075   0.446
11315TIP3    H133890   4.764   3.103   0.361
11315TIP3    H233891   4.892   3.071   0.434
11316TIP3   OH233892   3.053   7.340   3.763
11316TIP3    H133893   2.964   7.359   3.735
11316TIP3    H233894   3.099   7.424   3.756
11317TIP3   OH233895   0.869   3.230   2.420
11317TIP3    H133896   0.860   3.263   2.509
11317TIP3    H233897   0.931   3.157   2.428
11318TIP3   OH233898   4.397   0.617   3.897
11318TIP3    H133899   4.432   0.660   3.975
11318TIP3    H233900   4.309   0.653   3.888
11319TIP3   OH233901   1.665   2.129   6.465
11319TIP3    H133902   1.723   2.174   6.403
11319TIP3    H233903   1.623   2.199   6.514
11320TIP3   OH233904   1.163   7.643   6.384
11320TIP3    H133905   1.200   7.565   6.425
11320TIP3    H233906   1.107   7.610   6.314
11321TIP3   OH233907   3.945   0.513   0.824
11321TIP3    H133908   4.035   0.490   0.847
11321TIP3    H233909   3.954   0.595   0.775
11322TIP3   OH233910   4.167   2.735   2.000
11322TIP3    H133911   4.197   2.734   1.909
11322TIP3    H233912   4.072   2.728   1.994
11323TIP3   OH233913   2.518   7.724   1.788
11323TIP3    H133914   2.432   7.684   1.771
11323TIP3    H233915   2.535   7.777   1.709
11324TIP3   OH233916   1.625   2.103   0.800
11324TIP3    H133917   1.627   2.052   0.882
11324TIP3    H233918   1.716   2.110   0.774
11325TIP3   OH233919   5.104   3.888   3.095
11325TIP3    H133920   5.160   3.870   3.171
11325TIP3    H233921   5.134   3.827   3.028
11326TIP3   OH233922   7.152   2.983   2.560
11326TIP3    H133923   7.163   2.912   2.496
11326TIP3    H233924   7.167   3.062   2.509
11327TIP3   OH233925   6.300   1.564   3.995
11327TIP3    H133926   6.205   1.564   4.009
11327TIP3    H233927   6.334   1.613   4.070
11328TIP3   OH233928   2.281   4.516   1.556
11328TIP3    H133929   2.270   4.504   1.650
11328TIP3    H233930   2.217   4.456   1.516
11329TIP3   OH233931   7.919   6.146   5.994
11329TIP3    H133932   7.976   6.221   5.975
11329TIP3    H233933   7.895   6.156   6.086
11330TIP3   OH233934   5.237   1.497   3.223
11330TIP3    H133935   5.315   1.462   3.266
11330TIP3    H233936   5.222   1.437   3.149
11331TIP3   OH233937   0.416   7.228   4.468
11331TIP3    H133938   0.419   7.150   4.412
11331TIP3    H233939   0.456   7.200   4.550
11332TIP3   OH233940   6.183   0.982   5.352
11332TIP3    H133941   6.266   0.942   5.325
11332TIP3    H233942   6.204   1.029   5.433
11333TIP3   OH233943   6.024   4.749   6.071
11333TIP3    H133944   6.073   4.709   6.143
11333TIP3    H233945   5.978   4.823   6.111
11334TIP3   OH233946   7.764   5.514   1.934
11334TIP3    H133947   7.785   5.435   1.884
11334TIP3    H233948   7.830   5.578   1.907
11335TIP3   OH233949   0.243   4.753   1.997
11335TIP3    H133950   0.263   4.801   2.078
11335TIP3    H233951   0.165   4.702   2.018
11336TIP3   OH233952   3.970   7.620   5.864
11336TIP3    H133953   4.008   7.557   5.926
11336TIP3    H233954   3.899   7.661   5.912
11337TIP3   OH233955   5.791   0.352   3.027
11337TIP3    H133956   5.859   0.285   3.013
11337TIP3    H233957   5.713   0.302   3.050
11338TIP3   OH233958   5.854   3.319   0.203
11338TIP3    H133959   5.911   3.380   0.250
11338TIP3    H233960   5.767   3.331   0.242
11339TIP3   OH233961   1.147   2.503   4.308
11339TIP3    H133962   1.190   2.435   4.361
11339TIP3    H233963   1.217   2.538   4.253
11340TIP3   OH233964   7.519   0.985   2.098
11340TIP3    H133965   7.562   0.937   2.027
11340TIP3    H233966   7.451   0.925   2.130
11341TIP3   OH233967   1.193   5.571   2.782
11341TIP3    H133968   1.277   5.617   2.783
11341TIP3    H233969   1.147   5.603   2.860
11342TIP3   OH233970   3.767   6.744   0.836
11342TIP3    H133971   3.696   6.725   0.899
11342TIP3    H233972   3.775   6.840   0.838
11343TIP3   OH233973   6.803   5.896   3.943
11343TIP3    H133974   6.751   5.845   4.005
11343TIP3    H233975   6.756   5.979   3.935
11344TIP3   OH233976   5.577   7.058   5.039
11344TIP3    H133977   5.555   7.144   5.004
11344TIP3    H233978   5.493   7.012   5.046
11345TIP3   OH233979   8.123   2.097   3.861
11345TIP3    H133980   8.186   2.067   3.926
11345TIP3    H233981   8.175   2.110   3.781
11346TIP3   OH233982   6.314   5.490   5.472
11346TIP3    H133983   6.261   5.534   5.406
11346TIP3    H233984   6.270   5.407   5.488
11347TIP3   OH233985   1.848   4.366   2.254
11347TIP3    H133986   1.910   4.386   2.325
11347TIP3    H233987   1.861   4.273   2.238
11348TIP3   OH233988   8.247   2.889   0.636
11348TIP3    H133989   8.280   2.805   0.605
11348TIP3    H233990   8.310   2.917   0.702
11349TIP3   OH233991   5.770   7.285   1.802
11349TIP3    H133992   5.821   7.305   1.880
11349TIP3    H233993   5.827   7.227   1.751
11350TIP3   OH233994   4.225   0.061   6.305
11350TIP3    H133995   4.238   0.031   6.395
11350TIP3    H233996   4.194  -0.016   6.258
11351TIP3   OH233997   0.898   1.549   3.246
11351TIP3    H133998   0.916   1.617   3.311
11351TIP3    H233999   0.820   1.505   3.278
11352TIP3   OH234000   2.714   3.701   5.178
11352TIP3    H134001   2.683   3.611   5.181
11352TIP3    H234002   2.686   3.733   5.092
11353TIP3   OH234003   2.316   1.506   2.840
11353TIP3    H134004   2.229   1.524   2.874
11353TIP3    H234005   2.349   1.434   2.895
11354TIP3   OH234006   2.461   1.766   1.396
11354TIP3    H134007   2.514   1.707   1.343
11354TIP3    H234008   2.515   1.845   1.405
11355TIP3   OH234009   2.940   0.413   4.581
11355TIP3    H134010   2.856   0.448   4.553
11355TIP3    H234011   3.003   0.480   4.558
11356TIP3   OH234012   2.290   3.778   6.207
11356TIP3    H134013   2.263   3.777   6.115
11356TIP3    H234014   2.210   3.800   6.256
11357TIP3   OH234015   3.269   7.445   1.532
11357TIP3    H134016   3.326   7.463   1.457
11357TIP3    H234017   3.315   7.483   1.607
11358TIP3   OH234018   6.718   6.051   4.984
11358TIP3    H134019   6.723   6.146   4.985
11358TIP3    H234020   6.807   6.022   4.967
11359TIP3   OH234021   5.459   3.152   2.001
11359TIP3    H134022   5.445   3.244   2.023
11359TIP3    H234023   5.520   3.154   1.928
11360TIP3   OH234024   6.344   7.680   0.083
11360TIP3    H134025   6.312   7.664  -0.005
11360TIP3    H234026   6.416   7.619   0.095
11361TIP3   OH234027   0.482   5.409   6.501
11361TIP3    H134028   0.522   5.451   6.425
11361TIP3    H234029   0.492   5.473   6.572
11362TIP3   OH234030   3.198   3.853   0.592
11362TIP3    H134031   3.197   3.916   0.520
11362TIP3    H234032   3.183   3.769   0.549
11363TIP3   OH234033   6.019   6.715   5.743
11363TIP3    H134034   6.033   6.650   5.812
11363TIP3    H234035   5.924   6.724   5.737
11364TIP3   OH234036   3.197   7.062   6.439
11364TIP3    H134037   3.148   7.119   6.379
11364TIP3    H234038   3.204   7.112   6.520
11365TIP3   OH234039   1.421   5.274   6.740
11365TIP3    H134040   1.336   5.300   6.704
11365TIP3    H234041   1.472   5.246   6.664
11366TIP3   OH234042   5.150   2.147   0.320
11366TIP3    H134043   5.226   2.091   0.306
11366TIP3    H234044   5.187   2.235   0.330
11367TIP3   OH234045   4.666   0.202   5.740
11367TIP3    H134046   4.585   0.199   5.791
11367TIP3    H234047   4.643   0.249   5.660
11368TIP3   OH234048   1.508   0.146   1.771
11368TIP3    H134049   1.422   0.116   1.742
11368TIP3    H234050   1.569   0.080   1.738
11369TIP3   OH234051   2.849   6.578   3.809
11369TIP3    H134052   2.870   6.501   3.863
11369TIP3    H234053   2.932   6.626   3.803
11370TIP3   OH234054   7.980   3.910   4.903
11370TIP3    H134055   8.052   3.858   4.937
11370TIP3    H234056   7.953   3.965   4.977
11371TIP3   OH234057   1.094   3.042   4.520
11371TIP3    H134058   1.103   2.960   4.568
11371TIP3    H234059   1.113   3.110   4.585
11372TIP3   OH234060   1.372   3.740   0.503
11372TIP3    H134061   1.317   3.674   0.545
11372TIP3    H234062   1.342   3.823   0.539
11373TIP3   OH234063   6.115   0.315   5.096
11373TIP3    H134064   6.145   0.227   5.073
11373TIP3    H234065   6.196   0.364   5.114
11374TIP3   OH234066   6.597   4.781   2.438
11374TIP3    H134067   6.690   4.802   2.433
11374TIP3    H234068   6.571   4.810   2.526
11375TIP3   OH234069   3.314   0.768   1.198
11375TIP3    H134070   3.270   0.688   1.170
11375TIP3    H234071   3.360   0.799   1.120
11376TIP3   OH234072   0.908   3.269   0.361
11376TIP3    H134073   0.998   3.282   0.394
11376TIP3    H234074   0.860   3.345   0.393
11377TIP3   OH234075   2.842   1.683   4.106
11377TIP3    H134076   2.814   1.623   4.176
11377TIP3    H234077   2.936   1.693   4.120
11378TIP3   OH234078   2.104   0.277   3.385
11378TIP3    H134079   2.037   0.338   3.416
11378TIP3    H234080   2.103   0.206   3.450
11379TIP3   OH234081   0.058   2.160   2.839
11379TIP3    H134082   0.108   2.182   2.917
11379TIP3    H234083   0.053   2.064   2.839
11380TIP3   OH234084   7.652   3.362   2.252
11380TIP3    H134085   7.734   3.314   2.238
11380TIP3    H234086   7.643   3.367   2.347
11381TIP3   OH234087   6.706   5.432   3.259
11381TIP3    H134088   6.744   5.358   3.307
11381TIP3    H234089   6.771   5.454   3.193
11382TIP3   OH234090   2.428   1.479   1.902
11382TIP3    H134091   2.485   1.554   1.919
11382TIP3    H234092   2.402   1.489   1.810
11383TIP3   OH234093   4.514   3.839   6.268
11383TIP3    H134094   4.445   3.875   6.212
11383TIP3    H234095   4.595   3.870   6.228
11384TIP3   OH234096   1.192   6.609   3.688
11384TIP3    H134097   1.202   6.696   3.651
11384TIP3    H234098   1.281   6.572   3.686
11385TIP3   OH234099   6.829   7.195   2.866
11385TIP3    H134100   6.911   7.181   2.818
11385TIP3    H234101   6.792   7.107   2.875
11386TIP3   OH234102   3.327   5.138   0.315
11386TIP3    H134103   3.376   5.092   0.246
11386TIP3    H234104   3.321   5.228   0.283
11387TIP3   OH234105   7.598   6.305   1.212
11387TIP3    H134106   7.530   6.248   1.249
11387TIP3    H234107   7.676   6.284   1.263
11388TIP3   OH234108   1.546   7.592   3.176
11388TIP3    H134109   1.600   7.597   3.097
11388TIP3    H234110   1.465   7.637   3.153
11389TIP3   OH234111   5.449   5.720   2.718
11389TIP3    H134112   5.481   5.786   2.780
11389TIP3    H234113   5.435   5.642   2.772
11390TIP3   OH234114   0.043   2.910   3.992
11390TIP3    H134115   0.027   2.979   4.057
11390TIP3    H234116   0.026   2.828   4.040
11391TIP3   OH234117   0.125   0.729   5.012
11391TIP3    H134118   0.184   0.654   5.004
11391TIP3    H234119   0.130   0.772   4.927
11392TIP3   OH234120   0.292   5.115   0.637
11392TIP3    H134121   0.358   5.125   0.706
11392TIP3    H234122   0.261   5.205   0.621
11393TIP3   OH234123   6.856   3.833   3.578
11393TIP3    H134124   6.779   3.890   3.568
11393TIP3    H234125   6.930   3.890   3.557
11394TIP3   OH234126   0.417   4.047   3.203
11394TIP3    H134127   0.439   3.962   3.164
11394TIP3    H234128   0.346   4.080   3.149
11395TIP3   OH234129   1.685   6.140   4.058
11395TIP3    H134130   1.656   6.214   4.005
11395TIP3    H234131   1.779   6.133   4.040
11396TIP3   OH234132   7.958   7.532   0.746
11396TIP3    H134133   7.881   7.585   0.768
11396TIP3    H234134   7.928   7.442   0.755
11397TIP3   OH234135   5.568   2.765   0.231
11397TIP3    H134136   5.628   2.827   0.189
11397TIP3    H234137   5.534   2.712   0.158
11398TIP3   OH234138   6.928   6.667   0.247
11398TIP3    H134139   7.004   6.645   0.193
11398TIP3    H234140   6.857   6.615   0.211
11399TIP3   OH234141   2.750   6.848   5.303
11399TIP3    H134142   2.726   6.777   5.363
11399TIP3    H234143   2.719   6.819   5.218
11400TIP3   OH234144   1.922   5.468   3.682
11400TIP3    H134145   1.864   5.535   3.645
11400TIP3    H234146   1.941   5.499   3.770
11401TIP3   OH234147   0.326   2.920   3.006
11401TIP3    H134148   0.335   2.849   3.069
11401TIP3    H234149   0.371   2.994   3.047
11402TIP3   OH234150   6.984   7.733   3.214
11402TIP3    H134151   7.031   7.715   3.296
11402TIP3    H234152   6.969   7.828   3.215
11403TIP3   OH234153   3.072   5.702   4.613
11403TIP3    H134154   3.003   5.768   4.607
11403TIP3    H234155   3.141   5.743   4.666
11404TIP3   OH234156   7.073   0.690   6.676
11404TIP3    H134157   7.075   0.609   6.728
11404TIP3    H234158   6.990   0.686   6.629
11405TIP3   OH234159   7.286   5.199   4.323
11405TIP3    H134160   7.199   5.171   4.349
11405TIP3    H234161   7.311   5.264   4.388
11406TIP3   OH234162   7.467   1.043   1.730
11406TIP3    H134163   7.429   0.956   1.716
11406TIP3    H234164   7.539   1.028   1.790
11407TIP3   OH234165   1.147   0.073   2.910
11407TIP3    H134166   1.194  -0.002   2.873
11407TIP3    H234167   1.096   0.036   2.982
11408TIP3   OH234168   5.264   5.923   2.407
11408TIP3    H134169   5.237   5.978   2.334
11408TIP3    H234170   5.182   5.891   2.445
11409TIP3   OH234171   7.767   7.725   0.786
11409TIP3    H134172   7.691   7.751   0.732
11409TIP3    H234173   7.808   7.808   0.809
11410TIP3   OH234174   2.990   4.315   6.436
11410TIP3    H134175   2.920   4.303   6.372
11410TIP3    H234176   3.019   4.405   6.423
11411TIP3   OH234177   6.709   0.368   3.073
11411TIP3    H134178   6.693   0.420   2.994
11411TIP3    H234179   6.797   0.333   3.061
11412TIP3   OH234180   2.885   6.352   1.382
11412TIP3    H134181   2.802   6.375   1.340
11412TIP3    H234182   2.931   6.299   1.317
11413TIP3   OH234183   3.032   0.376   1.967
11413TIP3    H134184   3.075   0.419   2.041
11413TIP3    H234185   2.979   0.307   2.006
11414TIP3   OH234186   2.361   2.612   6.584
11414TIP3    H134187   2.377   2.575   6.497
11414TIP3    H234188   2.316   2.542   6.632
11415TIP3   OH234189   3.127   0.115   1.843
11415TIP3    H134190   3.087   0.199   1.822
11415TIP3    H234191   3.214   0.118   1.803
11416TIP3   OH234192   5.873   3.482   0.685
11416TIP3    H134193   5.826   3.498   0.767
11416TIP3    H234194   5.942   3.420   0.709
11417TIP3   OH234195   6.184   3.126   5.283
11417TIP3    H134196   6.257   3.068   5.261
11417TIP3    H234197   6.154   3.095   5.368
11418TIP3   OH234198   5.819   7.054   3.851
11418TIP3    H134199   5.834   7.143   3.818
11418TIP3    H234200   5.906   7.015   3.854
11419TIP3   OH234201   7.387   5.431   5.748
11419TIP3    H134202   7.440   5.406   5.824
11419TIP3    H234203   7.446   5.421   5.673
11420TIP3   OH234204   1.753   6.684   0.321
11420TIP3    H134205   1.836   6.684   0.369
11420TIP3    H234206   1.762   6.612   0.258
11421TIP3   OH234207   4.492   4.529   5.343
11421TIP3    H134208   4.519   4.534   5.252
11421TIP3    H234209   4.413   4.582   5.348
11422TIP3   OH234210   5.415   0.869   1.671
11422TIP3    H134211   5.464   0.951   1.679
11422TIP3    H234212   5.480   0.801   1.692
11423TIP3   OH234213   4.548   6.578   6.246
11423TIP3    H134214   4.563   6.658   6.196
11423TIP3    H234215   4.633   6.533   6.245
11424TIP3   OH234216   5.881   3.641   1.536
11424TIP3    H134217   5.855   3.557   1.498
11424TIP3    H234218   5.825   3.706   1.493
11425TIP3   OH234219   6.515   2.797   6.093
11425TIP3    H134220   6.462   2.842   6.027
11425TIP3    H234221   6.574   2.864   6.126
11426TIP3   OH234222   5.586   1.351   1.075
11426TIP3    H134223   5.549   1.440   1.069
11426TIP3    H234224   5.627   1.337   0.990
11427TIP3   OH234225   1.214   4.337   5.691
11427TIP3    H134226   1.245   4.262   5.640
11427TIP3    H234227   1.138   4.368   5.643
11428TIP3   OH234228   0.633   0.061   1.386
11428TIP3    H134229   0.669   0.106   1.309
11428TIP3    H234230   0.643   0.124   1.457
11429TIP3   OH234231   0.730   0.956   0.308
11429TIP3    H134232   0.810   0.993   0.345
11429TIP3    H234233   0.659   0.999   0.356
11430TIP3   OH234234   6.108   3.093   0.986
11430TIP3    H134235   6.164   3.028   1.031
11430TIP3    H234236   6.028   3.044   0.964
11431TIP3   OH234237   1.725  -0.015   6.103
11431TIP3    H134238   1.778   0.047   6.053
11431TIP3    H234239   1.786  -0.084   6.130
11432TIP3   OH234240   2.476   0.378   3.170
11432TIP3    H134241   2.389   0.351   3.138
11432TIP3    H234242   2.458   0.454   3.226
11433TIP3   OH234243   0.007   5.044   2.137
11433TIP3    H134244   0.061   5.000   2.203
11433TIP3    H234245   0.017   5.137   2.156
11434TIP3   OH234246   5.878   3.619   3.488
11434TIP3    H134247   5.791   3.649   3.460
11434TIP3    H234248   5.939   3.662   3.428
11435TIP3   OH234249   4.166   1.037   5.949
11435TIP3    H134250   4.079   1.015   5.983
11435TIP3    H234251   4.152   1.047   5.854
11436TIP3   OH234252   3.019   5.556   6.450
11436TIP3    H134253   2.959   5.617   6.407
11436TIP3    H234254   2.971   5.474   6.455
11437TIP3   OH234255   1.276   5.170   0.542
11437TIP3    H134256   1.263   5.202   0.632
11437TIP3    H234257   1.358   5.210   0.514
11438TIP3   OH234258   0.922   1.199   0.252
11438TIP3    H134259   1.001   1.253   0.240
11438TIP3    H234260   0.877   1.239   0.326
11439TIP3   OH234261   1.825   1.746   6.337
11439TIP3    H134262   1.758   1.759   6.270
11439TIP3    H234263   1.874   1.828   6.338
11440TIP3   OH234264   6.036   4.436   4.921
11440TIP3    H134265   6.061   4.453   5.012
11440TIP3    H234266   6.100   4.483   4.869
11441TIP3   OH234267   4.131   5.365   0.152
11441TIP3    H134268   4.221   5.356   0.185
11441TIP3    H234269   4.086   5.416   0.220
11442TIP3   OH234270   6.531   3.695   3.854
11442TIP3    H134271   6.446   3.731   3.880
11442TIP3    H234272   6.594   3.742   3.908
11443TIP3   OH234273   8.062   4.901   5.321
11443TIP3    H134274   8.108   4.931   5.243
11443TIP3    H234275   8.056   4.979   5.377
11444TIP3   OH234276   5.008   0.348   5.335
11444TIP3    H134277   5.058   0.399   5.272
11444TIP3    H234278   4.917   0.356   5.307
11445TIP3   OH234279   4.566   7.661   5.278
11445TIP3    H134280   4.659   7.662   5.253
11445TIP3    H234281   4.538   7.571   5.264
11446TIP3   OH234282   6.877   0.576   0.837
11446TIP3    H134283   6.857   0.633   0.763
11446TIP3    H234284   6.969   0.552   0.824
11447TIP3   OH234285   8.158   4.864   4.677
11447TIP3    H134286   8.099   4.905   4.741
11447TIP3    H234287   8.132   4.772   4.674
11448TIP3   OH234288   1.281   5.829   6.011
11448TIP3    H134289   1.216   5.761   5.992
11448TIP3    H234290   1.362   5.796   5.975
11449TIP3   OH234291   2.824   0.645   2.635
11449TIP3    H134292   2.917   0.663   2.617
11449TIP3    H234293   2.778   0.682   2.560
11450TIP3   OH234294   1.708   3.773   0.026
11450TIP3    H134295   1.724   3.788   0.119
11450TIP3    H234296   1.777   3.821  -0.019
11451TIP3   OH234297   1.167   2.781   4.539
11451TIP3    H134298   1.194   2.717   4.473
11451TIP3    H234299   1.162   2.731   4.621
11452TIP3   OH234300   5.076   6.668   4.366
11452TIP3    H134301   5.127   6.736   4.410
11452TIP3    H234302   5.076   6.695   4.274
11453TIP3   OH234303   7.186   7.579   5.456
11453TIP3    H134304   7.145   7.516   5.396
11453TIP3    H234305   7.270   7.538   5.479
11454TIP3   OH234306   6.824   0.130   3.295
11454TIP3    H134307   6.771   0.050   3.290
11454TIP3    H234308   6.760   0.200   3.304
11455TIP3   OH234309   8.179   0.825   4.848
11455TIP3    H134310   8.194   0.743   4.895
11455TIP3    H234311   8.235   0.889   4.892
11456TIP3   OH234312   6.138   7.348   1.849
11456TIP3    H134313   6.083   7.416   1.810
11456TIP3    H234314   6.080   7.273   1.860
11457TIP3   OH234315   3.276   6.240   1.545
11457TIP3    H134316   3.298   6.149   1.526
11457TIP3    H234317   3.186   6.235   1.579
11458TIP3   OH234318   7.246   6.087   3.703
11458TIP3    H134319   7.177   6.033   3.664
11458TIP3    H234320   7.318   6.025   3.720
11459TIP3   OH234321   0.111   0.235   6.133
11459TIP3    H134322   0.024   0.247   6.095
11459TIP3    H234323   0.103   0.158   6.188
11460TIP3   OH234324   3.352   4.714   0.718
11460TIP3    H134325   3.430   4.696   0.770
11460TIP3    H234326   3.361   4.658   0.641
11461TIP3   OH234327   4.301   7.871   6.038
11461TIP3    H134328   4.233   7.827   6.089
11461TIP3    H234329   4.289   7.839   5.948
11462TIP3   OH234330   8.269   1.857   5.690
11462TIP3    H134331   8.317   1.785   5.731
11462TIP3    H234332   8.253   1.826   5.601
11463TIP3   OH234333   1.162   5.961   6.452
11463TIP3    H134334   1.079   5.978   6.407
11463TIP3    H234335   1.169   6.031   6.517
11464TIP3   OH234336   0.287   3.091   6.110
11464TIP3    H134337   0.244   3.007   6.126
11464TIP3    H234338   0.218   3.156   6.119
11465TIP3   OH234339   6.252   2.025   0.634
11465TIP3    H134340   6.315   1.958   0.606
11465TIP3    H234341   6.282   2.052   0.721
11466TIP3   OH234342   7.300   3.172   6.738
11466TIP3    H134343   7.237   3.193   6.807
11466TIP3    H234344   7.258   3.103   6.687
11467TIP3   OH234345   5.390   7.413   1.533
11467TIP3    H134346   5.449   7.342   1.560
11467TIP3    H234347   5.338   7.375   1.463
11468TIP3   OH234348   1.149   5.845   3.222
11468TIP3    H134349   1.242   5.868   3.228
11468TIP3    H234350   1.145   5.782   3.149
11469TIP3   OH234351   1.530   0.706   3.410
11469TIP3    H134352   1.495   0.725   3.323
11469TIP3    H234353   1.625   0.714   3.400
11470TIP3   OH234354   4.746   6.450   5.174
11470TIP3    H134355   4.728   6.390   5.247
11470TIP3    H234356   4.811   6.404   5.121
11471TIP3   OH234357   7.641   1.261   3.899
11471TIP3    H134358   7.654   1.166   3.898
11471TIP3    H234359   7.729   1.298   3.892
11472TIP3   OH234360   4.028   1.869   0.303
11472TIP3    H134361   4.122   1.863   0.322
11472TIP3    H234362   3.986   1.870   0.389
11473TIP3   OH234363   8.114   6.929   1.950
11473TIP3    H134364   8.145   6.944   2.039
11473TIP3    H234365   8.026   6.967   1.948
11474TIP3   OH234366   8.036   3.185   4.657
11474TIP3    H134367   8.024   3.278   4.637
11474TIP3    H234368   8.050   3.182   4.751
11475TIP3   OH234369   2.658   0.852   2.767
11475TIP3    H134370   2.686   0.820   2.682
11475TIP3    H234371   2.574   0.809   2.783
11476TIP3   OH234372   1.224   4.811   0.700
11476TIP3    H134373   1.244   4.740   0.761
11476TIP3    H234374   1.306   4.826   0.653
11477TIP3   OH234375   3.637   6.418   2.049
11477TIP3    H134376   3.641   6.494   2.108
11477TIP3    H234377   3.610   6.346   2.106
11478TIP3   OH234378   1.109   4.551   2.109
11478TIP3    H134379   1.055   4.584   2.037
11478TIP3    H234380   1.184   4.510   2.066
11479TIP3   OH234381   1.881   1.398   2.936
11479TIP3    H134382   1.931   1.318   2.952
11479TIP3    H234383   1.790   1.370   2.941
11480TIP3   OH234384   7.579   6.402   2.694
11480TIP3    H134385   7.659   6.451   2.716
11480TIP3    H234386   7.541   6.381   2.779
11481TIP3   OH234387   3.771   5.845   3.462
11481TIP3    H134388   3.753   5.870   3.372
11481TIP3    H234389   3.809   5.924   3.502
11482TIP3   OH234390   3.761   0.910   6.363
11482TIP3    H134391   3.855   0.907   6.345
11482TIP3    H234392   3.736   0.818   6.375
11483TIP3   OH234393   5.027   1.475   3.794
11483TIP3    H134394   5.007   1.492   3.702
11483TIP3    H234395   5.034   1.380   3.801
11484TIP3   OH234396   3.540   4.072   3.588
11484TIP3    H134397   3.512   3.998   3.535
11484TIP3    H234398   3.475   4.140   3.571
11485TIP3   OH234399   7.296   7.338   2.188
11485TIP3    H134400   7.260   7.406   2.244
11485TIP3    H234401   7.363   7.295   2.242
11486TIP3   OH234402   1.010   7.298   4.019
11486TIP3    H134403   1.090   7.281   4.069
11486TIP3    H234404   1.034   7.279   3.928
11487TIP3   OH234405   7.465   0.888   4.808
11487TIP3    H134406   7.461   0.797   4.836
11487TIP3    H234407   7.532   0.927   4.865
11488TIP3   OH234408   4.247   1.326   4.817
11488TIP3    H134409   4.289   1.242   4.836
11488TIP3    H234410   4.155   1.304   4.807
11489TIP3   OH234411   1.861   3.301   3.133
11489TIP3    H134412   1.834   3.270   3.219
11489TIP3    H234413   1.816   3.243   3.071
11490TIP3   OH234414   5.951   6.300   4.080
11490TIP3    H134415   5.857   6.317   4.090
11490TIP3    H234416   5.967   6.308   3.986
11491TIP3   OH234417   4.148   2.125   2.139
11491TIP3    H134418   4.227   2.094   2.182
11491TIP3    H234419   4.081   2.060   2.160
11492TIP3   OH234420   5.656   3.531   3.115
11492TIP3    H134421   5.645   3.626   3.110
11492TIP3    H234422   5.748   3.519   3.138
11493TIP3   OH234423   0.228   2.488   1.089
11493TIP3    H134424   0.233   2.470   1.183
11493TIP3    H234425   0.281   2.419   1.049
11494TIP3   OH234426   2.931   6.811   0.742
11494TIP3    H134427   2.906   6.870   0.813
11494TIP3    H234428   2.990   6.863   0.688
11495TIP3   OH234429   1.184   0.590   6.381
11495TIP3    H134430   1.170   0.499   6.353
11495TIP3    H234431   1.239   0.583   6.459
11496TIP3   OH234432   2.412   3.162   1.558
11496TIP3    H134433   2.451   3.171   1.645
11496TIP3    H234434   2.476   3.112   1.507
11497TIP3   OH234435   3.167   2.996   5.879
11497TIP3    H134436   3.226   2.946   5.823
11497TIP3    H234437   3.080   2.962   5.857
11498TIP3   OH234438   1.575   4.604   6.336
11498TIP3    H134439   1.484   4.623   6.359
11498TIP3    H234440   1.571   4.582   6.243
11499TIP3   OH234441   3.037   1.458   1.315
11499TIP3    H134442   2.990   1.430   1.394
11499TIP3    H234443   2.976   1.517   1.271
11500TIP3   OH234444   2.162   6.880   1.743
11500TIP3    H134445   2.242   6.930   1.727
11500TIP3    H234446   2.170   6.849   1.833
11501TIP3   OH234447   4.078   3.716   1.687
11501TIP3    H134448   4.171   3.713   1.665
11501TIP3    H234449   4.074   3.771   1.765
11502TIP3   OH234450   3.149   0.546   3.435
11502TIP3    H134451   3.177   0.572   3.347
11502TIP3    H234452   3.083   0.478   3.420
11503TIP3   OH234453   0.062   3.417   5.548
11503TIP3    H134454   0.049   3.331   5.588
11503TIP3    H234455  -0.019   3.464   5.565
11504TIP3   OH234456   3.294   4.158   6.059
11504TIP3    H134457   3.254   4.071   6.061
11504TIP3    H234458   3.221   4.217   6.038
11505TIP3   OH234459   0.838   7.437   2.720
11505TIP3    H134460   0.898   7.377   2.764
11505TIP3    H234461   0.751   7.411   2.750
11506TIP3   OH234462   6.739   2.551   3.752
11506TIP3    H134463   6.655   2.581   3.788
11506TIP3    H234464   6.804   2.608   3.794
11507TIP3   OH234465   4.531   5.703   2.937
11507TIP3    H134466   4.581   5.717   2.857
11507TIP3    H234467   4.596   5.695   3.006
11508TIP3   OH234468   0.708   3.286   6.332
11508TIP3    H134469   0.629   3.300   6.279
11508TIP3    H234470   0.679   3.228   6.402
11509TIP3   OH234471   0.425   3.789   5.426
11509TIP3    H134472   0.357   3.797   5.492
11509TIP3    H234473   0.421   3.871   5.376
11510TIP3   OH234474   5.625   2.643   1.329
11510TIP3    H134475   5.563   2.658   1.401
11510TIP3    H234476   5.639   2.548   1.329
11511TIP3   OH234477   2.027   7.294   2.491
11511TIP3    H134478   2.041   7.322   2.582
11511TIP3    H234479   2.085   7.219   2.480
11512TIP3   OH234480   5.467   7.499   3.939
11512TIP3    H134481   5.503   7.412   3.955
11512TIP3    H234482   5.405   7.514   4.011
11513TIP3   OH234483   8.105   5.803   6.398
11513TIP3    H134484   8.170   5.739   6.428
11513TIP3    H234485   8.103   5.791   6.303
11514TIP3   OH234486   7.642   3.841   0.263
11514TIP3    H134487   7.556   3.798   0.261
11514TIP3    H234488   7.625   3.931   0.237
11515TIP3   OH234489   2.049   5.878   0.428
11515TIP3    H134490   2.025   5.961   0.387
11515TIP3    H234491   2.038   5.893   0.522
11516TIP3   OH234492   0.947   6.170   2.788
11516TIP3    H134493   0.931   6.228   2.861
11516TIP3    H234494   1.038   6.188   2.762
11517TIP3   OH234495   1.687   0.978   5.289
11517TIP3    H134496   1.769   1.014   5.255
11517TIP3    H234497   1.681   0.891   5.250
11518TIP3   OH234498   3.449   3.455   5.542
11518TIP3    H134499   3.481   3.534   5.498
11518TIP3    H234500   3.413   3.401   5.471
11519TIP3   OH234501   7.470   1.905   3.391
11519TIP3    H134502   7.411   1.974   3.422
11519TIP3    H234503   7.505   1.866   3.471
11520TIP3   OH234504   6.230   5.493   4.632
11520TIP3    H134505   6.278   5.561   4.584
11520TIP3    H234506   6.160   5.540   4.677
11521TIP3   OH234507   8.188   7.278   4.123
11521TIP3    H134508   8.108   7.301   4.074
11521TIP3    H234509   8.253   7.261   4.055
11522TIP3   OH234510   6.279   6.988   4.806
11522TIP3    H134511   6.214   6.959   4.870
11522TIP3    H234512   6.357   7.007   4.858
11523TIP3   OH234513   5.089   0.454   0.865
11523TIP3    H134514   5.073   0.384   0.929
11523TIP3    H234515   5.116   0.528   0.919
11524TIP3   OH234516   5.746   1.200   2.780
11524TIP3    H134517   5.757   1.118   2.829
11524TIP3    H234518   5.688   1.177   2.708
11525TIP3   OH234519   7.307   1.513   6.278
11525TIP3    H134520   7.250   1.573   6.327
11525TIP3    H234521   7.358   1.570   6.221
11526TIP3   OH234522   0.544   4.889   2.283
11526TIP3    H134523   0.594   4.954   2.332
11526TIP3    H234524   0.609   4.847   2.225
11527TIP3   OH234525   0.123   0.601   5.640
11527TIP3    H134526   0.038   0.604   5.685
11527TIP3    H234527   0.180   0.656   5.694
11528TIP3   OH234528   1.415   4.624   0.706
11528TIP3    H134529   1.454   4.624   0.793
11528TIP3    H234530   1.466   4.689   0.657
11529TIP3   OH234531   6.023   1.955   1.663
11529TIP3    H134532   5.932   1.942   1.688
11529TIP3    H234533   6.062   2.000   1.738
11530TIP3   OH234534   6.004   4.027   5.697
11530TIP3    H134535   5.979   4.107   5.651
11530TIP3    H234536   6.016   3.962   5.627
11531TIP3   OH234537   7.833   3.622   0.211
11531TIP3    H134538   7.792   3.555   0.267
11531TIP3    H234539   7.829   3.702   0.263
11532TIP3   OH234540   6.955   3.598   1.562
11532TIP3    H134541   6.925   3.535   1.496
11532TIP3    H234542   6.961   3.546   1.642
11533TIP3   OH234543   5.208   0.911   2.082
11533TIP3    H134544   5.164   0.992   2.058
11533TIP3    H234545   5.298   0.923   2.053
11534TIP3   OH234546   3.625   2.998   1.197
11534TIP3    H134547   3.605   3.090   1.177
11534TIP3    H234548   3.657   3.000   1.287
11535TIP3   OH234549   3.189   6.702   5.923
11535TIP3    H134550   3.231   6.625   5.964
11535TIP3    H234551   3.116   6.666   5.874
11536TIP3   OH234552   7.797   0.621   4.527
11536TIP3    H134553   7.727   0.661   4.475
11536TIP3    H234554   7.752   0.561   4.586
11537TIP3   OH234555   6.776   4.101   2.449
11537TIP3    H134556   6.792   4.009   2.431
11537TIP3    H234557   6.743   4.136   2.366
11538TIP3   OH234558   1.848   0.379   3.183
11538TIP3    H134559   1.846   0.349   3.092
11538TIP3    H234560   1.844   0.298   3.235
11539TIP3   OH234561   1.891   4.492   6.657
11539TIP3    H134562   1.909   4.572   6.707
11539TIP3    H234563   1.800   4.501   6.630
11540TIP3   OH234564   4.145   4.492   5.209
11540TIP3    H134565   4.209   4.554   5.172
11540TIP3    H234566   4.148   4.417   5.150
11541TIP3   OH234567   1.868   6.771   3.675
11541TIP3    H134568   1.888   6.810   3.590
11541TIP3    H234569   1.934   6.808   3.734
11542TIP3   OH234570   6.320   7.309   0.138
11542TIP3    H134571   6.332   7.223   0.097
11542TIP3    H234572   6.292   7.366   0.066
11543TIP3   OH234573   6.152   0.680   0.630
11543TIP3    H134574   6.182   0.598   0.591
11543TIP3    H234575   6.140   0.740   0.556
11544TIP3   OH234576   1.152   1.536   6.764
11544TIP3    H134577   1.223   1.512   6.824
11544TIP3    H234578   1.110   1.452   6.743
11545TIP3   OH234579   3.658   6.527   5.839
11545TIP3    H134580   3.681   6.608   5.885
11545TIP3    H234581   3.562   6.529   5.835
11546TIP3   OH234582   3.803   5.741   1.629
11546TIP3    H134583   3.892   5.764   1.604
11546TIP3    H234584   3.806   5.736   1.725
11547TIP3   OH234585   7.179   3.323   1.477
11547TIP3    H134586   7.084   3.330   1.474
11547TIP3    H234587   7.209   3.370   1.400
11548TIP3   OH234588   5.363   5.673   6.723
11548TIP3    H134589   5.371   5.657   6.629
11548TIP3    H234590   5.270   5.691   6.736
11549TIP3   OH234591   3.883   4.037   1.895
11549TIP3    H134592   3.875   4.059   1.988
11549TIP3    H234593   3.969   3.996   1.887
11550TIP3   OH234594   0.666   3.953   6.213
11550TIP3    H134595   0.755   3.965   6.245
11550TIP3    H234596   0.676   3.902   6.132
11551TIP3   OH234597   1.130   3.467   2.632
11551TIP3    H134598   1.146   3.459   2.538
11551TIP3    H234599   1.040   3.437   2.644
11552TIP3   OH234600   2.274   0.740   1.795
11552TIP3    H134601   2.265   0.735   1.890
11552TIP3    H234602   2.233   0.823   1.771
11553TIP3   OH234603   1.485   5.722   2.050
11553TIP3    H134604   1.470   5.705   1.957
11553TIP3    H234605   1.557   5.785   2.052
11554TIP3   OH234606   0.292   0.714   1.208
11554TIP3    H134607   0.350   0.775   1.253
11554TIP3    H234608   0.295   0.634   1.261
11555TIP3   OH234609   5.424   3.656   4.519
11555TIP3    H134610   5.462   3.641   4.432
11555TIP3    H234611   5.357   3.589   4.527
11556TIP3   OH234612   0.881   0.339   5.325
11556TIP3    H134613   0.832   0.337   5.408
11556TIP3    H234614   0.959   0.391   5.344
11557TIP3   OH234615   2.021   7.499   1.895
11557TIP3    H134616   1.959   7.486   1.967
11557TIP3    H234617   1.995   7.433   1.830
11558TIP3   OH234618   0.374   6.693   3.333
11558TIP3    H134619   0.390   6.737   3.250
11558TIP3    H234620   0.285   6.660   3.327
11559TIP3   OH234621   0.581   1.565   5.920
11559TIP3    H134622   0.627   1.614   5.989
11559TIP3    H234623   0.489   1.573   5.943
11560TIP3   OH234624   1.024   1.114   0.931
11560TIP3    H134625   1.009   1.092   1.023
11560TIP3    H234626   1.089   1.184   0.933
11561TIP3   OH234627   2.207   1.304   2.242
11561TIP3    H134628   2.262   1.276   2.168
11561TIP3    H234629   2.171   1.388   2.214
11562TIP3   OH234630   1.305   4.171   6.239
11562TIP3    H134631   1.332   4.173   6.331
11562TIP3    H234632   1.365   4.232   6.196
11563TIP3   OH234633   1.376   7.485   1.545
11563TIP3    H134634   1.326   7.411   1.578
11563TIP3    H234635   1.366   7.480   1.450
11564TIP3   OH234636   5.587   4.578   0.390
11564TIP3    H134637   5.506   4.568   0.340
11564TIP3    H234638   5.648   4.517   0.350
11565TIP3   OH234639   2.545   7.619   4.748
11565TIP3    H134640   2.610   7.560   4.711
11565TIP3    H234641   2.594   7.678   4.805
11566TIP3   OH234642   0.596   3.524   5.056
11566TIP3    H134643   0.545   3.593   5.098
11566TIP3    H234644   0.554   3.443   5.085
11567TIP3   OH234645   6.537   6.180   5.599
11567TIP3    H134646   6.630   6.181   5.623
11567TIP3    H234647   6.502   6.262   5.635
11568TIP3   OH234648   7.972   5.367   5.235
11568TIP3    H134649   7.980   5.352   5.329
11568TIP3    H234650   8.038   5.435   5.216
11569TIP3   OH234651   1.434   6.591   2.128
11569TIP3    H134652   1.452   6.542   2.048
11569TIP3    H234653   1.521   6.609   2.165
11570TIP3   OH234654   5.765   2.427   3.309
11570TIP3    H134655   5.711   2.444   3.387
11570TIP3    H234656   5.756   2.507   3.256
11571TIP3   OH234657   0.764   7.710   5.255
11571TIP3    H134658   0.701   7.649   5.294
11571TIP3    H234659   0.764   7.786   5.313
11572TIP3   OH234660   5.251   0.614   2.185
11572TIP3    H134661   5.332   0.657   2.156
11572TIP3    H234662   5.183   0.652   2.129
11573TIP3   OH234663   4.442   7.363   2.001
11573TIP3    H134664   4.478   7.276   1.984
11573TIP3    H234665   4.348   7.353   1.994
11574TIP3   OH234666   5.500   1.613   2.338
11574TIP3    H134667   5.438   1.686   2.332
11574TIP3    H234668   5.572   1.637   2.279
11575TIP3   OH234669   3.522   0.523   3.465
11575TIP3    H134670   3.597   0.516   3.524
11575TIP3    H234671   3.446   0.514   3.522
11576TIP3   OH234672   8.224   7.427   1.872
11576TIP3    H134673   8.218   7.502   1.931
11576TIP3    H234674   8.152   7.438   1.811
11577TIP3   OH234675   7.306   2.089   5.478
11577TIP3    H134676   7.334   2.173   5.441
11577TIP3    H234677   7.375   2.028   5.452
11578TIP3   OH234678   1.912   6.272   1.407
11578TIP3    H134679   1.867   6.253   1.489
11578TIP3    H234680   1.950   6.359   1.420
11579TIP3   OH234681   2.692   0.103   4.725
11579TIP3    H134682   2.677   0.030   4.785
11579TIP3    H234683   2.787   0.107   4.714
11580TIP3   OH234684   8.112   3.631   2.051
11580TIP3    H134685   8.100   3.694   1.980
11580TIP3    H234686   8.080   3.548   2.015
11581TIP3   OH234687   4.042   0.618   1.704
11581TIP3    H134688   4.048   0.669   1.785
11581TIP3    H234689   4.133   0.605   1.677
11582TIP3   OH234690   1.389   0.776   6.612
11582TIP3    H134691   1.471   0.797   6.567
11582TIP3    H234692   1.416   0.757   6.702
11583TIP3   OH234693   6.882   4.794   3.430
11583TIP3    H134694   6.860   4.727   3.495
11583TIP3    H234695   6.945   4.751   3.372
11584TIP3   OH234696   3.097   0.340   2.604
11584TIP3    H134697   3.080   0.385   2.521
11584TIP3    H234698   3.135   0.407   2.660
11585TIP3   OH234699   1.428   4.540   5.519
11585TIP3    H134700   1.399   4.534   5.428
11585TIP3    H234701   1.486   4.616   5.521
11586TIP3   OH234702   6.099   7.079   2.234
11586TIP3    H134703   6.132   7.133   2.163
11586TIP3    H234704   6.068   6.999   2.191
11587TIP3   OH234705   5.214   0.622   4.515
11587TIP3    H134706   5.155   0.658   4.450
11587TIP3    H234707   5.179   0.653   4.599
11588TIP3   OH234708   2.557   6.350   4.418
11588TIP3    H134709   2.483   6.339   4.478
11588TIP3    H234710   2.631   6.372   4.475
11589TIP3   OH234711   1.021   4.766   6.121
11589TIP3    H134712   1.094   4.799   6.069
11589TIP3    H234713   0.946   4.818   6.092
11590TIP3   OH234714   0.401   4.008   6.675
11590TIP3    H134715   0.320   4.002   6.623
11590TIP3    H234716   0.471   4.010   6.610
11591TIP3   OH234717   6.948   3.070   3.459
11591TIP3    H134718   7.002   3.116   3.523
11591TIP3    H234719   6.894   3.138   3.419
11592TIP3   OH234720   3.058   5.160   1.521
11592TIP3    H134721   3.007   5.187   1.445
11592TIP3    H234722   3.054   5.234   1.581
11593TIP3   OH234723   5.335   0.858   1.404
11593TIP3    H134724   5.387   0.911   1.344
11593TIP3    H234725   5.384   0.861   1.486
11594TIP3   OH234726   7.532   7.792   4.190
11594TIP3    H134727   7.482   7.831   4.261
11594TIP3    H234728   7.531   7.858   4.121
11595TIP3   OH234729   6.760   7.573   4.358
11595TIP3    H134730   6.745   7.491   4.405
11595TIP3    H234731   6.855   7.581   4.352
11596TIP3   OH234732   5.402   3.622   3.479
11596TIP3    H134733   5.354   3.635   3.561
11596TIP3    H234734   5.448   3.704   3.465
11597TIP3   OH234735   6.601   2.804   4.312
11597TIP3    H134736   6.535   2.873   4.325
11597TIP3    H234737   6.679   2.837   4.358
11598TIP3   OH234738   5.619   6.271   6.616
11598TIP3    H134739   5.626   6.344   6.554
11598TIP3    H234740   5.704   6.226   6.610
11599TIP3   OH234741   7.474   4.000   0.545
11599TIP3    H134742   7.380   4.019   0.548
11599TIP3    H234743   7.513   4.080   0.511
11600TIP3   OH234744   2.071   6.045   1.285
11600TIP3    H134745   1.984   6.085   1.295
11600TIP3    H234746   2.118   6.104   1.226
11601TIP3   OH234747   0.742   3.133   2.762
11601TIP3    H134748   0.819   3.139   2.820
11601TIP3    H234749   0.762   3.059   2.704
11602TIP3   OH234750   6.771   3.556   6.665
11602TIP3    H134751   6.750   3.626   6.603
11602TIP3    H234752   6.847   3.513   6.627
11603TIP3   OH234753   5.484   5.227   4.090
11603TIP3    H134754   5.471   5.293   4.158
11603TIP3    H234755   5.411   5.238   4.030
11604TIP3   OH234756   3.391   6.026   4.713
11604TIP3    H134757   3.343   5.957   4.760
11604TIP3    H234758   3.479   5.990   4.702
11605TIP3   OH234759   7.374   0.950   4.542
11605TIP3    H134760   7.283   0.921   4.546
11605TIP3    H234761   7.406   0.941   4.632
11606TIP3   OH234762   5.555   3.208   4.078
11606TIP3    H134763   5.600   3.170   4.153
11606TIP3    H234764   5.609   3.283   4.053
11607TIP3   OH234765   0.788   6.823   1.551
11607TIP3    H134766   0.836   6.802   1.471
11607TIP3    H234767   0.817   6.758   1.614
11608TIP3   OH234768   2.505   0.312   4.971
11608TIP3    H134769   2.473   0.389   5.017
11608TIP3    H234770   2.502   0.336   4.878
11609TIP3   OH234771   2.730   1.506   1.844
11609TIP3    H134772   2.798   1.477   1.905
11609TIP3    H234773   2.688   1.425   1.815
11610TIP3   OH234774   2.485   2.813   5.571
11610TIP3    H134775   2.532   2.730   5.563
11610TIP3    H234776   2.410   2.803   5.513
11611TIP3   OH234777   2.720   6.884   1.546
11611TIP3    H134778   2.706   6.880   1.641
11611TIP3    H234779   2.798   6.832   1.531
11612TIP3   OH234780   4.850   2.657   3.348
11612TIP3    H134781   4.863   2.744   3.387
11612TIP3    H234782   4.794   2.674   3.271
11613TIP3   OH234783   7.038   3.344   4.196
11613TIP3    H134784   7.076   3.394   4.124
11613TIP3    H234785   6.979   3.405   4.239
11614TIP3   OH234786   3.801   7.847   3.283
11614TIP3    H134787   3.821   7.770   3.229
11614TIP3    H234788   3.735   7.817   3.345
11615TIP3   OH234789   7.086   6.132   3.137
11615TIP3    H134790   7.018   6.181   3.090
11615TIP3    H234791   7.132   6.198   3.188
11616TIP3   OH234792   6.816   7.539   6.539
11616TIP3    H134793   6.755   7.485   6.589
11616TIP3    H234794   6.782   7.628   6.547
11617TIP3   OH234795   3.729   0.806   3.751
11617TIP3    H134796   3.777   0.851   3.821
11617TIP3    H234797   3.637   0.816   3.774
11618TIP3   OH234798   7.361   7.361   4.975
11618TIP3    H134799   7.415   7.400   5.043
11618TIP3    H234800   7.364   7.424   4.903
11619TIP3   OH234801   0.826   7.364   3.337
11619TIP3    H134802   0.879   7.387   3.413
11619TIP3    H234803   0.736   7.384   3.364
11620TIP3   OH234804  -0.008   4.329   6.776
11620TIP3    H134805   0.076   4.296   6.809
11620TIP3    H234806   0.007   4.342   6.683
11621TIP3   OH234807   0.692   6.309   6.169
11621TIP3    H134808   0.785   6.289   6.160
11621TIP3    H234809   0.688   6.368   6.245
11622TIP3   OH234810   0.531   0.594   5.671
11622TIP3    H134811   0.463   0.621   5.733
11622TIP3    H234812   0.565   0.676   5.636
11623TIP3   OH234813   5.479   5.787   5.447
11623TIP3    H134814   5.419   5.718   5.475
11623TIP3    H234815   5.423   5.856   5.412
11624TIP3   OH234816   4.874   0.288   1.124
11624TIP3    H134817   4.933   0.319   1.193
11624TIP3    H234818   4.842   0.368   1.082
11625TIP3   OH234819   0.033   7.063   5.490
11625TIP3    H134820   0.036   7.064   5.395
11625TIP3    H234821   0.109   7.010   5.516
11626TIP3   OH234822   2.719   7.723   2.624
11626TIP3    H134823   2.654   7.705   2.555
11626TIP3    H234824   2.725   7.819   2.627
11627TIP3   OH234825   3.293   4.708   2.319
11627TIP3    H134826   3.387   4.708   2.336
11627TIP3    H234827   3.281   4.644   2.249
11628TIP3   OH234828   0.493   3.176   3.036
11628TIP3    H134829   0.432   3.239   2.998
11628TIP3    H234830   0.544   3.227   3.099
11629TIP3   OH234831   7.576   2.204   4.680
11629TIP3    H134832   7.545   2.176   4.594
11629TIP3    H234833   7.571   2.125   4.734
11630TIP3   OH234834   8.244   2.835   1.312
11630TIP3    H134835   8.222   2.882   1.393
11630TIP3    H234836   8.329   2.870   1.286
11631TIP3   OH234837   4.689   3.076   3.316
11631TIP3    H134838   4.611   3.039   3.357
11631TIP3    H234839   4.656   3.151   3.266
11632TIP3   OH234840   4.694   2.845   1.563
11632TIP3    H134841   4.725   2.911   1.501
11632TIP3    H234842   4.695   2.763   1.514
11633TIP3   OH234843   6.495   6.023   6.668
11633TIP3    H134844   6.518   5.989   6.582
11633TIP3    H234845   6.559   5.984   6.728
11634TIP3   OH234846   4.782   6.228   0.978
11634TIP3    H134847   4.762   6.161   0.912
11634TIP3    H234848   4.736   6.198   1.057
11635TIP3   OH234849   7.693   5.478   5.889
11635TIP3    H134850   7.645   5.443   5.964
11635TIP3    H234851   7.758   5.411   5.868
11636TIP3   OH234852   6.277   6.194   0.847
11636TIP3    H134853   6.351   6.189   0.907
11636TIP3    H234854   6.202   6.214   0.904
11637TIP3   OH234855   0.701   2.954   4.731
11637TIP3    H134856   0.704   3.008   4.652
11637TIP3    H234857   0.695   2.864   4.700
11638TIP3   OH234858   3.765   1.151   5.533
11638TIP3    H134859   3.783   1.077   5.476
11638TIP3    H234860   3.819   1.222   5.498
11639TIP3   OH234861   3.803   1.641   3.447
11639TIP3    H134862   3.784   1.589   3.368
11639TIP3    H234863   3.897   1.658   3.443
11640TIP3   OH234864   1.988   1.920   0.812
11640TIP3    H134865   1.956   1.946   0.898
11640TIP3    H234866   2.058   1.858   0.831
11641TIP3   OH234867   3.060   4.835   6.463
11641TIP3    H134868   3.104   4.891   6.526
11641TIP3    H234869   3.016   4.895   6.403
11642TIP3   OH234870   6.013   5.808   3.661
11642TIP3    H134871   6.036   5.801   3.754
11642TIP3    H234872   6.093   5.836   3.618
11643TIP3   OH234873   3.939   5.112   0.107
11643TIP3    H134874   3.996   5.040   0.133
11643TIP3    H234875   3.938   5.109   0.011
11644TIP3   OH234876   1.254   3.653   0.246
11644TIP3    H134877   1.263   3.558   0.234
11644TIP3    H234878   1.291   3.670   0.333
11645TIP3   OH234879   2.523   1.961   3.758
11645TIP3    H134880   2.454   1.910   3.717
11645TIP3    H234881   2.602   1.908   3.745
11646TIP3   OH234882   3.387   1.127   3.757
11646TIP3    H134883   3.330   1.059   3.793
11646TIP3    H234884   3.349   1.147   3.671
11647TIP3   OH234885   3.618   1.378   0.601
11647TIP3    H134886   3.644   1.306   0.544
11647TIP3    H234887   3.670   1.367   0.680
11648TIP3   OH234888   3.308   2.307   5.774
11648TIP3    H134889   3.270   2.227   5.737
11648TIP3    H234890   3.360   2.344   5.703
11649TIP3   OH234891   0.684   3.471   3.828
11649TIP3    H134892   0.642   3.386   3.842
11649TIP3    H234893   0.662   3.522   3.905
11650TIP3   OH234894   3.594   3.707   3.381
11650TIP3    H134895   3.609   3.621   3.421
11650TIP3    H234896   3.681   3.737   3.355
11651TIP3   OH234897   7.256   0.997   6.036
11651TIP3    H134898   7.230   1.058   6.106
11651TIP3    H234899   7.209   1.028   5.959
11652TIP3   OH234900   4.997   2.014   2.162
11652TIP3    H134901   4.996   2.024   2.257
11652TIP3    H234902   5.058   1.942   2.146
11653TIP3   OH234903   0.525   5.047   1.672
11653TIP3    H134904   0.577   5.125   1.652
11653TIP3    H234905   0.536   5.034   1.766
11654TIP3   OH234906   7.721   0.202   5.705
11654TIP3    H134907   7.728   0.199   5.801
11654TIP3    H234908   7.671   0.124   5.682
11655TIP3   OH234909   7.275   6.444   5.724
11655TIP3    H134910   7.366   6.416   5.739
11655TIP3    H234911   7.281   6.540   5.721
11656TIP3   OH234912   1.250   0.868   0.753
11656TIP3    H134913   1.227   0.885   0.844
11656TIP3    H234914   1.246   0.772   0.745
11657TIP3   OH234915   4.535   4.864   6.696
11657TIP3    H134916   4.529   4.887   6.604
11657TIP3    H234917   4.588   4.784   6.697
11658TIP3   OH234918   3.543   0.678   4.435
11658TIP3    H134919   3.498   0.686   4.351
11658TIP3    H234920   3.510   0.596   4.472
11659TIP3   OH234921   2.488   0.027   2.800
11659TIP3    H134922   2.579   0.055   2.812
11659TIP3    H234923   2.484  -0.061   2.837
11660TIP3   OH234924   1.244   7.601   0.502
11660TIP3    H134925   1.270   7.633   0.416
11660TIP3    H234926   1.302   7.646   0.564
11661TIP3   OH234927   0.730   5.780   2.947
11661TIP3    H134928   0.693   5.850   2.892
11661TIP3    H234929   0.691   5.700   2.912
11662TIP3   OH234930   5.675   4.952   3.441
11662TIP3    H134931   5.721   5.028   3.476
11662TIP3    H234932   5.743   4.900   3.398
11663TIP3   OH234933   2.934   6.245   0.484
11663TIP3    H134934   2.994   6.315   0.508
11663TIP3    H234935   2.945   6.178   0.551
11664TIP3   OH234936   6.550   7.351   3.080
11664TIP3    H134937   6.635   7.392   3.093
11664TIP3    H234938   6.563   7.260   3.106
11665TIP3   OH234939   1.318   0.203   3.420
11665TIP3    H134940   1.240   0.248   3.452
11665TIP3    H234941   1.299   0.110   3.432
11666TIP3   OH234942   7.828   0.919   2.782
11666TIP3    H134943   7.746   0.968   2.785
11666TIP3    H234944   7.800   0.828   2.771
11667TIP3   OH234945   5.799   5.652   2.211
11667TIP3    H134946   5.773   5.742   2.233
11667TIP3    H234947   5.719   5.613   2.175
11668TIP3   OH234948   2.109   5.898   6.193
11668TIP3    H134949   2.039   5.833   6.190
11668TIP3    H234950   2.119   5.919   6.286
11669TIP3   OH234951   2.747   7.127   2.529
11669TIP3    H134952   2.744   7.058   2.462
11669TIP3    H234953   2.769   7.081   2.610
11670TIP3   OH234954   0.325   0.390   5.644
11670TIP3    H134955   0.253   0.412   5.703
11670TIP3    H234956   0.392   0.457   5.662
11671TIP3   OH234957   2.640   5.395   3.923
11671TIP3    H134958   2.714   5.447   3.953
11671TIP3    H234959   2.655   5.307   3.958
11672TIP3   OH234960   3.961   0.605   2.793
11672TIP3    H134961   3.937   0.676   2.853
11672TIP3    H234962   3.952   0.526   2.846
11673TIP3   OH234963   5.012   4.303   5.944
11673TIP3    H134964   5.100   4.332   5.970
11673TIP3    H234965   4.971   4.277   6.027
11674TIP3   OH234966   2.539   4.182   0.952
11674TIP3    H134967   2.593   4.260   0.934
11674TIP3    H234968   2.551   4.127   0.875
11675TIP3   OH234969   6.223   2.404   2.968
11675TIP3    H134970   6.303   2.370   2.928
11675TIP3    H234971   6.208   2.347   3.044
11676TIP3   OH234972   5.178   4.771   2.406
11676TIP3    H134973   5.172   4.692   2.351
11676TIP3    H234974   5.247   4.823   2.366
11677TIP3   OH234975   1.055   0.891   1.673
11677TIP3    H134976   0.970   0.873   1.632
11677TIP3    H234977   1.056   0.986   1.684
11678TIP3   OH234978   2.515   0.820   3.557
11678TIP3    H134979   2.446   0.757   3.577
11678TIP3    H234980   2.470   0.905   3.555
11679TIP3   OH234981   2.432   2.421   0.375
11679TIP3    H134982   2.405   2.381   0.292
11679TIP3    H234983   2.377   2.499   0.384
11680TIP3   OH234984   6.905   5.016   0.875
11680TIP3    H134985   6.865   5.033   0.960
11680TIP3    H234986   6.973   4.951   0.892
11681TIP3   OH234987   0.156   6.576   2.215
11681TIP3    H134988   0.136   6.518   2.141
11681TIP3    H234989   0.174   6.661   2.176
11682TIP3   OH234990   6.652   6.195   2.702
11682TIP3    H134991   6.559   6.190   2.724
11682TIP3    H234992   6.678   6.105   2.682
11683TIP3   OH234993   6.655   7.591   5.423
11683TIP3    H134994   6.690   7.676   5.400
11683TIP3    H234995   6.677   7.579   5.515
11684TIP3   OH234996   6.755   4.008   6.089
11684TIP3    H134997   6.672   4.031   6.131
11684TIP3    H234998   6.747   3.914   6.072
11685TIP3   OH234999   8.205   2.414   6.542
11685TIP3    H135000   8.266   2.342   6.560
11685TIP3    H235001   8.122   2.384   6.580
11686TIP3   OH235002   5.519   7.106   2.680
11686TIP3    H135003   5.550   7.196   2.667
11686TIP3    H235004   5.578   7.052   2.628
11687TIP3   OH235005   7.460   3.641   2.667
11687TIP3    H135006   7.539   3.594   2.691
11687TIP3    H235007   7.474   3.664   2.575
11688TIP3   OH235008   7.866   7.014   4.235
11688TIP3    H135009   7.861   7.029   4.141
11688TIP3    H235010   7.784   6.969   4.257
11689TIP3   OH235011   7.467   6.375   3.773
11689TIP3    H135012   7.507   6.329   3.699
11689TIP3    H235013   7.402   6.313   3.808
11690TIP3   OH235014   1.500   5.474   5.716
11690TIP3    H135015   1.468   5.491   5.627
11690TIP3    H235016   1.593   5.499   5.713
11691TIP3   OH235017   7.757   6.739   4.896
11691TIP3    H135018   7.785   6.764   4.985
11691TIP3    H235019   7.683   6.680   4.910
11692TIP3   OH235020   7.356   3.068   1.993
11692TIP3    H135021   7.268   3.050   2.026
11692TIP3    H235022   7.411   3.072   2.071
11693TIP3   OH235023   7.176   4.081   6.241
11693TIP3    H135024   7.121   4.099   6.165
11693TIP3    H235025   7.190   4.166   6.282
11694TIP3   OH235026   0.846   4.494   3.849
11694TIP3    H135027   0.804   4.579   3.860
11694TIP3    H235028   0.775   4.431   3.859
11695TIP3   OH235029   3.157   4.085   3.580
11695TIP3    H135030   3.153   4.027   3.504
11695TIP3    H235031   3.244   4.125   3.575
11696TIP3   OH235032   4.922   2.139   1.057
11696TIP3    H135033   4.841   2.116   1.103
11696TIP3    H235034   4.990   2.094   1.106
11697TIP3   OH235035   5.152   4.182   1.627
11697TIP3    H135036   5.221   4.243   1.601
11697TIP3    H235037   5.124   4.141   1.546
11698TIP3   OH235038   3.604   6.363   4.712
11698TIP3    H135039   3.624   6.431   4.775
11698TIP3    H235040   3.686   6.318   4.697
11699TIP3   OH235041   5.541   6.916   5.894
11699TIP3    H135042   5.620   6.964   5.919
11699TIP3    H235043   5.485   6.981   5.851
11700TIP3   OH235044   1.909   4.100   4.838
11700TIP3    H135045   2.003   4.112   4.823
11700TIP3    H235046   1.867   4.167   4.784
11701TIP3   OH235047   6.095   0.572   2.030
11701TIP3    H135048   6.172   0.599   1.979
11701TIP3    H235049   6.073   0.486   1.996
11702TIP3   OH235050   3.125   4.906   4.248
11702TIP3    H135051   3.147   4.822   4.208
11702TIP3    H235052   3.185   4.968   4.208
11703TIP3   OH235053   1.121   1.909   3.599
11703TIP3    H135054   1.119   1.850   3.675
11703TIP3    H235055   1.078   1.859   3.530
11704TIP3   OH235056   5.859   3.656   6.734
11704TIP3    H135057   5.910   3.717   6.788
11704TIP3    H235058   5.825   3.592   6.797
11705TIP3   OH235059   6.467   6.510   3.795
11705TIP3    H135060   6.458   6.430   3.743
11705TIP3    H235061   6.561   6.517   3.812
11706TIP3   OH235062   2.414   7.442   3.620
11706TIP3    H135063   2.426   7.482   3.534
11706TIP3    H235064   2.474   7.491   3.677
11707TIP3   OH235065   3.583   4.418   3.359
11707TIP3    H135066   3.665   4.387   3.320
11707TIP3    H235067   3.584   4.512   3.345
11708TIP3   OH235068   6.285   1.258   0.530
11708TIP3    H135069   6.374   1.224   0.540
11708TIP3    H235070   6.284   1.338   0.584
11709TIP3   OH235071   3.334   7.086   3.467
11709TIP3    H135072   3.239   7.083   3.464
11709TIP3    H235073   3.355   7.179   3.475
11710TIP3   OH235074   3.509   5.766   3.427
11710TIP3    H135075   3.558   5.819   3.490
11710TIP3    H235076   3.439   5.726   3.478
11711TIP3   OH235077   6.139   4.227   0.100
11711TIP3    H135078   6.122   4.306   0.049
11711TIP3    H235079   6.208   4.181   0.052
11712TIP3   OH235080   1.461   7.747   3.899
11712TIP3    H135081   1.542   7.709   3.932
11712TIP3    H235082   1.487   7.833   3.865
11713TIP3   OH235083   1.430   7.037   2.081
11713TIP3    H135084   1.336   7.017   2.079
11713TIP3    H235085   1.466   6.995   2.003
11714TIP3   OH235086   3.184   3.989   4.618
11714TIP3    H135087   3.177   3.899   4.647
11714TIP3    H235088   3.202   3.983   4.524
11715TIP3   OH235089   8.316   3.409   3.524
11715TIP3    H135090   8.280   3.322   3.508
11715TIP3    H235091   8.397   3.392   3.573
11716TIP3   OH235092   6.139   0.933   5.050
11716TIP3    H135093   6.121   0.875   5.123
11716TIP3    H235094   6.052   0.962   5.021
11717TIP3   OH235095   6.642   0.642   6.068
11717TIP3    H135096   6.730   0.630   6.033
11717TIP3    H235097   6.644   0.597   6.153
11718TIP3   OH235098   0.210   7.093   2.904
11718TIP3    H135099   0.241   7.025   2.844
11718TIP3    H235100   0.211   7.051   2.990
11719TIP3   OH235101   2.278   1.007   3.514
11719TIP3    H135102   2.227   0.941   3.561
11719TIP3    H235103   2.261   1.088   3.560
11720TIP3   OH235104   6.419   6.610   2.505
11720TIP3    H135105   6.399   6.684   2.562
11720TIP3    H235106   6.344   6.551   2.514
11721TIP3   OH235107   8.251   0.045   5.889
11721TIP3    H135108   8.249  -0.029   5.949
11721TIP3    H235109   8.159   0.064   5.870
11722TIP3   OH235110   3.385   4.150   4.703
11722TIP3    H135111   3.359   4.218   4.765
11722TIP3    H235112   3.304   4.102   4.685
11723TIP3   OH235113   0.107   7.521   6.300
11723TIP3    H135114   0.202   7.519   6.315
11723TIP3    H235115   0.084   7.430   6.282
11724TIP3   OH235116   0.197   6.160   5.741
11724TIP3    H135117   0.248   6.118   5.810
11724TIP3    H235118   0.183   6.249   5.773
11725TIP3   OH235119   0.878   1.001   6.151
11725TIP3    H135120   0.944   1.057   6.192
11725TIP3    H235121   0.928   0.928   6.114
11726TIP3   OH235122   3.622   7.523   3.656
11726TIP3    H135123   3.635   7.514   3.750
11726TIP3    H235124   3.638   7.436   3.620
11727TIP3   OH235125   7.004   4.575   1.995
11727TIP3    H135126   7.084   4.539   1.956
11727TIP3    H235127   7.002   4.666   1.967
11728TIP3   OH235128   0.616   1.585   2.003
11728TIP3    H135129   0.667   1.665   1.992
11728TIP3    H235130   0.665   1.534   2.067
11729TIP3   OH235131   0.594   3.274   2.356
11729TIP3    H135132   0.564   3.197   2.308
11729TIP3    H235133   0.685   3.255   2.379
11730TIP3   OH235134   2.582   0.686   3.129
11730TIP3    H135135   2.646   0.660   3.196
11730TIP3    H235136   2.614   0.645   3.049
11731TIP3   OH235137   4.545   2.684   6.055
11731TIP3    H135138   4.468   2.631   6.035
11731TIP3    H235139   4.619   2.634   6.021
11732TIP3   OH235140   1.740   5.086   1.412
11732TIP3    H135141   1.692   5.042   1.482
11732TIP3    H235142   1.690   5.166   1.395
11733TIP3   OH235143   3.181   0.719   6.124
11733TIP3    H135144   3.217   0.781   6.060
11733TIP3    H235145   3.195   0.633   6.084
11734TIP3   OH235146   2.254   6.593   3.855
11734TIP3    H135147   2.239   6.662   3.791
11734TIP3    H235148   2.166   6.561   3.876
11735TIP3   OH235149   1.183   6.691   1.168
11735TIP3    H135150   1.260   6.742   1.144
11735TIP3    H235151   1.134   6.682   1.086
11736TIP3   OH235152   3.652   4.223   4.632
11736TIP3    H135153   3.675   4.316   4.627
11736TIP3    H235154   3.569   4.222   4.680
11737TIP3   OH235155   5.689   3.287   2.260
11737TIP3    H135156   5.719   3.374   2.288
11737TIP3    H235157   5.762   3.252   2.209
11738TIP3   OH235158   6.789   5.275   0.907
11738TIP3    H135159   6.728   5.254   0.978
11738TIP3    H235160   6.837   5.193   0.891
11739TIP3   OH235161   6.372   3.966   0.593
11739TIP3    H135162   6.459   3.961   0.632
11739TIP3    H235163   6.337   3.877   0.601
11740TIP3   OH235164   6.502   1.898   5.622
11740TIP3    H135165   6.509   1.965   5.690
11740TIP3    H235166   6.572   1.837   5.641
11741TIP3   OH235167   3.671   2.785   2.362
11741TIP3    H135168   3.649   2.859   2.305
11741TIP3    H235169   3.730   2.731   2.309
11742TIP3   OH235170   3.975   3.304   3.621
11742TIP3    H135171   4.065   3.318   3.592
11742TIP3    H235172   3.982   3.297   3.716
11743TIP3   OH235173   7.257   2.361   0.372
11743TIP3    H135174   7.320   2.341   0.303
11743TIP3    H235175   7.273   2.293   0.438
11744TIP3   OH235176   0.786   0.944   4.969
11744TIP3    H135177   0.800   0.858   5.008
11744TIP3    H235178   0.823   1.006   5.032
11745TIP3   OH235179   3.074   6.926   0.045
11745TIP3    H135180   3.091   6.926  -0.050
11745TIP3    H235181   3.043   7.014   0.064
11746TIP3   OH235182   0.172   0.729   0.494
11746TIP3    H135183   0.089   0.742   0.540
11746TIP3    H235184   0.237   0.774   0.548
11747TIP3   OH235185   2.121   4.324   3.659
11747TIP3    H135186   2.136   4.402   3.711
11747TIP3    H235187   2.049   4.280   3.703
11748TIP3   OH235188   2.339   0.414   1.800
11748TIP3    H135189   2.434   0.417   1.811
11748TIP3    H235190   2.314   0.503   1.777
11749TIP3   OH235191   5.641   6.600   2.307
11749TIP3    H135192   5.575   6.620   2.373
11749TIP3    H235193   5.598   6.617   2.223
11750TIP3   OH235194   1.301   1.659   5.086
11750TIP3    H135195   1.212   1.624   5.077
11750TIP3    H235196   1.294   1.729   5.151
11751TIP3   OH235197   5.097   5.604   6.600
11751TIP3    H135198   5.107   5.512   6.623
11751TIP3    H235199   5.003   5.622   6.612
11752TIP3   OH235200   2.948   6.089   6.532
11752TIP3    H135201   2.960   6.178   6.565
11752TIP3    H235202   2.910   6.041   6.605
11753TIP3   OH235203   3.420   3.013   5.322
11753TIP3    H135204   3.388   3.103   5.330
11753TIP3    H235205   3.476   3.015   5.245
11754TIP3   OH235206   5.571   6.662   3.671
11754TIP3    H135207   5.538   6.656   3.761
11754TIP3    H235208   5.596   6.754   3.660
11755TIP3   OH235209   0.212   3.356   1.620
11755TIP3    H135210   0.137   3.357   1.679
11755TIP3    H235211   0.222   3.447   1.593
11756TIP3   OH235212   2.791   4.508   6.599
11756TIP3    H135213   2.755   4.595   6.616
11756TIP3    H235214   2.885   4.522   6.591
11757TIP3   OH235215   7.273   6.068   6.567
11757TIP3    H135216   7.252   6.142   6.624
11757TIP3    H235217   7.231   6.089   6.484
11758TIP3   OH235218   1.674   6.484   4.029
11758TIP3    H135219   1.671   6.579   4.038
11758TIP3    H235220   1.633   6.466   3.944
11759TIP3   OH235221   2.725   1.327   4.821
11759TIP3    H135222   2.743   1.241   4.783
11759TIP3    H235223   2.792   1.384   4.783
11760TIP3   OH235224   3.347   6.401   3.408
11760TIP3    H135225   3.265   6.369   3.371
11760TIP3    H235226   3.325   6.424   3.498
11761TIP3   OH235227   7.433   0.381   2.697
11761TIP3    H135228   7.448   0.293   2.732
11761TIP3    H235229   7.356   0.371   2.641
11762TIP3   OH235230   5.459   5.165   6.406
11762TIP3    H135231   5.545   5.176   6.365
11762TIP3    H235232   5.425   5.253   6.413
11763TIP3   OH235233   2.942   6.813   2.495
11763TIP3    H135234   2.939   6.802   2.590
11763TIP3    H235235   2.912   6.730   2.460
11764TIP3   OH235236   5.027   4.781   3.078
11764TIP3    H135237   4.962   4.735   3.023
11764TIP3    H235238   5.069   4.712   3.128
11765TIP3   OH235239   3.394   4.148   1.629
11765TIP3    H135240   3.430   4.059   1.630
11765TIP3    H235241   3.342   4.151   1.548
11766TIP3   OH235242   7.898   1.644   6.804
11766TIP3    H135243   7.974   1.636   6.747
11766TIP3    H235244   7.861   1.556   6.809
11767TIP3   OH235245   1.468   0.769   4.828
11767TIP3    H135246   1.394   0.724   4.786
11767TIP3    H235247   1.445   0.771   4.921
11768TIP3   OH235248   4.213   3.948   1.370
11768TIP3    H135249   4.178   4.035   1.353
11768TIP3    H235250   4.184   3.896   1.295
11769TIP3   OH235251   2.359   7.607   2.635
11769TIP3    H135252   2.349   7.590   2.542
11769TIP3    H235253   2.385   7.523   2.673
11770TIP3   OH235254   5.260   6.294   3.792
11770TIP3    H135255   5.251   6.375   3.842
11770TIP3    H235256   5.341   6.304   3.743
11771TIP3   OH235257   6.852   2.144   6.709
11771TIP3    H135258   6.805   2.105   6.636
11771TIP3    H235259   6.784   2.171   6.771
11772TIP3   OH235260   3.420   0.188   2.030
11772TIP3    H135261   3.465   0.242   1.965
11772TIP3    H235262   3.424   0.099   1.993
11773TIP3   OH235263   7.361   7.232   5.659
11773TIP3    H135264   7.345   7.235   5.565
11773TIP3    H235265   7.285   7.276   5.698
11774TIP3   OH235266   6.113   7.145   4.221
11774TIP3    H135267   6.178   7.075   4.223
11774TIP3    H235268   6.155   7.216   4.174
11775TIP3   OH235269   7.847   0.631   4.036
11775TIP3    H135270   7.883   0.558   4.087
11775TIP3    H235271   7.906   0.704   4.054
11776TIP3   OH235272   0.633   6.125   5.953
11776TIP3    H135273   0.684   6.193   5.908
11776TIP3    H235274   0.645   6.144   6.046
11777TIP3   OH235275   0.256   2.109   0.453
11777TIP3    H135276   0.163   2.122   0.433
11777TIP3    H235277   0.302   2.169   0.393
11778TIP3   OH235278   6.353   0.882   0.977
11778TIP3    H135279   6.395   0.797   0.996
11778TIP3    H235280   6.368   0.934   1.056
11779TIP3   OH235281   5.867   1.590   4.803
11779TIP3    H135282   5.790   1.632   4.764
11779TIP3    H235283   5.900   1.533   4.734
11780TIP3   OH235284   3.662   0.599   1.380
11780TIP3    H135285   3.734   0.659   1.365
11780TIP3    H235286   3.699   0.529   1.434
11781TIP3   OH235287   1.892   0.109   5.769
11781TIP3    H135288   1.979   0.092   5.805
11781TIP3    H235289   1.835   0.045   5.811
11782TIP3   OH235290   0.467   6.042   1.217
11782TIP3    H135291   0.461   5.948   1.232
11782TIP3    H235292   0.384   6.077   1.248
11783TIP3   OH235293   0.312   7.320   2.169
11783TIP3    H135294   0.345   7.386   2.109
11783TIP3    H235295   0.231   7.357   2.205
11784TIP3   OH235296   7.089   7.057   4.124
11784TIP3    H135297   7.013   7.108   4.152
11784TIP3    H235298   7.164   7.102   4.162
11785TIP3   OH235299   6.589   0.717   3.480
11785TIP3    H135300   6.677   0.685   3.458
11785TIP3    H235301   6.556   0.754   3.398
11786TIP3   OH235302   2.047   2.532   6.334
11786TIP3    H135303   2.027   2.577   6.252
11786TIP3    H235304   2.140   2.510   6.328
11787TIP3   OH235305   6.891   0.578   0.415
11787TIP3    H135306   6.908   0.627   0.334
11787TIP3    H235307   6.876   0.646   0.481
11788TIP3   OH235308   1.574   5.628   1.275
11788TIP3    H135309   1.480   5.636   1.289
11788TIP3    H235310   1.613   5.689   1.337
11789TIP3   OH235311  -0.019   0.472   1.387
11789TIP3    H135312   0.026   0.539   1.439
11789TIP3    H235313  -0.094   0.518   1.349
11790TIP3   OH235314   7.344   5.154   2.912
11790TIP3    H135315   7.253   5.123   2.907
11790TIP3    H235316   7.394   5.077   2.939
11791TIP3   OH235317   2.424   5.723   0.478
11791TIP3    H135318   2.475   5.647   0.507
11791TIP3    H235319   2.345   5.684   0.440
11792TIP3   OH235320   2.313   2.473   6.343
11792TIP3    H135321   2.320   2.415   6.418
11792TIP3    H235322   2.362   2.429   6.273
11793TIP3   OH235323   4.829   5.340   0.433
11793TIP3    H135324   4.761   5.407   0.434
11793TIP3    H235325   4.907   5.383   0.468
11794TIP3   OH235326   3.874   3.864   0.813
11794TIP3    H135327   3.927   3.944   0.810
11794TIP3    H235328   3.808   3.876   0.745
11795TIP3   OH235329   1.835   4.427   6.320
11795TIP3    H135330   1.787   4.507   6.341
11795TIP3    H235331   1.881   4.403   6.401
11796TIP3   OH235332   6.449   1.487   5.289
11796TIP3    H135333   6.420   1.477   5.379
11796TIP3    H235334   6.506   1.564   5.291
11797TIP3   OH235335   1.893   1.830   3.444
11797TIP3    H135336   1.814   1.787   3.409
11797TIP3    H235337   1.897   1.802   3.536
11798TIP3   OH235338   5.594   6.646   4.407
11798TIP3    H135339   5.553   6.624   4.491
11798TIP3    H235340   5.672   6.696   4.431
11799TIP3   OH235341   3.075   4.596   6.584
11799TIP3    H135342   3.054   4.682   6.547
11799TIP3    H235343   3.140   4.559   6.523
11800TIP3   OH235344   4.785   7.535   3.905
11800TIP3    H135345   4.863   7.586   3.886
11800TIP3    H235346   4.744   7.579   3.979
11801TIP3   OH235347   0.950   1.922   2.694
11801TIP3    H135348   1.001   1.976   2.755
11801TIP3    H235349   1.014   1.885   2.634
11802TIP3   OH235350   4.619   5.133   1.946
11802TIP3    H135351   4.633   5.223   1.916
11802TIP3    H235352   4.660   5.079   1.879
11803TIP3   OH235353   2.377   0.195   2.567
11803TIP3    H135354   2.396   0.132   2.637
11803TIP3    H235355   2.307   0.154   2.517
11804TIP3   OH235356   7.642   5.260   4.197
11804TIP3    H135357   7.558   5.214   4.195
11804TIP3    H235358   7.703   5.200   4.155
11805TIP3   OH235359   5.570   3.821   0.701
11805TIP3    H135360   5.637   3.853   0.761
11805TIP3    H235361   5.487   3.838   0.747
11806TIP3   OH235362   1.970   3.266   1.891
11806TIP3    H135363   1.881   3.295   1.870
11806TIP3    H235364   2.026   3.326   1.841
11807TIP3   OH235365   3.394   2.557   6.011
11807TIP3    H135366   3.349   2.621   6.067
11807TIP3    H235367   3.370   2.583   5.922
11808TIP3   OH235368   4.868   4.652   0.599
11808TIP3    H135369   4.807   4.724   0.614
11808TIP3    H235370   4.954   4.692   0.604
11809TIP3   OH235371   6.893   0.053   5.385
11809TIP3    H135372   6.831   0.114   5.424
11809TIP3    H235373   6.879  -0.029   5.433
11810TIP3   OH235374   1.233   1.333   5.691
11810TIP3    H135375   1.207   1.403   5.751
11810TIP3    H235376   1.212   1.252   5.738
11811TIP3   OH235377   0.697   3.573   0.765
11811TIP3    H135378   0.757   3.631   0.718
11811TIP3    H235379   0.639   3.632   0.812
11812TIP3   OH235380   4.727   2.085   5.973
11812TIP3    H135381   4.773   2.063   6.054
11812TIP3    H235382   4.646   2.034   5.977
11813TIP3   OH235383   7.434   4.652   5.126
11813TIP3    H135384   7.419   4.684   5.037
11813TIP3    H235385   7.349   4.617   5.154
11814TIP3   OH235386   0.406   7.695   5.681
11814TIP3    H135387   0.361   7.660   5.605
11814TIP3    H235388   0.401   7.625   5.746
11815TIP3   OH235389   7.621   6.284   2.064
11815TIP3    H135390   7.615   6.376   2.089
11815TIP3    H235391   7.544   6.269   2.009
11816TIP3   OH235392   2.341   6.997   3.133
11816TIP3    H135393   2.252   6.986   3.167
11816TIP3    H235394   2.391   6.927   3.177
11817TIP3   OH235395   3.225   6.382   5.890
11817TIP3    H135396   3.231   6.302   5.943
11817TIP3    H235397   3.225   6.352   5.800
11818TIP3   OH235398   2.035   0.156   3.651
11818TIP3    H135399   2.075   0.073   3.678
11818TIP3    H235400   1.950   0.131   3.615
11819TIP3   OH235401   5.379   7.058   5.716
11819TIP3    H135402   5.391   6.990   5.650
11819TIP3    H235403   5.298   7.035   5.761
11820TIP3   OH235404   2.075   0.497   0.120
11820TIP3    H135405   2.161   0.503   0.078
11820TIP3    H235406   2.015   0.479   0.047
11821TIP3   OH235407   5.288   6.930   3.104
11821TIP3    H135408   5.274   7.017   3.142
11821TIP3    H235409   5.346   6.945   3.029
11822TIP3   OH235410   5.166   2.709   4.976
11822TIP3    H135411   5.261   2.702   4.974
11822TIP3    H235412   5.144   2.752   4.893
11823TIP3   OH235413   2.956   4.550   5.005
11823TIP3    H135414   3.024   4.495   5.044
11823TIP3    H235415   3.002   4.606   4.943
11824TIP3   OH235416   2.994   0.828   2.274
11824TIP3    H135417   3.001   0.911   2.226
11824TIP3    H235418   3.060   0.772   2.234
11825TIP3   OH235419   4.398   4.379   0.640
11825TIP3    H135420   4.343   4.455   0.660
11825TIP3    H235421   4.466   4.381   0.708
11826TIP3   OH235422   7.992   4.767   6.531
11826TIP3    H135423   8.044   4.750   6.610
11826TIP3    H235424   8.007   4.860   6.512
11827TIP3   OH235425   3.018   2.580   4.034
11827TIP3    H135426   3.048   2.671   4.030
11827TIP3    H235427   2.962   2.576   4.111
11828TIP3   OH235428   2.206   1.333   0.637
11828TIP3    H135429   2.237   1.324   0.727
11828TIP3    H235430   2.119   1.294   0.637
11829TIP3   OH235431   6.193   6.856   3.427
11829TIP3    H135432   6.224   6.777   3.470
11829TIP3    H235433   6.273   6.901   3.398
11830TIP3   OH235434   4.851   6.647   2.489
11830TIP3    H135435   4.834   6.737   2.459
11830TIP3    H235436   4.946   6.639   2.490
11831TIP3   OH235437   4.502   4.848   5.126
11831TIP3    H135438   4.573   4.851   5.062
11831TIP3    H235439   4.545   4.858   5.211
11832TIP3   OH235440   4.508   5.217   6.164
11832TIP3    H135441   4.472   5.305   6.166
11832TIP3    H235442   4.601   5.227   6.186
11833TIP3   OH235443   6.869   4.855   6.232
11833TIP3    H135444   6.866   4.834   6.326
11833TIP3    H235445   6.806   4.925   6.221
11834TIP3   OH235446   7.347   6.722   2.304
11834TIP3    H135447   7.300   6.790   2.351
11834TIP3    H235448   7.371   6.762   2.220
11835TIP3   OH235449   7.211   5.627   3.711
11835TIP3    H135450   7.252   5.703   3.753
11835TIP3    H235451   7.127   5.617   3.756
11836TIP3   OH235452   7.373   5.099   5.395
11836TIP3    H135453   7.330   5.029   5.444
11836TIP3    H235454   7.330   5.179   5.426
11837TIP3   OH235455   6.945   7.642   5.557
11837TIP3    H135456   6.895   7.560   5.548
11837TIP3    H235457   7.034   7.618   5.533
11838TIP3   OH235458   2.314   7.353   6.365
11838TIP3    H135459   2.307   7.446   6.343
11838TIP3    H235460   2.393   7.323   6.319
11839TIP3   OH235461   0.532   7.750   6.192
11839TIP3    H135462   0.460   7.704   6.148
11839TIP3    H235463   0.493   7.833   6.221
11840TIP3   OH235464   1.464   6.872   1.862
11840TIP3    H135465   1.508   6.792   1.891
11840TIP3    H235466   1.374   6.845   1.845
11841TIP3   OH235467   0.344   7.795   2.769
11841TIP3    H135468   0.397   7.716   2.770
11841TIP3    H235469   0.390   7.855   2.709
11842TIP3   OH235470   6.503   4.366   0.442
11842TIP3    H135471   6.529   4.280   0.408
11842TIP3    H235472   6.559   4.428   0.395
11843TIP3   OH235473   6.094   0.656   2.863
11843TIP3    H135474   6.079   0.585   2.801
11843TIP3    H235475   6.046   0.630   2.941
11844TIP3   OH235476   3.398   4.367   6.728
11844TIP3    H135477   3.373   4.278   6.755
11844TIP3    H235478   3.370   4.423   6.801
11845TIP3   OH235479   1.747   6.342   3.403
11845TIP3    H135480   1.814   6.371   3.465
11845TIP3    H235481   1.797   6.306   3.330
11846TIP3   OH235482   2.534   3.453   3.549
11846TIP3    H135483   2.441   3.454   3.527
11846TIP3    H235484   2.541   3.508   3.628
11847TIP3   OH235485   2.324   0.496   2.301
11847TIP3    H135486   2.276   0.441   2.238
11847TIP3    H235487   2.278   0.580   2.298
11848TIP3   OH235488   0.222   6.522   2.913
11848TIP3    H135489   0.254   6.455   2.973
11848TIP3    H235490   0.266   6.504   2.830
11849TIP3   OH235491   1.907   0.031   5.090
11849TIP3    H135492   1.974  -0.030   5.060
11849TIP3    H235493   1.877   0.075   5.010
11850TIP3   OH235494   3.738   5.484   1.594
11850TIP3    H135495   3.738   5.579   1.610
11850TIP3    H235496   3.648   5.465   1.565
11851TIP3   OH235497   8.224   1.237   4.425
11851TIP3    H135498   8.133   1.253   4.401
11851TIP3    H235499   8.273   1.306   4.380
11852TIP3   OH235500   5.613   4.239   4.004
11852TIP3    H135501   5.628   4.290   4.084
11852TIP3    H235502   5.522   4.212   4.009
11853TIP3   OH235503   0.732   7.828   4.763
11853TIP3    H135504   0.727   7.734   4.747
11853TIP3    H235505   0.804   7.858   4.707
11854TIP3   OH235506   3.100   2.969   4.764
11854TIP3    H135507   3.168   3.028   4.732
11854TIP3    H235508   3.065   2.927   4.686
11855TIP3   OH235509   7.587   3.017   4.123
11855TIP3    H135510   7.629   3.078   4.063
11855TIP3    H235511   7.657   2.989   4.181
11856TIP3   OH235512   1.589   1.719   1.438
11856TIP3    H135513   1.637   1.649   1.393
11856TIP3    H235514   1.500   1.712   1.404
11857TIP3   OH235515   0.458   0.442   4.435
11857TIP3    H135516   0.428   0.361   4.476
11857TIP3    H235517   0.534   0.416   4.383
11858TIP3   OH235518   3.652   2.776   2.743
11858TIP3    H135519   3.734   2.731   2.724
11858TIP3    H235520   3.662   2.807   2.833
11859TIP3   OH235521   7.335   1.121   6.647
11859TIP3    H135522   7.383   1.110   6.729
11859TIP3    H235523   7.250   1.156   6.673
11860TIP3   OH235524   6.744   4.734   4.258
11860TIP3    H135525   6.749   4.648   4.299
11860TIP3    H235526   6.835   4.764   4.253
11861TIP3   OH235527   7.758   6.791   6.054
11861TIP3    H135528   7.749   6.815   5.961
11861TIP3    H235529   7.693   6.723   6.068
11862TIP3   OH235530   6.026   0.272   2.537
11862TIP3    H135531   6.067   0.358   2.548
11862TIP3    H235532   6.051   0.223   2.615
11863TIP3   OH235533   2.768   0.786   4.660
11863TIP3    H135534   2.703   0.813   4.725
11863TIP3    H235535   2.743   0.697   4.636
11864TIP3   OH235536   7.403   4.945   4.355
11864TIP3    H135537   7.336   4.981   4.297
11864TIP3    H235538   7.447   5.021   4.392
11865TIP3   OH235539   2.177   6.251   5.458
11865TIP3    H135540   2.136   6.336   5.477
11865TIP3    H235541   2.245   6.271   5.393
11866TIP3   OH235542   8.184   6.052   5.688
11866TIP3    H135543   8.128   6.125   5.713
11866TIP3    H235544   8.273   6.086   5.698
11867TIP3   OH235545   8.052   5.375   6.671
11867TIP3    H135546   8.024   5.284   6.668
11867TIP3    H235547   8.053   5.404   6.580
11868TIP3   OH235548   7.757   1.637   2.217
11868TIP3    H135549   7.715   1.665   2.298
11868TIP3    H235550   7.689   1.643   2.151
11869TIP3   OH235551   1.953   7.611   5.058
11869TIP3    H135552   1.960   7.647   4.970
11869TIP3    H235553   1.860   7.614   5.078
11870TIP3   OH235554   6.377   3.890   4.010
11870TIP3    H135555   6.377   3.978   3.972
11870TIP3    H235556   6.442   3.893   4.080
11871TIP3   OH235557   4.114   4.386   3.057
11871TIP3    H135558   4.111   4.375   3.152
11871TIP3    H235559   4.033   4.433   3.036
11872TIP3   OH235560   6.973   1.552   4.514
11872TIP3    H135561   6.985   1.477   4.572
11872TIP3    H235562   6.944   1.623   4.571
11873TIP3   OH235563   3.675   5.279   0.123
11873TIP3    H135564   3.747   5.225   0.091
11873TIP3    H235565   3.670   5.352   0.062
11874TIP3   OH235566   3.257   5.261   5.431
11874TIP3    H135567   3.217   5.194   5.486
11874TIP3    H235568   3.238   5.343   5.476
11875TIP3   OH235569   4.888   1.048   6.774
11875TIP3    H135570   4.945   1.120   6.745
11875TIP3    H235571   4.875   0.994   6.696
11876TIP3   OH235572   5.459   4.190   6.669
11876TIP3    H135573   5.447   4.115   6.611
11876TIP3    H235574   5.519   4.247   6.622
11877TIP3   OH235575   4.048   6.529   4.588
11877TIP3    H135576   4.083   6.610   4.552
11877TIP3    H235577   4.113   6.502   4.653
11878TIP3   OH235578   2.465   7.203   5.289
11878TIP3    H135579   2.422   7.258   5.354
11878TIP3    H235580   2.427   7.229   5.206
11879TIP3   OH235581   5.499   4.171   1.471
11879TIP3    H135582   5.516   4.093   1.524
11879TIP3    H235583   5.474   4.238   1.534
11880TIP3   OH235584   0.117   4.770   6.219
11880TIP3    H135585   0.098   4.798   6.308
11880TIP3    H235586   0.189   4.708   6.228
11881TIP3   OH235587   5.531   5.795   6.207
11881TIP3    H135588   5.625   5.812   6.207
11881TIP3    H235589   5.496   5.855   6.141
11882TIP3   OH235590   4.742   0.517   5.164
11882TIP3    H135591   4.747   0.448   5.230
11882TIP3    H235592   4.780   0.478   5.085
11883TIP3   OH235593   6.874   5.714   6.421
11883TIP3    H135594   6.787   5.700   6.384
11883TIP3    H235595   6.916   5.775   6.361
11884TIP3   OH235596   0.666   3.879   0.641
11884TIP3    H135597   0.606   3.942   0.601
11884TIP3    H235598   0.636   3.872   0.732
11885TIP3   OH235599   4.671   1.808   5.066
11885TIP3    H135600   4.683   1.830   4.973
11885TIP3    H235601   4.588   1.759   5.068
11886TIP3   OH235602   7.851   0.349   4.743
11886TIP3    H135603   7.889   0.368   4.828
11886TIP3    H235604   7.775   0.407   4.738
11887TIP3   OH235605   0.249   6.985   5.926
11887TIP3    H135606   0.250   7.077   5.954
11887TIP3    H235607   0.225   6.936   6.004
11888TIP3   OH235608   6.004   2.198   5.038
11888TIP3    H135609   5.931   2.141   5.015
11888TIP3    H235610   6.050   2.151   5.108
11889TIP3   OH235611   1.341   0.053   2.012
11889TIP3    H135612   1.345   0.057   2.107
11889TIP3    H235613   1.426   0.018   1.986
11890TIP3   OH235614   8.101   2.632   2.753
11890TIP3    H135615   8.134   2.551   2.792
11890TIP3    H235616   8.178   2.686   2.741
11891TIP3   OH235617   5.822   5.112   2.093
11891TIP3    H135618   5.792   5.195   2.056
11891TIP3    H235619   5.755   5.049   2.068
11892TIP3   OH235620   2.357   4.766   3.154
11892TIP3    H135621   2.393   4.850   3.182
11892TIP3    H235622   2.434   4.710   3.141
11893TIP3   OH235623   6.057   1.332   1.500
11893TIP3    H135624   6.043   1.276   1.577
11893TIP3    H235625   5.972   1.372   1.484
11894TIP3   OH235626   5.060   2.761   5.857
11894TIP3    H135627   4.978   2.783   5.812
11894TIP3    H235628   5.036   2.693   5.920
11895TIP3   OH235629   3.517   5.940   5.497
11895TIP3    H135630   3.445   5.972   5.442
11895TIP3    H235631   3.511   5.992   5.577
11896TIP3   OH235632   4.579   4.374   2.295
11896TIP3    H135633   4.635   4.300   2.316
11896TIP3    H235634   4.490   4.339   2.300
11897TIP3   OH235635   6.681   1.732   5.907
11897TIP3    H135636   6.755   1.710   5.964
11897TIP3    H235637   6.713   1.714   5.819
11898TIP3   OH235638   7.796   1.111   1.285
11898TIP3    H135639   7.764   1.181   1.341
11898TIP3    H235640   7.831   1.155   1.208
11899TIP3   OH235641   0.685   3.749   0.417
11899TIP3    H135642   0.748   3.810   0.377
11899TIP3    H235643   0.670   3.785   0.505
11900TIP3   OH235644   2.490   2.304   5.224
11900TIP3    H135645   2.439   2.280   5.301
11900TIP3    H235646   2.437   2.370   5.179
11901TIP3   OH235647   0.822   4.002   4.383
11901TIP3    H135648   0.760   3.955   4.439
11901TIP3    H235649   0.813   3.962   4.297
11902TIP3   OH235650   5.970   3.817   1.859
11902TIP3    H135651   6.055   3.803   1.902
11902TIP3    H235652   5.914   3.748   1.894
11903TIP3   OH235653   4.635   4.478   4.508
11903TIP3    H135654   4.627   4.505   4.417
11903TIP3    H235655   4.688   4.398   4.505
11904TIP3   OH235656   7.962   3.816   5.319
11904TIP3    H135657   8.038   3.863   5.285
11904TIP3    H235658   7.948   3.853   5.406
11905TIP3   OH235659   5.505   7.255   3.618
11905TIP3    H135660   5.557   7.312   3.675
11905TIP3    H235661   5.421   7.246   3.663
11906TIP3   OH235662   1.994   2.509   6.048
11906TIP3    H135663   1.998   2.416   6.073
11906TIP3    H235664   2.081   2.529   6.014
11907TIP3   OH235665   7.070   6.605   3.841
11907TIP3    H135666   7.071   6.512   3.819
11907TIP3    H235667   7.102   6.608   3.932
11908TIP3   OH235668   3.698   0.216   5.453
11908TIP3    H135669   3.739   0.273   5.387
11908TIP3    H235670   3.769   0.191   5.511
11909TIP3   OH235671   4.764   0.299   4.542
11909TIP3    H135672   4.842   0.350   4.563
11909TIP3    H235673   4.791   0.208   4.554
11910TIP3   OH235674   6.120   4.687   1.732
11910TIP3    H135675   6.108   4.665   1.639
11910TIP3    H235676   6.071   4.619   1.779
11911TIP3   OH235677   2.808   4.609   4.405
11911TIP3    H135678   2.776   4.567   4.325
11911TIP3    H235679   2.863   4.543   4.447
11912TIP3   OH235680   2.650   0.711   6.730
11912TIP3    H135681   2.616   0.782   6.676
11912TIP3    H235682   2.648   0.746   6.819
11913TIP3   OH235683   4.037   2.541   0.515
11913TIP3    H135684   4.010   2.452   0.489
11913TIP3    H235685   3.971   2.568   0.579
11914TIP3   OH235686   0.429   5.295   2.513
11914TIP3    H135687   0.445   5.264   2.425
11914TIP3    H235688   0.478   5.377   2.519
11915TIP3   OH235689   7.977   3.508   2.671
11915TIP3    H135690   8.047   3.464   2.719
11915TIP3    H235691   8.022   3.561   2.605
11916TIP3   OH235692   1.072   7.287   3.767
11916TIP3    H135693   1.051   7.228   3.695
11916TIP3    H235694   1.163   7.266   3.789
11917TIP3   OH235695   0.792   5.158   2.002
11917TIP3    H135696   0.750   5.175   1.918
11917TIP3    H235697   0.722   5.164   2.066
11918TIP3   OH235698   6.854   5.136   1.962
11918TIP3    H135699   6.919   5.098   1.903
11918TIP3    H235700   6.825   5.062   2.016
11919TIP3   OH235701   1.266   5.824   2.191
11919TIP3    H135702   1.332   5.893   2.187
11919TIP3    H235703   1.308   5.749   2.149
11920TIP3   OH235704   7.266   5.704   0.226
11920TIP3    H135705   7.192   5.757   0.197
11920TIP3    H235706   7.228   5.619   0.248
11921TIP3   OH235707   4.400   5.061   0.993
11921TIP3    H135708   4.451   5.111   1.056
11921TIP3    H235709   4.322   5.116   0.977
11922TIP3   OH235710   3.235   4.580   2.096
11922TIP3    H135711   3.191   4.619   2.021
11922TIP3    H235712   3.315   4.542   2.060
11923TIP3   OH235713   2.189   6.206   3.893
11923TIP3    H135714   2.246   6.131   3.876
11923TIP3    H235715   2.225   6.247   3.971
11924TIP3   OH235716   0.093   0.983   6.435
11924TIP3    H135717   0.075   0.913   6.498
11924TIP3    H235718   0.007   1.022   6.419
11925TIP3   OH235719   6.902   1.375   5.929
11925TIP3    H135720   6.818   1.368   5.973
11925TIP3    H235721   6.963   1.403   5.998
11926TIP3   OH235722   0.178   7.050   5.238
11926TIP3    H135723   0.205   7.058   5.146
11926TIP3    H235724   0.246   7.097   5.287
11927TIP3   OH235725   1.468   5.576   1.712
11927TIP3    H135726   1.511   5.496   1.741
11927TIP3    H235727   1.536   5.625   1.667
11928TIP3   OH235728   7.515   1.745   2.352
11928TIP3    H135729   7.537   1.830   2.389
11928TIP3    H235730   7.545   1.681   2.416
11929TIP3   OH235731   0.964   7.230   3.538
11929TIP3    H135732   0.869   7.221   3.545
11929TIP3    H235733   0.992   7.156   3.483
11930TIP3   OH235734   2.720   0.647   1.039
11930TIP3    H135735   2.804   0.686   1.013
11930TIP3    H235736   2.700   0.585   0.969
11931TIP3   OH235737   2.786   6.803   3.234
11931TIP3    H135738   2.880   6.812   3.219
11931TIP3    H235739   2.777   6.795   3.329
11932TIP3   OH235740   2.315   1.370   3.383
11932TIP3    H135741   2.391   1.328   3.342
11932TIP3    H235742   2.305   1.324   3.466
11933TIP3   OH235743   3.888   1.735   2.020
11933TIP3    H135744   3.966   1.751   2.073
11933TIP3    H235745   3.884   1.640   2.010
11934TIP3   OH235746   5.248   7.233   5.164
11934TIP3    H135747   5.180   7.253   5.099
11934TIP3    H235748   5.202   7.182   5.231
11935TIP3   OH235749   6.726   3.774   5.646
11935TIP3    H135750   6.777   3.850   5.618
11935TIP3    H235751   6.785   3.724   5.702
11936TIP3   OH235752   4.257   7.054   4.687
11936TIP3    H135753   4.339   7.085   4.727
11936TIP3    H235754   4.263   7.083   4.596
11937TIP3   OH235755   1.915   7.143   3.141
11937TIP3    H135756   1.970   7.220   3.129
11937TIP3    H235757   1.976   7.070   3.143
11938TIP3   OH235758   7.786   6.386   0.191
11938TIP3    H135759   7.822   6.303   0.158
11938TIP3    H235760   7.747   6.363   0.275
11939TIP3   OH235761   0.760   0.159   0.141
11939TIP3    H135762   0.818   0.229   0.111
11939TIP3    H235763   0.796   0.079   0.102
11940TIP3   OH235764   2.003   6.556   4.326
11940TIP3    H135765   1.985   6.565   4.419
11940TIP3    H235766   2.096   6.578   4.317
11941TIP3   OH235767   6.768   1.092   5.390
11941TIP3    H135768   6.678   1.107   5.361
11941TIP3    H235769   6.785   0.999   5.371
11942TIP3   OH235770   5.362   5.421   1.392
11942TIP3    H135771   5.334   5.377   1.312
11942TIP3    H235772   5.346   5.357   1.462
11943TIP3   OH235773   1.543   5.753   4.336
11943TIP3    H135774   1.518   5.733   4.426
11943TIP3    H235775   1.526   5.672   4.288
11944TIP3   OH235776   0.732   3.490   3.113
11944TIP3    H135777   0.683   3.511   3.193
11944TIP3    H235778   0.818   3.531   3.127
11945TIP3   OH235779   4.148   4.357   0.485
11945TIP3    H135780   4.219   4.338   0.546
11945TIP3    H235781   4.126   4.272   0.446
11946TIP3   OH235782   5.835   5.524   0.421
11946TIP3    H135783   5.810   5.440   0.460
11946TIP3    H235784   5.753   5.575   0.419
11947TIP3   OH235785   0.831   5.175   6.160
11947TIP3    H135786   0.894   5.183   6.088
11947TIP3    H235787   0.796   5.087   6.152
11948TIP3   OH235788   1.913   3.317   4.426
11948TIP3    H135789   1.835   3.330   4.480
11948TIP3    H235790   1.981   3.368   4.470
11949TIP3   OH235791   4.018   4.007   6.683
11949TIP3    H135792   4.085   3.956   6.638
11949TIP3    H235793   3.995   3.954   6.759
11950TIP3   OH235794   7.347   6.725   3.962
11950TIP3    H135795   7.293   6.736   4.040
11950TIP3    H235796   7.435   6.706   3.996
11951TIP3   OH235797   2.025   3.652   2.099
11951TIP3    H135798   2.111   3.687   2.075
11951TIP3    H235799   2.044   3.563   2.130
11952TIP3   OH235800   4.473   2.974   0.805
11952TIP3    H135801   4.420   2.942   0.733
11952TIP3    H235802   4.439   3.061   0.824
11953TIP3   OH235803   8.282   1.342   5.095
11953TIP3    H135804   8.211   1.280   5.081
11953TIP3    H235805   8.303   1.375   5.008
11954TIP3   OH235806   4.543   5.502   5.369
11954TIP3    H135807   4.522   5.409   5.378
11954TIP3    H235808   4.526   5.539   5.456
11955TIP3   OH235809   3.263   3.955   3.322
11955TIP3    H135810   3.320   4.014   3.274
11955TIP3    H235811   3.183   3.950   3.268
11956TIP3   OH235812   0.652   4.553   2.312
11956TIP3    H135813   0.682   4.633   2.269
11956TIP3    H235814   0.706   4.484   2.275
11957TIP3   OH235815   4.841   0.675   3.420
11957TIP3    H135816   4.936   0.689   3.422
11957TIP3    H235817   4.804   0.762   3.432
11958TIP3   OH235818   2.526   0.438   3.468
11958TIP3    H135819   2.600   0.464   3.523
11958TIP3    H235820   2.455   0.496   3.494
11959TIP3   OH235821   4.643   2.657   2.035
11959TIP3    H135822   4.614   2.714   1.963
11959TIP3    H235823   4.567   2.601   2.053
11960TIP3   OH235824   8.100   5.626   3.785
11960TIP3    H135825   8.123   5.548   3.734
11960TIP3    H235826   8.150   5.617   3.866
11961TIP3   OH235827   4.412   5.740   1.208
11961TIP3    H135828   4.393   5.652   1.176
11961TIP3    H235829   4.496   5.762   1.169
11962TIP3   OH235830   0.836   4.654   5.945
11962TIP3    H135831   0.779   4.577   5.946
11962TIP3    H235832   0.924   4.619   5.935
11963TIP3   OH235833   2.915   6.219   3.279
11963TIP3    H135834   2.863   6.141   3.263
11963TIP3    H235835   3.000   6.186   3.308
11964TIP3   OH235836   1.138   3.796   4.650
11964TIP3    H135837   1.231   3.778   4.668
11964TIP3    H235838   1.090   3.742   4.712
11965TIP3   OH235839   0.852   3.392   2.651
11965TIP3    H135840   0.853   3.334   2.727
11965TIP3    H235841   0.775   3.447   2.663
11966TIP3   OH235842   8.179   1.034   3.779
11966TIP3    H135843   8.149   0.944   3.796
11966TIP3    H235844   8.265   1.039   3.821
11967TIP3   OH235845   8.074   1.680   6.575
11967TIP3    H135846   8.168   1.661   6.581
11967TIP3    H235847   8.068   1.775   6.583
11968TIP3   OH235848   4.915   6.065   0.436
11968TIP3    H135849   4.931   6.104   0.350
11968TIP3    H235850   4.829   6.024   0.429
11969TIP3   OH235851   2.707   0.907   0.682
11969TIP3    H135852   2.686   0.891   0.590
11969TIP3    H235853   2.801   0.924   0.682
11970TIP3   OH235854   1.305   7.183   1.355
11970TIP3    H135855   1.343   7.265   1.386
11970TIP3    H235856   1.365   7.116   1.387
11971TIP3   OH235857   5.764   0.950   1.152
11971TIP3    H135858   5.794   0.949   1.061
11971TIP3    H235859   5.842   0.929   1.203
11972TIP3   OH235860   3.515   4.925   3.207
11972TIP3    H135861   3.455   4.933   3.281
11972TIP3    H235862   3.554   5.012   3.198
11973TIP3   OH235863   7.274   6.662   6.310
11973TIP3    H135864   7.305   6.598   6.375
11973TIP3    H235865   7.184   6.635   6.292
11974TIP3   OH235866   5.604   6.782   4.167
11974TIP3    H135867   5.607   6.719   4.239
11974TIP3    H235868   5.695   6.810   4.157
11975TIP3   OH235869   3.304   6.694   0.927
11975TIP3    H135870   3.361   6.671   0.853
11975TIP3    H235871   3.337   6.640   0.999
11976TIP3   OH235872   5.717   4.820   2.928
11976TIP3    H135873   5.710   4.844   2.836
11976TIP3    H235874   5.662   4.742   2.937
11977TIP3   OH235875   1.660   6.128   1.512
11977TIP3    H135876   1.573   6.167   1.516
11977TIP3    H235877   1.657   6.069   1.437
11978TIP3   OH235878   7.941   3.468   2.383
11978TIP3    H135879   7.972   3.558   2.397
11978TIP3    H235880   7.871   3.457   2.447
11979TIP3   OH235881   3.906   3.847   2.656
11979TIP3    H135882   4.001   3.839   2.658
11979TIP3    H235883   3.888   3.932   2.698
11980TIP3   OH235884   0.982   5.470   4.782
11980TIP3    H135885   0.889   5.465   4.759
11980TIP3    H235886   1.024   5.506   4.704
11981TIP3   OH235887   5.246   2.080   3.270
11981TIP3    H135888   5.215   2.166   3.299
11981TIP3    H235889   5.340   2.092   3.257
11982TIP3   OH235890   3.381   1.385   0.943
11982TIP3    H135891   3.385   1.474   0.977
11982TIP3    H235892   3.352   1.395   0.853
11983TIP3   OH235893   1.163   3.502   6.452
11983TIP3    H135894   1.254   3.516   6.424
11983TIP3    H235895   1.142   3.413   6.422
11984TIP3   OH235896   7.014   2.139   5.074
11984TIP3    H135897   6.997   2.228   5.104
11984TIP3    H235898   6.927   2.099   5.068
11985TIP3   OH235899   2.597   2.006   6.194
11985TIP3    H135900   2.648   1.926   6.201
11985TIP3    H235901   2.546   1.995   6.114
11986TIP3   OH235902   5.777   6.328   1.082
11986TIP3    H135903   5.776   6.423   1.096
11986TIP3    H235904   5.687   6.306   1.058
11987TIP3   OH235905   0.239   6.706   6.557
11987TIP3    H135906   0.240   6.690   6.462
11987TIP3    H235907   0.329   6.731   6.578
11988TIP3   OH235908   4.260   6.362   5.105
11988TIP3    H135909   4.323   6.388   5.038
11988TIP3    H235910   4.190   6.428   5.099
11989TIP3   OH235911   2.373   1.787   6.487
11989TIP3    H135912   2.422   1.826   6.559
11989TIP3    H235913   2.364   1.695   6.510
11990TIP3   OH235914   5.457   1.945   2.003
11990TIP3    H135915   5.450   2.036   2.032
11990TIP3    H235916   5.543   1.917   2.034
11991TIP3   OH235917   6.898   4.950   5.060
11991TIP3    H135918   6.948   4.884   5.109
11991TIP3    H235919   6.920   5.033   5.102
11992TIP3   OH235920   7.316   6.606   0.873
11992TIP3    H135921   7.340   6.578   0.784
11992TIP3    H235922   7.350   6.538   0.930
11993TIP3   OH235923   6.404   4.263   4.853
11993TIP3    H135924   6.396   4.179   4.898
11993TIP3    H235925   6.344   4.256   4.779
11994TIP3   OH235926   5.432   1.019   0.938
11994TIP3    H135927   5.479   1.100   0.917
11994TIP3    H235928   5.464   0.995   1.025
11995TIP3   OH235929   4.075   3.543   2.925
11995TIP3    H135930   4.022   3.618   2.951
11995TIP3    H235931   4.142   3.536   2.992
11996TIP3   OH235932   3.822   3.655   6.694
11996TIP3    H135933   3.887   3.706   6.742
11996TIP3    H235934   3.841   3.564   6.717
11997TIP3   OH235935   0.205   5.028   5.720
11997TIP3    H135936   0.206   4.966   5.793
11997TIP3    H235937   0.251   5.105   5.754
11998TIP3   OH235938   5.828   4.125   4.822
11998TIP3    H135939   5.852   4.155   4.734
11998TIP3    H235940   5.754   4.066   4.808
11999TIP3   OH235941   3.705  -0.020   4.514
11999TIP3    H135942   3.702  -0.113   4.493
11999TIP3    H235943   3.660   0.022   4.440
12000TIP3   OH235944   5.804   6.564   6.817
12000TIP3    H135945   5.828   6.555   6.725
12000TIP3    H235946   5.737   6.633   6.817
12001TIP3   OH235947   3.896   5.039   5.617
12001TIP3    H135948   3.945   4.992   5.685
12001TIP3    H235949   3.820   4.984   5.601
12002TIP3   OH235950   1.043   7.602   1.388
12002TIP3    H135951   1.058   7.515   1.423
12002TIP3    H235952   0.949   7.616   1.399
12003TIP3   OH235953   0.964   2.240   2.399
12003TIP3    H135954   1.008   2.314   2.359
12003TIP3    H235955   0.874   2.271   2.415
12004TIP3   OH235956   7.928   7.575   3.464
12004TIP3    H135957   7.907   7.562   3.557
12004TIP3    H235958   7.875   7.649   3.437
12005TIP3   OH235959   5.914   2.777   4.154
12005TIP3    H135960   5.849   2.731   4.207
12005TIP3    H235961   5.998   2.745   4.187
12006TIP3   OH235962   1.054   2.478   0.648
12006TIP3    H135963   1.079   2.565   0.619
12006TIP3    H235964   1.137   2.432   0.662
12007TIP3   OH235965   7.453   3.996   1.207
12007TIP3    H135966   7.359   4.016   1.196
12007TIP3    H235967   7.456   3.937   1.282
12008TIP3   OH235968   4.009   6.233   1.175
12008TIP3    H135969   4.047   6.315   1.145
12008TIP3    H235970   4.085   6.179   1.199
12009TIP3   OH235971   4.836   5.313   4.803
12009TIP3    H135972   4.919   5.290   4.845
12009TIP3    H235973   4.803   5.387   4.854
12010TIP3   OH235974   0.206   0.468   4.281
12010TIP3    H135975   0.212   0.467   4.185
12010TIP3    H235976   0.297   0.458   4.310
12011TIP3   OH235977   7.683   1.829   3.981
12011TIP3    H135978   7.741   1.897   3.946
12011TIP3    H235979   7.699   1.753   3.925
12012TIP3   OH235980   4.632   1.250   2.305
12012TIP3    H135981   4.639   1.309   2.230
12012TIP3    H235982   4.704   1.188   2.294
12013TIP3   OH235983   2.368   4.230   1.364
12013TIP3    H135984   2.385   4.136   1.371
12013TIP3    H235985   2.450   4.267   1.331
12014TIP3   OH235986   2.349   1.176   2.821
12014TIP3    H135987   2.423   1.192   2.762
12014TIP3    H235988   2.380   1.205   2.907
12015TIP3   OH235989   0.510   3.476   2.989
12015TIP3    H135990   0.504   3.547   2.925
12015TIP3    H235991   0.603   3.472   3.012
12016TIP3   OH235992   5.914   5.384   3.570
12016TIP3    H135993   5.846   5.445   3.544
12016TIP3    H235994   5.879   5.342   3.649
12017TIP3   OH235995   2.004   3.813   1.460
12017TIP3    H135996   2.064   3.846   1.393
12017TIP3    H235997   2.051   3.738   1.499
12018TIP3   OH235998   8.111   1.800   1.957
12018TIP3    H135999   8.190   1.748   1.942
12018TIP3    H236000   8.082   1.825   1.869
12019TIP3   OH236001   4.091   2.564   2.475
12019TIP3    H136002   4.030   2.534   2.408
12019TIP3    H236003   4.174   2.575   2.429
12020TIP3   OH236004   3.880   1.925   4.973
12020TIP3    H136005   3.875   1.855   4.908
12020TIP3    H236006   3.818   1.899   5.042
12021TIP3   OH236007   1.681   7.619   3.998
12021TIP3    H136008   1.762   7.601   3.949
12021TIP3    H236009   1.706   7.685   4.062
12022TIP3   OH236010   7.719   2.906   2.313
12022TIP3    H136011   7.767   2.969   2.367
12022TIP3    H236012   7.786   2.851   2.273
12023TIP3   OH236013   1.780   7.488   2.100
12023TIP3    H136014   1.791   7.583   2.092
12023TIP3    H236015   1.686   7.475   2.104
12024TIP3   OH236016   4.823   5.323   2.920
12024TIP3    H136017   4.873   5.241   2.914
12024TIP3    H236018   4.819   5.355   2.830
12025TIP3   OH236019   4.102   5.907   4.078
12025TIP3    H136020   4.028   5.938   4.130
12025TIP3    H236021   4.065   5.896   3.990
12026TIP3   OH236022   1.390   2.193   0.234
12026TIP3    H136023   1.439   2.134   0.291
12026TIP3    H236024   1.308   2.208   0.282
12027TIP3   OH236025   0.817   1.271   4.753
12027TIP3    H136026   0.843   1.188   4.711
12027TIP3    H236027   0.742   1.301   4.702
12028TIP3   OH236028   0.026   2.807   2.799
12028TIP3    H136029   0.083   2.734   2.823
12028TIP3    H236030   0.081   2.885   2.811
12029TIP3   OH236031   0.374   6.408   5.283
12029TIP3    H136032   0.336   6.386   5.198
12029TIP3    H236033   0.320   6.362   5.347
12030TIP3   OH236034   5.000   4.471   0.859
12030TIP3    H136035   4.956   4.395   0.819
12030TIP3    H236036   5.042   4.515   0.785
12031TIP3   OH236037   4.416   5.545   5.846
12031TIP3    H136038   4.386   5.455   5.850
12031TIP3    H236039   4.506   5.542   5.877
12032TIP3   OH236040   6.426   5.871   2.463
12032TIP3    H136041   6.394   5.916   2.384
12032TIP3    H236042   6.519   5.857   2.446
12033TIP3   OH236043   2.439   1.014   4.133
12033TIP3    H136044   2.518   1.050   4.173
12033TIP3    H236045   2.367   1.061   4.176
12034TIP3   OH236046   1.975   4.938   4.783
12034TIP3    H136047   2.040   4.902   4.722
12034TIP3    H236048   1.930   5.006   4.733
12035TIP3   OH236049   1.719   3.835   3.187
12035TIP3    H136050   1.757   3.799   3.107
12035TIP3    H236051   1.702   3.759   3.242
12036TIP3   OH236052   5.680   5.883   2.511
12036TIP3    H136053   5.769   5.847   2.514
12036TIP3    H236054   5.635   5.830   2.444
12037TIP3   OH236055   3.033   5.562   4.383
12037TIP3    H136056   2.952   5.607   4.359
12037TIP3    H236057   3.055   5.596   4.469
12038TIP3   OH236058   5.700   6.498   4.962
12038TIP3    H136059   5.650   6.535   5.034
12038TIP3    H236060   5.791   6.500   4.991
12039TIP3   OH236061   5.821   2.373   4.626
12039TIP3    H136062   5.754   2.426   4.584
12039TIP3    H236063   5.904   2.404   4.588
12040TIP3   OH236064   6.725   5.194   1.653
12040TIP3    H136065   6.695   5.244   1.729
12040TIP3    H236066   6.814   5.225   1.638
12041TIP3   OH236067   0.021   1.466   4.866
12041TIP3    H136068   0.010   1.391   4.807
12041TIP3    H236069   0.113   1.461   4.893
12042TIP3   OH236070   2.136   6.417   6.217
12042TIP3    H136071   2.132   6.458   6.131
12042TIP3    H236072   2.128   6.323   6.200
12043TIP3   OH236073   3.603   7.643   1.970
12043TIP3    H136074   3.599   7.653   2.065
12043TIP3    H236075   3.536   7.578   1.950
12044TIP3   OH236076   0.850   1.189   4.495
12044TIP3    H136077   0.938   1.151   4.492
12044TIP3    H236078   0.795   1.126   4.449
12045TIP3   OH236079   2.020   5.779   1.721
12045TIP3    H136080   2.053   5.743   1.639
12045TIP3    H236081   2.098   5.794   1.774
12046TIP3   OH236082   4.562   7.222   3.773
12046TIP3    H136083   4.579   7.141   3.726
12046TIP3    H236084   4.493   7.266   3.723
12047TIP3   OH236085   8.359   1.728   4.347
12047TIP3    H136086   8.433   1.738   4.407
12047TIP3    H236087   8.327   1.817   4.333
12048TIP3   OH236088   7.851   4.834   2.074
12048TIP3    H136089   7.937   4.824   2.116
12048TIP3    H236090   7.804   4.894   2.133
12049TIP3   OH236091   5.684   6.795   4.843
12049TIP3    H136092   5.595   6.830   4.836
12049TIP3    H236093   5.671   6.702   4.864
12050TIP3   OH236094   6.019   1.278   5.612
12050TIP3    H136095   6.074   1.349   5.647
12050TIP3    H236096   6.077   1.231   5.551
12051TIP3   OH236097   3.401   4.883   1.492
12051TIP3    H136098   3.318   4.853   1.454
12051TIP3    H236099   3.431   4.952   1.434
12052TIP3   OH236100   4.490   2.619   0.560
12052TIP3    H136101   4.442   2.700   0.543
12052TIP3    H236102   4.455   2.587   0.643
12053TIP3   OH236103   6.443   0.700   0.482
12053TIP3    H136104   6.401   0.619   0.511
12053TIP3    H236105   6.473   0.682   0.393
12054TIP3   OH236106   0.889   3.073   4.133
12054TIP3    H136107   0.897   2.991   4.182
12054TIP3    H236108   0.897   3.142   4.199
12055TIP3   OH236109   4.882   4.931   5.479
12055TIP3    H136110   4.838   4.887   5.406
12055TIP3    H236111   4.848   4.887   5.557
12056TIP3   OH236112   3.824   7.050   5.343
12056TIP3    H136113   3.758   7.068   5.276
12056TIP3    H236114   3.905   7.085   5.308
12057TIP3   OH236115   7.775   3.440   6.383
12057TIP3    H136116   7.721   3.405   6.313
12057TIP3    H236117   7.793   3.365   6.440
12058TIP3   OH236118   1.138   4.948   0.452
12058TIP3    H136119   1.189   5.028   0.467
12058TIP3    H236120   1.200   4.888   0.409
12059TIP3   OH236121   6.838   7.074   4.916
12059TIP3    H136122   6.923   7.034   4.897
12059TIP3    H236123   6.814   7.042   5.003
12060TIP3   OH236124   5.986   4.081   0.988
12060TIP3    H136125   5.997   4.171   1.019
12060TIP3    H236126   5.952   4.033   1.063
12061TIP3   OH236127   1.188   1.162   5.948
12061TIP3    H136128   1.119   1.119   5.899
12061TIP3    H236129   1.143   1.219   6.009
12062TIP3   OH236130   3.772   1.992   5.367
12062TIP3    H136131   3.839   2.042   5.320
12062TIP3    H236132   3.757   1.915   5.313
12063TIP3   OH236133   3.549   7.347   5.620
12063TIP3    H136134   3.563   7.268   5.673
12063TIP3    H236135   3.629   7.398   5.632
12064TIP3   OH236136   7.050   4.312   3.403
12064TIP3    H136137   7.131   4.356   3.429
12064TIP3    H236138   7.045   4.326   3.308
12065TIP3   OH236139   5.001   6.509   3.967
12065TIP3    H136140   5.087   6.470   3.980
12065TIP3    H236141   4.994   6.576   4.035
12066TIP3   OH236142   4.024   7.176   1.449
12066TIP3    H136143   4.089   7.246   1.456
12066TIP3    H236144   3.963   7.192   1.521
12067TIP3   OH236145   2.893   3.709   6.120
12067TIP3    H136146   2.808   3.666   6.109
12067TIP3    H236147   2.896   3.773   6.049
12068TIP3   OH236148   2.703   5.973   6.061
12068TIP3    H136149   2.660   6.056   6.078
12068TIP3    H236150   2.767   5.963   6.132
12069TIP3   OH236151   0.087   2.943   1.101
12069TIP3    H136152   0.010   2.998   1.122
12069TIP3    H236153   0.050   2.856   1.088
12070TIP3   OH236154   6.127   5.063   4.564
12070TIP3    H136155   6.062   5.018   4.618
12070TIP3    H236156   6.162   5.131   4.621
12071TIP3   OH236157   2.469   0.935   3.871
12071TIP3    H136158   2.440   0.969   3.956
12071TIP3    H236159   2.394   0.886   3.838
12072TIP3   OH236160   1.320   0.952   0.286
12072TIP3    H136161   1.358   0.933   0.372
12072TIP3    H236162   1.395   0.977   0.232
12073TIP3   OH236163   5.435   6.161   1.763
12073TIP3    H136164   5.416   6.151   1.856
12073TIP3    H236165   5.365   6.218   1.730
12074TIP3   OH236166   4.150   5.852   1.336
12074TIP3    H136167   4.129   5.827   1.426
12074TIP3    H236168   4.209   5.783   1.306
12075TIP3   OH236169   3.801   4.495   4.853
12075TIP3    H136170   3.842   4.433   4.912
12075TIP3    H236171   3.800   4.578   4.902
12076TIP3   OH236172   0.426   4.880   6.234
12076TIP3    H136173   0.472   4.933   6.299
12076TIP3    H236174   0.471   4.796   6.236
12077TIP3   OH236175   6.474   1.562   0.042
12077TIP3    H136176   6.389   1.522   0.061
12077TIP3    H236177   6.459   1.656   0.048
12078TIP3   OH236178   4.835   4.927   3.939
12078TIP3    H136179   4.803   4.993   4.001
12078TIP3    H236180   4.925   4.954   3.921
12079TIP3   OH236181   6.402   3.907   5.263
12079TIP3    H136182   6.320   3.889   5.217
12079TIP3    H236183   6.443   3.822   5.274
12080TIP3   OH236184   4.120   7.573   2.527
12080TIP3    H136185   4.071   7.639   2.480
12080TIP3    H236186   4.208   7.576   2.487
12081TIP3   OH236187   1.024   5.462   2.614
12081TIP3    H136188   1.077   5.498   2.685
12081TIP3    H236189   1.043   5.368   2.616
12082TIP3   OH236190   2.168   4.271   3.152
12082TIP3    H136191   2.244   4.329   3.163
12082TIP3    H236192   2.104   4.325   3.105
12083TIP3   OH236193   6.539   2.365   1.991
12083TIP3    H136194   6.443   2.369   1.983
12083TIP3    H236195   6.570   2.349   1.902
12084TIP3   OH236196   2.199   3.453   3.790
12084TIP3    H136197   2.121   3.509   3.791
12084TIP3    H236198   2.173   3.374   3.836
12085TIP3   OH236199   6.083   7.505   0.470
12085TIP3    H136200   6.035   7.504   0.553
12085TIP3    H236201   6.173   7.527   0.495
12086TIP3   OH236202   3.236   5.756   5.982
12086TIP3    H136203   3.157   5.716   5.947
12086TIP3    H236204   3.306   5.722   5.927
12087TIP3   OH236205   5.146   2.224   6.607
12087TIP3    H136206   5.149   2.174   6.525
12087TIP3    H236207   5.061   2.268   6.606
12088TIP3   OH236208   5.578   3.891   1.517
12088TIP3    H136209   5.605   3.845   1.437
12088TIP3    H236210   5.551   3.821   1.576
12089TIP3   OH236211   6.341   4.047   1.792
12089TIP3    H136212   6.402   4.064   1.720
12089TIP3    H236213   6.288   4.127   1.798
12090TIP3   OH236214   5.203   2.383   1.917
12090TIP3    H136215   5.160   2.421   1.841
12090TIP3    H236216   5.177   2.439   1.990
12091TIP3   OH236217   0.332   0.506   0.021
12091TIP3    H136218   0.323   0.567  -0.051
12091TIP3    H236219   0.353   0.561   0.097
12092TIP3   OH236220   2.823   0.390   0.118
12092TIP3    H136221   2.782   0.343   0.046
12092TIP3    H236222   2.780   0.475   0.120
12093TIP3   OH236223   0.864   1.487   4.520
12093TIP3    H136224   0.780   1.501   4.477
12093TIP3    H236225   0.878   1.392   4.515
12094TIP3   OH236226   4.139   7.551   4.639
12094TIP3    H136227   4.146   7.636   4.683
12094TIP3    H236228   4.078   7.501   4.693
12095TIP3   OH236229   0.378   1.574   4.274
12095TIP3    H136230   0.413   1.536   4.194
12095TIP3    H236231   0.433   1.651   4.290
12096TIP3   OH236232   3.438   4.852   0.376
12096TIP3    H136233   3.412   4.760   0.377
12096TIP3    H236234   3.485   4.865   0.458
12097TIP3   OH236235   3.701   5.059   1.918
12097TIP3    H136236   3.737   5.038   1.831
12097TIP3    H236237   3.670   5.149   1.910
12098TIP3   OH236238   7.449   2.949   6.395
12098TIP3    H136239   7.403   2.868   6.421
12098TIP3    H236240   7.532   2.946   6.442
12099TIP3   OH236241   2.496   3.978   6.166
12099TIP3    H136242   2.428   3.915   6.189
12099TIP3    H236243   2.531   4.007   6.251
12100TIP3   OH236244   6.533   3.677   4.991
12100TIP3    H136245   6.497   3.697   5.077
12100TIP3    H236246   6.625   3.702   4.996
12101TIP3   OH236247   4.964   6.944   5.103
12101TIP3    H136248   5.005   6.967   5.020
12101TIP3    H236249   4.940   6.852   5.093
12102TIP3   OH236250   2.369   5.778   2.777
12102TIP3    H136251   2.375   5.812   2.867
12102TIP3    H236252   2.460   5.760   2.753
12103TIP3   OH236253   1.818   2.925   2.530
12103TIP3    H136254   1.769   2.980   2.469
12103TIP3    H236255   1.893   2.894   2.479
12104TIP3   OH236256   2.898   5.587   5.572
12104TIP3    H136257   2.827   5.647   5.549
12104TIP3    H236258   2.920   5.543   5.490
12105TIP3   OH236259   7.055   3.235   2.436
12105TIP3    H136260   7.015   3.263   2.518
12105TIP3    H236261   7.017   3.293   2.370
12106TIP3   OH236262   7.056   5.874   3.868
12106TIP3    H136263   7.055   5.892   3.774
12106TIP3    H236264   6.965   5.850   3.889
12107TIP3   OH236265   0.390   3.523   0.682
12107TIP3    H136266   0.347   3.609   0.686
12107TIP3    H236267   0.375   3.493   0.592
12108TIP3   OH236268   4.542   3.657   2.617
12108TIP3    H136269   4.494   3.589   2.664
12108TIP3    H236270   4.537   3.631   2.525
12109TIP3   OH236271   6.074   2.384   2.718
12109TIP3    H136272   6.123   2.302   2.710
12109TIP3    H236273   6.092   2.415   2.807
12110TIP3   OH236274   1.319   5.524   5.903
12110TIP3    H136275   1.391   5.502   5.844
12110TIP3    H236276   1.245   5.543   5.845
12111TIP3   OH236277   7.199   2.736   0.663
12111TIP3    H136278   7.286   2.706   0.635
12111TIP3    H236279   7.195   2.827   0.634
12112TIP3   OH236280   4.365   7.518   2.396
12112TIP3    H136281   4.379   7.519   2.301
12112TIP3    H236282   4.452   7.530   2.433
12113TIP3   OH236283   6.236   7.656   3.351
12113TIP3    H136284   6.289   7.577   3.340
12113TIP3    H236285   6.166   7.630   3.411
12114TIP3   OH236286   0.181   6.887   2.358
12114TIP3    H136287   0.160   6.979   2.375
12114TIP3    H236288   0.178   6.845   2.444
12115TIP3   OH236289   7.496   3.470   4.750
12115TIP3    H136290   7.438   3.444   4.821
12115TIP3    H236291   7.555   3.396   4.738
12116TIP3   OH236292   2.510   5.211   0.968
12116TIP3    H136293   2.474   5.298   0.986
12116TIP3    H236294   2.529   5.175   1.055
12117TIP3   OH236295   7.519   1.262   5.999
12117TIP3    H136296   7.570   1.334   6.036
12117TIP3    H236297   7.508   1.201   6.072
12118TIP3   OH236298   4.153   1.663   0.690
12118TIP3    H136299   4.116   1.618   0.766
12118TIP3    H236300   4.138   1.604   0.617
12119TIP3   OH236301   4.133   3.366   6.277
12119TIP3    H136302   4.065   3.312   6.317
12119TIP3    H236303   4.189   3.393   6.350
12120TIP3   OH236304   5.745   1.470   0.011
12120TIP3    H136305   5.837   1.445   0.009
12120TIP3    H236306   5.700   1.394   0.048
12121TIP3   OH236307   7.156   2.163   4.255
12121TIP3    H136308   7.236   2.129   4.215
12121TIP3    H236309   7.134   2.099   4.323
12122TIP3   OH236310   7.788   5.472   3.892
12122TIP3    H136311   7.848   5.401   3.870
12122TIP3    H236312   7.735   5.485   3.813
12123TIP3   OH236313   2.119   1.805   2.839
12123TIP3    H136314   2.150   1.817   2.749
12123TIP3    H236315   2.049   1.739   2.831
12124TIP3   OH236316   7.511   2.943   2.991
12124TIP3    H136317   7.417   2.962   2.989
12124TIP3    H236318   7.544   2.991   3.066
12125TIP3   OH236319   6.434   1.593   3.587
12125TIP3    H136320   6.515   1.634   3.618
12125TIP3    H236321   6.367   1.622   3.648
12126TIP3   OH236322   5.685   2.110   5.155
12126TIP3    H136323   5.654   2.090   5.066
12126TIP3    H236324   5.696   2.025   5.196
12127TIP3   OH236325   2.261   4.389   4.091
12127TIP3    H136326   2.278   4.482   4.103
12127TIP3    H236327   2.177   4.385   4.045
12128TIP3   OH236328   6.303   7.666   4.204
12128TIP3    H136329   6.399   7.675   4.205
12128TIP3    H236330   6.284   7.616   4.284
12129TIP3   OH236331   1.890   0.118   6.398
12129TIP3    H136332   1.879   0.067   6.478
12129TIP3    H236333   1.801   0.139   6.370
12130TIP3   OH236334   3.972   3.918   3.266
12130TIP3    H136335   3.982   3.978   3.192
12130TIP3    H236336   3.921   3.968   3.331
12131TIP3   OH236337   4.667   4.377   3.682
12131TIP3    H136338   4.660   4.460   3.634
12131TIP3    H236339   4.676   4.402   3.774
12132TIP3   OH236340   0.015   7.745   2.091
12132TIP3    H136341   0.033   7.837   2.076
12132TIP3    H236342   0.086   7.699   2.045
12133TIP3   OH236343   1.918   4.492   2.490
12133TIP3    H136344   1.975   4.431   2.536
12133TIP3    H236345   1.925   4.574   2.539
12134TIP3   OH236346   3.663   5.488   2.955
12134TIP3    H136347   3.633   5.534   3.033
12134TIP3    H236348   3.752   5.461   2.976
12135TIP3   OH236349   2.114   7.415   5.569
12135TIP3    H136350   2.059   7.478   5.523
12135TIP3    H236351   2.091   7.425   5.661
12136TIP3   OH236352   0.108   4.119   5.262
12136TIP3    H136353   0.180   4.062   5.233
12136TIP3    H236354   0.138   4.207   5.243
12137TIP3   OH236355   4.167   6.551   1.380
12137TIP3    H136356   4.186   6.508   1.297
12137TIP3    H236357   4.152   6.643   1.357
12138TIP3   OH236358   3.397   1.353   2.664
12138TIP3    H136359   3.477   1.339   2.613
12138TIP3    H236360   3.425   1.351   2.755
12139TIP3   OH236361   0.970   5.414   5.212
12139TIP3    H136362   0.944   5.496   5.171
12139TIP3    H236363   1.063   5.426   5.232
12140TIP3   OH236364   2.382   5.430   1.314
12140TIP3    H136365   2.416   5.518   1.296
12140TIP3    H236366   2.455   5.384   1.355
12141TIP3   OH236367   0.238   2.962   3.832
12141TIP3    H136368   0.158   2.943   3.880
12141TIP3    H236369   0.307   2.963   3.898
12142TIP3   OH236370   3.948   5.680   0.540
12142TIP3    H136371   3.983   5.718   0.460
12142TIP3    H236372   3.951   5.751   0.604
12143TIP3   OH236373   6.993   6.630   3.582
12143TIP3    H136374   6.991   6.613   3.676
12143TIP3    H236375   6.994   6.543   3.542
12144TIP3   OH236376   0.354   0.336   5.978
12144TIP3    H136377   0.371   0.309   5.888
12144TIP3    H236378   0.262   0.315   5.993
12145TIP3   OH236379   5.548   2.134   4.369
12145TIP3    H136380   5.529   2.151   4.461
12145TIP3    H236381   5.603   2.055   4.370
12146TIP3   OH236382   6.140   7.610   6.016
12146TIP3    H136383   6.137   7.679   5.950
12146TIP3    H236384   6.055   7.567   6.009
12147TIP3   OH236385   3.650   2.265   3.431
12147TIP3    H136386   3.598   2.336   3.467
12147TIP3    H236387   3.594   2.227   3.363
12148TIP3   OH236388   0.648   4.366   1.061
12148TIP3    H136389   0.724   4.422   1.046
12148TIP3    H236390   0.684   4.278   1.071
12149TIP3   OH236391   7.664   5.561   2.353
12149TIP3    H136392   7.609   5.513   2.291
12149TIP3    H236393   7.719   5.493   2.393
12150TIP3   OH236394   6.929   4.822   1.787
12150TIP3    H136395   6.857   4.792   1.842
12150TIP3    H236396   6.946   4.749   1.726
12151TIP3   OH236397   4.322   1.829   5.304
12151TIP3    H136398   4.310   1.754   5.363
12151TIP3    H236399   4.286   1.800   5.220
12152TIP3   OH236400   1.847   5.587   5.277
12152TIP3    H136401   1.894   5.568   5.358
12152TIP3    H236402   1.778   5.648   5.303
12153TIP3   OH236403   6.437   6.694   2.241
12153TIP3    H136404   6.344   6.674   2.229
12153TIP3    H236405   6.455   6.667   2.332
12154TIP3   OH236406   5.118   6.751   5.897
12154TIP3    H136407   5.115   6.698   5.976
12154TIP3    H236408   5.029   6.747   5.861
12155TIP3   OH236409   4.285   7.256   2.287
12155TIP3    H136410   4.294   7.346   2.317
12155TIP3    H236411   4.369   7.215   2.308
12156TIP3   OH236412   1.804   4.141   6.684
12156TIP3    H136413   1.794   4.143   6.779
12156TIP3    H236414   1.715   4.129   6.651
12157TIP3   OH236415   0.361   6.102   5.998
12157TIP3    H136416   0.360   6.183   6.048
12157TIP3    H236417   0.451   6.095   5.966
12158TIP3   OH236418   2.266   1.607   0.626
12158TIP3    H136419   2.263   1.513   0.640
12158TIP3    H236420   2.261   1.618   0.531
12159TIP3   OH236421   0.856   2.761   0.635
12159TIP3    H136422   0.869   2.716   0.718
12159TIP3    H236423   0.809   2.697   0.581
12160TIP3   OH236424   2.024   5.647   2.607
12160TIP3    H136425   1.980   5.562   2.617
12160TIP3    H236426   1.976   5.690   2.536
12161TIP3   OH236427   3.030   2.026   4.841
12161TIP3    H136428   3.004   2.077   4.763
12161TIP3    H236429   2.962   2.046   4.905
12162TIP3   OH236430   5.842   4.453   5.555
12162TIP3    H136431   5.849   4.454   5.459
12162TIP3    H236432   5.765   4.505   5.575
12163TIP3   OH236433   4.143   5.064   4.688
12163TIP3    H136434   4.186   5.049   4.603
12163TIP3    H236435   4.164   4.985   4.739
12164TIP3   OH236436   7.140   1.598   4.990
12164TIP3    H136437   7.145   1.503   5.000
12164TIP3    H236438   7.220   1.630   5.031
12165TIP3   OH236439   8.151   7.309   3.543
12165TIP3    H136440   8.237   7.278   3.572
12165TIP3    H236441   8.139   7.392   3.589
12166TIP3   OH236442   4.645   5.990   0.425
12166TIP3    H136443   4.599   5.917   0.467
12166TIP3    H236444   4.589   6.067   0.443
12167TIP3   OH236445   3.647   3.445   3.455
12167TIP3    H136446   3.742   3.437   3.445
12167TIP3    H236447   3.617   3.355   3.469
12168TIP3   OH236448   0.169   2.568   5.358
12168TIP3    H136449   0.191   2.558   5.451
12168TIP3    H236450   0.249   2.545   5.312
12169TIP3   OH236451   0.582   4.230   1.567
12169TIP3    H136452   0.570   4.310   1.517
12169TIP3    H236453   0.496   4.188   1.567
12170TIP3   OH236454   7.189   0.824   1.535
12170TIP3    H136455   7.135   0.890   1.492
12170TIP3    H236456   7.198   0.855   1.625
12171TIP3   OH236457   5.187   4.173   2.635
12171TIP3    H136458   5.236   4.207   2.710
12171TIP3    H236459   5.095   4.179   2.661
12172TIP3   OH236460   1.697   2.065   0.281
12172TIP3    H136461   1.617   2.039   0.327
12172TIP3    H236462   1.757   1.992   0.294
12173TIP3   OH236463   1.249   3.006   1.325
12173TIP3    H136464   1.192   3.078   1.300
12173TIP3    H236465   1.208   2.970   1.404
12174TIP3   OH236466   7.647   5.999   3.173
12174TIP3    H136467   7.718   5.935   3.182
12174TIP3    H236468   7.660   6.059   3.246
12175TIP3   OH236469   5.798   4.863   4.337
12175TIP3    H136470   5.728   4.833   4.396
12175TIP3    H236471   5.817   4.952   4.367
12176TIP3   OH236472   4.053   2.183   4.094
12176TIP3    H136473   3.983   2.123   4.119
12176TIP3    H236474   4.008   2.252   4.044
12177TIP3   OH236475   1.492   3.136   1.351
12177TIP3    H136476   1.419   3.080   1.325
12177TIP3    H236477   1.455   3.224   1.353
12178TIP3   OH236478   6.304   3.010   4.978
12178TIP3    H136479   6.351   3.092   4.962
12178TIP3    H236480   6.338   2.979   5.062
12179TIP3   OH236481   7.568   0.072   6.271
12179TIP3    H136482   7.483   0.085   6.228
12179TIP3    H236483   7.560  -0.013   6.315
12180TIP3   OH236484   7.065   0.761   3.832
12180TIP3    H136485   7.087   0.852   3.854
12180TIP3    H236486   6.993   0.768   3.769
12181TIP3   OH236487   4.289   6.640   1.628
12181TIP3    H136488   4.344   6.628   1.551
12181TIP3    H236489   4.342   6.605   1.701
12182TIP3   OH236490   0.260   5.955   0.720
12182TIP3    H136491   0.191   5.987   0.778
12182TIP3    H236492   0.311   6.033   0.698
12183TIP3   OH236493   5.818   0.288   1.694
12183TIP3    H136494   5.897   0.298   1.642
12183TIP3    H236495   5.777   0.375   1.693
12184TIP3   OH236496   5.411   4.675   6.057
12184TIP3    H136497   5.434   4.632   6.139
12184TIP3    H236498   5.446   4.617   5.989
12185TIP3   OH236499   1.684   7.204   4.438
12185TIP3    H136500   1.589   7.218   4.435
12185TIP3    H236501   1.700   7.166   4.524
12186TIP3   OH236502   8.104   2.600   4.856
12186TIP3    H136503   8.191   2.627   4.884
12186TIP3    H236504   8.099   2.507   4.878
12187TIP3   OH236505   4.584   6.376   1.980
12187TIP3    H136506   4.506   6.398   1.930
12187TIP3    H236507   4.586   6.281   1.981
12188TIP3   OH236508   4.382   6.267   1.002
12188TIP3    H136509   4.380   6.183   1.048
12188TIP3    H236510   4.389   6.244   0.910
12189TIP3   OH236511   6.145   5.353   4.374
12189TIP3    H136512   6.228   5.307   4.362
12189TIP3    H236513   6.156   5.401   4.456
12190TIP3   OH236514   5.558   2.734   1.818
12190TIP3    H136515   5.626   2.733   1.751
12190TIP3    H236516   5.606   2.732   1.901
12191TIP3   OH236517   5.481   0.339   3.017
12191TIP3    H136518   5.502   0.389   2.939
12191TIP3    H236519   5.399   0.377   3.049
12192TIP3   OH236520   5.231   0.418   3.616
12192TIP3    H136521   5.233   0.326   3.640
12192TIP3    H236522   5.180   0.460   3.686
12193TIP3   OH236523   7.170   3.319   4.776
12193TIP3    H136524   7.105   3.390   4.773
12193TIP3    H236525   7.234   3.348   4.840
12194TIP3   OH236526   3.228   1.155   5.785
12194TIP3    H136527   3.210   1.122   5.873
12194TIP3    H236528   3.266   1.080   5.739
12195TIP3   OH236529   3.996   4.117   0.834
12195TIP3    H136530   4.082   4.159   0.838
12195TIP3    H236531   3.956   4.138   0.918
12196TIP3   OH236532   3.690   7.212   1.573
12196TIP3    H136533   3.702   7.305   1.593
12196TIP3    H236534   3.602   7.192   1.606
12197TIP3   OH236535   7.047   2.812   3.764
12197TIP3    H136536   6.998   2.766   3.832
12197TIP3    H236537   7.075   2.894   3.805
12198TIP3   OH236538   0.283   7.439   0.579
12198TIP3    H136539   0.288   7.434   0.483
12198TIP3    H236540   0.197   7.478   0.596
12199TIP3   OH236541   5.100   6.589   2.024
12199TIP3    H136542   5.145   6.618   2.104
12199TIP3    H236543   5.122   6.496   2.017
12200TIP3   OH236544   4.571   3.887   3.704
12200TIP3    H136545   4.566   3.858   3.613
12200TIP3    H236546   4.486   3.927   3.722
12201TIP3   OH236547   5.231   2.676   1.731
12201TIP3    H136548   5.300   2.660   1.666
12201TIP3    H236549   5.278   2.685   1.814
12202TIP3   OH236550   7.299   3.208   4.552
12202TIP3    H136551   7.348   3.151   4.612
12202TIP3    H236552   7.223   3.236   4.602
12203TIP3   OH236553   7.262   3.950   2.483
12203TIP3    H136554   7.258   3.969   2.390
12203TIP3    H236555   7.175   3.916   2.505
12204TIP3   OH236556   7.924   5.795   1.507
12204TIP3    H136557   7.855   5.796   1.440
12204TIP3    H236558   7.941   5.702   1.522
12205TIP3   OH236559   7.884   5.050   6.230
12205TIP3    H136560   7.888   5.139   6.195
12205TIP3    H236561   7.947   5.050   6.302
12206TIP3   OH236562   2.253   7.449   2.438
12206TIP3    H136563   2.322   7.385   2.452
12206TIP3    H236564   2.173   7.397   2.432
12207TIP3   OH236565   7.626   7.297   4.318
12207TIP3    H136566   7.626   7.380   4.270
12207TIP3    H236567   7.696   7.307   4.382
12208TIP3   OH236568   1.047   3.319   1.899
12208TIP3    H136569   1.001   3.268   1.965
12208TIP3    H236570   1.134   3.280   1.894
12209TIP3   OH236571   2.128   7.406   5.951
12209TIP3    H136572   2.058   7.369   5.897
12209TIP3    H236573   2.122   7.357   6.033
12210TIP3   OH236574   6.232   5.926   0.760
12210TIP3    H136575   6.138   5.922   0.740
12210TIP3    H236576   6.245   6.015   0.792
12211TIP3   OH236577   5.118   2.017   5.604
12211TIP3    H136578   5.133   2.101   5.648
12211TIP3    H236579   5.204   1.988   5.576
12212TIP3   OH236580   3.938   7.524   2.751
12212TIP3    H136581   3.991   7.526   2.671
12212TIP3    H236582   3.849   7.508   2.720
12213TIP3   OH236583   6.311   0.446   4.738
12213TIP3    H136584   6.238   0.452   4.799
12213TIP3    H236585   6.290   0.510   4.669
12214TIP3   OH236586   1.176   4.604   1.809
12214TIP3    H136587   1.171   4.697   1.831
12214TIP3    H236588   1.188   4.603   1.714
12215TIP3   OH236589   7.034   5.569   2.214
12215TIP3    H136590   6.997   5.491   2.173
12215TIP3    H236591   7.123   5.545   2.237
12216TIP3   OH236592   2.504   2.821   1.022
12216TIP3    H136593   2.526   2.904   0.981
12216TIP3    H236594   2.575   2.805   1.085
12217TIP3   OH236595   3.435   0.826   3.612
12217TIP3    H136596   3.347   0.793   3.595
12217TIP3    H236597   3.436   0.845   3.705
12218TIP3   OH236598   4.488   3.597   5.530
12218TIP3    H136599   4.525   3.587   5.618
12218TIP3    H236600   4.396   3.570   5.539
12219TIP3   OH236601   0.713   2.643   2.970
12219TIP3    H136602   0.786   2.640   3.033
12219TIP3    H236603   0.696   2.552   2.949
12220TIP3   OH236604   0.555   5.093   5.512
12220TIP3    H136605   0.533   5.171   5.461
12220TIP3    H236606   0.542   5.119   5.603
12221TIP3   OH236607   5.386   0.188   5.833
12221TIP3    H136608   5.474   0.173   5.797
12221TIP3    H236609   5.369   0.111   5.886
12222TIP3   OH236610   4.898   5.679   0.775
12222TIP3    H136611   4.802   5.685   0.773
12222TIP3    H236612   4.920   5.695   0.867
12223TIP3   OH236613   1.502   2.382   5.368
12223TIP3    H136614   1.557   2.359   5.293
12223TIP3    H236615   1.448   2.305   5.383
12224TIP3   OH236616   1.854   3.069   5.042
12224TIP3    H136617   1.859   2.986   5.088
12224TIP3    H236618   1.802   3.125   5.100
12225TIP3   OH236619   7.958   4.897   3.516
12225TIP3    H136620   8.011   4.863   3.587
12225TIP3    H236621   7.875   4.921   3.557
12226TIP3   OH236622   6.572   2.464   1.340
12226TIP3    H136623   6.642   2.450   1.405
12226TIP3    H236624   6.504   2.511   1.388
12227TIP3   OH236625   5.643   4.822   0.584
12227TIP3    H136626   5.646   4.863   0.497
12227TIP3    H236627   5.689   4.739   0.572
12228TIP3   OH236628   1.146   3.412   2.937
12228TIP3    H136629   1.207   3.339   2.929
12228TIP3    H236630   1.142   3.449   2.849
12229TIP3   OH236631   4.837   6.859   6.684
12229TIP3    H136632   4.761   6.820   6.641
12229TIP3    H236633   4.814   6.951   6.695
12230TIP3   OH236634   2.707   1.823   1.721
12230TIP3    H136635   2.648   1.804   1.648
12230TIP3    H236636   2.794   1.802   1.687
12231TIP3   OH236637   6.689   5.277   4.356
12231TIP3    H136638   6.666   5.303   4.445
12231TIP3    H236639   6.778   5.311   4.343
12232TIP3   OH236640   0.553   5.049   4.531
12232TIP3    H136641   0.488   4.989   4.568
12232TIP3    H236642   0.579   5.007   4.449
12233TIP3   OH236643   1.741   7.032   3.330
12233TIP3    H136644   1.793   7.096   3.282
12233TIP3    H236645   1.767   6.948   3.292
12234TIP3   OH236646   1.121   1.509   0.181
12234TIP3    H136647   1.125   1.483   0.273
12234TIP3    H236648   1.040   1.561   0.174
12235TIP3   OH236649   3.797   5.703   6.163
12235TIP3    H136650   3.739   5.628   6.169
12235TIP3    H236651   3.742   5.778   6.189
12236TIP3   OH236652   0.799   3.119   3.335
12236TIP3    H136653   0.836   3.207   3.330
12236TIP3    H236654   0.802   3.086   3.246
12237TIP3   OH236655   7.546   1.066   4.171
12237TIP3    H136656   7.485   1.127   4.130
12237TIP3    H236657   7.516   0.980   4.143
12238TIP3   OH236658   6.736   4.256   4.303
12238TIP3    H136659   6.819   4.303   4.296
12238TIP3    H236660   6.759   4.172   4.344
12239TIP3   OH236661   1.884   6.953   0.407
12239TIP3    H136662   1.864   6.864   0.435
12239TIP3    H236663   1.801   6.986   0.372
12240TIP3   OH236664   5.308   6.009   5.499
12240TIP3    H136665   5.391   6.055   5.514
12240TIP3    H236666   5.263   6.063   5.434
12241TIP3   OH236667   5.207   0.164   3.779
12241TIP3    H136668   5.245   0.217   3.850
12241TIP3    H236669   5.283   0.123   3.737
12242TIP3   OH236670   3.115   3.625   0.039
12242TIP3    H136671   3.029   3.654   0.009
12242TIP3    H236672   3.163   3.706   0.057
12243TIP3   OH236673   6.071   7.314   5.424
12243TIP3    H136674   6.083   7.385   5.487
12243TIP3    H236675   6.009   7.348   5.360
12244TIP3   OH236676   3.037   6.341   6.644
12244TIP3    H136677   3.093   6.389   6.584
12244TIP3    H236678   2.967   6.402   6.666
12245TIP3   OH236679   7.958   4.765   3.116
12245TIP3    H136680   7.892   4.714   3.069
12245TIP3    H236681   8.022   4.789   3.049
12246TIP3   OH236682   5.875   4.742   5.095
12246TIP3    H136683   5.832   4.742   5.010
12246TIP3    H236684   5.806   4.767   5.157
12247TIP3   OH236685   4.826   0.508   0.497
12247TIP3    H136686   4.759   0.480   0.559
12247TIP3    H236687   4.807   0.458   0.417
12248TIP3   OH236688   5.592   0.691   1.137
12248TIP3    H136689   5.591   0.786   1.146
12248TIP3    H236690   5.680   0.670   1.106
12249TIP3   OH236691   2.586   2.671   6.426
12249TIP3    H136692   2.585   2.709   6.338
12249TIP3    H236693   2.678   2.649   6.442
12250TIP3   OH236694   6.762   0.505   1.733
12250TIP3    H136695   6.747   0.410   1.732
12250TIP3    H236696   6.810   0.522   1.652
12251TIP3   OH236697   7.788   1.441   1.462
12251TIP3    H136698   7.718   1.375   1.460
12251TIP3    H236699   7.800   1.460   1.555
12252TIP3   OH236700   4.628   0.009   2.883
12252TIP3    H136701   4.689  -0.064   2.891
12252TIP3    H236702   4.632   0.034   2.791
12253TIP3   OH236703   2.392   4.312   2.278
12253TIP3    H136704   2.457   4.315   2.208
12253TIP3    H236705   2.348   4.227   2.266
12254TIP3   OH236706   6.834   2.360   0.133
12254TIP3    H136707   6.778   2.292   0.095
12254TIP3    H236708   6.876   2.318   0.208
12255TIP3   OH236709   3.919   6.537   0.561
12255TIP3    H136710   3.883   6.489   0.636
12255TIP3    H236711   4.006   6.498   0.548
12256TIP3   OH236712   8.317   7.726   5.966
12256TIP3    H136713   8.310   7.788   5.893
12256TIP3    H236714   8.243   7.749   6.023
12257TIP3   OH236715   7.977   1.439   5.764
12257TIP3    H136716   7.955   1.494   5.839
12257TIP3    H236717   7.994   1.502   5.693
12258TIP3   OH236718   5.302   7.462   4.158
12258TIP3    H136719   5.220   7.469   4.110
12258TIP3    H236720   5.302   7.373   4.194
12259TIP3   OH236721   5.392   6.971   4.164
12259TIP3    H136722   5.360   6.927   4.086
12259TIP3    H236723   5.477   6.930   4.181
12260TIP3   OH236724   6.443   0.942   0.735
12260TIP3    H136725   6.394   0.884   0.677
12260TIP3    H236726   6.419   0.913   0.823
12261TIP3   OH236727   0.734   2.624   6.532
12261TIP3    H136728   0.745   2.704   6.584
12261TIP3    H236729   0.820   2.608   6.494
12262TIP3   OH236730   2.383   2.076   0.874
12262TIP3    H136731   2.311   2.082   0.811
12262TIP3    H236732   2.421   2.164   0.874
12263TIP3   OH236733   4.974   3.069   1.445
12263TIP3    H136734   5.009   2.994   1.493
12263TIP3    H236735   5.001   3.055   1.355
12264TIP3   OH236736   4.041   3.969   5.524
12264TIP3    H136737   4.096   4.041   5.493
12264TIP3    H236738   3.952   4.005   5.526
12265TIP3   OH236739   5.041   7.304   4.653
12265TIP3    H136740   4.972   7.263   4.602
12265TIP3    H236741   4.998   7.330   4.735
12266TIP3   OH236742   3.808   6.630   3.578
12266TIP3    H136743   3.854   6.582   3.647
12266TIP3    H236744   3.741   6.570   3.547
12267TIP3   OH236745   3.724   2.949   0.448
12267TIP3    H136746   3.689   2.930   0.535
12267TIP3    H236747   3.686   2.881   0.391
12268TIP3   OH236748   0.889   7.159   2.867
12268TIP3    H136749   0.808   7.172   2.818
12268TIP3    H236750   0.861   7.154   2.959
12269TIP3   OH236751   5.294   3.936   3.295
12269TIP3    H136752   5.338   3.923   3.379
12269TIP3    H236753   5.239   4.014   3.308
12270TIP3   OH236754   0.201   5.970   0.117
12270TIP3    H136755   0.110   6.001   0.114
12270TIP3    H236756   0.193   5.878   0.142
12271TIP3   OH236757   0.384   3.594   3.819
12271TIP3    H136758   0.375   3.660   3.887
12271TIP3    H236759   0.410   3.514   3.866
12272TIP3   OH236760   6.372   6.760   4.652
12272TIP3    H136761   6.335   6.835   4.698
12272TIP3    H236762   6.298   6.702   4.637
12273TIP3   OH236763   0.670   0.766   0.587
12273TIP3    H136764   0.693   0.679   0.619
12273TIP3    H236765   0.643   0.814   0.666
12274TIP3   OH236766   5.025   0.377   4.854
12274TIP3    H136767   5.074   0.405   4.931
12274TIP3    H236768   4.954   0.322   4.888
12275TIP3   OH236769   5.765   1.185   5.546
12275TIP3    H136770   5.733   1.126   5.615
12275TIP3    H236771   5.847   1.220   5.581
12276TIP3   OH236772   4.062   0.860   5.555
12276TIP3    H136773   4.090   0.813   5.634
12276TIP3    H236774   3.977   0.822   5.534
12277TIP3   OH236775   2.876   4.266   6.729
12277TIP3    H136776   2.924   4.341   6.762
12277TIP3    H236777   2.895   4.264   6.635
12278TIP3   OH236778   3.400   7.152   2.913
12278TIP3    H136779   3.412   7.102   2.832
12278TIP3    H236780   3.330   7.214   2.893
12279TIP3   OH236781   4.820   7.768   0.812
12279TIP3    H136782   4.863   7.683   0.799
12279TIP3    H236783   4.832   7.787   0.905
12280TIP3   OH236784   0.072   4.430   3.819
12280TIP3    H136785   0.164   4.407   3.829
12280TIP3    H236786   0.063   4.515   3.860
12281TIP3   OH236787   0.533   1.040   1.758
12281TIP3    H136788   0.439   1.029   1.751
12281TIP3    H236789   0.545   1.124   1.802
12282TIP3   OH236790   6.083   6.845   3.113
12282TIP3    H136791   6.008   6.889   3.073
12282TIP3    H236792   6.083   6.757   3.076
12283TIP3   OH236793   3.727   2.971   1.831
12283TIP3    H136794   3.673   2.942   1.757
12283TIP3    H236795   3.664   2.997   1.898
12284TIP3   OH236796   4.998   0.337   2.472
12284TIP3    H136797   5.084   0.377   2.458
12284TIP3    H236798   4.943   0.374   2.402
12285TIP3   OH236799   6.464   6.412   4.166
12285TIP3    H136800   6.385   6.428   4.114
12285TIP3    H236801   6.456   6.472   4.240
12286TIP3   OH236802   6.836   4.244   3.999
12286TIP3    H136803   6.845   4.249   4.095
12286TIP3    H236804   6.883   4.321   3.967
12287TIP3   OH236805   3.510   2.241   1.603
12287TIP3    H136806   3.503   2.268   1.512
12287TIP3    H236807   3.600   2.209   1.612
12288TIP3   OH236808   2.672   4.089   4.243
12288TIP3    H136809   2.592   4.134   4.270
12288TIP3    H236810   2.742   4.138   4.285
12289TIP3   OH236811   3.377   2.821   1.341
12289TIP3    H136812   3.403   2.879   1.412
12289TIP3    H236813   3.341   2.744   1.385
12290TIP3   OH236814   2.872   5.269   1.332
12290TIP3    H136815   2.780   5.294   1.330
12290TIP3    H236816   2.908   5.303   1.250
12291TIP3   OH236817   6.053   5.291   1.573
12291TIP3    H136818   6.139   5.322   1.547
12291TIP3    H236819   6.064   5.262   1.664
12292TIP3   OH236820   6.001   3.059   1.418
12292TIP3    H136821   6.014   3.110   1.339
12292TIP3    H236822   6.047   3.108   1.487
12293TIP3   OH236823   5.743   4.761   1.234
12293TIP3    H136824   5.668   4.779   1.178
12293TIP3    H236825   5.795   4.841   1.233
12294TIP3   OH236826   7.101   7.490   0.777
12294TIP3    H136827   7.106   7.434   0.700
12294TIP3    H236828   7.137   7.437   0.848
12295TIP3   OH236829   7.753   7.065   6.487
12295TIP3    H136830   7.764   6.971   6.471
12295TIP3    H236831   7.789   7.106   6.409
12296TIP3   OH236832   5.792   1.424   4.128
12296TIP3    H136833   5.709   1.467   4.150
12296TIP3    H236834   5.857   1.494   4.135
12297TIP3   OH236835   4.709   7.106   4.345
12297TIP3    H136836   4.683   7.023   4.304
12297TIP3    H236837   4.654   7.172   4.301
12298TIP3   OH236838   4.804   5.712   4.377
12298TIP3    H136839   4.854   5.793   4.391
12298TIP3    H236840   4.799   5.703   4.282
12299TIP3   OH236841   6.252   0.343   1.243
12299TIP3    H136842   6.194   0.336   1.319
12299TIP3    H236843   6.240   0.432   1.211
12300TIP3   OH236844   3.921   5.004   3.847
12300TIP3    H136845   4.003   4.955   3.843
12300TIP3    H236846   3.881   4.978   3.930
12301TIP3   OH236847   7.740   5.444   0.607
12301TIP3    H136848   7.770   5.442   0.698
12301TIP3    H236849   7.821   5.445   0.556
12302TIP3   OH236850   3.349   4.192   1.903
12302TIP3    H136851   3.267   4.233   1.876
12302TIP3    H236852   3.393   4.171   1.820
12303TIP3   OH236853   3.594   4.549   5.811
12303TIP3    H136854   3.612   4.506   5.895
12303TIP3    H236855   3.600   4.642   5.831
12304TIP3   OH236856   7.821   5.858   0.027
12304TIP3    H136857   7.799   5.820   0.112
12304TIP3    H236858   7.762   5.815  -0.035
12305TIP3   OH236859   0.775   2.642   4.146
12305TIP3    H136860   0.743   2.696   4.218
12305TIP3    H236861   0.863   2.616   4.172
12306TIP3   OH236862   4.063   3.933   1.143
12306TIP3    H136863   4.032   4.021   1.164
12306TIP3    H236864   4.110   3.943   1.060
12307TIP3   OH236865   7.563   4.148   4.398
12307TIP3    H136866   7.537   4.076   4.341
12307TIP3    H236867   7.481   4.176   4.439
12308TIP3   OH236868   1.421   2.245   4.382
12308TIP3    H136869   1.482   2.186   4.339
12308TIP3    H236870   1.471   2.286   4.452
12309TIP3   OH236871   6.018   1.562   3.042
12309TIP3    H136872   6.055   1.578   3.129
12309TIP3    H236873   6.020   1.466   3.033
12310TIP3   OH236874   5.098   5.210   4.900
12310TIP3    H136875   5.125   5.288   4.852
12310TIP3    H236876   5.180   5.171   4.930
12311TIP3   OH236877   7.107   1.815   1.044
12311TIP3    H136878   7.144   1.899   1.071
12311TIP3    H236879   7.013   1.827   1.050
12312TIP3   OH236880   7.687   1.451   6.151
12312TIP3    H136881   7.698   1.536   6.194
12312TIP3    H236882   7.709   1.387   6.219
12313TIP3   OH236883   2.801   2.426   1.613
12313TIP3    H136884   2.763   2.411   1.700
12313TIP3    H236885   2.880   2.476   1.630
12314TIP3   OH236886   1.453   6.510   3.662
12314TIP3    H136887   1.535   6.478   3.700
12314TIP3    H236888   1.481   6.579   3.602
12315TIP3   OH236889   4.322   0.561   0.705
12315TIP3    H136890   4.315   0.490   0.641
12315TIP3    H236891   4.299   0.520   0.788
12316TIP3   OH236892   7.401   6.264   2.488
12316TIP3    H136893   7.462   6.197   2.456
12316TIP3    H236894   7.317   6.239   2.450
12317TIP3   OH236895   1.218   3.214   6.359
12317TIP3    H136896   1.197   3.129   6.398
12317TIP3    H236897   1.312   3.210   6.344
12318TIP3   OH236898   5.063   7.060   1.015
12318TIP3    H136899   5.120   7.136   1.012
12318TIP3    H236900   4.975   7.095   1.004
12319TIP3   OH236901   2.646   2.612   0.225
12319TIP3    H136902   2.707   2.543   0.199
12319TIP3    H236903   2.606   2.580   0.306
12320TIP3   OH236904   5.727   2.643   5.091
12320TIP3    H136905   5.697   2.552   5.095
12320TIP3    H236906   5.821   2.637   5.078
12321TIP3   OH236907   7.950   6.815   3.030
12321TIP3    H136908   8.015   6.883   3.011
12321TIP3    H236909   7.945   6.813   3.126
12322TIP3   OH236910   3.339   6.312   2.919
12322TIP3    H136911   3.394   6.258   2.977
12322TIP3    H236912   3.269   6.253   2.891
12323TIP3   OH236913   5.282   5.246   5.854
12323TIP3    H136914   5.207   5.270   5.908
12323TIP3    H236915   5.353   5.233   5.917
12324TIP3   OH236916   3.164   2.027   5.187
12324TIP3    H136917   3.086   2.043   5.134
12324TIP3    H236918   3.142   2.061   5.273
12325TIP3   OH236919   6.881   7.207   4.215
12325TIP3    H136920   6.852   7.279   4.160
12325TIP3    H236921   6.911   7.248   4.296
12326TIP3   OH236922   7.659   4.063   4.028
12326TIP3    H136923   7.568   4.084   4.045
12326TIP3    H236924   7.678   4.102   3.943
12327TIP3   OH236925   7.340   4.044   4.713
12327TIP3    H136926   7.313   4.044   4.805
12327TIP3    H236927   7.434   4.025   4.715
12328TIP3   OH236928   2.715   4.524   5.802
12328TIP3    H136929   2.746   4.516   5.712
12328TIP3    H236930   2.702   4.433   5.831
12329TIP3   OH236931   4.578   5.930   5.873
12329TIP3    H136932   4.666   5.962   5.853
12329TIP3    H236933   4.521   6.006   5.859
12330TIP3   OH236934   1.584   7.692   2.928
12330TIP3    H136935   1.668   7.738   2.928
12330TIP3    H236936   1.520   7.759   2.906
12331TIP3   OH236937  -0.008   2.346   2.224
12331TIP3    H136938  -0.049   2.299   2.297
12331TIP3    H236939   0.050   2.281   2.184
12332TIP3   OH236940   4.548   3.508   4.013
12332TIP3    H136941   4.502   3.590   4.002
12332TIP3    H236942   4.567   3.504   4.107
12333TIP3   OH236943   5.826   7.328   4.777
12333TIP3    H136944   5.781   7.355   4.857
12333TIP3    H236945   5.762   7.343   4.707
12334TIP3   OH236946   2.987   6.915   5.762
12334TIP3    H136947   3.004   6.969   5.685
12334TIP3    H236948   3.042   6.837   5.749
12335TIP3   OH236949   3.135   2.340   0.709
12335TIP3    H136950   3.208   2.371   0.656
12335TIP3    H236951   3.063   2.400   0.687
12336TIP3   OH236952   7.525   5.063   1.853
12336TIP3    H136953   7.521   4.973   1.884
12336TIP3    H236954   7.561   5.057   1.765
12337TIP3   OH236955   7.686   1.691   5.321
12337TIP3    H136956   7.746   1.687   5.246
12337TIP3    H236957   7.645   1.604   5.324
12338TIP3   OH236958   0.385   1.207   4.738
12338TIP3    H136959   0.423   1.140   4.795
12338TIP3    H236960   0.460   1.262   4.713
12339TIP3   OH236961   6.881   0.027   1.966
12339TIP3    H136962   6.904   0.083   1.893
12339TIP3    H236963   6.930  -0.054   1.951
12340TIP3   OH236964   5.765   1.965   3.280
12340TIP3    H136965   5.811   2.041   3.243
12340TIP3    H236966   5.756   1.905   3.206
12341TIP3   OH236967   0.856   3.150   2.085
12341TIP3    H136968   0.839   3.097   2.164
12341TIP3    H236969   0.791   3.219   2.088
12342TIP3   OH236970   3.974   5.207   5.252
12342TIP3    H136971   4.064   5.191   5.224
12342TIP3    H236972   3.942   5.275   5.192
12343TIP3   OH236973   0.099   2.608   0.014
12343TIP3    H136974   0.014   2.614  -0.028
12343TIP3    H236975   0.132   2.698   0.013
12344TIP3   OH236976   2.343   0.940   0.255
12344TIP3    H136977   2.353   0.986   0.338
12344TIP3    H236978   2.249   0.933   0.242
12345TIP3   OH236979   1.333   0.513   4.716
12345TIP3    H136980   1.369   0.448   4.776
12345TIP3    H236981   1.241   0.490   4.707
12346TIP3   OH236982   0.332   7.739   1.136
12346TIP3    H136983   0.397   7.708   1.199
12346TIP3    H236984   0.332   7.834   1.146
12347TIP3   OH236985   4.268   2.745   4.703
12347TIP3    H136986   4.360   2.725   4.686
12347TIP3    H236987   4.221   2.665   4.681
12348TIP3   OH236988   4.284   6.906   0.873
12348TIP3    H136989   4.305   6.835   0.813
12348TIP3    H236990   4.335   6.981   0.842
12349TIP3   OH236991   7.501   4.389   4.647
12349TIP3    H136992   7.527   4.478   4.621
12349TIP3    H236993   7.582   4.348   4.675
12350TIP3   OH236994   4.660   4.049   2.669
12350TIP3    H136995   4.597   4.119   2.656
12350TIP3    H236996   4.679   4.051   2.763
12351TIP3   OH236997   4.820   0.054   2.357
12351TIP3    H136998   4.751   0.119   2.355
12351TIP3    H236999   4.901   0.104   2.367
12352TIP3   OH237000   3.302   7.588   2.545
12352TIP3    H137001   3.263   7.502   2.565
12352TIP3    H237002   3.389   7.567   2.511
12353TIP3   OH237003   3.575   7.722   5.928
12353TIP3    H137004   3.519   7.645   5.917
12353TIP3    H237005   3.657   7.688   5.962
12354TIP3   OH237006   7.240   3.383   2.991
12354TIP3    H137007   7.280   3.422   3.068
12354TIP3    H237008   7.153   3.422   2.987
12355TIP3   OH237009   6.747   2.893   2.357
12355TIP3    H137010   6.805   2.864   2.427
12355TIP3    H237011   6.705   2.813   2.326
12356TIP3   OH237012   2.668   1.719   5.044
12356TIP3    H137013   2.684   1.757   4.957
12356TIP3    H237014   2.669   1.793   5.104
12357TIP3   OH237015   7.571   5.022   3.583
12357TIP3    H137016   7.606   5.060   3.502
12357TIP3    H237017   7.486   5.063   3.594
12358TIP3   OH237018   3.700   3.045   5.966
12358TIP3    H137019   3.734   3.050   6.056
12358TIP3    H237020   3.605   3.053   5.975
12359TIP3   OH237021   8.275   7.712   4.860
12359TIP3    H137022   8.307   7.636   4.909
12359TIP3    H237023   8.253   7.678   4.774
12360TIP3   OH237024   2.082   6.771   6.346
12360TIP3    H137025   2.046   6.687   6.375
12360TIP3    H237026   2.017   6.835   6.372
12361TIP3   OH237027   0.738   2.646   2.647
12361TIP3    H137028   0.671   2.617   2.585
12361TIP3    H237029   0.697   2.636   2.733
12362TIP3   OH237030   3.272   1.058   0.064
12362TIP3    H137031   3.313   1.088   0.145
12362TIP3    H237032   3.284   1.131   0.003
12363TIP3   OH237033   4.764   3.388   2.435
12363TIP3    H137034   4.737   3.353   2.520
12363TIP3    H237035   4.730   3.325   2.371
12364TIP3   OH237036   6.063   0.314   0.349
12364TIP3    H137037   6.051   0.219   0.354
12364TIP3    H237038   6.062   0.333   0.256
12365TIP3   OH237039   2.562   2.232   3.192
12365TIP3    H137040   2.490   2.244   3.130
12365TIP3    H237041   2.624   2.176   3.145
12366TIP3   OH237042   6.367   4.253   2.077
12366TIP3    H137043   6.396   4.339   2.108
12366TIP3    H237044   6.341   4.267   1.986
12367TIP3   OH237045   5.137   6.082   1.860
12367TIP3    H137046   5.172   6.000   1.895
12367TIP3    H237047   5.070   6.054   1.798
12368TIP3   OH237048   3.438   7.517   2.791
12368TIP3    H137049   3.424   7.471   2.873
12368TIP3    H237050   3.351   7.537   2.759
12369TIP3   OH237051   3.146   6.677   5.655
12369TIP3    H137052   3.139   6.583   5.675
12369TIP3    H237053   3.097   6.689   5.574
12370TIP3   OH237054   1.813   7.524   4.646
12370TIP3    H137055   1.733   7.477   4.673
12370TIP3    H237056   1.884   7.470   4.681
12371TIP3   OH237057   7.640   2.590   5.324
12371TIP3    H137058   7.698   2.634   5.261
12371TIP3    H237059   7.569   2.652   5.338
12372TIP3   OH237060   2.401   7.779   6.652
12372TIP3    H137061   2.473   7.832   6.686
12372TIP3    H237062   2.366   7.734   6.729
12373TIP3   OH237063   5.362   4.044   1.748
12373TIP3    H137064   5.283   4.079   1.706
12373TIP3    H237065   5.359   4.077   1.837
12374TIP3   OH237066   0.190   1.945   6.669
12374TIP3    H137067   0.281   1.970   6.686
12374TIP3    H237068   0.141   2.028   6.675
12375TIP3   OH237069   2.784   6.996   3.573
12375TIP3    H137070   2.845   7.043   3.630
12375TIP3    H237071   2.815   6.905   3.574
12376TIP3   OH237072   7.974   0.892   1.368
12376TIP3    H137073   7.909   0.954   1.333
12376TIP3    H237074   7.948   0.879   1.459
12377TIP3   OH237075   3.850   0.456   5.906
12377TIP3    H137076   3.870   0.363   5.915
12377TIP3    H237077   3.844   0.470   5.812
12378TIP3   OH237078   4.948   4.798   1.994
12378TIP3    H137079   4.882   4.740   2.034
12378TIP3    H237080   4.980   4.851   2.067
12379TIP3   OH237081   4.860   7.684   4.138
12379TIP3    H137082   4.937   7.738   4.120
12379TIP3    H237083   4.875   7.649   4.226
12380TIP3   OH237084   1.157   6.915   4.331
12380TIP3    H137085   1.137   6.828   4.366
12380TIP3    H237086   1.072   6.949   4.303
12381TIP3   OH237087   1.817   3.085   1.659
12381TIP3    H137088   1.827   3.034   1.739
12381TIP3    H237089   1.771   3.165   1.686
12382TIP3   OH237090   4.902   2.517   4.342
12382TIP3    H137091   4.942   2.498   4.427
12382TIP3    H237092   4.823   2.463   4.339
12383TIP3   OH237093   2.699   0.278   2.934
12383TIP3    H137094   2.733   0.223   2.863
12383TIP3    H237095   2.687   0.364   2.893
12384TIP3   OH237096   4.713   4.929   5.751
12384TIP3    H137097   4.646   4.893   5.693
12384TIP3    H237098   4.677   4.918   5.839
12385TIP3   OH237099   3.491   3.049   5.634
12385TIP3    H137100   3.449   2.971   5.668
12385TIP3    H237101   3.538   3.020   5.556
12386TIP3   OH237102   7.242   5.356   1.570
12386TIP3    H137103   7.275   5.295   1.503
12386TIP3    H237104   7.271   5.318   1.653
12387TIP3   OH237105   1.008   1.405   4.230
12387TIP3    H137106   0.913   1.405   4.215
12387TIP3    H237107   1.023   1.483   4.284
12388TIP3   OH237108   1.182   2.250   6.602
12388TIP3    H137109   1.168   2.155   6.604
12388TIP3    H237110   1.267   2.261   6.560
12389TIP3   OH237111   5.910   6.150   3.217
12389TIP3    H137112   6.002   6.129   3.199
12389TIP3    H237113   5.914   6.219   3.284
12390TIP3   OH237114   5.162   6.687   3.204
12390TIP3    H137115   5.202   6.755   3.149
12390TIP3    H237116   5.165   6.723   3.292
12391TIP3   OH237117   0.144   1.244   2.412
12391TIP3    H137118   0.112   1.328   2.445
12391TIP3    H237119   0.076   1.181   2.434
12392TIP3   OH237120   5.205   0.538   3.380
12392TIP3    H137121   5.201   0.505   3.470
12392TIP3    H237122   5.252   0.621   3.386
12393TIP3   OH237123   6.450   4.515   4.519
12393TIP3    H137124   6.385   4.582   4.537
12393TIP3    H237125   6.532   4.551   4.553
12394TIP3   OH237126   6.864   0.939   0.744
12394TIP3    H137127   6.823   0.930   0.830
12394TIP3    H237128   6.853   0.853   0.703
12395TIP3   OH237129   2.433   3.187   0.378
12395TIP3    H137130   2.473   3.122   0.319
12395TIP3    H237131   2.430   3.267   0.326
12396TIP3   OH237132   0.116   3.407   4.679
12396TIP3    H137133   0.082   3.389   4.591
12396TIP3    H237134   0.209   3.386   4.674
12397TIP3   OH237135   1.756   3.213   1.388
12397TIP3    H137136   1.780   3.195   1.478
12397TIP3    H237137   1.675   3.163   1.374
12398TIP3   OH237138   5.237   5.460   6.056
12398TIP3    H137139   5.216   5.550   6.081
12398TIP3    H237140   5.329   5.450   6.079
12399TIP3   OH237141   0.856   6.015   2.462
12399TIP3    H137142   0.871   5.966   2.543
12399TIP3    H237143   0.891   6.102   2.480
12400TIP3   OH237144   0.904   6.622   2.163
12400TIP3    H137145   0.918   6.552   2.099
12400TIP3    H237146   0.953   6.697   2.128
12401TIP3   OH237147   5.607   7.804   2.992
12401TIP3    H137148   5.651   7.720   2.984
12401TIP3    H237149   5.520   7.782   3.027
12402TIP3   OH237150   6.189   6.114   4.904
12402TIP3    H137151   6.281   6.092   4.918
12402TIP3    H237152   6.141   6.036   4.931
12403TIP3   OH237153   1.651   1.793   6.139
12403TIP3    H137154   1.727   1.801   6.083
12403TIP3    H237155   1.593   1.732   6.093
12404TIP3   OH237156   5.932   3.578   1.185
12404TIP3    H137157   6.011   3.631   1.197
12404TIP3    H237158   5.934   3.515   1.257
12405TIP3   OH237159   4.270   2.226   6.468
12405TIP3    H137160   4.313   2.309   6.448
12405TIP3    H237161   4.209   2.213   6.395
12406TIP3   OH237162   1.781   6.076   2.159
12406TIP3    H137163   1.871   6.076   2.125
12406TIP3    H237164   1.749   5.988   2.141
12407TIP3   OH237165   1.692   6.005   4.283
12407TIP3    H137166   1.664   6.057   4.207
12407TIP3    H237167   1.650   5.921   4.271
12408TIP3   OH237168   3.743   4.492   1.068
12408TIP3    H137169   3.822   4.539   1.096
12408TIP3    H237170   3.706   4.458   1.150
12409TIP3   OH237171   0.105   0.351   5.818
12409TIP3    H137172   0.107   0.417   5.887
12409TIP3    H237173   0.015   0.319   5.818
12410TIP3   OH237174   2.570   6.063   0.570
12410TIP3    H137175   2.584   6.119   0.646
12410TIP3    H237176   2.636   5.994   0.579
12411TIP3   OH237177   5.323   4.308   0.510
12411TIP3    H137178   5.317   4.222   0.552
12411TIP3    H237179   5.406   4.344   0.541
12412TIP3   OH237180   0.530   7.347   4.140
12412TIP3    H137181   0.589   7.413   4.103
12412TIP3    H237182   0.587   7.277   4.171
12413TIP3   OH237183   2.185   0.473   5.627
12413TIP3    H137184   2.181   0.431   5.541
12413TIP3    H237185   2.096   0.466   5.661
12414TIP3   OH237186   2.984   2.944   4.518
12414TIP3    H137187   3.046   2.959   4.446
12414TIP3    H237188   2.900   2.932   4.475
12415TIP3   OH237189   4.529   1.115   4.331
12415TIP3    H137190   4.444   1.159   4.341
12415TIP3    H237191   4.583   1.177   4.282
12416TIP3   OH237192   7.077   1.443   0.254
12416TIP3    H137193   7.171   1.428   0.241
12416TIP3    H237194   7.038   1.415   0.171
12417TIP3   OH237195   6.777   4.071   1.273
12417TIP3    H137196   6.700   4.021   1.246
12417TIP3    H237197   6.740   4.151   1.312
12418TIP3   OH237198   1.500   2.691   2.958
12418TIP3    H137199   1.469   2.728   2.876
12418TIP3    H237200   1.595   2.695   2.952
12419TIP3   OH237201   4.897   2.305   5.195
12419TIP3    H137202   4.852   2.329   5.114
12419TIP3    H237203   4.835   2.247   5.240
12420TIP3   OH237204   6.133   2.352   5.491
12420TIP3    H137205   6.219   2.391   5.478
12420TIP3    H237206   6.073   2.408   5.443
12421TIP3   OH237207   3.168   6.789   2.134
12421TIP3    H137208   3.187   6.740   2.214
12421TIP3    H237209   3.178   6.725   2.063
12422TIP3   OH237210   2.098   4.313   1.716
12422TIP3    H137211   2.087   4.269   1.631
12422TIP3    H237212   2.109   4.242   1.779
12423TIP3   OH237213   0.786   4.520   1.812
12423TIP3    H137214   0.748   4.579   1.877
12423TIP3    H237215   0.725   4.525   1.738
12424TIP3   OH237216   3.434   1.653   4.138
12424TIP3    H137217   3.403   1.610   4.218
12424TIP3    H237218   3.442   1.745   4.162
12425TIP3   OH237219   0.935   0.646   3.860
12425TIP3    H137220   0.938   0.640   3.955
12425TIP3    H237221   0.857   0.596   3.835
12426TIP3   OH237222   7.008   4.466   3.653
12426TIP3    H137223   7.080   4.425   3.605
12426TIP3    H237224   6.950   4.500   3.585
12427TIP3   OH237225   1.215   1.155   1.312
12427TIP3    H137226   1.293   1.133   1.363
12427TIP3    H237227   1.161   1.206   1.372
12428TIP3   OH237228   0.307   4.281   0.309
12428TIP3    H137229   0.224   4.235   0.299
12428TIP3    H237230   0.289   4.370   0.280
12429TIP3   OH237231   5.196   3.260   5.544
12429TIP3    H137232   5.231   3.193   5.485
12429TIP3    H237233   5.253   3.256   5.620
12430TIP3   OH237234   3.313   1.678   1.504
12430TIP3    H137235   3.243   1.671   1.439
12430TIP3    H237236   3.297   1.606   1.564
12431TIP3   OH237237   8.012   1.622   3.040
12431TIP3    H137238   7.979   1.533   3.024
12431TIP3    H237239   8.103   1.620   3.009
12432TIP3   OH237240   4.691   4.488   1.619
12432TIP3    H137241   4.778   4.507   1.654
12432TIP3    H237242   4.638   4.563   1.645
12433TIP3   OH237243   4.878   6.404   6.047
12433TIP3    H137244   4.804   6.344   6.042
12433TIP3    H237245   4.946   6.363   5.993
12434TIP3   OH237246   1.721   6.047   4.833
12434TIP3    H137247   1.693   6.138   4.842
12434TIP3    H237248   1.744   6.039   4.740
12435TIP3   OH237249   6.724   0.943   5.653
12435TIP3    H137250   6.721   0.963   5.560
12435TIP3    H237251   6.754   1.024   5.694
12436TIP3   OH237252   0.873   4.947   1.807
12436TIP3    H137253   0.798   4.901   1.845
12436TIP3    H237254   0.851   5.040   1.815
12437TIP3   OH237255   3.307   2.555   1.931
12437TIP3    H137256   3.269   2.478   1.973
12437TIP3    H237257   3.342   2.522   1.848
12438TIP3   OH237258   0.042   3.712   3.148
12438TIP3    H137259   0.084   3.652   3.209
12438TIP3    H237260   0.099   3.789   3.148
12439TIP3   OH237261   5.202   1.427   1.503
12439TIP3    H137262   5.261   1.477   1.447
12439TIP3    H237263   5.127   1.485   1.516
12440TIP3   OH237264   8.288   0.238   6.436
12440TIP3    H137265   8.324   0.326   6.442
12440TIP3    H237266   8.223   0.244   6.365
12441TIP3   OH237267   2.059   3.681   4.941
12441TIP3    H137268   1.993   3.744   4.912
12441TIP3    H237269   2.142   3.725   4.929
12442TIP3   OH237270   6.468   5.298   0.378
12442TIP3    H137271   6.508   5.251   0.304
12442TIP3    H237272   6.465   5.234   0.448
12443TIP3   OH237273   8.156   0.572   5.688
12443TIP3    H137274   8.096   0.567   5.614
12443TIP3    H237275   8.146   0.488   5.732
12444TIP3   OH237276   4.640   1.443   6.102
12444TIP3    H137277   4.692   1.388   6.161
12444TIP3    H237278   4.559   1.395   6.088
12445TIP3   OH237279   1.158   0.280   6.703
12445TIP3    H137280   1.138   0.364   6.744
12445TIP3    H237281   1.198   0.228   6.773
12446TIP3   OH237282   5.232   0.457   2.392
12446TIP3    H137283   5.319   0.424   2.416
12446TIP3    H237284   5.243   0.494   2.305
12447TIP3   OH237285   0.384   7.572   4.861
12447TIP3    H137286   0.295   7.602   4.878
12447TIP3    H237287   0.405   7.606   4.774
12448TIP3   OH237288   1.745   0.540   0.041
12448TIP3    H137289   1.740   0.490   0.123
12448TIP3    H237290   1.818   0.501  -0.006
12449TIP3   OH237291   7.553   2.978   3.393
12449TIP3    H137292   7.517   2.957   3.479
12449TIP3    H237293   7.647   2.978   3.406
12450TIP3   OH237294   3.275   5.525   3.684
12450TIP3    H137295   3.278   5.446   3.737
12450TIP3    H237296   3.233   5.498   3.603
12451TIP3   OH237297   2.652   2.159   1.904
12451TIP3    H137298   2.738   2.169   1.862
12451TIP3    H237299   2.667   2.183   1.995
12452TIP3   OH237300   1.157   0.402   3.714
12452TIP3    H137301   1.113   0.367   3.636
12452TIP3    H237302   1.232   0.345   3.728
12453TIP3   OH237303   4.077   1.601   4.525
12453TIP3    H137304   4.171   1.589   4.535
12453TIP3    H237305   4.055   1.552   4.445
12454TIP3   OH237306   2.206   6.493   0.364
12454TIP3    H137307   2.172   6.445   0.439
12454TIP3    H237308   2.241   6.574   0.401
12455TIP3   OH237309   1.064   2.864   5.102
12455TIP3    H137310   1.019   2.871   5.018
12455TIP3    H237311   0.995   2.870   5.167
12456TIP3   OH237312   2.996   0.458   6.367
12456TIP3    H137313   3.081   0.459   6.411
12456TIP3    H237314   2.933   0.476   6.436
12457TIP3   OH237315   1.827   5.789   5.911
12457TIP3    H137316   1.908   5.778   5.861
12457TIP3    H237317   1.852   5.769   6.002
12458TIP3   OH237318   5.786   1.340   5.825
12458TIP3    H137319   5.815   1.360   5.914
12458TIP3    H237320   5.866   1.311   5.780
12459TIP3   OH237321   1.900   4.762   6.751
12459TIP3    H137322   1.910   4.744   6.844
12459TIP3    H237323   1.990   4.762   6.717
12460TIP3   OH237324   1.346   6.555   0.217
12460TIP3    H137325   1.264   6.592   0.185
12460TIP3    H237326   1.387   6.516   0.140
12461TIP3   OH237327   6.370   7.647   1.627
12461TIP3    H137328   6.440   7.582   1.615
12461TIP3    H237329   6.382   7.677   1.717
12462TIP3   OH237330   5.859   4.725   6.413
12462TIP3    H137331   5.926   4.791   6.434
12462TIP3    H237332   5.776   4.769   6.429
12463TIP3   OH237333   2.154   5.182   4.063
12463TIP3    H137334   2.237   5.210   4.102
12463TIP3    H237335   2.154   5.219   3.975
12464TIP3   OH237336   1.077   5.503   0.785
12464TIP3    H137337   1.065   5.597   0.766
12464TIP3    H237338   1.012   5.484   0.852
12465TIP3   OH237339   0.370   4.419   3.591
12465TIP3    H137340   0.344   4.350   3.652
12465TIP3    H237341   0.288   4.449   3.553
12466TIP3   OH237342   7.142   4.371   6.293
12466TIP3    H137343   7.082   4.445   6.292
12466TIP3    H237344   7.196   4.384   6.215
12467TIP3   OH237345   7.244   4.440   1.905
12467TIP3    H137346   7.326   4.411   1.944
12467TIP3    H237347   7.219   4.370   1.846
12468TIP3   OH237348   7.340   5.623   2.154
12468TIP3    H137349   7.400   5.548   2.156
12468TIP3    H237350   7.392   5.697   2.186
12469TIP3   OH237351   0.145   5.415   5.545
12469TIP3    H137352   0.162   5.433   5.638
12469TIP3    H237353   0.194   5.335   5.527
12470TIP3   OH237354   7.715   2.917   6.529
12470TIP3    H137355   7.743   2.966   6.606
12470TIP3    H237356   7.781   2.936   6.463
12471TIP3   OH237357   4.514   1.125   0.726
12471TIP3    H137358   4.542   1.217   0.726
12471TIP3    H237359   4.583   1.079   0.773
12472TIP3   OH237360   6.515   2.572   0.461
12472TIP3    H137361   6.446   2.554   0.526
12472TIP3    H237362   6.468   2.581   0.378
12473TIP3   OH237363   4.788   4.218   4.474
12473TIP3    H137364   4.825   4.250   4.392
12473TIP3    H237365   4.773   4.124   4.458
12474TIP3   OH237366   2.779   0.388   3.188
12474TIP3    H137367   2.847   0.330   3.222
12474TIP3    H237368   2.782   0.465   3.244
12475TIP3   OH237369   0.174   1.976   1.560
12475TIP3    H137370   0.142   1.952   1.473
12475TIP3    H237371   0.244   1.914   1.578
12476TIP3   OH237372   2.119   6.973   2.779
12476TIP3    H137373   2.080   7.053   2.745
12476TIP3    H237374   2.047   6.910   2.783
12477TIP3   OH237375   2.676   4.942   4.828
12477TIP3    H137376   2.706   4.877   4.764
12477TIP3    H237377   2.729   4.927   4.906
12478TIP3   OH237378   7.074   0.905   1.941
12478TIP3    H137379   7.125   0.824   1.942
12478TIP3    H237380   7.020   0.901   2.020
12479TIP3   OH237381   4.742   5.410   1.922
12479TIP3    H137382   4.718   5.446   1.837
12479TIP3    H237383   4.822   5.457   1.946
12480TIP3   OH237384   4.500   4.200   0.217
12480TIP3    H137385   4.561   4.273   0.203
12480TIP3    H237386   4.414   4.236   0.196
12481TIP3   OH237387   2.599   7.435   1.795
12481TIP3    H137388   2.629   7.447   1.885
12481TIP3    H237389   2.679   7.415   1.746
12482TIP3   OH237390   4.036   4.558   6.117
12482TIP3    H137391   4.052   4.651   6.130
12482TIP3    H237392   4.100   4.514   6.173
12483TIP3   OH237393   1.767   0.145   3.597
12483TIP3    H137394   1.707   0.204   3.553
12483TIP3    H237395   1.742   0.150   3.690
12484TIP3   OH237396   7.636   0.419   3.522
12484TIP3    H137397   7.608   0.463   3.602
12484TIP3    H237398   7.685   0.343   3.552
12485TIP3   OH237399   2.836   1.194   5.854
12485TIP3    H137400   2.778   1.168   5.925
12485TIP3    H237401   2.854   1.112   5.807
12486TIP3   OH237402   0.167   0.815   2.066
12486TIP3    H137403   0.118   0.841   1.988
12486TIP3    H237404   0.145   0.723   2.079
12487TIP3   OH237405   0.283   7.430   0.310
12487TIP3    H137406   0.203   7.401   0.267
12487TIP3    H237407   0.353   7.385   0.262
12488TIP3   OH237408   5.229   7.433   4.527
12488TIP3    H137409   5.273   7.355   4.492
12488TIP3    H237410   5.158   7.397   4.582
12489TIP3   OH237411   5.760   7.689   0.563
12489TIP3    H137412   5.676   7.686   0.608
12489TIP3    H237413   5.821   7.645   0.622
12490TIP3   OH237414   6.117   5.465   6.500
12490TIP3    H137415   6.173   5.396   6.465
12490TIP3    H237416   6.173   5.511   6.563
12491TIP3   OH237417   6.748   2.745   5.784
12491TIP3    H137418   6.839   2.753   5.757
12491TIP3    H237419   6.731   2.823   5.837
12492TIP3   OH237420   0.559   4.612   3.511
12492TIP3    H137421   0.497   4.539   3.517
12492TIP3    H237422   0.538   4.654   3.427
12493TIP3   OH237423   5.963   3.107   3.628
12493TIP3    H137424   5.896   3.074   3.688
12493TIP3    H237425   5.959   3.202   3.639
12494TIP3   OH237426   3.060   5.547   0.100
12494TIP3    H137427   3.103   5.570   0.182
12494TIP3    H237428   3.128   5.561   0.033
12495TIP3   OH237429   3.497   1.229   2.148
12495TIP3    H137430   3.544   1.312   2.136
12495TIP3    H237431   3.406   1.256   2.163
12496TIP3   OH237432   2.240   3.423   3.050
12496TIP3    H137433   2.199   3.357   3.107
12496TIP3    H237434   2.334   3.417   3.070
12497TIP3   OH237435   0.818   2.482   3.661
12497TIP3    H137436   0.747   2.543   3.638
12497TIP3    H237437   0.804   2.407   3.604
12498TIP3   OH237438   4.990   5.528   0.100
12498TIP3    H137439   5.039   5.604   0.070
12498TIP3    H237440   5.046   5.454   0.080
12499TIP3   OH237441   2.201   7.671   6.000
12499TIP3    H137442   2.157   7.726   5.935
12499TIP3    H237443   2.196   7.583   5.963
12500TIP3   OH237444   4.777   7.556   3.521
12500TIP3    H137445   4.780   7.460   3.524
12500TIP3    H237446   4.746   7.575   3.432
12501TIP3   OH237447   0.293   4.662   5.006
12501TIP3    H137448   0.240   4.716   4.947
12501TIP3    H237449   0.298   4.713   5.087
12502TIP3   OH237450   4.790   4.602   2.933
12502TIP3    H137451   4.752   4.606   3.021
12502TIP3    H237452   4.724   4.557   2.881
12503TIP3   OH237453   1.550  -0.022   6.541
12503TIP3    H137454   1.492   0.054   6.538
12503TIP3    H237455   1.623   0.007   6.596
12504TIP3   OH237456   6.386   3.958   5.533
12504TIP3    H137457   6.451   4.015   5.574
12504TIP3    H237458   6.387   3.983   5.441
12505TIP3   OH237459   4.547   0.141   0.681
12505TIP3    H137460   4.474   0.135   0.743
12505TIP3    H237461   4.582   0.052   0.676
12506TIP3   OH237462   5.960   7.572   5.434
12506TIP3    H137463   5.988   7.589   5.344
12506TIP3    H237464   5.866   7.589   5.434
12507TIP3   OH237465   2.564   4.150   2.105
12507TIP3    H137466   2.546   4.069   2.151
12507TIP3    H237467   2.502   4.151   2.032
12508TIP3   OH237468   7.565   0.596   1.640
12508TIP3    H137469   7.632   0.562   1.699
12508TIP3    H237470   7.597   0.682   1.613
12509TIP3   OH237471   2.037   1.901   0.327
12509TIP3    H137472   1.976   1.860   0.265
12509TIP3    H237473   1.980   1.943   0.392
12510TIP3   OH237474   5.828   2.482   0.539
12510TIP3    H137475   5.838   2.565   0.584
12510TIP3    H237476   5.852   2.501   0.448
12511TIP3   OH237477   7.123   4.952   2.439
12511TIP3    H137478   7.136   5.030   2.493
12511TIP3    H237479   7.181   4.886   2.477
12512TIP3   OH237480   2.822   3.844   6.618
12512TIP3    H137481   2.804   3.789   6.542
12512TIP3    H237482   2.874   3.917   6.584
12513TIP3   OH237483   1.415   1.301   5.960
12513TIP3    H137484   1.464   1.273   5.883
12513TIP3    H237485   1.331   1.255   5.953
12514TIP3   OH237486   4.335   6.102   5.060
12514TIP3    H137487   4.343   6.076   5.152
12514TIP3    H237488   4.272   6.174   5.060
12515TIP3   OH237489   3.266   6.139   6.481
12515TIP3    H137490   3.186   6.149   6.533
12515TIP3    H237491   3.243   6.173   6.395
12516TIP3   OH237492   6.821   1.338   0.332
12516TIP3    H137493   6.831   1.278   0.405
12516TIP3    H237494   6.900   1.393   0.336
12517TIP3   OH237495   8.090   3.211   4.931
12517TIP3    H137496   8.008   3.223   4.978
12517TIP3    H237497   8.131   3.298   4.932
12518TIP3   OH237498   4.683   5.007   3.025
12518TIP3    H137499   4.701   4.921   2.987
12518TIP3    H237500   4.611   5.042   2.972
12519TIP3   OH237501   7.521   1.850   1.190
12519TIP3    H137502   7.474   1.933   1.192
12519TIP3    H237503   7.613   1.873   1.180
12520TIP3   OH237504   3.798   0.412   0.433
12520TIP3    H137505   3.715   0.373   0.462
12520TIP3    H237506   3.864   0.345   0.453
12521TIP3   OH237507   2.086   6.886   3.213
12521TIP3    H137508   2.045   6.907   3.297
12521TIP3    H237509   2.067   6.793   3.200
12522TIP3   OH237510   5.092   5.344   1.868
12522TIP3    H137511   5.032   5.397   1.921
12522TIP3    H237512   5.093   5.386   1.783
12523TIP3   OH237513   4.164   0.233   2.355
12523TIP3    H137514   4.069   0.227   2.359
12523TIP3    H237515   4.193   0.142   2.353
12524TIP3   OH237516   1.761   2.905   5.260
12524TIP3    H137517   1.680   2.862   5.287
12524TIP3    H237518   1.830   2.857   5.306
12525TIP3   OH237519   5.488   3.720   2.492
12525TIP3    H137520   5.535   3.689   2.569
12525TIP3    H237521   5.459   3.808   2.516
12526TIP3   OH237522   0.131   4.185   2.315
12526TIP3    H137523   0.221   4.169   2.342
12526TIP3    H237524   0.108   4.270   2.353
12527TIP3   OH237525   5.095   6.233   5.468
12527TIP3    H137526   5.021   6.293   5.481
12527TIP3    H237527   5.080   6.194   5.382
12528TIP3   OH237528   4.203   6.422   0.533
12528TIP3    H137529   4.229   6.513   0.543
12528TIP3    H237530   4.209   6.404   0.439
12529TIP3   OH237531   2.633   5.967   4.071
12529TIP3    H137532   2.589   5.891   4.110
12529TIP3    H237533   2.576   6.041   4.093
12530TIP3   OH237534   3.258   7.583   4.958
12530TIP3    H137535   3.290   7.536   5.035
12530TIP3    H237536   3.284   7.674   4.974
12531TIP3   OH237537   4.180   6.732   1.979
12531TIP3    H137538   4.108   6.740   1.916
12531TIP3    H237539   4.250   6.787   1.942
12532TIP3   OH237540   6.600   6.660   6.242
12532TIP3    H137541   6.576   6.645   6.151
12532TIP3    H237542   6.524   6.704   6.280
12533TIP3   OH237543   7.912   1.096   6.662
12533TIP3    H137544   7.829   1.142   6.646
12533TIP3    H237545   7.904   1.014   6.613
12534TIP3   OH237546   0.308   4.542   0.588
12534TIP3    H137547   0.323   4.634   0.605
12534TIP3    H237548   0.376   4.517   0.526
12535TIP3   OH237549   6.755   6.913   2.516
12535TIP3    H137550   6.723   6.998   2.543
12535TIP3    H237551   6.722   6.901   2.427
12536TIP3   OH237552   6.676   0.376   0.888
12536TIP3    H137553   6.729   0.440   0.840
12536TIP3    H237554   6.710   0.291   0.860
12537TIP3   OH237555   1.934   3.258   0.445
12537TIP3    H137556   2.005   3.194   0.439
12537TIP3    H237557   1.960   3.329   0.386
12538TIP3   OH237558   1.774   5.587   3.116
12538TIP3    H137559   1.740   5.582   3.026
12538TIP3    H237560   1.849   5.527   3.116
12539TIP3   OH237561   0.662   2.638   0.485
12539TIP3    H137562   0.600   2.571   0.515
12539TIP3    H237563   0.612   2.691   0.423
12540TIP3   OH237564   3.605   5.710   2.082
12540TIP3    H137565   3.554   5.630   2.072
12540TIP3    H237566   3.574   5.767   2.010
12541TIP3   OH237567   6.979   3.519   2.989
12541TIP3    H137568   7.002   3.575   3.062
12541TIP3    H237569   6.999   3.572   2.911
12542TIP3   OH237570   3.271   0.289   5.398
12542TIP3    H137571   3.249   0.271   5.307
12542TIP3    H237572   3.192   0.327   5.436
12543TIP3   OH237573   8.188   5.493   5.814
12543TIP3    H137574   8.273   5.520   5.851
12543TIP3    H237575   8.136   5.467   5.890
12544TIP3   OH237576   1.027   5.897   2.109
12544TIP3    H137577   1.023   5.850   2.026
12544TIP3    H237578   1.107   5.864   2.151
12545TIP3   OH237579   2.125   3.555   5.525
12545TIP3    H137580   2.125   3.636   5.474
12545TIP3    H237581   2.032   3.532   5.531
12546TIP3   OH237582   3.555   0.016   4.270
12546TIP3    H137583   3.577  -0.049   4.203
12546TIP3    H237584   3.462   0.000   4.288
12547TIP3   OH237585   6.477   1.781   1.169
12547TIP3    H137586   6.425   1.840   1.114
12547TIP3    H237587   6.520   1.840   1.232
12548TIP3   OH237588   3.997   1.194   5.159
12548TIP3    H137589   3.965   1.272   5.113
12548TIP3    H237590   3.920   1.160   5.204
12549TIP3   OH237591   8.156   0.338   0.049
12549TIP3    H137592   8.090   0.334  -0.019
12549TIP3    H237593   8.239   0.345   0.002
12550TIP3   OH237594   1.834   2.796   6.324
12550TIP3    H137595   1.927   2.792   6.303
12550TIP3    H237596   1.820   2.887   6.353
12551TIP3   OH237597   4.841   0.547   0.996
12551TIP3    H137598   4.820   0.527   0.905
12551TIP3    H237599   4.883   0.633   0.993
12552TIP3   OH237600   7.000   6.994   6.226
12552TIP3    H137601   6.989   6.975   6.320
12552TIP3    H237602   6.983   6.910   6.183
12553TIP3   OH237603   3.166   3.686   6.683
12553TIP3    H137604   3.150   3.741   6.606
12553TIP3    H237605   3.146   3.743   6.757
12554TIP3   OH237606   2.868   0.606   1.279
12554TIP3    H137607   2.892   0.685   1.327
12554TIP3    H237608   2.855   0.636   1.189
12555TIP3   OH237609   6.200   2.362   4.915
12555TIP3    H137610   6.273   2.300   4.919
12555TIP3    H237611   6.126   2.315   4.952
12556TIP3   OH237612   6.104   2.639   0.684
12556TIP3    H137613   6.010   2.647   0.670
12556TIP3    H237614   6.112   2.582   0.761
12557TIP3   OH237615   0.458   3.283   4.666
12557TIP3    H137616   0.420   3.356   4.616
12557TIP3    H237617   0.520   3.326   4.726
12558TIP3   OH237618   0.597   4.237   4.658
12558TIP3    H137619   0.568   4.316   4.703
12558TIP3    H237620   0.637   4.184   4.727
12559TIP3   OH237621   6.792   3.743   3.993
12559TIP3    H137622   6.774   3.837   4.001
12559TIP3    H237623   6.859   3.726   4.059
12560TIP3   OH237624   2.684   2.705   1.190
12560TIP3    H137625   2.683   2.724   1.284
12560TIP3    H237626   2.640   2.620   1.183
12561TIP3   OH237627   0.262   4.780   1.463
12561TIP3    H137628   0.179   4.827   1.461
12561TIP3    H237629   0.279   4.767   1.557
12562TIP3   OH237630   0.576   7.499   5.322
12562TIP3    H137631   0.507   7.468   5.380
12562TIP3    H237632   0.586   7.429   5.257
12563TIP3   OH237633   2.273   0.011   3.112
12563TIP3    H137634   2.278   0.055   3.027
12563TIP3    H237635   2.305  -0.077   3.096
12564TIP3   OH237636   4.999   7.789   5.375
12564TIP3    H137637   5.057   7.715   5.357
12564TIP3    H237638   4.987   7.788   5.469
12565TIP3   OH237639   8.239   0.788   0.334
12565TIP3    H137640   8.273   0.712   0.287
12565TIP3    H237641   8.223   0.756   0.423
12566TIP3   OH237642   3.567   5.417   3.576
12566TIP3    H137643   3.536   5.433   3.665
12566TIP3    H237644   3.607   5.331   3.579
12567TIP3   OH237645   2.853   2.556   6.216
12567TIP3    H137646   2.899   2.604   6.148
12567TIP3    H237647   2.873   2.604   6.297
12568TIP3   OH237648   5.694   3.084   0.351
12568TIP3    H137649   5.752   3.045   0.286
12568TIP3    H237650   5.745   3.083   0.432
12569TIP3   OH237651   3.138   3.090   2.471
12569TIP3    H137652   3.179   3.094   2.557
12569TIP3    H237653   3.064   3.029   2.482
12570TIP3   OH237654   6.708   3.129   2.511
12570TIP3    H137655   6.742   3.108   2.598
12570TIP3    H237656   6.728   3.053   2.458
12571TIP3   OH237657   0.445   0.127   3.401
12571TIP3    H137658   0.501   0.187   3.351
12571TIP3    H237659   0.500   0.098   3.474
12572TIP3   OH237660   2.242   1.872   6.090
12572TIP3    H137661   2.194   1.790   6.089
12572TIP3    H237662   2.245   1.897   6.182
12573TIP3   OH237663   1.491   2.549   1.679
12573TIP3    H137664   1.546   2.504   1.615
12573TIP3    H237665   1.552   2.584   1.744
12574TIP3   OH237666   5.827   2.180   3.835
12574TIP3    H137667   5.795   2.094   3.861
12574TIP3    H237668   5.920   2.180   3.859
12575TIP3   OH237669   7.573   0.008   1.803
12575TIP3    H137670   7.566   0.075   1.735
12575TIP3    H237671   7.580   0.058   1.884
12576TIP3   OH237672   5.082   3.333   2.230
12576TIP3    H137673   5.162   3.339   2.282
12576TIP3    H237674   5.026   3.403   2.263
12577TIP3   OH237675   8.292   0.994   6.016
12577TIP3    H137676   8.321   1.081   6.040
12577TIP3    H237677   8.241   1.007   5.936
12578TIP3   OH237678   4.352   4.633   4.199
12578TIP3    H137679   4.265   4.602   4.222
12578TIP3    H237680   4.375   4.694   4.269
12579TIP3   OH237681   6.479   3.891   4.503
12579TIP3    H137682   6.420   3.860   4.571
12579TIP3    H237683   6.548   3.938   4.551
12580TIP3   OH237684   0.313   4.871   2.673
12580TIP3    H137685   0.279   4.956   2.702
12580TIP3    H237686   0.402   4.869   2.709
12581TIP3   OH237687   5.361   3.608   0.522
12581TIP3    H137688   5.434   3.661   0.489
12581TIP3    H237689   5.316   3.578   0.443
12582TIP3   OH237690   7.115   7.304   0.517
12582TIP3    H137691   7.071   7.231   0.560
12582TIP3    H237692   7.161   7.265   0.443
12583TIP3   OH237693   2.025   3.379   2.471
12583TIP3    H137694   1.975   3.460   2.475
12583TIP3    H237695   2.049   3.369   2.378
12584TIP3   OH237696   2.055   0.567   3.113
12584TIP3    H137697   2.121   0.498   3.115
12584TIP3    H237698   1.978   0.528   3.154
12585TIP3   OH237699   0.369   6.579   1.419
12585TIP3    H137700   0.310   6.652   1.400
12585TIP3    H237701   0.450   6.602   1.373
12586TIP3   OH237702   6.066   0.930   2.763
12586TIP3    H137703   6.044   0.838   2.780
12586TIP3    H237704   6.128   0.953   2.832
12587TIP3   OH237705   3.576   3.960   4.755
12587TIP3    H137706   3.623   3.930   4.677
12587TIP3    H237707   3.501   4.009   4.720
12588TIP3   OH237708   6.762   1.699   3.293
12588TIP3    H137709   6.728   1.615   3.265
12588TIP3    H237710   6.732   1.761   3.226
12589TIP3   OH237711   6.278   6.365   6.159
12589TIP3    H137712   6.237   6.428   6.218
12589TIP3    H237713   6.265   6.402   6.071
12590TIP3   OH237714   7.648   1.659   6.639
12590TIP3    H137715   7.701   1.603   6.583
12590TIP3    H237716   7.686   1.649   6.726
12591TIP3   OH237717   7.774   4.133   0.527
12591TIP3    H137718   7.744   4.222   0.544
12591TIP3    H237719   7.869   4.139   0.521
12592TIP3   OH237720   7.559   2.668   3.296
12592TIP3    H137721   7.521   2.587   3.331
12592TIP3    H237722   7.483   2.725   3.280
12593TIP3   OH237723   6.625   7.463   4.777
12593TIP3    H137724   6.570   7.419   4.841
12593TIP3    H237725   6.701   7.493   4.827
12594TIP3   OH237726   7.107   0.945   0.285
12594TIP3    H137727   7.136   0.898   0.207
12594TIP3    H237728   7.061   1.022   0.251
12595TIP3   OH237729   4.362   7.110   6.617
12595TIP3    H137730   4.419   7.104   6.694
12595TIP3    H237731   4.397   7.045   6.556
12596TIP3   OH237732   1.612   4.093   3.261
12596TIP3    H137733   1.679   4.161   3.261
12596TIP3    H237734   1.645   4.027   3.200
12597TIP3   OH237735   7.766   4.565   6.496
12597TIP3    H137736   7.839   4.625   6.511
12597TIP3    H237737   7.701   4.617   6.448
12598TIP3   OH237738   6.204   4.625   4.807
12598TIP3    H137739   6.153   4.639   4.728
12598TIP3    H237740   6.250   4.708   4.821
12599TIP3   OH237741   6.929   5.316   2.181
12599TIP3    H137742   6.920   5.255   2.108
12599TIP3    H237743   7.009   5.290   2.225
12600TIP3   OH237744   6.751   4.516   1.120
12600TIP3    H137745   6.732   4.485   1.208
12600TIP3    H237746   6.677   4.487   1.067
12601TIP3   OH237747   4.441   2.596   4.359
12601TIP3    H137748   4.490   2.630   4.434
12601TIP3    H237749   4.509   2.559   4.302
12602TIP3   OH237750   2.752   3.102   3.506
12602TIP3    H137751   2.793   3.080   3.422
12602TIP3    H237752   2.781   3.033   3.566
12603TIP3   OH237753   4.181   3.629   2.479
12603TIP3    H137754   4.208   3.576   2.404
12603TIP3    H237755   4.226   3.591   2.554
12604TIP3   OH237756   5.968   0.407   4.874
12604TIP3    H137757   6.026   0.469   4.829
12604TIP3    H237758   6.019   0.376   4.948
12605TIP3   OH237759   2.335   6.399   4.573
12605TIP3    H137760   2.260   6.341   4.583
12605TIP3    H237761   2.362   6.420   4.662
12606TIP3   OH237762   3.482   4.845   4.819
12606TIP3    H137763   3.448   4.862   4.906
12606TIP3    H237764   3.490   4.931   4.778
12607TIP3   OH237765   8.312   5.505   6.104
12607TIP3    H137766   8.219   5.481   6.106
12607TIP3    H237767   8.358   5.423   6.122
12608TIP3   OH237768   2.674   5.752   2.852
12608TIP3    H137769   2.617   5.689   2.896
12608TIP3    H237770   2.749   5.700   2.823
12609TIP3   OH237771   5.614   3.021   5.322
12609TIP3    H137772   5.555   2.953   5.356
12609TIP3    H237773   5.638   3.073   5.399
12610TIP3   OH237774   6.273   4.840   4.465
12610TIP3    H137775   6.366   4.857   4.447
12610TIP3    H237776   6.242   4.919   4.509
12611TIP3   OH237777   5.628   6.959   3.662
12611TIP3    H137778   5.653   6.998   3.579
12611TIP3    H237779   5.678   7.009   3.727
12612TIP3   OH237780   2.169   6.321   3.637
12612TIP3    H137781   2.250   6.363   3.610
12612TIP3    H237782   2.187   6.286   3.725
12613TIP3   OH237783   4.366   5.893   4.252
12613TIP3    H137784   4.275   5.862   4.252
12613TIP3    H237785   4.378   5.933   4.167
12614TIP3   OH237786   8.217   6.576   0.653
12614TIP3    H137787   8.164   6.648   0.687
12614TIP3    H237788   8.307   6.608   0.657
12615TIP3   OH237789   3.693   7.257   3.314
12615TIP3    H137790   3.638   7.204   3.256
12615TIP3    H237791   3.782   7.235   3.288
12616TIP3   OH237792   8.086   6.527   2.732
12616TIP3    H137793   8.069   6.530   2.638
12616TIP3    H237794   8.013   6.478   2.768
12617TIP3   OH237795   8.155   2.518   1.235
12617TIP3    H137796   8.059   2.509   1.239
12617TIP3    H237797   8.171   2.609   1.258
12618TIP3   OH237798   1.942   0.447   1.179
12618TIP3    H137799   1.964   0.528   1.223
12618TIP3    H237800   1.924   0.473   1.088
12619TIP3   OH237801   3.632   5.770   5.120
12619TIP3    H137802   3.575   5.740   5.190
12619TIP3    H237803   3.720   5.764   5.157
12620TIP3   OH237804   6.231   3.443   2.267
12620TIP3    H137805   6.187   3.462   2.350
12620TIP3    H237806   6.162   3.403   2.213
12621TIP3   OH237807   5.898   4.524   6.601
12621TIP3    H137808   5.901   4.584   6.527
12621TIP3    H237809   5.924   4.577   6.676
12622TIP3   OH237810   0.917   5.715   2.361
12622TIP3    H137811   0.854   5.714   2.433
12622TIP3    H237812   0.925   5.807   2.337
12623TIP3   OH237813   5.292   1.081   3.641
12623TIP3    H137814   5.322   1.141   3.573
12623TIP3    H237815   5.227   1.131   3.690
12624TIP3   OH237816   1.018   2.657   6.398
12624TIP3    H137817   1.059   2.577   6.366
12624TIP3    H237818   0.980   2.698   6.321
12625TIP3   OH237819   2.587   5.329   6.314
12625TIP3    H137820   2.525   5.375   6.370
12625TIP3    H237821   2.614   5.394   6.248
12626TIP3   OH237822   3.424   6.466   6.557
12626TIP3    H137823   3.463   6.526   6.494
12626TIP3    H237824   3.467   6.382   6.542
12627TIP3   OH237825   6.065   4.827   3.070
12627TIP3    H137826   6.114   4.754   3.106
12627TIP3    H237827   6.040   4.799   2.982
12628TIP3   OH237828   7.128   4.944   4.296
12628TIP3    H137829   7.048   4.962   4.345
12628TIP3    H237830   7.107   4.968   4.205
12629TIP3   OH237831   6.308   1.157   6.781
12629TIP3    H137832   6.299   1.129   6.689
12629TIP3    H237833   6.380   1.219   6.780
12630TIP3   OH237834   1.449   0.351   6.132
12630TIP3    H137835   1.381   0.316   6.075
12630TIP3    H237836   1.481   0.429   6.086
12631TIP3   OH237837   6.718   0.193   6.023
12631TIP3    H137838   6.802   0.204   5.979
12631TIP3    H237839   6.662   0.259   5.985
12632TIP3   OH237840   1.998   5.657   4.853
12632TIP3    H137841   2.083   5.659   4.810
12632TIP3    H237842   1.945   5.595   4.802
12633TIP3   OH237843   0.554   7.533   0.565
12633TIP3    H137844   0.526   7.579   0.487
12633TIP3    H237845   0.473   7.510   0.611
12634TIP3   OH237846   5.117   1.382   0.651
12634TIP3    H137847   5.193   1.324   0.646
12634TIP3    H237848   5.049   1.329   0.693
12635TIP3   OH237849   2.409   1.516   1.615
12635TIP3    H137850   2.371   1.526   1.527
12635TIP3    H237851   2.503   1.524   1.602
12636TIP3   OH237852   7.209   4.116   1.879
12636TIP3    H137853   7.199   4.128   1.785
12636TIP3    H237854   7.123   4.086   1.908
12637TIP3   OH237855   5.516   7.197   0.926
12637TIP3    H137856   5.594   7.167   0.881
12637TIP3    H237857   5.548   7.250   0.999
12638TIP3   OH237858   7.973   2.806   3.017
12638TIP3    H137859   8.028   2.731   3.038
12638TIP3    H237860   7.887   2.784   3.052
12639TIP3   OH237861   5.633   1.926   1.091
12639TIP3    H137862   5.683   1.931   1.010
12639TIP3    H237863   5.699   1.918   1.159
12640TIP3   OH237864   4.252   3.404   6.013
12640TIP3    H137865   4.289   3.488   5.985
12640TIP3    H237866   4.239   3.415   6.108
12641TIP3   OH237867   2.285   4.051   6.422
12641TIP3    H137868   2.200   4.048   6.467
12641TIP3    H237869   2.282   4.133   6.373
12642TIP3   OH237870   5.422   4.515   6.283
12642TIP3    H137871   5.517   4.520   6.288
12642TIP3    H237872   5.404   4.422   6.269
12643TIP3   OH237873   6.861   5.097   0.398
12643TIP3    H137874   6.952   5.104   0.368
12643TIP3    H237875   6.815   5.167   0.353
12644TIP3   OH237876   1.482   1.103   1.911
12644TIP3    H137877   1.520   1.100   1.999
12644TIP3    H237878   1.390   1.078   1.925
12645TIP3   OH237879   6.064   1.193   2.731
12645TIP3    H137880   6.055   1.100   2.749
12645TIP3    H237881   5.986   1.215   2.680
12646TIP3   OH237882   7.678   5.992   5.901
12646TIP3    H137883   7.609   5.943   5.945
12646TIP3    H237884   7.742   6.009   5.970
12647TIP3   OH237885   2.128   4.756   4.205
12647TIP3    H137886   2.142   4.816   4.279
12647TIP3    H237887   2.214   4.717   4.189
12648TIP3   OH237888   1.386   4.026   2.387
12648TIP3    H137889   1.403   3.965   2.459
12648TIP3    H237890   1.295   4.055   2.400
12649TIP3   OH237891   5.929   2.890   4.516
12649TIP3    H137892   5.954   2.932   4.599
12649TIP3    H237893   5.833   2.887   4.518
12650TIP3   OH237894   6.228   1.368   2.460
12650TIP3    H137895   6.172   1.294   2.437
12650TIP3    H237896   6.295   1.330   2.516
12651TIP3   OH237897   1.338   1.426   4.618
12651TIP3    H137898   1.326   1.351   4.560
12651TIP3    H237899   1.250   1.462   4.629
12652TIP3   OH237900   2.487   3.456   6.596
12652TIP3    H137901   2.487   3.462   6.500
12652TIP3    H237902   2.568   3.411   6.618
12653TIP3   OH237903   7.596   7.836   5.521
12653TIP3    H137904   7.562   7.810   5.606
12653TIP3    H237905   7.526   7.812   5.459
12654TIP3   OH237906   7.574   0.233   2.178
12654TIP3    H137907   7.560   0.149   2.222
12654TIP3    H237908   7.662   0.225   2.141
12655TIP3   OH237909   3.528   2.572   1.636
12655TIP3    H137910   3.574   2.557   1.718
12655TIP3    H237911   3.549   2.662   1.612
12656TIP3   OH237912   6.973   7.802   3.624
12656TIP3    H137913   6.901   7.752   3.586
12656TIP3    H237914   6.933   7.884   3.652
12657TIP3   OH237915   5.009   3.130   6.127
12657TIP3    H137916   4.979   3.051   6.081
12657TIP3    H237917   5.047   3.185   6.058
12658TIP3   OH237918   3.458   6.174   0.373
12658TIP3    H137919   3.417   6.258   0.394
12658TIP3    H237920   3.532   6.168   0.434
12659TIP3   OH237921   6.444   7.554   2.153
12659TIP3    H137922   6.479   7.517   2.072
12659TIP3    H237923   6.503   7.627   2.174
12660TIP3   OH237924   7.304   5.332   6.515
12660TIP3    H137925   7.325   5.425   6.522
12660TIP3    H237926   7.389   5.289   6.507
12661TIP3   OH237927   0.891   4.147   5.320
12661TIP3    H137928   0.959   4.128   5.255
12661TIP3    H237929   0.837   4.214   5.279
12662TIP3   OH237930   4.861   2.036   5.669
12662TIP3    H137931   4.952   2.022   5.641
12662TIP3    H237932   4.810   1.981   5.610
12663TIP3   OH237933   6.773   0.128   5.698
12663TIP3    H137934   6.769   0.218   5.666
12663TIP3    H237935   6.708   0.081   5.646
12664TIP3   OH237936   1.913   3.762   4.458
12664TIP3    H137937   1.981   3.695   4.455
12664TIP3    H237938   1.833   3.714   4.482
12665TIP3   OH237939   2.420   2.657   3.863
12665TIP3    H137940   2.341   2.625   3.907
12665TIP3    H237941   2.465   2.578   3.834
12666TIP3   OH237942   5.537   3.035   1.600
12666TIP3    H137943   5.461   2.982   1.575
12666TIP3    H237944   5.613   2.987   1.567
12667TIP3   OH237945   3.208   7.273   3.236
12667TIP3    H137946   3.245   7.331   3.169
12667TIP3    H237947   3.165   7.331   3.298
12668TIP3   OH237948   6.768   0.117   6.258
12668TIP3    H137949   6.683   0.088   6.290
12668TIP3    H237950   6.750   0.157   6.173
12669TIP3   OH237951   6.535   1.225   5.334
12669TIP3    H137952   6.536   1.189   5.245
12669TIP3    H237953   6.506   1.315   5.323
12670TIP3   OH237954   4.156   7.331   2.031
12670TIP3    H137955   4.122   7.366   2.114
12670TIP3    H237956   4.181   7.241   2.052
12671TIP3   OH237957   2.052   2.884   3.637
12671TIP3    H137958   2.078   2.840   3.717
12671TIP3    H237959   2.099   2.967   3.638
12672TIP3   OH237960   6.801   0.391   6.450
12672TIP3    H137961   6.778   0.303   6.419
12672TIP3    H237962   6.892   0.384   6.476
12673TIP3   OH237963   6.725   6.735   1.484
12673TIP3    H137964   6.723   6.735   1.580
12673TIP3    H237965   6.674   6.813   1.459
12674TIP3   OH237966   6.037   6.270   0.989
12674TIP3    H137967   5.943   6.270   1.003
12674TIP3    H237968   6.068   6.353   1.025
12675TIP3   OH237969   7.253   6.309   6.734
12675TIP3    H137970   7.162   6.291   6.756
12675TIP3    H237971   7.276   6.386   6.787
12676TIP3   OH237972   6.194   4.856   1.392
12676TIP3    H137973   6.244   4.912   1.333
12676TIP3    H237974   6.260   4.811   1.445
12677TIP3   OH237975   1.668   4.505   4.757
12677TIP3    H137976   1.645   4.585   4.709
12677TIP3    H237977   1.585   4.476   4.795
12678TIP3   OH237978   7.432   3.116   4.786
12678TIP3    H137979   7.348   3.089   4.824
12678TIP3    H237980   7.476   3.163   4.856
12679TIP3   OH237981   1.848   5.564   4.645
12679TIP3    H137982   1.780   5.496   4.637
12679TIP3    H237983   1.803   5.645   4.621
12680TIP3   OH237984   2.019   5.853   2.096
12680TIP3    H137985   2.082   5.788   2.065
12680TIP3    H237986   2.055   5.937   2.065
12681TIP3   OH237987   1.274   1.842   3.357
12681TIP3    H137988   1.258   1.893   3.277
12681TIP3    H237989   1.282   1.752   3.326
12682TIP3   OH237990   1.850   7.245   5.272
12682TIP3    H137991   1.823   7.264   5.183
12682TIP3    H237992   1.944   7.224   5.265
12683TIP3   OH237993   3.340   1.353   0.668
12683TIP3    H137994   3.431   1.344   0.638
12683TIP3    H237995   3.294   1.279   0.629
12684TIP3   OH237996   3.410   5.475   2.805
12684TIP3    H137997   3.451   5.554   2.769
12684TIP3    H237998   3.468   5.449   2.878
12685TIP3   OH237999   6.320   6.760   5.528
12685TIP3    H138000   6.261   6.829   5.557
12685TIP3    H238001   6.329   6.774   5.434
12686TIP3   OH238002   6.976   4.496   0.932
12686TIP3    H138003   6.918   4.510   1.007
12686TIP3    H238004   6.932   4.540   0.860
12687TIP3   OH238005   6.619   3.418   0.274
12687TIP3    H138006   6.683   3.400   0.343
12687TIP3    H238007   6.673   3.432   0.196
12688TIP3   OH238008   8.219   4.130   2.637
12688TIP3    H138009   8.241   4.214   2.596
12688TIP3    H238010   8.142   4.100   2.589
12689TIP3   OH238011   2.822   0.109   4.164
12689TIP3    H138012   2.763   0.140   4.096
12689TIP3    H238013   2.839   0.186   4.218
12690TIP3   OH238014   5.556   7.747   1.157
12690TIP3    H138015   5.561   7.718   1.066
12690TIP3    H238016   5.641   7.725   1.194
12691TIP3   OH238017   0.473   3.174   1.895
12691TIP3    H138018   0.416   3.118   1.843
12691TIP3    H238019   0.489   3.124   1.975
12692TIP3   OH238020   5.289   3.081   6.121
12692TIP3    H138021   5.355   3.076   6.191
12692TIP3    H238022   5.209   3.109   6.166
12693TIP3   OH238023   1.436   6.174   4.826
12693TIP3    H138024   1.448   6.079   4.823
12693TIP3    H238025   1.444   6.196   4.919
12694TIP3   OH238026   2.711   4.023   1.802
12694TIP3    H138027   2.773   4.045   1.872
12694TIP3    H238028   2.661   3.950   1.837
12695TIP3   OH238029   5.492   4.728   3.644
12695TIP3    H138030   5.480   4.635   3.624
12695TIP3    H238031   5.568   4.754   3.591
12696TIP3   OH238032   3.768   4.906   1.242
12696TIP3    H138033   3.848   4.929   1.290
12696TIP3    H238034   3.749   4.817   1.268
12697TIP3   OH238035   0.170   2.036   5.624
12697TIP3    H138036   0.093   1.986   5.650
12697TIP3    H238037   0.196   2.085   5.702
12698TIP3   OH238038   4.952   5.677   1.675
12698TIP3    H138039   5.023   5.614   1.665
12698TIP3    H238040   4.874   5.630   1.646
12699TIP3   OH238041   5.352   2.585   2.461
12699TIP3    H138042   5.264   2.547   2.461
12699TIP3    H238043   5.341   2.671   2.420
12700TIP3   OH238044   7.507   7.132   5.262
12700TIP3    H138045   7.555   7.214   5.251
12700TIP3    H238046   7.548   7.090   5.338
12701TIP3   OH238047   7.698   6.520   2.210
12701TIP3    H138048   7.733   6.534   2.122
12701TIP3    H238049   7.763   6.561   2.268
12702TIP3   OH238050   1.781   5.102   4.411
12702TIP3    H138051   1.806   5.022   4.459
12702TIP3    H238052   1.769   5.073   4.321
12703TIP3   OH238053   4.150   5.826   1.853
12703TIP3    H138054   4.165   5.750   1.910
12703TIP3    H238055   4.056   5.826   1.837
12704TIP3   OH238056   4.499   0.753   4.109
12704TIP3    H138057   4.558   0.807   4.056
12704TIP3    H238058   4.448   0.816   4.160
12705TIP3   OH238059   1.387   2.998   3.809
12705TIP3    H138060   1.373   2.994   3.904
12705TIP3    H238061   1.335   2.925   3.775
12706TIP3   OH238062   5.750   0.431   2.491
12706TIP3    H138063   5.806   0.503   2.460
12706TIP3    H238064   5.795   0.352   2.462
12707TIP3   OH238065   8.073   0.410   4.931
12707TIP3    H138066   8.126   0.362   4.994
12707TIP3    H238067   8.125   0.487   4.909
12708TIP3   OH238068   4.253   2.809   5.955
12708TIP3    H138069   4.273   2.757   5.878
12708TIP3    H238070   4.161   2.834   5.945
12709TIP3   OH238071   2.025   6.267   6.444
12709TIP3    H138072   2.068   6.183   6.460
12709TIP3    H238073   1.969   6.251   6.368
12710TIP3   OH238074   6.513   7.731   5.046
12710TIP3    H138075   6.578   7.754   5.113
12710TIP3    H238076   6.561   7.733   4.964
12711TIP3   OH238077   1.328   6.089   5.377
12711TIP3    H138078   1.326   6.025   5.305
12711TIP3    H238079   1.366   6.167   5.337
12712TIP3   OH238080   1.537   1.529   6.036
12712TIP3    H138081   1.591   1.513   5.959
12712TIP3    H238082   1.468   1.462   6.031
12713TIP3   OH238083   1.287   5.880   1.606
12713TIP3    H138084   1.336   5.829   1.670
12713TIP3    H238085   1.321   5.969   1.616
12714TIP3   OH238086   7.228   4.715   0.718
12714TIP3    H138087   7.162   4.706   0.649
12714TIP3    H238088   7.181   4.754   0.792
12715TIP3   OH238089   6.647   2.148   0.883
12715TIP3    H138090   6.736   2.130   0.851
12715TIP3    H238091   6.626   2.235   0.848
12716TIP3   OH238092   3.362   3.555   0.911
12716TIP3    H138093   3.358   3.504   0.830
12716TIP3    H238094   3.308   3.632   0.893
12717TIP3   OH238095   5.152   5.867   6.529
12717TIP3    H138096   5.126   5.775   6.537
12717TIP3    H238097   5.132   5.905   6.615
12718TIP3   OH238098   3.761   2.598   3.814
12718TIP3    H138099   3.700   2.629   3.747
12718TIP3    H238100   3.825   2.669   3.823
12719TIP3   OH238101   1.971   6.589   3.948
12719TIP3    H138102   1.954   6.679   3.976
12719TIP3    H238103   1.887   6.544   3.957
12720TIP3   OH238104   7.608   2.400   1.900
12720TIP3    H138105   7.696   2.403   1.864
12720TIP3    H238106   7.574   2.315   1.873
12721TIP3   OH238107   7.392   7.394   0.032
12721TIP3    H138108   7.350   7.429   0.111
12721TIP3    H238109   7.460   7.335   0.066
12722TIP3   OH238110   3.081   7.079   2.146
12722TIP3    H138111   3.053   7.081   2.055
12722TIP3    H238112   3.110   6.989   2.160
12723TIP3   OH238113   2.627   4.260   5.585
12723TIP3    H138114   2.642   4.240   5.493
12723TIP3    H238115   2.702   4.314   5.611
12724TIP3   OH238116   8.243   4.665   2.471
12724TIP3    H138117   8.304   4.661   2.397
12724TIP3    H238118   8.265   4.747   2.516
12725TIP3   OH238119   3.922   2.408   5.956
12725TIP3    H138120   3.902   2.322   5.919
12725TIP3    H238121   3.837   2.451   5.965
12726TIP3   OH238122   3.472   7.230   5.386
12726TIP3    H138123   3.494   7.272   5.469
12726TIP3    H238124   3.437   7.144   5.411
12727TIP3   OH238125   6.095   4.327   4.383
12727TIP3    H138126   6.181   4.311   4.422
12727TIP3    H238127   6.060   4.240   4.364
12728TIP3   OH238128   6.634   6.295   1.183
12728TIP3    H138129   6.655   6.358   1.114
12728TIP3    H238130   6.683   6.325   1.259
12729TIP3   OH238131   5.077   5.417   3.904
12729TIP3    H138132   5.015   5.463   3.960
12729TIP3    H238133   5.058   5.448   3.815
12730TIP3   OH238134   6.215   3.560   4.131
12730TIP3    H138135   6.150   3.501   4.093
12730TIP3    H238136   6.168   3.642   4.144
12731TIP3   OH238137   3.074   0.095   5.841
12731TIP3    H138138   3.026   0.014   5.855
12731TIP3    H238139   3.145   0.071   5.780
12732TIP3   OH238140   2.296   5.388   0.275
12732TIP3    H138141   2.289   5.484   0.281
12732TIP3    H238142   2.367   5.373   0.213
12733TIP3   OH238143   0.297   1.074   4.447
12733TIP3    H138144   0.379   1.121   4.433
12733TIP3    H238145   0.283   1.077   4.542
12734TIP3   OH238146   7.495   1.668   1.438
12734TIP3    H138147   7.544   1.730   1.491
12734TIP3    H238148   7.491   1.709   1.351
12735TIP3   OH238149   6.681   0.670   1.924
12735TIP3    H138150   6.697   0.633   1.837
12735TIP3    H238151   6.648   0.758   1.907
12736TIP3   OH238152   2.141   3.153   1.489
12736TIP3    H138153   2.233   3.144   1.513
12736TIP3    H238154   2.117   3.067   1.452
12737TIP3   OH238155   7.342   1.943   5.784
12737TIP3    H138156   7.353   1.937   5.879
12737TIP3    H238157   7.428   1.971   5.752
12738TIP3   OH238158   5.985   7.205   6.337
12738TIP3    H138159   6.057   7.142   6.345
12738TIP3    H238160   6.019   7.286   6.372
12739TIP3   OH238161   6.174   2.025   5.160
12739TIP3    H138162   6.207   1.999   5.246
12739TIP3    H238163   6.200   1.954   5.102
12740TIP3   OH238164   6.246   1.620   5.709
12740TIP3    H138165   6.335   1.626   5.744
12740TIP3    H238166   6.207   1.705   5.730
12741TIP3   OH238167   4.579   6.521   5.522
12741TIP3    H138168   4.618   6.541   5.437
12741TIP3    H238169   4.502   6.468   5.501
12742TIP3   OH238170   6.151   2.840   2.353
12742TIP3    H138171   6.080   2.776   2.349
12742TIP3    H238172   6.154   2.866   2.446
12743TIP3   OH238173   6.629   2.774   2.743
12743TIP3    H138174   6.595   2.845   2.798
12743TIP3    H238175   6.553   2.717   2.729
12744TIP3   OH238176   6.385   2.223   6.350
12744TIP3    H138177   6.342   2.302   6.382
12744TIP3    H238178   6.323   2.185   6.288
12745TIP3   OH238179   3.922   1.287   4.759
12745TIP3    H138180   3.950   1.375   4.735
12745TIP3    H238181   3.853   1.300   4.823
12746TIP3   OH238182   2.885   1.694   6.079
12746TIP3    H138183   2.863   1.712   6.170
12746TIP3    H238184   2.882   1.779   6.036
12747TIP3   OH238185   2.453   4.282   4.249
12747TIP3    H138186   2.415   4.334   4.320
12747TIP3    H238187   2.392   4.293   4.176
12748TIP3   OH238188   7.419   5.825   6.488
12748TIP3    H138189   7.505   5.842   6.449
12748TIP3    H238190   7.377   5.911   6.492
12749TIP3   OH238191   2.289   5.649   2.535
12749TIP3    H138192   2.367   5.693   2.502
12749TIP3    H238193   2.231   5.643   2.459
12750TIP3   OH238194   6.427   2.488   3.599
12750TIP3    H138195   6.475   2.570   3.609
12750TIP3    H238196   6.342   2.505   3.640
12751TIP3   OH238197   2.922   7.317   5.796
12751TIP3    H138198   2.965   7.274   5.723
12751TIP3    H238199   2.854   7.371   5.755
12752TIP3   OH238200   0.470   6.379   3.786
12752TIP3    H138201   0.556   6.390   3.746
12752TIP3    H238202   0.470   6.289   3.819
12753TIP3   OH238203   6.707   3.400   4.981
12753TIP3    H138204   6.615   3.424   4.985
12753TIP3    H238205   6.716   3.355   4.897
12754TIP3   OH238206   6.415   2.858   1.962
12754TIP3    H138207   6.500   2.894   1.987
12754TIP3    H238208   6.403   2.783   2.021
12755TIP3   OH238209   1.081   2.202   0.534
12755TIP3    H138210   1.103   2.281   0.484
12755TIP3    H238211   0.989   2.185   0.513
12756TIP3   OH238212   5.975   2.081   2.369
12756TIP3    H138213   5.918   2.126   2.306
12756TIP3    H238214   5.942   2.108   2.455
12757TIP3   OH238215   0.277   5.215   2.724
12757TIP3    H138216   0.334   5.233   2.799
12757TIP3    H238217   0.325   5.247   2.648
12758TIP3   OH238218   7.855   3.031   2.508
12758TIP3    H138219   7.761   3.034   2.529
12758TIP3    H238220   7.894   2.977   2.577
12759TIP3   OH238221   7.100   7.812   5.242
12759TIP3    H138222   7.168   7.862   5.287
12759TIP3    H238223   7.105   7.725   5.281
12760TIP3   OH238224   3.457   3.025   2.340
12760TIP3    H138225   3.437   2.991   2.253
12760TIP3    H238226   3.401   2.974   2.399
12761TIP3   OH238227   2.741   5.737   3.423
12761TIP3    H138228   2.811   5.756   3.486
12761TIP3    H238229   2.781   5.676   3.361
12762TIP3   OH238230   5.298   6.422   3.217
12762TIP3    H138231   5.261   6.508   3.236
12762TIP3    H238232   5.376   6.417   3.273
12763TIP3   OH238233   7.062   1.491   6.122
12763TIP3    H138234   7.108   1.574   6.109
12763TIP3    H238235   7.076   1.469   6.214
12764TIP3   OH238236   6.709   4.661   5.954
12764TIP3    H138237   6.650   4.689   6.024
12764TIP3    H238238   6.759   4.740   5.932
12765TIP3   OH238239   2.523   7.691   5.677
12765TIP3    H138240   2.520   7.704   5.582
12765TIP3    H238241   2.466   7.760   5.712
12766TIP3   OH238242   6.131   6.627   0.427
12766TIP3    H138243   6.089   6.543   0.442
12766TIP3    H238244   6.202   6.608   0.367
12767TIP3   OH238245   3.396   0.314   4.570
12767TIP3    H138246   3.305   0.320   4.598
12767TIP3    H238247   3.392   0.264   4.488
12768TIP3   OH238248   0.499   4.279   2.909
12768TIP3    H138249   0.489   4.322   2.824
12768TIP3    H238250   0.511   4.351   2.971
12769TIP3   OH238251   7.921   4.454   3.724
12769TIP3    H138252   7.993   4.444   3.661
12769TIP3    H238253   7.964   4.483   3.805
12770TIP3   OH238254   1.414   4.153   1.429
12770TIP3    H138255   1.491   4.110   1.466
12770TIP3    H238256   1.433   4.161   1.335
12771TIP3   OH238257   4.223   1.048   4.564
12771TIP3    H138258   4.259   1.119   4.511
12771TIP3    H238259   4.294   0.984   4.569
12772TIP3   OH238260   6.722   0.518   2.822
12772TIP3    H138261   6.730   0.588   2.886
12772TIP3    H238262   6.812   0.498   2.796
12773TIP3   OH238263   8.037   4.326   1.069
12773TIP3    H138264   8.040   4.340   0.975
12773TIP3    H238265   7.955   4.368   1.097
12774TIP3   OH238266   4.016   6.705   5.128
12774TIP3    H138267   4.059   6.779   5.171
12774TIP3    H238268   3.977   6.743   5.049
12775TIP3   OH238269   4.416   3.849   2.766
12775TIP3    H138270   4.502   3.891   2.767
12775TIP3    H238271   4.434   3.756   2.757
12776TIP3   OH238272   5.422   3.907   3.538
12776TIP3    H138273   5.401   3.909   3.631
12776TIP3    H238274   5.517   3.913   3.535
12777TIP3   OH238275   3.308   1.802   0.049
12777TIP3    H138276   3.384   1.767   0.002
12777TIP3    H238277   3.325   1.782   0.141
12778TIP3   OH238278   1.504   2.102   2.171
12778TIP3    H138279   1.491   2.019   2.125
12778TIP3    H238280   1.417   2.127   2.202
12779TIP3   OH238281   2.298   4.542   6.061
12779TIP3    H138282   2.283   4.505   5.974
12779TIP3    H238283   2.328   4.632   6.043
12780TIP3   OH238284   3.210   0.287   0.994
12780TIP3    H138285   3.266   0.229   0.943
12780TIP3    H238286   3.125   0.285   0.949
12781TIP3   OH238287   7.942   3.414   0.051
12781TIP3    H138288   7.928   3.499   0.093
12781TIP3    H238289   7.976   3.436  -0.036
12782TIP3   OH238290   1.478   3.142   5.270
12782TIP3    H138291   1.388   3.110   5.271
12782TIP3    H238292   1.518   3.104   5.348
12783TIP3   OH238293   0.675   6.292   4.689
12783TIP3    H138294   0.727   6.279   4.609
12783TIP3    H238295   0.591   6.251   4.669
12784TIP3   OH238296   6.544   2.080   2.800
12784TIP3    H138297   6.524   2.074   2.706
12784TIP3    H238298   6.640   2.082   2.804
12785TIP3   OH238299   2.990   5.272   2.476
12785TIP3    H138300   2.957   5.303   2.560
12785TIP3    H238301   3.039   5.193   2.497
12786TIP3   OH238302   0.370   3.478   1.953
12786TIP3    H138303   0.276   3.497   1.951
12786TIP3    H238304   0.374   3.383   1.965
12787TIP3   OH238305   5.798   4.717   2.376
12787TIP3    H138306   5.751   4.654   2.321
12787TIP3    H238307   5.789   4.800   2.329
12788TIP3   OH238308   0.453   5.423   5.565
12788TIP3    H138309   0.389   5.470   5.618
12788TIP3    H238310   0.537   5.443   5.605
12789TIP3   OH238311   7.659   0.756   6.435
12789TIP3    H138312   7.731   0.697   6.458
12789TIP3    H238313   7.688   0.798   6.354
12790TIP3   OH238314   0.645   0.446   6.332
12790TIP3    H138315   0.611   0.460   6.244
12790TIP3    H238316   0.738   0.468   6.326
12791TIP3   OH238317   3.790   1.628   3.935
12791TIP3    H138318   3.728   1.558   3.957
12791TIP3    H238319   3.737   1.694   3.890
12792TIP3   OH238320   1.740   6.495   4.322
12792TIP3    H138321   1.826   6.535   4.312
12792TIP3    H238322   1.714   6.471   4.233
12793TIP3   OH238323   0.316   0.111   3.122
12793TIP3    H138324   0.360   0.137   3.203
12793TIP3    H238325   0.226   0.096   3.148
12794TIP3   OH238326   1.633   6.839   0.748
12794TIP3    H138327   1.633   6.758   0.696
12794TIP3    H238328   1.557   6.888   0.717
12795TIP3   OH238329   8.261   2.194   0.140
12795TIP3    H138330   8.276   2.122   0.202
12795TIP3    H238331   8.225   2.151   0.062
12796TIP3   OH238332   8.212   1.210   0.925
12796TIP3    H138333   8.173   1.291   0.959
12796TIP3    H238334   8.163   1.140   0.969
12797TIP3   OH238335   1.489   0.533   2.670
12797TIP3    H138336   1.555   0.513   2.735
12797TIP3    H238337   1.443   0.451   2.656
12798TIP3   OH238338   8.064   5.878   4.476
12798TIP3    H138339   8.112   5.941   4.421
12798TIP3    H238340   8.014   5.933   4.536
12799TIP3   OH238341   6.013   5.310   4.151
12799TIP3    H138342   5.954   5.384   4.165
12799TIP3    H238343   6.060   5.300   4.234
12800TIP3   OH238344   2.253   3.834   3.947
12800TIP3    H138345   2.331   3.845   3.893
12800TIP3    H238346   2.286   3.820   4.035
12801TIP3   OH238347   6.289   4.695   0.879
12801TIP3    H138348   6.250   4.668   0.796
12801TIP3    H238349   6.223   4.752   0.919
12802TIP3   OH238350   6.019   0.054   1.746
12802TIP3    H138351   5.954   0.041   1.816
12802TIP3    H238352   6.038   0.148   1.748
12803TIP3   OH238353   3.602   2.218   5.355
12803TIP3    H138354   3.653   2.141   5.380
12803TIP3    H238355   3.512   2.197   5.382
12804TIP3   OH238356   6.678   4.704   4.874
12804TIP3    H138357   6.664   4.710   4.780
12804TIP3    H238358   6.637   4.783   4.910
12805TIP3   OH238359   5.505   6.886   5.279
12805TIP3    H138360   5.448   6.885   5.356
12805TIP3    H238361   5.534   6.977   5.271
12806TIP3   OH238362   4.236   4.934   4.060
12806TIP3    H138363   4.178   4.869   4.100
12806TIP3    H238364   4.313   4.935   4.116
12807TIP3   OH238365   0.394   4.420   1.292
12807TIP3    H138366   0.352   4.345   1.249
12807TIP3    H238367   0.487   4.396   1.296
12808TIP3   OH238368   0.725   5.888   1.143
12808TIP3    H138369   0.757   5.977   1.158
12808TIP3    H238370   0.740   5.842   1.225
12809TIP3   OH238371   3.379   6.965   5.196
12809TIP3    H138372   3.328   6.948   5.276
12809TIP3    H238373   3.374   6.883   5.147
12810TIP3   OH238374   7.823   1.427   1.727
12810TIP3    H138375   7.844   1.339   1.760
12810TIP3    H238376   7.773   1.468   1.797
12811TIP3   OH238377   3.813   0.514   6.188
12811TIP3    H138378   3.824   0.425   6.222
12811TIP3    H238379   3.837   0.508   6.096
12812TIP3   OH238380   1.673   4.384   3.762
12812TIP3    H138381   1.577   4.386   3.756
12812TIP3    H238382   1.698   4.305   3.713
12813TIP3   OH238383   4.623   1.508   1.023
12813TIP3    H138384   4.667   1.423   1.015
12813TIP3    H238385   4.533   1.491   0.996
12814TIP3   OH238386   1.401   7.498   4.439
12814TIP3    H138387   1.406   7.413   4.484
12814TIP3    H238388   1.319   7.536   4.469
12815TIP3   OH238389   5.699   1.424   6.327
12815TIP3    H138390   5.610   1.407   6.295
12815TIP3    H238391   5.725   1.505   6.283
12816TIP3   OH238392   4.862   5.419   6.755
12816TIP3    H138393   4.813   5.501   6.758
12816TIP3    H238394   4.850   5.388   6.665
12817TIP3   OH238395   5.262   7.464   4.914
12817TIP3    H138396   5.197   7.404   4.951
12817TIP3    H238397   5.210   7.531   4.870
12818TIP3   OH238398   1.703   0.331   4.144
12818TIP3    H138399   1.739   0.412   4.179
12818TIP3    H238400   1.615   0.326   4.180
12819TIP3   OH238401   0.065   5.358   2.370
12819TIP3    H138402   0.068   5.454   2.375
12819TIP3    H238403   0.060   5.339   2.276
12820TIP3   OH238404   4.092   6.782   5.624
12820TIP3    H138405   4.135   6.816   5.701
12820TIP3    H238406   4.152   6.801   5.552
12821TIP3   OH238407   3.428   4.898   3.862
12821TIP3    H138408   3.449   4.822   3.916
12821TIP3    H238409   3.391   4.861   3.782
12822TIP3   OH238410   3.114   4.600   5.887
12822TIP3    H138411   3.193   4.650   5.906
12822TIP3    H238412   3.121   4.577   5.794
12823TIP3   OH238413   6.921   5.355   4.250
12823TIP3    H138414   7.001   5.408   4.252
12823TIP3    H238415   6.897   5.352   4.158
12824TIP3   OH238416   1.140   6.276   1.015
12824TIP3    H138417   1.199   6.289   1.089
12824TIP3    H238418   1.139   6.360   0.970
12825TIP3   OH238419   2.959   3.430   2.093
12825TIP3    H138420   2.993   3.346   2.061
12825TIP3    H238421   3.037   3.480   2.116
12826TIP3   OH238422   2.764   6.103   0.257
12826TIP3    H138423   2.799   6.170   0.317
12826TIP3    H238424   2.833   6.037   0.253
12827TIP3   OH238425   0.841   6.987   3.866
12827TIP3    H138426   0.822   6.895   3.847
12827TIP3    H238427   0.934   6.997   3.846
12828TIP3   OH238428   6.745   6.501   3.902
12828TIP3    H138429   6.784   6.584   3.875
12828TIP3    H238430   6.742   6.505   3.998
12829TIP3   OH238431   5.679   2.624   5.730
12829TIP3    H138432   5.709   2.629   5.640
12829TIP3    H238433   5.684   2.530   5.751
12830TIP3   OH238434   7.007   3.857   1.723
12830TIP3    H138435   7.102   3.866   1.728
12830TIP3    H238436   6.992   3.767   1.696
12831TIP3   OH238437   7.586   6.713   2.693
12831TIP3    H138438   7.668   6.751   2.724
12831TIP3    H238439   7.584   6.733   2.600
12832TIP3   OH238440   5.619   1.612   2.598
12832TIP3    H138441   5.678   1.678   2.633
12832TIP3    H238442   5.608   1.635   2.506
12833TIP3   OH238443   0.061   4.033   1.096
12833TIP3    H138444   0.043   3.985   1.176
12833TIP3    H238445   0.037   4.124   1.116
12834TIP3   OH238446   5.972   1.839   5.349
12834TIP3    H138447   6.004   1.929   5.347
12834TIP3    H238448   5.959   1.817   5.257
12835TIP3   OH238449   1.885   1.212   3.594
12835TIP3    H138450   1.795   1.231   3.567
12835TIP3    H238451   1.881   1.122   3.626
12836TIP3   OH238452   3.013   4.143   1.715
12836TIP3    H138453   3.083   4.208   1.724
12836TIP3    H238454   3.000   4.109   1.803
12837TIP3   OH238455   2.268   0.757   2.492
12837TIP3    H138456   2.207   0.768   2.419
12837TIP3    H238457   2.212   0.747   2.569
12838TIP3   OH238458   5.133   5.107   0.631
12838TIP3    H138459   5.214   5.088   0.584
12838TIP3    H238460   5.118   5.200   0.616
12839TIP3   OH238461   3.951   4.075   5.215
12839TIP3    H138462   3.987   4.119   5.138
12839TIP3    H238463   3.988   4.123   5.289
12840TIP3   OH238464   1.506   7.147   5.963
12840TIP3    H138465   1.410   7.146   5.958
12840TIP3    H238466   1.535   7.138   5.872
12841TIP3   OH238467   5.269   1.465   4.134
12841TIP3    H138468   5.183   1.506   4.144
12841TIP3    H238469   5.330   1.531   4.167
12842TIP3   OH238470   1.412   2.173   2.475
12842TIP3    H138471   1.479   2.165   2.543
12842TIP3    H238472   1.402   2.267   2.462
12843TIP3   OH238473   1.213   5.541   1.577
12843TIP3    H138474   1.204   5.465   1.520
12843TIP3    H238475   1.299   5.530   1.619
12844TIP3   OH238476   6.779   6.167   2.081
12844TIP3    H138477   6.717   6.147   2.151
12844TIP3    H238478   6.830   6.241   2.115
12845TIP3   OH238479   7.083   7.815   0.173
12845TIP3    H138480   7.042   7.895   0.140
12845TIP3    H238481   7.097   7.831   0.266
12846TIP3   OH238482   7.484   3.028   5.915
12846TIP3    H138483   7.530   2.989   5.840
12846TIP3    H238484   7.392   3.009   5.897
12847TIP3   OH238485   2.317   5.903   6.618
12847TIP3    H138486   2.372   5.913   6.697
12847TIP3    H238487   2.371   5.850   6.559
12848TIP3   OH238488   3.725   2.954   4.809
12848TIP3    H138489   3.669   2.879   4.830
12848TIP3    H238490   3.813   2.916   4.804
12849TIP3   OH238491   3.968   3.862   6.316
12849TIP3    H138492   3.879   3.832   6.296
12849TIP3    H238493   3.973   3.949   6.275
12850TIP3   OH238494   2.147   2.376   0.203
12850TIP3    H138495   2.171   2.301   0.258
12850TIP3    H238496   2.228   2.400   0.159
12851TIP3   OH238497   1.907   2.217   0.835
12851TIP3    H138498   1.938   2.164   0.909
12851TIP3    H238499   1.929   2.307   0.858
12852TIP3   OH238500   6.118   5.189   6.651
12852TIP3    H138501   6.137   5.274   6.690
12852TIP3    H238502   6.112   5.206   6.557
12853TIP3   OH238503   7.809   5.239   5.739
12853TIP3    H138504   7.901   5.264   5.728
12853TIP3    H238505   7.810   5.143   5.739
12854TIP3   OH238506   4.047   2.117   5.611
12854TIP3    H138507   4.076   2.091   5.698
12854TIP3    H238508   4.121   2.096   5.554
12855TIP3   OH238509   4.551   3.248   4.654
12855TIP3    H138510   4.483   3.304   4.691
12855TIP3    H238511   4.623   3.254   4.717
12856TIP3   OH238512   0.886   0.660   2.141
12856TIP3    H138513   0.894   0.580   2.193
12856TIP3    H238514   0.972   0.672   2.101
12857TIP3   OH238515   0.348   6.398   2.683
12857TIP3    H138516   0.441   6.396   2.662
12857TIP3    H238517   0.306   6.435   2.605
12858TIP3   OH238518   2.471   7.288   6.113
12858TIP3    H138519   2.386   7.267   6.075
12858TIP3    H238520   2.523   7.208   6.101
12859TIP3   OH238521   0.144   1.202   6.086
12859TIP3    H138522   0.173   1.206   6.177
12859TIP3    H238523   0.219   1.166   6.039
12860TIP3   OH238524   4.589   2.064   2.420
12860TIP3    H138525   4.673   2.048   2.464
12860TIP3    H238526   4.609   2.057   2.327
12861TIP3   OH238527   4.805   3.987   5.022
12861TIP3    H138528   4.735   3.964   4.961
12861TIP3    H238529   4.802   3.919   5.089
12862TIP3   OH238530   0.697   0.646   1.380
12862TIP3    H138531   0.685   0.726   1.431
12862TIP3    H238532   0.610   0.605   1.378
12863TIP3   OH238533   0.628   3.886   2.115
12863TIP3    H138534   0.640   3.961   2.056
12863TIP3    H238535   0.556   3.837   2.076
12864TIP3   OH238536   0.748   2.236   3.534
12864TIP3    H138537   0.680   2.254   3.470
12864TIP3    H238538   0.702   2.195   3.608
12865TIP3   OH238539   3.098   7.807   1.970
12865TIP3    H138540   3.029   7.752   1.934
12865TIP3    H238541   3.115   7.771   2.057
12866TIP3   OH238542   5.223   2.967   2.202
12866TIP3    H138543   5.212   3.014   2.119
12866TIP3    H238544   5.149   2.993   2.255
12867TIP3   OH238545   5.708   5.321   5.067
12867TIP3    H138546   5.759   5.240   5.081
12867TIP3    H238547   5.624   5.304   5.108
12868TIP3   OH238548   5.519   2.405   2.247
12868TIP3    H138549   5.511   2.447   2.333
12868TIP3    H238550   5.608   2.426   2.219
12869TIP3   OH238551   0.008   7.604   3.574
12869TIP3    H138552   0.069   7.534   3.596
12869TIP3    H238553   0.031   7.630   3.485
12870TIP3   OH238554   2.227   3.113   5.193
12870TIP3    H138555   2.191   3.100   5.105
12870TIP3    H238556   2.162   3.169   5.237
12871TIP3   OH238557   2.121   0.956   1.727
12871TIP3    H138558   2.084   0.983   1.643
12871TIP3    H238559   2.120   1.036   1.780
12872TIP3   OH238560   4.721   2.532   5.910
12872TIP3    H138561   4.799   2.527   5.965
12872TIP3    H238562   4.717   2.447   5.867
12873TIP3   OH238563   4.631   0.456   0.674
12873TIP3    H138564   4.570   0.414   0.613
12873TIP3    H238565   4.575   0.495   0.741
12874TIP3   OH238566   5.426   5.416   1.014
12874TIP3    H138567   5.486   5.401   1.086
12874TIP3    H238568   5.339   5.402   1.052
12875TIP3   OH238569   6.196   2.725   1.343
12875TIP3    H138570   6.208   2.785   1.270
12875TIP3    H238571   6.191   2.638   1.303
12876TIP3   OH238572   2.849   3.735   0.097
12876TIP3    H138573   2.838   3.680   0.175
12876TIP3    H238574   2.769   3.721   0.047
12877TIP3   OH238575   4.434   2.839   3.957
12877TIP3    H138576   4.446   2.899   3.883
12877TIP3    H238577   4.504   2.862   4.018
12878TIP3   OH238578   6.921   0.838   2.875
12878TIP3    H138579   6.890   0.925   2.849
12878TIP3    H238580   6.992   0.819   2.813
12879TIP3   OH238581   3.743   5.510   6.486
12879TIP3    H138582   3.666   5.460   6.458
12879TIP3    H238583   3.713   5.558   6.564
12880TIP3   OH238584   6.532   5.072   5.307
12880TIP3    H138585   6.469   5.078   5.234
12880TIP3    H238586   6.503   4.996   5.357
12881TIP3   OH238587   3.241   6.111   1.976
12881TIP3    H138588   3.284   6.122   2.061
12881TIP3    H238589   3.311   6.125   1.912
12882TIP3   OH238590   1.556   5.735   3.114
12882TIP3    H138591   1.630   5.687   3.151
12882TIP3    H238592   1.592   5.778   3.037
12883TIP3   OH238593   6.548   0.412   6.657
12883TIP3    H138594   6.601   0.412   6.578
12883TIP3    H238595   6.586   0.344   6.712
12884TIP3   OH238596   4.909   7.565   5.719
12884TIP3    H138597   4.861   7.548   5.638
12884TIP3    H238598   4.845   7.551   5.789
12885TIP3   OH238599   3.602   5.906   6.602
12885TIP3    H138600   3.626   5.823   6.643
12885TIP3    H238601   3.679   5.962   6.613
12886TIP3   OH238602   2.360   4.767   0.685
12886TIP3    H138603   2.364   4.686   0.735
12886TIP3    H238604   2.324   4.831   0.745
12887TIP3   OH238605   7.538   6.984   6.695
12887TIP3    H138606   7.529   6.912   6.757
12887TIP3    H238607   7.458   6.980   6.642
12888TIP3   OH238608   2.165   0.088   2.418
12888TIP3    H138609   2.071   0.101   2.416
12888TIP3    H238610   2.184   0.033   2.342
12889TIP3   OH238611   5.039   6.670   3.697
12889TIP3    H138612   5.040   6.757   3.735
12889TIP3    H238613   4.985   6.618   3.756
12890TIP3   OH238614   5.082   2.249   4.925
12890TIP3    H138615   5.008   2.305   4.899
12890TIP3    H238616   5.057   2.217   5.012
12891TIP3   OH238617   7.991   6.170   0.355
12891TIP3    H138618   7.960   6.138   0.271
12891TIP3    H238619   7.916   6.215   0.393
12892TIP3   OH238620   6.689   1.423   6.102
12892TIP3    H138621   6.595   1.434   6.089
12892TIP3    H238622   6.698   1.398   6.194
12893TIP3   OH238623   2.143   0.657   0.936
12893TIP3    H138624   2.156   0.733   0.992
12893TIP3    H238625   2.156   0.690   0.847
12894TIP3   OH238626   8.337   7.343   2.236
12894TIP3    H138627   8.323   7.281   2.165
12894TIP3    H238628   8.266   7.406   2.228
12895TIP3   OH238629   1.536   4.068   6.625
12895TIP3    H138630   1.458   4.013   6.636
12895TIP3    H238631   1.559   4.059   6.532
12896TIP3   OH238632   3.387   2.078   3.792
12896TIP3    H138633   3.470   2.073   3.745
12896TIP3    H238634   3.398   2.022   3.868
12897TIP3   OH238635   6.617   0.575   2.415
12897TIP3    H138636   6.670   0.655   2.421
12897TIP3    H238637   6.533   0.599   2.456
12898TIP3   OH238638   3.575   6.211   2.693
12898TIP3    H138639   3.534   6.297   2.682
12898TIP3    H238640   3.504   6.154   2.724
12899TIP3   OH238641   0.700   3.589   6.617
12899TIP3    H138642   0.699   3.651   6.544
12899TIP3    H238643   0.694   3.643   6.695
12900TIP3   OH238644   2.369   3.813   3.003
12900TIP3    H138645   2.409   3.775   2.924
12900TIP3    H238646   2.435   3.800   3.071
12901TIP3   OH238647   1.670   5.886   2.369
12901TIP3    H138648   1.656   5.804   2.321
12901TIP3    H238649   1.584   5.909   2.405
12902TIP3   OH238650   7.318   3.875   5.866
12902TIP3    H138651   7.376   3.799   5.863
12902TIP3    H238652   7.289   3.879   5.957
12903TIP3   OH238653   3.727   5.905   2.521
12903TIP3    H138654   3.709   5.844   2.593
12903TIP3    H238655   3.642   5.945   2.502
12904TIP3   OH238656   6.577   2.226   5.336
12904TIP3    H138657   6.529   2.147   5.310
12904TIP3    H238658   6.658   2.194   5.375
12905TIP3   OH238659   1.630   7.094   3.795
12905TIP3    H138660   1.634   7.115   3.701
12905TIP3    H238661   1.603   7.002   3.797
12906TIP3   OH238662   7.278   4.834   2.834
12906TIP3    H138663   7.204   4.894   2.839
12906TIP3    H238664   7.351   4.883   2.873
12907TIP3   OH238665   5.177   5.734   4.930
12907TIP3    H138666   5.176   5.657   4.987
12907TIP3    H238667   5.168   5.698   4.841
12908TIP3   OH238668   4.581   3.255   3.897
12908TIP3    H138669   4.514   3.236   3.832
12908TIP3    H238670   4.566   3.346   3.922
12909TIP3   OH238671   2.365   4.202   3.570
12909TIP3    H138672   2.272   4.223   3.574
12909TIP3    H238673   2.409   4.286   3.579
12910TIP3   OH238674   7.068   6.324   4.175
12910TIP3    H138675   7.147   6.283   4.213
12910TIP3    H238676   7.057   6.280   4.091
12911TIP3   OH238677   5.100   1.370   5.901
12911TIP3    H138678   5.020   1.423   5.898
12911TIP3    H238679   5.163   1.419   5.849
12912TIP3   OH238680   5.547   6.245   0.238
12912TIP3    H138681   5.638   6.273   0.229
12912TIP3    H238682   5.541   6.165   0.186
12913TIP3   OH238683   6.297   1.538   0.602
12913TIP3    H138684   6.337   1.550   0.516
12913TIP3    H238685   6.367   1.558   0.665
12914TIP3   OH238686   1.727   1.841   5.624
12914TIP3    H138687   1.741   1.770   5.687
12914TIP3    H238688   1.815   1.862   5.593
12915TIP3   OH238689   0.450   3.716   1.113
12915TIP3    H138690   0.384   3.650   1.091
12915TIP3    H238691   0.519   3.667   1.158
12916TIP3   OH238692   5.853   3.352   5.889
12916TIP3    H138693   5.927   3.333   5.830
12916TIP3    H238694   5.827   3.441   5.866
12917TIP3   OH238695   1.177   0.764   4.989
12917TIP3    H138696   1.141   0.830   4.929
12917TIP3    H238697   1.210   0.695   4.932
12918TIP3   OH238698   2.568   3.925   5.297
12918TIP3    H138699   2.617   3.864   5.243
12918TIP3    H238700   2.611   3.922   5.383
12919TIP3   OH238701   0.431   5.958   6.712
12919TIP3    H138702   0.506   5.956   6.771
12919TIP3    H238703   0.397   6.047   6.719
12920TIP3   OH238704   7.176   6.524   2.388
12920TIP3    H138705   7.095   6.574   2.389
12920TIP3    H238706   7.242   6.584   2.354
12921TIP3   OH238707   0.841   3.034   3.086
12921TIP3    H138708   0.925   2.991   3.075
12921TIP3    H238709   0.858   3.126   3.063
12922TIP3   OH238710   1.579   6.963   5.449
12922TIP3    H138711   1.484   6.960   5.440
12922TIP3    H238712   1.594   7.016   5.527
12923TIP3   OH238713   6.005   4.422   2.844
12923TIP3    H138714   5.933   4.376   2.802
12923TIP3    H238715   5.998   4.512   2.812
12924TIP3   OH238716   5.961   5.783   2.568
12924TIP3    H138717   5.973   5.802   2.661
12924TIP3    H238718   6.008   5.701   2.553
12925TIP3   OH238719   0.834   0.139   1.701
12925TIP3    H138720   0.827   0.231   1.727
12925TIP3    H238721   0.852   0.141   1.607
12926TIP3   OH238722   7.439   5.384   4.502
12926TIP3    H138723   7.469   5.453   4.444
12926TIP3    H238724   7.514   5.326   4.512
12927TIP3   OH238725   2.054   3.997   5.575
12927TIP3    H138726   2.096   4.032   5.497
12927TIP3    H238727   1.964   4.030   5.570
12928TIP3   OH238728   0.574   0.496   6.609
12928TIP3    H138729   0.481   0.494   6.583
12928TIP3    H238730   0.621   0.493   6.526
12929TIP3   OH238731   5.413   2.377   5.655
12929TIP3    H138732   5.500   2.409   5.633
12929TIP3    H238733   5.425   2.284   5.673
12930TIP3   OH238734   0.498   7.676   0.929
12930TIP3    H138735   0.443   7.704   1.002
12930TIP3    H238736   0.481   7.583   0.921
12931TIP3   OH238737   3.923   0.179   0.475
12931TIP3    H138738   3.948   0.103   0.529
12931TIP3    H238739   3.841   0.153   0.434
12932TIP3   OH238740   1.448   7.318   2.510
12932TIP3    H138741   1.452   7.246   2.573
12932TIP3    H238742   1.472   7.278   2.426
12933TIP3   OH238743   3.675   0.784   2.059
12933TIP3    H138744   3.662   0.824   1.972
12933TIP3    H238745   3.714   0.854   2.111
12934TIP3   OH238746   4.600   3.121   6.575
12934TIP3    H138747   4.655   3.045   6.595
12934TIP3    H238748   4.545   3.092   6.502
12935TIP3   OH238749   3.184   7.488   1.888
12935TIP3    H138750   3.194   7.558   1.953
12935TIP3    H238751   3.247   7.421   1.916
12936TIP3   OH238752   2.016   1.328   2.684
12936TIP3    H138753   1.961   1.403   2.661
12936TIP3    H238754   1.999   1.313   2.777
12937TIP3   OH238755   0.686   0.633   5.400
12937TIP3    H138756   0.668   0.544   5.431
12937TIP3    H238757   0.627   0.645   5.326
12938TIP3   OH238758   3.853   7.740   1.332
12938TIP3    H138759   3.847   7.658   1.282
12938TIP3    H238760   3.946   7.749   1.352
12939TIP3   OH238761   6.538   4.469   4.982
12939TIP3    H138762   6.584   4.524   4.919
12939TIP3    H238763   6.489   4.407   4.928
12940TIP3   OH238764   4.025   2.328   3.107
12940TIP3    H138765   4.027   2.395   3.039
12940TIP3    H238766   4.110   2.284   3.101
12941TIP3   OH238767   3.533   4.020   3.893
12941TIP3    H138768   3.451   3.985   3.859
12941TIP3    H238769   3.587   3.942   3.909
12942TIP3   OH238770   0.873   4.367   2.203
12942TIP3    H138771   0.853   4.344   2.113
12942TIP3    H238772   0.958   4.411   2.197
12943TIP3   OH238773   0.475   0.949   0.490
12943TIP3    H138774   0.548   0.887   0.484
12943TIP3    H238775   0.401   0.896   0.520
12944TIP3   OH238776   4.150   1.908   5.772
12944TIP3    H138777   4.092   1.849   5.724
12944TIP3    H238778   4.136   1.885   5.864
12945TIP3   OH238779   3.974   5.341   6.525
12945TIP3    H138780   3.989   5.285   6.449
12945TIP3    H238781   3.909   5.405   6.495
12946TIP3   OH238782   3.426   0.738   4.948
12946TIP3    H138783   3.387   0.654   4.972
12946TIP3    H238784   3.490   0.716   4.880
12947TIP3   OH238785   6.752   1.416   6.377
12947TIP3    H138786   6.680   1.358   6.402
12947TIP3    H238787   6.727   1.502   6.412
12948TIP3   OH238788   0.397   1.467   5.169
12948TIP3    H138789   0.360   1.463   5.081
12948TIP3    H238790   0.401   1.561   5.189
12949TIP3   OH238791   5.029   6.139   3.777
12949TIP3    H138792   4.998   6.194   3.706
12949TIP3    H238793   5.123   6.158   3.784
12950TIP3   OH238794   0.764   1.402   2.139
12950TIP3    H138795   0.730   1.319   2.174
12950TIP3    H238796   0.817   1.437   2.210
12951TIP3   OH238797   2.604   5.703   1.503
12951TIP3    H138798   2.532   5.758   1.471
12951TIP3    H238799   2.587   5.693   1.596
12952TIP3   OH238800   6.735   6.425   0.968
12952TIP3    H138801   6.705   6.453   0.882
12952TIP3    H238802   6.788   6.498   1.000
12953TIP3   OH238803   6.158   2.631   5.472
12953TIP3    H138804   6.069   2.644   5.504
12953TIP3    H238805   6.211   2.623   5.551
12954TIP3   OH238806   5.189   4.509   2.268
12954TIP3    H138807   5.100   4.531   2.295
12954TIP3    H238808   5.180   4.482   2.176
12955TIP3   OH238809   3.055   2.789   1.043
12955TIP3    H138810   3.003   2.731   1.098
12955TIP3    H238811   3.121   2.732   1.003
12956TIP3   OH238812   1.785   6.058   6.410
12956TIP3    H138813   1.830   6.083   6.330
12956TIP3    H238814   1.842   6.090   6.480
12957TIP3   OH238815   4.175   7.494   6.736
12957TIP3    H138816   4.163   7.564   6.801
12957TIP3    H238817   4.151   7.414   6.782
12958TIP3   OH238818   6.650   7.781   0.566
12958TIP3    H138819   6.696   7.726   0.503
12958TIP3    H238820   6.570   7.732   0.586
12959TIP3   OH238821   5.999   7.117   4.847
12959TIP3    H138822   5.931   7.160   4.795
12959TIP3    H238823   6.043   7.059   4.785
12960TIP3   OH238824   0.091   7.687   0.629
12960TIP3    H138825   0.119   7.777   0.646
12960TIP3    H238826   0.115   7.638   0.707
12961TIP3   OH238827   3.124   5.927   3.065
12961TIP3    H138828   3.064   5.854   3.050
12961TIP3    H238829   3.208   5.886   3.083
12962TIP3   OH238830   5.002   4.093   4.860
12962TIP3    H138831   4.936   4.053   4.917
12962TIP3    H238832   4.983   4.057   4.773
12963TIP3   OH238833   5.887   6.876   4.671
12963TIP3    H138834   5.817   6.847   4.729
12963TIP3    H238835   5.850   6.868   4.583
12964TIP3   OH238836   7.773   4.101   3.125
12964TIP3    H138837   7.837   4.030   3.136
12964TIP3    H238838   7.705   4.082   3.190
12965TIP3   OH238839   0.579   0.636   1.675
12965TIP3    H138840   0.559   0.588   1.595
12965TIP3    H238841   0.496   0.644   1.721
12966TIP3   OH238842   0.462   0.766   4.272
12966TIP3    H138843   0.544   0.718   4.269
12966TIP3    H238844   0.447   0.794   4.182
12967TIP3   OH238845   0.729   3.099   5.143
12967TIP3    H138846   0.639   3.104   5.110
12967TIP3    H238847   0.724   3.042   5.219
12968TIP3   OH238848   4.389   6.510   3.278
12968TIP3    H138849   4.336   6.433   3.255
12968TIP3    H238850   4.399   6.503   3.373
12969TIP3   OH238851   1.526   3.856   6.177
12969TIP3    H138852   1.451   3.797   6.170
12969TIP3    H238853   1.554   3.870   6.087
12970TIP3   OH238854   6.831   1.759   2.026
12970TIP3    H138855   6.753   1.718   2.065
12970TIP3    H238856   6.797   1.808   1.951
12971TIP3   OH238857   4.992   4.261   0.148
12971TIP3    H138858   5.009   4.312   0.069
12971TIP3    H238859   5.075   4.217   0.166
12972TIP3   OH238860   7.826   2.426   0.604
12972TIP3    H138861   7.832   2.331   0.600
12972TIP3    H238862   7.825   2.453   0.512
12973TIP3   OH238863   4.106   6.748   6.246
12973TIP3    H138864   4.187   6.704   6.272
12973TIP3    H238865   4.036   6.694   6.282
12974TIP3   OH238866   6.835   3.530   5.733
12974TIP3    H138867   6.885   3.462   5.689
12974TIP3    H238868   6.897   3.569   5.796
12975TIP3   OH238869   4.364   0.939   2.120
12975TIP3    H138870   4.362   0.843   2.122
12975TIP3    H238871   4.457   0.961   2.127
12976TIP3   OH238872   0.727   4.658   4.188
12976TIP3    H138873   0.760   4.731   4.135
12976TIP3    H238874   0.634   4.650   4.164
12977TIP3   OH238875   4.853   0.394   5.834
12977TIP3    H138876   4.798   0.324   5.800
12977TIP3    H238877   4.930   0.394   5.776
12978TIP3   OH238878   7.093   2.672   3.532
12978TIP3    H138879   7.133   2.589   3.558
12978TIP3    H238880   7.098   2.727   3.610
12979TIP3   OH238881   8.200   4.618   4.953
12979TIP3    H138882   8.113   4.627   4.916
12979TIP3    H238883   8.195   4.660   5.039
12980TIP3   OH238884   2.744   7.676   4.961
12980TIP3    H138885   2.823   7.669   4.907
12980TIP3    H238886   2.727   7.586   4.989
12981TIP3   OH238887   0.715   2.948   1.916
12981TIP3    H138888   0.800   2.992   1.919
12981TIP3    H238889   0.676   2.965   2.002
12982TIP3   OH238890   6.201   0.852   0.358
12982TIP3    H138891   6.237   0.926   0.406
12982TIP3    H238892   6.234   0.862   0.268
12983TIP3   OH238893   2.280   6.600   0.619
12983TIP3    H138894   2.244   6.641   0.698
12983TIP3    H238895   2.223   6.525   0.602
12984TIP3   OH238896   3.449   7.432   1.869
12984TIP3    H138897   3.417   7.498   1.807
12984TIP3    H238898   3.474   7.358   1.814
12985TIP3   OH238899   2.710   3.012   1.088
12985TIP3    H138900   2.684   3.097   1.053
12985TIP3    H238901   2.782   3.033   1.148
12986TIP3   OH238902   4.244   2.111   3.116
12986TIP3    H138903   4.231   2.082   3.026
12986TIP3    H238904   4.322   2.065   3.145
12987TIP3   OH238905   3.729   6.534   0.281
12987TIP3    H138906   3.678   6.531   0.200
12987TIP3    H238907   3.808   6.482   0.262
12988TIP3   OH238908   7.317   1.872   4.249
12988TIP3    H138909   7.396   1.819   4.240
12988TIP3    H238910   7.255   1.815   4.294
12989TIP3   OH238911   3.066   6.830   6.428
12989TIP3    H138912   3.099   6.919   6.436
12989TIP3    H238913   3.109   6.795   6.350
12990TIP3   OH238914   0.815   4.790   6.579
12990TIP3    H138915   0.807   4.766   6.671
12990TIP3    H238916   0.907   4.816   6.569
12991TIP3   OH238917   0.127   0.524   2.732
12991TIP3    H138918   0.171   0.440   2.740
12991TIP3    H238919   0.051   0.507   2.676
12992TIP3   OH238920   1.085   2.762   1.391
12992TIP3    H138921   1.037   2.703   1.333
12992TIP3    H238922   1.136   2.705   1.448
12993TIP3   OH238923   3.027   4.151   5.819
12993TIP3    H138924   3.018   4.058   5.801
12993TIP3    H238925   3.099   4.181   5.763
12994TIP3   OH238926   7.381   5.956   2.663
12994TIP3    H138927   7.377   5.902   2.742
12994TIP3    H238928   7.345   6.040   2.690
12995TIP3   OH238929   1.685   5.295   1.043
12995TIP3    H138930   1.723   5.211   1.067
12995TIP3    H238931   1.739   5.360   1.088
12996TIP3   OH238932   4.402   5.592   3.577
12996TIP3    H138933   4.381   5.599   3.484
12996TIP3    H238934   4.494   5.617   3.582
12997TIP3   OH238935   5.066   5.187   2.478
12997TIP3    H138936   5.033   5.113   2.529
12997TIP3    H238937   5.068   5.155   2.388
12998TIP3   OH238938   2.043   3.803   5.989
12998TIP3    H138939   2.092   3.862   5.932
12998TIP3    H238940   2.023   3.727   5.935
12999TIP3   OH238941   0.338   3.057   3.597
12999TIP3    H138942   0.308   3.036   3.685
12999TIP3    H238943   0.259   3.050   3.543
13000TIP3   OH238944   1.589   7.657   0.962
13000TIP3    H138945   1.561   7.666   1.053
13000TIP3    H238946   1.681   7.684   0.963
13001TIP3   OH238947   6.570   1.591   4.715
13001TIP3    H138948   6.607   1.675   4.687
13001TIP3    H238949   6.622   1.566   4.792
13002TIP3   OH238950   6.162   7.357   0.746
13002TIP3    H138951   6.162   7.377   0.839
13002TIP3    H238952   6.096   7.288   0.736
13003TIP3   OH238953   0.564   3.630   3.614
13003TIP3    H138954   0.481   3.602   3.653
13003TIP3    H238955   0.628   3.568   3.648
13004TIP3   OH238956   1.367   3.372   1.372
13004TIP3    H138957   1.434   3.439   1.387
13004TIP3    H238958   1.289   3.407   1.415
13005TIP3   OH238959   7.677   1.210   1.504
13005TIP3    H138960   7.609   1.145   1.485
13005TIP3    H238961   7.753   1.157   1.530
13006TIP3   OH238962   2.153   5.288   0.885
13006TIP3    H138963   2.189   5.357   0.829
13006TIP3    H238964   2.181   5.311   0.973
13007TIP3   OH238965   1.142   0.554   3.329
13007TIP3    H138966   1.101   0.469   3.346
13007TIP3    H238967   1.189   0.574   3.410
13008TIP3   OH238968   7.290   1.236   1.597
13008TIP3    H138969   7.375   1.193   1.612
13008TIP3    H238970   7.227   1.165   1.603
13009TIP3   OH238971   5.294   6.684   2.226
13009TIP3    H138972   5.275   6.777   2.236
13009TIP3    H238973   5.340   6.659   2.306
13010TIP3   OH238974   4.608   1.844   4.404
13010TIP3    H138975   4.532   1.898   4.380
13010TIP3    H238976   4.671   1.859   4.333
13011TIP3   OH238977   4.818   6.411   3.326
13011TIP3    H138978   4.738   6.361   3.308
13011TIP3    H238979   4.881   6.380   3.261
13012TIP3   OH238980   4.753   1.393   1.291
13012TIP3    H138981   4.808   1.315   1.281
13012TIP3    H238982   4.801   1.461   1.244
13013TIP3   OH238983   3.389   6.009   3.926
13013TIP3    H138984   3.339   5.999   4.007
13013TIP3    H238985   3.360   6.093   3.890
13014TIP3   OH238986   7.597   3.962   2.404
13014TIP3    H138987   7.515   4.010   2.396
13014TIP3    H238988   7.637   3.997   2.484
13015TIP3   OH238989   7.360   3.848   4.450
13015TIP3    H138990   7.337   3.917   4.389
13015TIP3    H238991   7.453   3.832   4.435
13016TIP3   OH238992   6.066   7.293   5.047
13016TIP3    H138993   6.027   7.255   5.125
13016TIP3    H238994   6.040   7.233   4.976
13017TIP3   OH238995   5.126   3.834   5.131
13017TIP3    H138996   5.082   3.781   5.064
13017TIP3    H238997   5.055   3.872   5.182
13018TIP3   OH238998   3.028   1.012   3.454
13018TIP3    H138999   2.997   0.962   3.378
13018TIP3    H239000   2.966   0.992   3.524
13019TIP3   OH239001   2.793   5.936   5.476
13019TIP3    H139002   2.790   6.025   5.509
13019TIP3    H239003   2.733   5.936   5.401
13020TIP3   OH239004   7.788   3.263   6.584
13020TIP3    H139005   7.831   3.179   6.604
13020TIP3    H239006   7.712   3.264   6.642
13021TIP3   OH239007   3.699   5.355   0.649
13021TIP3    H139008   3.730   5.266   0.632
13021TIP3    H239009   3.616   5.360   0.602
13022TIP3   OH239010   2.601   5.004   5.363
13022TIP3    H139011   2.578   5.097   5.372
13022TIP3    H239012   2.597   4.987   5.269
13023TIP3   OH239013   4.787   1.315   4.942
13023TIP3    H139014   4.692   1.302   4.939
13023TIP3    H239015   4.802   1.365   5.022
13024TIP3   OH239016   6.155   5.291   5.636
13024TIP3    H139017   6.095   5.365   5.648
13024TIP3    H239018   6.210   5.292   5.714
13025TIP3   OH239019   4.984   1.826   0.844
13025TIP3    H139020   4.889   1.831   0.857
13025TIP3    H239021   5.003   1.732   0.840
13026TIP3   OH239022   2.105   5.229   2.957
13026TIP3    H139023   2.191   5.266   2.970
13026TIP3    H239024   2.111   5.140   2.993
13027TIP3   OH239025   5.412   0.729   0.426
13027TIP3    H139026   5.506   0.719   0.410
13027TIP3    H239027   5.401   0.703   0.518
13028TIP3   OH239028   2.268   2.773   1.180
13028TIP3    H139029   2.345   2.760   1.125
13028TIP3    H239030   2.216   2.694   1.169
13029TIP3   OH239031   6.177   2.458   1.269
13029TIP3    H139032   6.092   2.460   1.225
13029TIP3    H239033   6.222   2.383   1.229
13030TIP3   OH239034   6.720   2.896   3.161
13030TIP3    H139035   6.798   2.895   3.106
13030TIP3    H239036   6.661   2.831   3.122
13031TIP3   OH239037   4.491   7.744   5.018
13031TIP3    H139038   4.535   7.739   5.103
13031TIP3    H239039   4.546   7.692   4.960
13032TIP3   OH239040   7.911   5.897   5.504
13032TIP3    H139041   7.910   5.948   5.423
13032TIP3    H239042   8.002   5.868   5.512
13033TIP3   OH239043   3.155   1.024   1.598
13033TIP3    H139044   3.169   1.071   1.516
13033TIP3    H239045   3.153   0.932   1.573
13034TIP3   OH239046   0.986   5.210   0.770
13034TIP3    H139047   1.033   5.292   0.759
13034TIP3    H239048   0.946   5.217   0.857
13035TIP3   OH239049   2.615   3.950   5.930
13035TIP3    H139050   2.578   3.950   6.019
13035TIP3    H239051   2.550   3.903   5.878
13036TIP3   OH239052   0.833   7.382   5.407
13036TIP3    H139053   0.757   7.439   5.395
13036TIP3    H239054   0.889   7.429   5.469
13037TIP3   OH239055   1.420   4.992   2.710
13037TIP3    H139056   1.465   5.071   2.680
13037TIP3    H239057   1.428   4.995   2.806
13038TIP3   OH239058   1.746   6.063   4.543
13038TIP3    H139059   1.741   6.043   4.450
13038TIP3    H239060   1.723   6.155   4.549
13039TIP3   OH239061   7.761   2.306   0.015
13039TIP3    H139062   7.851   2.280  -0.005
13039TIP3    H239063   7.757   2.398  -0.010
13040TIP3   OH239064   3.179   4.330   1.685
13040TIP3    H139065   3.263   4.293   1.658
13040TIP3    H239066   3.179   4.418   1.647
13041TIP3   OH239067   3.593   0.391   4.735
13041TIP3    H139068   3.635   0.314   4.774
13041TIP3    H239069   3.516   0.356   4.689
13042TIP3   OH239070   3.555   0.623   6.671
13042TIP3    H139071   3.591   0.597   6.586
13042TIP3    H239072   3.613   0.583   6.735
13043TIP3   OH239073   7.260   1.857   6.754
13043TIP3    H139074   7.281   1.892   6.840
13043TIP3    H239075   7.272   1.931   6.694
13044TIP3   OH239076   6.118   3.571   2.528
13044TIP3    H139077   6.128   3.651   2.579
13044TIP3    H239078   6.042   3.527   2.566
13045TIP3   OH239079   2.818   7.495   0.513
13045TIP3    H139080   2.882   7.484   0.582
13045TIP3    H239081   2.843   7.431   0.446
13046TIP3   OH239082   5.300   4.920   6.112
13046TIP3    H139083   5.208   4.896   6.096
13046TIP3    H239084   5.349   4.840   6.094
13047TIP3   OH239085   4.752   3.973   0.632
13047TIP3    H139086   4.798   3.932   0.559
13047TIP3    H239087   4.665   3.932   0.632
13048TIP3   OH239088   1.541   5.579   6.711
13048TIP3    H139089   1.492   5.503   6.741
13048TIP3    H239090   1.595   5.604   6.787
13049TIP3   OH239091   4.239   3.379   0.092
13049TIP3    H139092   4.193   3.463   0.092
13049TIP3    H239093   4.180   3.320   0.044
13050TIP3   OH239094   6.887  -0.018   1.339
13050TIP3    H139095   6.932   0.032   1.271
13050TIP3    H239096   6.954  -0.038   1.404
13051TIP3   OH239097   8.035   6.551   5.570
13051TIP3    H139098   7.963   6.567   5.632
13051TIP3    H239099   7.991   6.534   5.486
13052TIP3   OH239100   1.481   1.973   3.472
13052TIP3    H139101   1.450   2.024   3.547
13052TIP3    H239102   1.405   1.921   3.445
13053TIP3   OH239103   4.929   7.092   3.582
13053TIP3    H139104   5.007   7.144   3.562
13053TIP3    H239105   4.865   7.156   3.614
13054TIP3   OH239106   1.951   1.739   0.103
13054TIP3    H139107   1.914   1.804   0.043
13054TIP3    H239108   1.877   1.682   0.125
13055TIP3   OH239109   1.493   0.825   1.868
13055TIP3    H139110   1.542   0.885   1.924
13055TIP3    H239111   1.528   0.739   1.889
13056TIP3   OH239112   7.475   1.033   0.595
13056TIP3    H139113   7.514   1.106   0.645
13056TIP3    H239114   7.541   0.964   0.600
13057TIP3   OH239115   1.655   6.500   6.577
13057TIP3    H139116   1.588   6.499   6.508
13057TIP3    H239117   1.607   6.476   6.656
13058TIP3   OH239118   7.139   3.502   4.002
13058TIP3    H139119   7.222   3.469   4.035
13058TIP3    H239120   7.160   3.588   3.965
13059TIP3   OH239121   6.524   0.581   4.851
13059TIP3    H139122   6.438   0.567   4.813
13059TIP3    H239123   6.524   0.527   4.931
13060TIP3   OH239124   6.325   0.155   1.535
13060TIP3    H139125   6.404   0.166   1.588
13060TIP3    H239126   6.357   0.145   1.446
13061TIP3   OH239127   8.224   3.329   5.296
13061TIP3    H139128   8.306   3.332   5.344
13061TIP3    H239129   8.214   3.238   5.269
13062TIP3   OH239130   6.783   4.962   0.174
13062TIP3    H139131   6.806   4.965   0.267
13062TIP3    H239132   6.831   5.035   0.135
13063TIP3   OH239133   2.386   2.000   4.157
13063TIP3    H139134   2.387   2.064   4.086
13063TIP3    H239135   2.469   1.954   4.149
13064TIP3   OH239136   1.811   2.044   5.904
13064TIP3    H139137   1.854   1.960   5.915
13064TIP3    H239138   1.722   2.022   5.877
13065TIP3   OH239139   6.714   0.480   5.087
13065TIP3    H139140   6.747   0.560   5.046
13065TIP3    H239141   6.728   0.493   5.181
13066TIP3   OH239142   6.682   7.045   0.042
13066TIP3    H139143   6.629   6.981  -0.006
13066TIP3    H239144   6.772   7.027   0.014
13067TIP3   OH239145   4.560   3.863   5.177
13067TIP3    H139146   4.574   3.931   5.243
13067TIP3    H239147   4.564   3.781   5.227
13068TIP3   OH239148   0.796   7.456   3.741
13068TIP3    H139149   0.887   7.446   3.713
13068TIP3    H239150   0.791   7.409   3.824
13069TIP3   OH239151   2.361   0.406   0.469
13069TIP3    H139152   2.403   0.492   0.464
13069TIP3    H239153   2.425   0.352   0.515
13070TIP3   OH239154   0.229   6.672   4.934
13070TIP3    H139155   0.153   6.728   4.953
13070TIP3    H239156   0.249   6.690   4.842
13071TIP3   OH239157   2.595   5.193   0.538
13071TIP3    H139158   2.511   5.160   0.571
13071TIP3    H239159   2.624   5.126   0.477
13072TIP3   OH239160   5.438   1.369   5.185
13072TIP3    H139161   5.480   1.305   5.243
13072TIP3    H239162   5.353   1.387   5.226
13073TIP3   OH239163   6.120   7.409   6.440
13073TIP3    H139164   6.124   7.505   6.438
13073TIP3    H239165   6.207   7.381   6.411
13074TIP3   OH239166   6.364   6.947   0.499
13074TIP3    H139167   6.296   7.000   0.458
13074TIP3    H239168   6.437   6.949   0.437
13075TIP3   OH239169   6.803   6.954   5.196
13075TIP3    H139170   6.817   6.893   5.124
13075TIP3    H239171   6.883   6.948   5.248
13076TIP3   OH239172   0.229   6.332   1.664
13076TIP3    H139173   0.226   6.365   1.754
13076TIP3    H239174   0.225   6.236   1.673
13077TIP3   OH239175   3.062   3.628   2.868
13077TIP3    H139176   2.980   3.599   2.907
13077TIP3    H239177   3.096   3.551   2.823
13078TIP3   OH239178   2.449   4.195   6.596
13078TIP3    H139179   2.396   4.141   6.537
13078TIP3    H239180   2.522   4.224   6.543
13079TIP3   OH239181   4.015   7.638   4.344
13079TIP3    H139182   3.973   7.630   4.259
13079TIP3    H239183   4.009   7.731   4.366
13080TIP3   OH239184   0.967   5.512   1.222
13080TIP3    H139185   0.990   5.578   1.288
13080TIP3    H239186   0.969   5.429   1.271
13081TIP3   OH239187   4.781   0.153   0.826
13081TIP3    H139188   4.763   0.184   0.915
13081TIP3    H239189   4.701   0.173   0.777
13082TIP3   OH239190   5.295   5.268   3.894
13082TIP3    H139191   5.343   5.284   3.814
13082TIP3    H239192   5.219   5.326   3.889
13083TIP3   OH239193   6.565   3.390   2.849
13083TIP3    H139194   6.552   3.484   2.866
13083TIP3    H239195   6.622   3.360   2.920
13084TIP3   OH239196   4.304   0.263   0.115
13084TIP3    H139197   4.286   0.234   0.026
13084TIP3    H239198   4.387   0.221   0.138
13085TIP3   OH239199   7.699   4.323   2.436
13085TIP3    H139200   7.695   4.266   2.513
13085TIP3    H239201   7.758   4.394   2.460
13086TIP3   OH239202   2.845   6.379   3.989
13086TIP3    H139203   2.843   6.387   4.084
13086TIP3    H239204   2.760   6.340   3.966
13087TIP3   OH239205   2.769   6.373   0.934
13087TIP3    H139206   2.765   6.443   0.869
13087TIP3    H239207   2.862   6.359   0.949
13088TIP3   OH239208   1.955   2.565   0.107
13088TIP3    H139209   2.002   2.501   0.161
13088TIP3    H239210   1.961   2.647   0.157
13089TIP3   OH239211   3.521   6.215   6.575
13089TIP3    H139212   3.577   6.160   6.521
13089TIP3    H239213   3.432   6.192   6.549
13090TIP3   OH239214   2.776   5.694   6.651
13090TIP3    H139215   2.820   5.677   6.567
13090TIP3    H239216   2.812   5.629   6.711
13091TIP3   OH239217   6.235   1.416   2.765
13091TIP3    H139218   6.213   1.483   2.701
13091TIP3    H239219   6.178   1.342   2.743
13092TIP3   OH239220   3.576   3.927   3.107
13092TIP3    H139221   3.575   3.852   3.166
13092TIP3    H239222   3.497   3.977   3.129
13093TIP3   OH239223   5.532   5.453   2.419
13093TIP3    H139224   5.440   5.427   2.432
13093TIP3    H239225   5.526   5.541   2.382
13094TIP3   OH239226   1.968   1.713   6.133
13094TIP3    H139227   2.045   1.662   6.158
13094TIP3    H239228   1.916   1.719   6.213
13095TIP3   OH239229   3.592   1.978   1.746
13095TIP3    H139230   3.527   2.007   1.683
13095TIP3    H239231   3.676   2.008   1.710
13096TIP3   OH239232   6.469   6.062   4.892
13096TIP3    H139233   6.561   6.055   4.917
13096TIP3    H239234   6.470   6.073   4.797
13097TIP3   OH239235   7.100   6.346   0.217
13097TIP3    H139236   7.117   6.371   0.308
13097TIP3    H239237   7.127   6.422   0.165
13098TIP3   OH239238   3.480   3.472   4.131
13098TIP3    H139239   3.525   3.493   4.212
13098TIP3    H239240   3.504   3.381   4.113
13099TIP3   OH239241   2.221   0.050   6.102
13099TIP3    H139242   2.260   0.125   6.147
13099TIP3    H239243   2.190  -0.007   6.172
13100TIP3   OH239244   7.516   4.537   6.655
13100TIP3    H139245   7.585   4.586   6.612
13100TIP3    H239246   7.441   4.596   6.656
13101TIP3   OH239247   0.331   4.772   0.188
13101TIP3    H139248   0.337   4.833   0.261
13101TIP3    H239249   0.326   4.827   0.110
13102TIP3   OH239250   0.268   4.523   0.152
13102TIP3    H139251   0.352   4.504   0.111
13102TIP3    H239252   0.273   4.616   0.174
13103TIP3   OH239253   1.444   3.289   2.124
13103TIP3    H139254   1.369   3.230   2.131
13103TIP3    H239255   1.416   3.357   2.062
13104TIP3   OH239256   7.380   2.479   2.063
13104TIP3    H139257   7.426   2.441   1.988
13104TIP3    H239258   7.448   2.485   2.131
13105TIP3   OH239259   2.628   1.228   0.596
13105TIP3    H139260   2.607   1.316   0.627
13105TIP3    H239261   2.626   1.234   0.501
13106TIP3   OH239262   6.997   3.061   6.411
13106TIP3    H139263   7.063   3.025   6.470
13106TIP3    H239264   6.914   3.042   6.453
13107TIP3   OH239265   2.734   1.812   4.795
13107TIP3    H139266   2.661   1.786   4.739
13107TIP3    H239267   2.808   1.759   4.765
13108TIP3   OH239268   4.744   0.924   3.384
13108TIP3    H139269   4.776   0.991   3.444
13108TIP3    H239270   4.731   0.969   3.301
13109TIP3   OH239271   3.077   1.762   1.956
13109TIP3    H139272   3.010   1.765   2.024
13109TIP3    H239273   3.154   1.725   2.000
13110TIP3   OH239274   1.563   0.959   2.287
13110TIP3    H139275   1.591   0.957   2.196
13110TIP3    H239276   1.476   0.918   2.286
13111TIP3   OH239277   6.506   3.514   4.065
13111TIP3    H139278   6.418   3.538   4.094
13111TIP3    H239279   6.515   3.552   3.978
13112TIP3   OH239280   7.410   3.417   4.097
13112TIP3    H139281   7.464   3.408   4.176
13112TIP3    H239282   7.473   3.422   4.025
13113TIP3   OH239283   5.004   1.403   5.533
13113TIP3    H139284   4.994   1.496   5.550
13113TIP3    H239285   5.089   1.396   5.489
13114TIP3   OH239286   7.473   2.664   0.600
13114TIP3    H139287   7.498   2.747   0.641
13114TIP3    H239288   7.534   2.600   0.637
13115TIP3   OH239289   0.363   4.136   6.329
13115TIP3    H139290   0.387   4.050   6.363
13115TIP3    H239291   0.382   4.197   6.400
13116TIP3   OH239292   2.848   4.147   4.038
13116TIP3    H139293   2.834   4.228   4.087
13116TIP3    H239294   2.776   4.090   4.065
13117TIP3   OH239295   6.449   6.013   3.446
13117TIP3    H139296   6.528   5.966   3.416
13117TIP3    H239297   6.430   6.074   3.375
13118TIP3   OH239298   1.943   3.574   0.098
13118TIP3    H139299   1.999   3.535   0.164
13118TIP3    H239300   1.888   3.636   0.146
13119TIP3   OH239301   8.125   1.357   2.639
13119TIP3    H139302   8.182   1.360   2.562
13119TIP3    H239303   8.087   1.269   2.637
13120TIP3   OH239304   4.809   2.758   5.744
13120TIP3    H139305   4.757   2.743   5.666
13120TIP3    H239306   4.779   2.691   5.806
13121TIP3   OH239307   1.669   3.644   6.360
13121TIP3    H139308   1.644   3.723   6.313
13121TIP3    H239309   1.671   3.670   6.452
13122TIP3   OH239310   4.953   0.170   2.679
13122TIP3    H139311   4.971   0.238   2.613
13122TIP3    H239312   4.965   0.215   2.763
13123TIP3   OH239313   6.302   6.673   3.926
13123TIP3    H139314   6.339   6.761   3.931
13123TIP3    H239315   6.367   6.623   3.876
13124TIP3   OH239316   3.929   2.192   4.636
13124TIP3    H139317   3.991   2.199   4.564
13124TIP3    H239318   3.853   2.149   4.598
13125TIP3   OH239319   1.048  -0.005   1.442
13125TIP3    H139320   1.082   0.053   1.510
13125TIP3    H239321   0.973  -0.049   1.482
13126TIP3   OH239322   4.252   2.252   3.779
13126TIP3    H139323   4.160   2.247   3.754
13126TIP3    H239324   4.277   2.343   3.762
13127TIP3   OH239325   7.518   3.684   5.800
13127TIP3    H139326   7.573   3.704   5.724
13127TIP3    H239327   7.460   3.614   5.770
13128TIP3   OH239328   6.297   0.002   6.538
13128TIP3    H139329   6.344  -0.041   6.610
13128TIP3    H239330   6.219  -0.052   6.525
13129TIP3   OH239331   3.800   5.242   4.578
13129TIP3    H139332   3.748   5.238   4.659
13129TIP3    H239333   3.782   5.330   4.543
13130TIP3   OH239334   3.010   7.542   0.069
13130TIP3    H139335   3.054   7.482   0.129
13130TIP3    H239336   2.986   7.617   0.123
13131TIP3   OH239337   1.685   2.989   0.427
13131TIP3    H139338   1.700   3.019   0.337
13131TIP3    H239339   1.773   2.977   0.463
13132TIP3   OH239340   6.101   2.985   0.671
13132TIP3    H139341   6.104   2.889   0.671
13132TIP3    H239342   6.177   3.011   0.723
13133TIP3   OH239343   7.811   6.877   5.140
13133TIP3    H139344   7.821   6.870   5.235
13133TIP3    H239345   7.770   6.962   5.126
13134TIP3   OH239346   1.004   5.494   3.367
13134TIP3    H139347   0.971   5.461   3.284
13134TIP3    H239348   0.925   5.517   3.417
13135TIP3   OH239349   4.845   3.840   3.464
13135TIP3    H139350   4.898   3.879   3.533
13135TIP3    H239351   4.807   3.762   3.505
13136TIP3   OH239352   6.278   3.408   1.970
13136TIP3    H139353   6.359   3.413   1.920
13136TIP3    H239354   6.307   3.401   2.061
13137TIP3   OH239355   8.098   4.725   2.842
13137TIP3    H139356   8.077   4.632   2.852
13137TIP3    H239357   8.104   4.738   2.747
13138TIP3   OH239358   2.392   7.200   3.763
13138TIP3    H139359   2.377   7.218   3.856
13138TIP3    H239360   2.379   7.285   3.720
13139TIP3   OH239361   5.921   5.444   2.021
13139TIP3    H139362   5.982   5.514   1.996
13139TIP3    H239363   5.848   5.491   2.062
13140TIP3   OH239364   3.017   3.606   3.502
13140TIP3    H139365   3.010   3.571   3.591
13140TIP3    H239366   3.085   3.552   3.461
13141TIP3   OH239367   6.561   4.653   5.624
13141TIP3    H139368   6.517   4.568   5.630
13141TIP3    H239369   6.644   4.640   5.671
13142TIP3   OH239370   0.215   0.466   3.723
13142TIP3    H139371   0.249   0.396   3.667
13142TIP3    H239372   0.175   0.528   3.662
13143TIP3   OH239373   4.521   0.350   5.048
13143TIP3    H139374   4.532   0.407   5.125
13143TIP3    H239375   4.457   0.284   5.077
13144TIP3   OH239376   2.240   5.684   4.729
13144TIP3    H139377   2.284   5.762   4.695
13144TIP3    H239378   2.293   5.657   4.803
13145TIP3   OH239379   6.726   5.640   2.810
13145TIP3    H139380   6.690   5.559   2.775
13145TIP3    H239381   6.796   5.613   2.869
13146TIP3   OH239382   0.488   6.055   2.293
13146TIP3    H139383   0.532   6.039   2.209
13146TIP3    H239384   0.400   6.084   2.269
13147TIP3   OH239385   7.472   1.398   0.606
13147TIP3    H139386   7.411   1.468   0.626
13147TIP3    H239387   7.421   1.336   0.553
13148TIP3   OH239388   0.655   7.533   3.479
13148TIP3    H139389   0.689   7.516   3.566
13148TIP3    H239390   0.706   7.608   3.447
13149TIP3   OH239391   5.253   4.951   3.123
13149TIP3    H139392   5.172   4.905   3.100
13149TIP3    H239393   5.316   4.881   3.139
13150TIP3   OH239394   5.960   0.657   6.392
13150TIP3    H139395   5.958   0.576   6.443
13150TIP3    H239396   5.898   0.716   6.436
13151TIP3   OH239397   1.929   4.410   3.033
13151TIP3    H139398   1.974   4.492   3.053
13151TIP3    H239399   1.836   4.431   3.042
13152TIP3   OH239400   3.662   5.935   4.698
13152TIP3    H139401   3.735   5.984   4.661
13152TIP3    H239402   3.691   5.910   4.785
13153TIP3   OH239403   1.089   1.333   2.672
13153TIP3    H139404   1.034   1.358   2.746
13153TIP3    H239405   1.148   1.407   2.661
13154TIP3   OH239406   0.096   1.646   0.546
13154TIP3    H139407   0.082   1.727   0.596
13154TIP3    H239408   0.008   1.619   0.520
13155TIP3   OH239409   7.443   6.134   0.280
13155TIP3    H139410   7.413   6.148   0.370
13155TIP3    H239411   7.384   6.067   0.245
13156TIP3   OH239412   3.266   2.370   6.213
13156TIP3    H139413   3.174   2.342   6.208
13156TIP3    H239414   3.283   2.408   6.127
13157TIP3   OH239415   1.911   0.398   5.714
13157TIP3    H139416   1.893   0.314   5.757
13157TIP3    H239417   1.896   0.381   5.621
13158TIP3   OH239418   8.256   5.570   0.485
13158TIP3    H139419   8.193   5.561   0.556
13158TIP3    H239420   8.235   5.499   0.425
13159TIP3   OH239421   0.342   2.701   4.950
13159TIP3    H139422   0.425   2.657   4.965
13159TIP3    H239423   0.338   2.769   5.016
13160TIP3   OH239424   3.668   3.945   6.190
13160TIP3    H139425   3.591   3.960   6.134
13160TIP3    H239426   3.684   4.029   6.231
13161TIP3   OH239427   2.290   3.654   2.151
13161TIP3    H139428   2.277   3.675   2.244
13161TIP3    H239429   2.324   3.565   2.151
13162TIP3   OH239430   5.427   5.313   2.725
13162TIP3    H139431   5.423   5.375   2.798
13162TIP3    H239432   5.514   5.327   2.687
13163TIP3   OH239433   7.862   1.634   5.943
13163TIP3    H139434   7.885   1.586   6.023
13163TIP3    H239435   7.837   1.721   5.974
13164TIP3   OH239436   2.699   2.653   3.436
13164TIP3    H139437   2.717   2.664   3.529
13164TIP3    H239438   2.638   2.580   3.432
13165TIP3   OH239439   8.016   1.805   5.248
13165TIP3    H139440   8.058   1.729   5.206
13165TIP3    H239441   7.948   1.832   5.186
13166TIP3   OH239442   3.915   5.475   0.306
13166TIP3    H139443   3.917   5.389   0.348
13166TIP3    H239444   3.824   5.503   0.312
13167TIP3   OH239445   4.690   7.315   2.134
13167TIP3    H139446   4.652   7.237   2.095
13167TIP3    H239447   4.636   7.387   2.102
13168TIP3   OH239448   3.996   6.391   2.045
13168TIP3    H139449   3.946   6.467   2.016
13168TIP3    H239450   4.080   6.427   2.073
13169TIP3   OH239451   1.057   5.720   1.452
13169TIP3    H139452   0.973   5.692   1.489
13169TIP3    H239453   1.116   5.724   1.528
13170TIP3   OH239454   2.005   7.020   4.763
13170TIP3    H139455   2.078   7.005   4.702
13170TIP3    H239456   1.961   6.935   4.769
13171TIP3   OH239457   7.174   4.754   3.783
13171TIP3    H139458   7.141   4.793   3.702
13171TIP3    H239459   7.259   4.717   3.759
13172TIP3   OH239460   6.102   2.546   6.263
13172TIP3    H139461   6.171   2.607   6.237
13172TIP3    H239462   6.021   2.590   6.240
13173TIP3   OH239463   1.917   6.209   6.208
13173TIP3    H139464   1.898   6.290   6.161
13173TIP3    H239465   1.875   6.141   6.155
13174TIP3   OH239466   6.747   6.234   0.614
13174TIP3    H139467   6.735   6.192   0.699
13174TIP3    H239468   6.664   6.222   0.569
13175TIP3   OH239469   3.007   4.866   5.207
13175TIP3    H139470   3.055   4.924   5.148
13175TIP3    H239471   3.073   4.805   5.240
13176TIP3   OH239472   0.652   4.136   5.110
13176TIP3    H139473   0.673   4.062   5.167
13176TIP3    H239474   0.738   4.172   5.085
13177TIP3   OH239475   0.807   0.943   2.099
13177TIP3    H139476   0.894   0.920   2.065
13177TIP3    H239477   0.789   0.878   2.166
13178TIP3   OH239478   1.741   0.494   0.545
13178TIP3    H139479   1.831   0.486   0.514
13178TIP3    H239480   1.725   0.415   0.595
13179TIP3   OH239481   4.154   6.988   6.035
13179TIP3    H139482   4.147   6.956   6.125
13179TIP3    H239483   4.228   7.048   6.036
13180TIP3   OH239484   5.287   0.835   3.833
13180TIP3    H139485   5.317   0.897   3.767
13180TIP3    H239486   5.312   0.874   3.916
13181TIP3   OH239487   5.062   5.899   3.611
13181TIP3    H139488   5.004   5.834   3.651
13181TIP3    H239489   5.102   5.852   3.537
13182TIP3   OH239490   5.398   2.917   4.175
13182TIP3    H139491   5.492   2.919   4.157
13182TIP3    H239492   5.374   3.009   4.187
13183TIP3   OH239493   0.784   7.120   5.074
13183TIP3    H139494   0.720   7.085   5.136
13183TIP3    H239495   0.859   7.060   5.081
13184TIP3   OH239496   0.825   4.740   3.306
13184TIP3    H139497   0.774   4.788   3.372
13184TIP3    H239498   0.860   4.664   3.353
13185TIP3   OH239499   3.142   3.283   6.611
13185TIP3    H139500   3.193   3.353   6.571
13185TIP3    H239501   3.051   3.306   6.591
13186TIP3   OH239502   3.569   0.751   5.706
13186TIP3    H139503   3.628   0.801   5.763
13186TIP3    H239504   3.550   0.671   5.755
13187TIP3   OH239505   6.706   4.414   6.399
13187TIP3    H139506   6.791   4.386   6.366
13187TIP3    H239507   6.643   4.365   6.345
13188TIP3   OH239508   3.633   4.285   0.869
13188TIP3    H139509   3.541   4.270   0.891
13188TIP3    H239510   3.657   4.364   0.918
13189TIP3   OH239511   4.309   1.585   5.637
13189TIP3    H139512   4.253   1.606   5.562
13189TIP3    H239513   4.289   1.494   5.658
13190TIP3   OH239514   2.467   5.728   3.368
13190TIP3    H139515   2.562   5.732   3.382
13190TIP3    H239516   2.455   5.750   3.276
13191TIP3   OH239517   6.400   3.884   2.851
13191TIP3    H139518   6.306   3.900   2.859
13191TIP3    H239519   6.417   3.887   2.757
13192TIP3   OH239520   1.004   1.737   4.241
13192TIP3    H139521   1.091   1.714   4.273
13192TIP3    H239522   1.005   1.712   4.149
13193TIP3   OH239523   3.965   5.200   0.366
13193TIP3    H139524   3.961   5.193   0.271
13193TIP3    H239525   3.925   5.119   0.398
13194TIP3   OH239526   4.335   2.730   0.888
13194TIP3    H139527   4.409   2.771   0.932
13194TIP3    H239528   4.299   2.798   0.831
13195TIP3   OH239529   5.804   1.173   0.209
13195TIP3    H139530   5.845   1.189   0.294
13195TIP3    H239531   5.874   1.186   0.146
13196TIP3   OH239532   0.942   2.265   6.178
13196TIP3    H139533   0.941   2.199   6.109
13196TIP3    H239534   0.898   2.223   6.252
13197TIP3   OH239535   7.422   2.325   0.126
13197TIP3    H139536   7.407   2.322   0.031
13197TIP3    H239537   7.468   2.408   0.140
13198TIP3   OH239538   5.930   3.138   5.442
13198TIP3    H139539   5.840   3.165   5.421
13198TIP3    H239540   5.965   3.210   5.494
13199TIP3   OH239541   4.128   6.718   1.099
13199TIP3    H139542   4.099   6.746   1.012
13199TIP3    H239543   4.209   6.766   1.113
13200TIP3   OH239544   7.136   6.720   2.891
13200TIP3    H139545   7.220   6.752   2.858
13200TIP3    H239546   7.093   6.684   2.814
13201TIP3   OH239547   0.476   0.919   5.202
13201TIP3    H139548   0.529   0.873   5.137
13201TIP3    H239549   0.405   0.858   5.223
13202TIP3   OH239550   5.546   1.381   5.612
13202TIP3    H139551   5.597   1.357   5.690
13202TIP3    H239552   5.539   1.300   5.562
13203TIP3   OH239553   3.906   0.635   0.298
13203TIP3    H139554   3.861   0.565   0.346
13203TIP3    H239555   3.992   0.598   0.278
13204TIP3   OH239556   2.120   2.940   0.181
13204TIP3    H139557   2.090   2.932   0.090
13204TIP3    H239558   2.045   2.913   0.234
13205TIP3   OH239559   4.137   3.746   0.576
13205TIP3    H139560   4.215   3.749   0.520
13205TIP3    H239561   4.147   3.665   0.627
13206TIP3   OH239562   2.655   1.914   4.055
13206TIP3    H139563   2.689   1.932   3.967
13206TIP3    H239564   2.682   1.824   4.073
13207TIP3   OH239565   4.895   6.692   3.265
13207TIP3    H139566   4.861   6.613   3.307
13207TIP3    H239567   4.978   6.665   3.227
13208TIP3   OH239568   6.323   7.248   2.127
13208TIP3    H139569   6.358   7.231   2.040
13208TIP3    H239570   6.389   7.213   2.187
13209TIP3   OH239571   3.604   3.980   0.293
13209TIP3    H139572   3.555   3.949   0.369
13209TIP3    H239573   3.536   4.006   0.230
13210TIP3   OH239574   2.050   7.802   1.770
13210TIP3    H139575   2.026   7.779   1.860
13210TIP3    H239576   2.126   7.860   1.779
13211TIP3   OH239577   2.189   0.340   3.150
13211TIP3    H139578   2.166   0.269   3.090
13211TIP3    H239579   2.160   0.309   3.236
13212TIP3   OH239580   5.046   1.397   0.123
13212TIP3    H139581   5.068   1.307   0.146
13212TIP3    H239582   4.965   1.415   0.170
13213TIP3   OH239583   6.977   4.108   4.469
13213TIP3    H139584   7.008   4.047   4.535
13213TIP3    H239585   7.037   4.182   4.474
13214TIP3   OH239586   4.747   4.786   2.395
13214TIP3    H139587   4.729   4.773   2.489
13214TIP3    H239588   4.680   4.735   2.351
13215TIP3   OH239589   3.806   4.968   3.383
13215TIP3    H139590   3.753   5.045   3.363
13215TIP3    H239591   3.894   4.989   3.351
13216TIP3   OH239592   6.068   7.672   4.851
13216TIP3    H139593   6.138   7.612   4.879
13216TIP3    H239594   6.068   7.741   4.918
13217TIP3   OH239595   1.921   5.172   0.886
13217TIP3    H139596   2.003   5.220   0.901
13217TIP3    H239597   1.917   5.110   0.959
13218TIP3   OH239598   7.230   4.364   4.255
13218TIP3    H139599   7.288   4.439   4.240
13218TIP3    H239600   7.267   4.321   4.332
13219TIP3   OH239601   5.559   0.976   3.670
13219TIP3    H139602   5.593   0.971   3.581
13219TIP3    H239603   5.477   1.025   3.663
13220TIP3   OH239604   7.325   5.485   2.859
13220TIP3    H139605   7.390   5.432   2.814
13220TIP3    H239606   7.262   5.422   2.893
13221TIP3   OH239607   1.956   5.760   1.249
13221TIP3    H139608   1.885   5.790   1.192
13221TIP3    H239609   2.009   5.704   1.192
13222TIP3   OH239610   7.818   2.909   4.243
13222TIP3    H139611   7.878   2.960   4.298
13222TIP3    H239612   7.871   2.835   4.213
13223TIP3   OH239613   5.075   2.791   6.177
13223TIP3    H139614   5.158   2.814   6.135
13223TIP3    H239615   5.078   2.696   6.187
13224TIP3   OH239616   7.173   2.186   4.845
13224TIP3    H139617   7.109   2.155   4.910
13224TIP3    H239618   7.236   2.236   4.897
13225TIP3   OH239619   5.272   1.412   5.709
13225TIP3    H139620   5.245   1.330   5.667
13225TIP3    H239621   5.363   1.425   5.680
13226TIP3   OH239622   2.692   7.172   3.184
13226TIP3    H139623   2.663   7.111   3.251
13226TIP3    H239624   2.627   7.242   3.185
13227TIP3   OH239625   4.223   1.269   5.695
13227TIP3    H139626   4.220   1.304   5.784
13227TIP3    H239627   4.150   1.207   5.692
13228TIP3   OH239628   7.502   7.248   0.641
13228TIP3    H139629   7.453   7.326   0.616
13228TIP3    H239630   7.475   7.181   0.577
13229TIP3   OH239631   3.522   3.413   2.631
13229TIP3    H139632   3.560   3.360   2.701
13229TIP3    H239633   3.551   3.370   2.551
13230TIP3   OH239634   4.503   6.166   3.494
13230TIP3    H139635   4.448   6.128   3.562
13230TIP3    H239636   4.495   6.261   3.506
13231TIP3   OH239637   3.012   1.388   0.584
13231TIP3    H139638   2.949   1.456   0.558
13231TIP3    H239639   2.974   1.307   0.552
13232TIP3   OH239640   6.766   5.784   0.364
13232TIP3    H139641   6.833   5.850   0.385
13232TIP3    H239642   6.726   5.763   0.449
13233TIP3   OH239643   6.916   6.285   4.764
13233TIP3    H139644   6.979   6.225   4.725
13233TIP3    H239645   6.839   6.279   4.708
13234TIP3   OH239646   0.389   7.472   2.486
13234TIP3    H139647   0.438   7.500   2.564
13234TIP3    H239648   0.451   7.485   2.414
13235TIP3   OH239649   3.540   0.560   0.070
13235TIP3    H139650   3.467   0.593   0.122
13235TIP3    H239651   3.525   0.466   0.065
13236TIP3   OH239652   7.739   6.289   0.423
13236TIP3    H139653   7.757   6.374   0.462
13236TIP3    H239654   7.675   6.248   0.482
13237TIP3   OH239655   5.222   0.882   4.722
13237TIP3    H139656   5.260   0.952   4.775
13237TIP3    H239657   5.230   0.915   4.632
13238TIP3   OH239658   2.989   4.346   2.775
13238TIP3    H139659   2.948   4.277   2.827
13238TIP3    H239660   3.010   4.303   2.692
13239TIP3   OH239661   1.259   5.415   5.333
13239TIP3    H139662   1.314   5.340   5.356
13239TIP3    H239663   1.233   5.452   5.418
13240TIP3   OH239664   7.753   2.847   5.793
13240TIP3    H139665   7.671   2.814   5.758
13240TIP3    H239666   7.813   2.847   5.717
13241TIP3   OH239667   3.397   3.831   3.531
13241TIP3    H139668   3.338   3.847   3.457
13241TIP3    H239669   3.465   3.774   3.496
13242TIP3   OH239670   6.246   4.984   6.204
13242TIP3    H139671   6.335   4.978   6.238
13242TIP3    H239672   6.254   4.966   6.111
13243TIP3   OH239673   7.382   1.220   4.411
13243TIP3    H139674   7.362   1.138   4.456
13243TIP3    H239675   7.305   1.237   4.356
13244TIP3   OH239676   6.231   0.899   5.937
13244TIP3    H139677   6.209   0.988   5.909
13244TIP3    H239678   6.306   0.875   5.883
13245TIP3   OH239679   0.487   2.476   1.240
13245TIP3    H139680   0.581   2.458   1.232
13245TIP3    H239681   0.471   2.546   1.177
13246TIP3   OH239682   4.622   3.257   2.694
13246TIP3    H139683   4.712   3.225   2.688
13246TIP3    H239684   4.626   3.332   2.753
13247TIP3   OH239685   4.766   6.508   1.479
13247TIP3    H139686   4.833   6.478   1.540
13247TIP3    H239687   4.789   6.469   1.395
13248TIP3   OH239688   1.056   1.158   1.716
13248TIP3    H139689   0.980   1.206   1.750
13248TIP3    H239690   1.076   1.202   1.633
13249TIP3   OH239691   7.631   0.484   2.864
13249TIP3    H139692   7.625   0.580   2.859
13249TIP3    H239693   7.574   0.453   2.794
13250TIP3   OH239694   6.261   7.257   4.011
13250TIP3    H139695   6.324   7.328   3.998
13250TIP3    H239696   6.181   7.287   3.967
13251TIP3   OH239697   1.855   6.453   6.099
13251TIP3    H139698   1.774   6.504   6.090
13251TIP3    H239699   1.925   6.518   6.097
13252TIP3   OH239700   7.345   2.326   6.741
13252TIP3    H139701   7.408   2.307   6.672
13252TIP3    H239702   7.260   2.320   6.698
13253TIP3   OH239703   2.575   0.113   3.173
13253TIP3    H139704   2.550   0.105   3.265
13253TIP3    H239705   2.500   0.077   3.125
13254TIP3   OH239706   6.773   6.446   2.750
13254TIP3    H139707   6.706   6.513   2.763
13254TIP3    H239708   6.725   6.371   2.715
13255TIP3   OH239709   3.822   7.509   6.365
13255TIP3    H139710   3.911   7.528   6.395
13255TIP3    H239711   3.771   7.500   6.445
13256TIP3   OH239712   4.269   6.192   1.273
13256TIP3    H139713   4.345   6.237   1.310
13256TIP3    H239714   4.305   6.112   1.234
13257TIP3   OH239715   2.414   4.548   2.869
13257TIP3    H139716   2.456   4.472   2.828
13257TIP3    H239717   2.486   4.597   2.908
13258TIP3   OH239718   4.129   7.686   0.067
13258TIP3    H139719   4.075   7.637   0.006
13258TIP3    H239720   4.068   7.711   0.137
13259TIP3   OH239721   0.321   7.411   6.465
13259TIP3    H139722   0.399   7.363   6.436
13259TIP3    H239723   0.265   7.344   6.504
13260TIP3   OH239724   7.855   7.346   4.464
13260TIP3    H139725   7.930   7.288   4.448
13260TIP3    H239726   7.884   7.431   4.429
13261TIP3   OH239727   7.930   3.521   6.025
13261TIP3    H139728   7.858   3.522   5.962
13261TIP3    H239729   7.999   3.470   5.983
13262TIP3   OH239730   1.086   4.953   2.547
13262TIP3    H139731   1.100   4.899   2.626
13262TIP3    H239732   1.114   4.897   2.475
13263TIP3   OH239733   6.203   3.456   3.218
13263TIP3    H139734   6.249   3.373   3.202
13263TIP3    H239735   6.180   3.453   3.311
13264TIP3   OH239736   6.234   2.212   1.124
13264TIP3    H139737   6.232   2.237   1.031
13264TIP3    H239738   6.167   2.144   1.132
13265TIP3   OH239739   4.335   0.927   6.400
13265TIP3    H139740   4.385   0.851   6.371
13265TIP3    H239741   4.334   0.986   6.325
13266TIP3   OH239742   5.424   0.541   6.467
13266TIP3    H139743   5.438   0.605   6.536
13266TIP3    H239744   5.510   0.499   6.455
13267TIP3   OH239745   7.345   4.455   5.462
13267TIP3    H139746   7.285   4.429   5.532
13267TIP3    H239747   7.324   4.547   5.445
13268TIP3   OH239748   0.238   3.108   2.438
13268TIP3    H139749   0.233   3.174   2.507
13268TIP3    H239750   0.172   3.135   2.374
13269TIP3   OH239751   7.143   2.969   6.627
13269TIP3    H139752   7.089   2.981   6.706
13269TIP3    H239753   7.148   2.874   6.617
13270TIP3   OH239754   4.863   2.930   5.397
13270TIP3    H139755   4.935   2.877   5.363
13270TIP3    H239756   4.904   2.989   5.460
13271TIP3   OH239757   2.166   6.018   4.452
13271TIP3    H139758   2.092   6.057   4.404
13271TIP3    H239759   2.136   6.013   4.543
13272TIP3   OH239760   1.521   2.405   6.592
13272TIP3    H139761   1.555   2.367   6.673
13272TIP3    H239762   1.460   2.473   6.621
13273TIP3   OH239763   1.979   1.039   0.632
13273TIP3    H139764   1.943   0.953   0.612
13273TIP3    H239765   2.000   1.077   0.546
13274TIP3   OH239766   2.281   3.013   4.460
13274TIP3    H139767   2.374   3.024   4.479
13274TIP3    H239768   2.250   3.100   4.436
13275TIP3   OH239769   0.921   5.160   4.729
13275TIP3    H139770   0.984   5.123   4.667
13275TIP3    H239771   0.973   5.185   4.805
13276TIP3   OH239772   7.734   4.826   2.792
13276TIP3    H139773   7.781   4.888   2.737
13276TIP3    H239774   7.802   4.784   2.845
13277TIP3   OH239775   7.007   0.268   4.975
13277TIP3    H139776   7.030   0.196   5.034
13277TIP3    H239777   6.913   0.256   4.959
13278TIP3   OH239778   1.355   3.284   6.650
13278TIP3    H139779   1.396   3.351   6.704
13278TIP3    H239780   1.420   3.265   6.582
13279TIP3   OH239781   6.796   6.962   0.948
13279TIP3    H139782   6.804   7.041   0.894
13279TIP3    H239783   6.702   6.952   0.961
13280TIP3   OH239784   7.594   3.283   1.981
13280TIP3    H139785   7.506   3.246   1.981
13280TIP3    H239786   7.603   3.323   2.067
13281TIP3   OH239787   7.838   0.498   1.459
13281TIP3    H139788   7.881   0.446   1.391
13281TIP3    H239789   7.902   0.503   1.530
13282TIP3   OH239790   6.295   5.624   6.682
13282TIP3    H139791   6.384   5.646   6.659
13282TIP3    H239792   6.304   5.569   6.761
13283TIP3   OH239793   3.445   1.611   5.324
13283TIP3    H139794   3.392   1.570   5.393
13283TIP3    H239795   3.431   1.705   5.337
13284TIP3   OH239796   7.254   6.214   2.909
13284TIP3    H139797   7.186   6.191   2.972
13284TIP3    H239798   7.213   6.202   2.823
13285TIP3   OH239799   3.329   7.563   3.936
13285TIP3    H139800   3.286   7.596   3.857
13285TIP3    H239801   3.281   7.603   4.008
13286TIP3   OH239802   8.015   4.548   1.286
13286TIP3    H139803   7.991   4.530   1.377
13286TIP3    H239804   8.103   4.585   1.291
13287TIP3   OH239805   0.595   6.593   0.393
13287TIP3    H139806   0.621   6.504   0.417
13287TIP3    H239807   0.506   6.584   0.359
13288TIP3   OH239808   7.986   7.602   6.680
13288TIP3    H139809   7.966   7.568   6.593
13288TIP3    H239810   8.079   7.582   6.693
13289TIP3   OH239811   6.838   1.483   5.196
13289TIP3    H139812   6.867   1.394   5.179
13289TIP3    H239813   6.802   1.481   5.284
13290TIP3   OH239814   8.128   7.064   2.552
13290TIP3    H139815   8.143   7.012   2.631
13290TIP3    H239816   8.215   7.097   2.528
13291TIP3   OH239817   2.091   6.524   1.255
13291TIP3    H139818   2.096   6.609   1.211
13291TIP3    H239819   2.138   6.537   1.337
13292TIP3   OH239820   3.453   4.577   4.705
13292TIP3    H139821   3.541   4.546   4.682
13292TIP3    H239822   3.467   4.661   4.747
13293TIP3   OH239823   2.794   1.200   5.079
13293TIP3    H139824   2.867   1.140   5.089
13293TIP3    H239825   2.833   1.278   5.038
13294TIP3   OH239826   5.099   1.151   5.704
13294TIP3    H139827   5.046   1.178   5.630
13294TIP3    H239828   5.101   1.227   5.762
13295TIP3   OH239829   4.635   4.295   3.135
13295TIP3    H139830   4.631   4.374   3.082
13295TIP3    H239831   4.569   4.309   3.204
13296TIP3   OH239832   5.256   5.963   2.844
13296TIP3    H139833   5.255   6.053   2.878
13296TIP3    H239834   5.164   5.943   2.829
13297TIP3   OH239835   0.542   4.245   5.791
13297TIP3    H139836   0.449   4.257   5.808
13297TIP3    H239837   0.553   4.151   5.778
13298TIP3   OH239838   7.315   6.690   2.001
13298TIP3    H139839   7.311   6.785   2.011
13298TIP3    H239840   7.225   6.661   2.011
13299TIP3   OH239841   1.350   4.224   2.127
13299TIP3    H139842   1.361   4.264   2.041
13299TIP3    H239843   1.430   4.171   2.139
13300TIP3   OH239844   6.366   5.171   1.017
13300TIP3    H139845   6.409   5.104   0.963
13300TIP3    H239846   6.434   5.235   1.034
13301TIP3   OH239847   0.757   6.717   4.684
13301TIP3    H139848   0.664   6.707   4.663
13301TIP3    H239849   0.781   6.635   4.726
13302TIP3   OH239850   5.142   7.250   3.458
13302TIP3    H139851   5.136   7.343   3.438
13302TIP3    H239852   5.106   7.207   3.380
13303TIP3   OH239853   3.298   6.378   0.365
13303TIP3    H139854   3.216   6.339   0.334
13303TIP3    H239855   3.275   6.469   0.383
13304TIP3   OH239856   2.270   3.981   0.735
13304TIP3    H139857   2.288   4.072   0.758
13304TIP3    H239858   2.352   3.935   0.752
13305TIP3   OH239859   5.100   3.783   6.392
13305TIP3    H139860   5.076   3.717   6.457
13305TIP3    H239861   5.035   3.852   6.403
13306TIP3   OH239862   0.883   6.851   6.647
13306TIP3    H139863   0.911   6.759   6.647
13306TIP3    H239864   0.912   6.885   6.562
13307TIP3   OH239865   7.541   4.928   0.237
13307TIP3    H139866   7.451   4.912   0.209
13307TIP3    H239867   7.591   4.931   0.156
13308TIP3   OH239868   1.605   6.536   5.750
13308TIP3    H139869   1.650   6.463   5.707
13308TIP3    H239870   1.636   6.533   5.841
13309TIP3   OH239871   0.773   7.219   2.536
13309TIP3    H139872   0.678   7.202   2.534
13309TIP3    H239873   0.780   7.315   2.542
13310TIP3   OH239874   3.408   3.465   1.728
13310TIP3    H139875   3.502   3.471   1.711
13310TIP3    H239876   3.400   3.468   1.823
13311TIP3   OH239877   7.346   7.676   4.009
13311TIP3    H139878   7.317   7.611   4.072
13311TIP3    H239879   7.432   7.704   4.040
13312TIP3   OH239880   6.248   5.229   5.902
13312TIP3    H139881   6.298   5.150   5.919
13312TIP3    H239882   6.248   5.277   5.985
13313TIP3   OH239883   2.584   5.750   3.668
13313TIP3    H139884   2.554   5.660   3.652
13313TIP3    H239885   2.627   5.775   3.586
13314TIP3   OH239886   3.022   1.389   4.865
13314TIP3    H139887   3.105   1.384   4.914
13314TIP3    H239888   3.040   1.343   4.783
13315TIP3   OH239889   8.289   7.705   6.459
13315TIP3    H139890   8.285   7.674   6.550
13315TIP3    H239891   8.342   7.639   6.414
13316TIP3   OH239892   0.256   0.132   2.173
13316TIP3    H139893   0.349   0.110   2.181
13316TIP3    H239894   0.256   0.223   2.141
13317TIP3   OH239895   2.551   3.281   2.474
13317TIP3    H139896   2.569   3.348   2.408
13317TIP3    H239897   2.515   3.330   2.548
13318TIP3   OH239898   4.271   4.499   6.238
13318TIP3    H139899   4.326   4.562   6.190
13318TIP3    H239900   4.333   4.449   6.292
13319TIP3   OH239901   3.495   1.178   4.389
13319TIP3    H139902   3.576   1.228   4.387
13319TIP3    H239903   3.520   1.094   4.427
13320TIP3   OH239904   7.024   6.514   6.232
13320TIP3    H139905   6.992   6.603   6.215
13320TIP3    H239906   7.009   6.467   6.149
13321TIP3   OH239907   6.458   6.229   2.056
13321TIP3    H139908   6.399   6.266   1.991
13321TIP3    H239909   6.536   6.285   2.052
13322TIP3   OH239910   3.699   7.266   2.994
13322TIP3    H139911   3.764   7.233   3.055
13322TIP3    H239912   3.675   7.189   2.942
13323TIP3   OH239913   1.413   2.138   1.356
13323TIP3    H139914   1.402   2.224   1.317
13323TIP3    H239915   1.381   2.077   1.289
13324TIP3   OH239916   1.749   4.544   0.705
13324TIP3    H139917   1.747   4.571   0.613
13324TIP3    H239918   1.756   4.625   0.754
13325TIP3   OH239919   0.367   6.004   1.547
13325TIP3    H139920   0.340   6.034   1.460
13325TIP3    H239921   0.462   5.990   1.539
13326TIP3   OH239922   3.110   7.021   3.119
13326TIP3    H139923   3.150   7.092   3.169
13326TIP3    H239924   3.044   7.065   3.064
13327TIP3   OH239925   6.728   7.444   0.674
13327TIP3    H139926   6.647   7.494   0.664
13327TIP3    H239927   6.779   7.466   0.596
13328TIP3   OH239928   1.543   0.935   2.721
13328TIP3    H139929   1.531   1.002   2.788
13328TIP3    H239930   1.632   0.949   2.689
13329TIP3   OH239931   5.221   2.061   5.309
13329TIP3    H139932   5.151   2.081   5.247
13329TIP3    H239933   5.253   2.147   5.337
13330TIP3   OH239934   5.240   6.022   3.262
13330TIP3    H139935   5.328   6.003   3.291
13330TIP3    H239936   5.200   6.069   3.335
13331TIP3   OH239937   7.053   7.138   3.705
13331TIP3    H139938   7.036   7.050   3.670
13331TIP3    H239939   7.136   7.163   3.665
13332TIP3   OH239940   0.287   0.177   0.672
13332TIP3    H139941   0.276   0.100   0.616
13332TIP3    H239942   0.221   0.239   0.642
13333TIP3   OH239943   3.686   0.292   4.285
13333TIP3    H139944   3.610   0.346   4.265
13333TIP3    H239945   3.650   0.205   4.301
13334TIP3   OH239946   0.641   4.793   0.466
13334TIP3    H139947   0.607   4.827   0.549
13334TIP3    H239948   0.575   4.732   0.435
13335TIP3   OH239949   1.756   1.376   2.329
13335TIP3    H139950   1.751   1.412   2.240
13335TIP3    H239951   1.847   1.387   2.354
13336TIP3   OH239952   7.077   5.007   1.131
13336TIP3    H139953   7.163   4.985   1.168
13336TIP3    H239954   7.073   5.103   1.134
13337TIP3   OH239955   2.516   3.467   1.152
13337TIP3    H139956   2.510   3.421   1.236
13337TIP3    H239957   2.561   3.549   1.173
13338TIP3   OH239958   4.485   1.958   0.181
13338TIP3    H139959   4.490   1.938   0.088
13338TIP3    H239960   4.539   2.036   0.193
13339TIP3   OH239961   3.617   1.458   5.199
13339TIP3    H139962   3.577   1.530   5.247
13339TIP3    H239963   3.587   1.379   5.246
13340TIP3   OH239964   2.099   0.287   6.322
13340TIP3    H139965   2.180   0.248   6.355
13340TIP3    H239966   2.030   0.228   6.350
13341TIP3   OH239967   4.077   6.546   3.138
13341TIP3    H139968   4.047   6.637   3.136
13341TIP3    H239969   4.149   6.543   3.075
13342TIP3   OH239970   2.681   1.540   1.532
13342TIP3    H139971   2.695   1.633   1.515
13342TIP3    H239972   2.739   1.521   1.606
13343TIP3   OH239973   2.423   5.220   2.321
13343TIP3    H139974   2.432   5.166   2.242
13343TIP3    H239975   2.509   5.215   2.364
13344TIP3   OH239976   2.256   0.087   0.169
13344TIP3    H139977   2.183   0.149   0.166
13344TIP3    H239978   2.260   0.050   0.081
13345TIP3   OH239979   1.782   2.789   3.640
13345TIP3    H139980   1.801   2.710   3.690
13345TIP3    H239981   1.866   2.834   3.632
13346TIP3   OH239982   3.302   5.145   5.764
13346TIP3    H139983   3.319   5.238   5.781
13346TIP3    H239984   3.211   5.143   5.733
13347TIP3   OH239985   4.606   1.389   0.744
13347TIP3    H139986   4.530   1.432   0.784
13347TIP3    H239987   4.668   1.461   0.728
13348TIP3   OH239988   6.638   1.185   2.611
13348TIP3    H139989   6.681   1.197   2.527
13348TIP3    H239990   6.602   1.097   2.608
13349TIP3   OH239991   7.919   4.109   1.218
13349TIP3    H139992   7.949   4.190   1.177
13349TIP3    H239993   7.865   4.067   1.151
13350TIP3   OH239994   6.477   0.973   1.230
13350TIP3    H139995   6.426   1.049   1.259
13350TIP3    H239996   6.555   0.973   1.286
13351TIP3   OH239997   3.068   6.184   1.759
13351TIP3    H139998   3.033   6.096   1.744
13351TIP3    H239999   3.144   6.170   1.815
13352TIP3   OH240000   4.896   7.788   0.070
13352TIP3    H140001   4.923   7.696   0.065
13352TIP3    H240002   4.938   7.820   0.150
13353TIP3   OH240003   3.158   7.329   2.910
13353TIP3    H140004   3.079   7.321   2.963
13353TIP3    H240005   3.147   7.264   2.840
13354TIP3   OH240006   7.544   6.706   6.220
13354TIP3    H140007   7.558   6.612   6.208
13354TIP3    H240008   7.454   6.714   6.250
13355TIP3   OH240009   3.931   1.222   0.642
13355TIP3    H140010   4.020   1.222   0.607
13355TIP3    H240011   3.880   1.172   0.579
13356TIP3   OH240012   7.549   1.311   2.606
13356TIP3    H140013   7.530   1.401   2.632
13356TIP3    H240014   7.643   1.309   2.594
13357TIP3   OH240015   1.567   2.887   1.500
13357TIP3    H140016   1.610   2.921   1.578
13357TIP3    H240017   1.521   2.962   1.463
13358TIP3   OH240018   6.112   1.402   5.315
13358TIP3    H140019   6.117   1.412   5.220
13358TIP3    H240020   6.138   1.487   5.350
13359TIP3   OH240021   3.408   2.702   5.414
13359TIP3    H140022   3.488   2.669   5.372
13359TIP3    H240023   3.421   2.796   5.420
13360TIP3   OH240024   4.777   5.196   6.059
13360TIP3    H140025   4.852   5.209   6.000
13360TIP3    H240026   4.808   5.229   6.143
13361TIP3   OH240027   1.504   7.487   2.127
13361TIP3    H140028   1.432   7.526   2.177
13361TIP3    H240029   1.527   7.408   2.175
13362TIP3   OH240030   4.788   2.869   2.234
13362TIP3    H140031   4.821   2.893   2.147
13362TIP3    H240032   4.694   2.887   2.230
13363TIP3   OH240033   6.135   2.775   0.459
13363TIP3    H140034   6.109   2.728   0.538
13363TIP3    H240035   6.141   2.707   0.392
13364TIP3   OH240036   6.512   3.317   2.585
13364TIP3    H140037   6.528   3.332   2.679
13364TIP3    H240038   6.577   3.251   2.560
13365TIP3   OH240039   1.939   2.555   4.691
13365TIP3    H140040   1.915   2.550   4.783
13365TIP3    H240041   1.870   2.608   4.651
13366TIP3   OH240042   6.374   7.560   4.704
13366TIP3    H140043   6.323   7.528   4.779
13366TIP3    H240044   6.461   7.525   4.717
13367TIP3   OH240045   1.541   3.653   3.349
13367TIP3    H140046   1.576   3.703   3.422
13367TIP3    H240047   1.568   3.563   3.367
13368TIP3   OH240048   2.560   3.803   4.954
13368TIP3    H140049   2.518   3.746   4.889
13368TIP3    H240050   2.486   3.842   5.002
13369TIP3   OH240051   1.333   5.343   4.377
13369TIP3    H140052   1.357   5.347   4.470
13369TIP3    H240053   1.356   5.255   4.350
13370TIP3   OH240054   4.442   2.498   0.815
13370TIP3    H140055   4.449   2.457   0.901
13370TIP3    H240056   4.383   2.572   0.828
13371TIP3   OH240057   5.663   3.167   5.571
13371TIP3    H140058   5.670   3.131   5.659
13371TIP3    H240059   5.632   3.257   5.584
13372TIP3   OH240060   2.889   3.914   2.841
13372TIP3    H140061   2.919   3.878   2.924
13372TIP3    H240062   2.967   3.915   2.786
13373TIP3   OH240063   1.716   6.208   1.144
13373TIP3    H140064   1.705   6.130   1.199
13373TIP3    H240065   1.781   6.182   1.079
13374TIP3   OH240066   7.026   7.464   6.376
13374TIP3    H140067   6.975   7.518   6.436
13374TIP3    H240068   6.961   7.420   6.322
13375TIP3   OH240069   6.195   3.501   0.095
13375TIP3    H140070   6.158   3.588   0.077
13375TIP3    H240071   6.158   3.446   0.025
13376TIP3   OH240072   7.868   2.666   0.762
13376TIP3    H140073   7.888   2.578   0.732
13376TIP3    H240074   7.882   2.721   0.685
13377TIP3   OH240075   1.485   2.279   3.118
13377TIP3    H140076   1.493   2.362   3.164
13377TIP3    H240077   1.570   2.237   3.127
13378TIP3   OH240078   3.364   4.618   5.025
13378TIP3    H140079   3.348   4.650   5.114
13378TIP3    H240080   3.457   4.595   5.023
13379TIP3   OH240081   0.224   6.811   3.014
13379TIP3    H140082   0.139   6.818   3.057
13379TIP3    H240083   0.228   6.721   2.983
13380TIP3   OH240084   4.302   4.630   2.302
13380TIP3    H140085   4.285   4.544   2.263
13380TIP3    H240086   4.220   4.678   2.289
13381TIP3   OH240087   5.628   4.578   0.995
13381TIP3    H140088   5.718   4.562   0.968
13381TIP3    H240089   5.607   4.665   0.959
13382TIP3   OH240090   3.694   5.790   0.521
13382TIP3    H140091   3.642   5.786   0.602
13382TIP3    H240092   3.778   5.750   0.544
13383TIP3   OH240093   1.671   1.177   5.861
13383TIP3    H140094   1.757   1.218   5.849
13383TIP3    H240095   1.690   1.083   5.866
13384TIP3   OH240096   6.252   4.207   5.639
13384TIP3    H140097   6.285   4.119   5.618
13384TIP3    H240098   6.269   4.216   5.733
13385TIP3   OH240099   2.688   2.088   1.086
13385TIP3    H140100   2.763   2.146   1.071
13385TIP3    H240101   2.668   2.052   1.000
13386TIP3   OH240102   2.830   7.135   0.408
13386TIP3    H140103   2.840   7.152   0.501
13386TIP3    H240104   2.796   7.045   0.403
13387TIP3   OH240105   6.406   5.010   0.399
13387TIP3    H140106   6.473   4.954   0.360
13387TIP3    H240107   6.369   4.957   0.470
13388TIP3   OH240108   1.435   0.227   5.687
13388TIP3    H140109   1.371   0.185   5.745
13388TIP3    H240110   1.493   0.155   5.660
13389TIP3   OH240111   1.538   2.471   3.287
13389TIP3    H140112   1.595   2.538   3.325
13389TIP3    H240113   1.449   2.500   3.308
13390TIP3   OH240114   2.724   3.644   3.341
13390TIP3    H140115   2.786   3.577   3.366
13390TIP3    H240116   2.749   3.721   3.393
13391TIP3   OH240117   8.217   6.680   2.323
13391TIP3    H140118   8.311   6.664   2.308
13391TIP3    H240119   8.195   6.624   2.396
13392TIP3   OH240120   3.050   6.390   4.391
13392TIP3    H140121   3.008   6.305   4.408
13392TIP3    H240122   3.118   6.370   4.327
13393TIP3   OH240123   1.596   5.741   5.322
13393TIP3    H140124   1.571   5.790   5.243
13393TIP3    H240125   1.582   5.802   5.394
13394TIP3   OH240126   6.896   1.205   5.172
13394TIP3    H140127   6.804   1.184   5.153
13394TIP3    H240128   6.916   1.157   5.252
13395TIP3   OH240129   6.068   7.754   1.854
13395TIP3    H140130   6.148   7.724   1.898
13395TIP3    H240131   5.997   7.722   1.908
13396TIP3   OH240132   6.447   4.516   2.176
13396TIP3    H140133   6.539   4.502   2.196
13396TIP3    H240134   6.408   4.549   2.257
13397TIP3   OH240135   6.322   2.191   1.608
13397TIP3    H140136   6.279   2.220   1.689
13397TIP3    H240137   6.254   2.198   1.541
13398TIP3   OH240138   7.922   6.738   1.069
13398TIP3    H140139   7.915   6.758   1.162
13398TIP3    H240140   7.857   6.794   1.028
13399TIP3   OH240141   5.808   0.463   3.661
13399TIP3    H140142   5.877   0.428   3.605
13399TIP3    H240143   5.818   0.418   3.744
13400TIP3   OH240144   6.329   3.227   4.644
13400TIP3    H140145   6.344   3.295   4.579
13400TIP3    H240146   6.388   3.156   4.620
13401TIP3   OH240147   7.973   1.620   2.641
13401TIP3    H140148   8.001   1.528   2.649
13401TIP3    H240149   7.905   1.630   2.707
13402TIP3   OH240150   6.622   7.209   3.976
13402TIP3    H140151   6.551   7.273   3.973
13402TIP3    H240152   6.607   7.160   4.057
13403TIP3   OH240153   4.650   6.880   1.095
13403TIP3    H140154   4.714   6.813   1.118
13403TIP3    H240155   4.666   6.899   1.002
13404TIP3   OH240156   4.438   6.325   3.922
13404TIP3    H140157   4.487   6.393   3.967
13404TIP3    H240158   4.370   6.372   3.873
13405TIP3   OH240159   6.704   4.804   0.944
13405TIP3    H140160   6.645   4.750   0.997
13405TIP3    H240161   6.749   4.859   1.007
13406TIP3   OH240162   5.280   5.351   2.484
13406TIP3    H140163   5.207   5.292   2.467
13406TIP3    H240164   5.318   5.320   2.566
13407TIP3   OH240165   7.641   4.783   4.103
13407TIP3    H140166   7.572   4.831   4.056
13407TIP3    H240167   7.666   4.841   4.175
13408TIP3   OH240168   1.633   4.850   3.076
13408TIP3    H140169   1.574   4.903   3.022
13408TIP3    H240170   1.581   4.774   3.101
13409TIP3   OH240171   4.191   7.306   2.560
13409TIP3    H140172   4.147   7.389   2.544
13409TIP3    H240173   4.206   7.270   2.473
13410TIP3   OH240174   7.393   0.540   6.759
13410TIP3    H140175   7.477   0.521   6.718
13410TIP3    H240176   7.357   0.612   6.708
13411TIP3   OH240177   4.648   5.061   0.139
13411TIP3    H140178   4.625   5.132   0.079
13411TIP3    H240179   4.670   4.988   0.081
13412TIP3   OH240180   4.662   5.654   1.347
13412TIP3    H140181   4.669   5.595   1.422
13412TIP3    H240182   4.728   5.623   1.285
13413TIP3   OH240183   2.696   2.426   1.245
13413TIP3    H140184   2.770   2.380   1.284
13413TIP3    H240185   2.621   2.399   1.299
13414TIP3   OH240186   0.704   4.166   0.287
13414TIP3    H140187   0.765   4.206   0.225
13414TIP3    H240188   0.619   4.167   0.242
13415TIP3   OH240189   1.887   7.775   2.091
13415TIP3    H140190   1.861   7.756   2.181
13415TIP3    H240191   1.978   7.746   2.085
13416TIP3   OH240192   6.721   0.845   2.453
13416TIP3    H140193   6.676   0.860   2.536
13416TIP3    H240194   6.814   0.845   2.476
13417TIP3   OH240195   6.049   5.866   2.297
13417TIP3    H140196   5.994   5.817   2.358
13417TIP3    H240197   6.078   5.801   2.234
13418TIP3   OH240198   1.658   1.453   3.919
13418TIP3    H140199   1.655   1.492   3.832
13418TIP3    H240200   1.661   1.528   3.979
13419TIP3   OH240201   2.213   2.115   0.262
13419TIP3    H140202   2.299   2.089   0.295
13419TIP3    H240203   2.158   2.037   0.273
13420TIP3   OH240204   2.305   7.073   1.029
13420TIP3    H140205   2.223   7.097   0.986
13420TIP3    H240206   2.352   7.156   1.039
13421TIP3   OH240207   3.626   6.694   2.125
13421TIP3    H140208   3.560   6.650   2.179
13421TIP3    H240209   3.662   6.762   2.182
13422TIP3   OH240210   4.820   5.386   1.150
13422TIP3    H140211   4.810   5.365   1.243
13422TIP3    H240212   4.743   5.347   1.108
13423TIP3   OH240213   7.554   3.707   6.200
13423TIP3    H140214   7.487   3.773   6.214
13423TIP3    H240215   7.608   3.710   6.279
13424TIP3   OH240216   4.850   3.771   5.191
13424TIP3    H140217   4.837   3.709   5.119
13424TIP3    H240218   4.840   3.718   5.270
13425TIP3   OH240219   3.298   5.670   1.872
13425TIP3    H140220   3.302   5.726   1.949
13425TIP3    H240221   3.389   5.659   1.845
13426TIP3   OH240222   0.957   7.504   0.861
13426TIP3    H140223   0.951   7.486   0.767
13426TIP3    H240224   1.023   7.573   0.868
13427TIP3   OH240225   1.240   3.030   4.040
13427TIP3    H140226   1.282   3.111   4.070
13427TIP3    H240227   1.158   3.060   4.000
13428TIP3   OH240228   0.985   2.699   0.087
13428TIP3    H140229   0.970   2.779   0.038
13428TIP3    H240230   1.076   2.676   0.069
13429TIP3   OH240231   4.590   6.136   3.763
13429TIP3    H140232   4.533   6.198   3.807
13429TIP3    H240233   4.567   6.144   3.670
13430TIP3   OH240234   1.062   4.828   3.167
13430TIP3    H140235   0.978   4.788   3.189
13430TIP3    H240236   1.115   4.755   3.134
13431TIP3   OH240237   5.464   0.170   0.496
13431TIP3    H140238   5.369   0.186   0.497
13431TIP3    H240239   5.472   0.075   0.483
13432TIP3   OH240240   4.247   6.427   4.746
13432TIP3    H140241   4.252   6.353   4.686
13432TIP3    H240242   4.335   6.435   4.782
13433TIP3   OH240243   4.077   0.007   1.350
13433TIP3    H140244   4.045  -0.031   1.268
13433TIP3    H240245   4.068   0.101   1.338
13434TIP3   OH240246   7.021   3.273   1.948
13434TIP3    H140247   7.010   3.183   1.977
13434TIP3    H240248   7.043   3.321   2.029
13435TIP3   OH240249   4.121   0.594   5.080
13435TIP3    H140250   4.140   0.673   5.029
13435TIP3    H240251   4.095   0.530   5.014
13436TIP3   OH240252   6.033   3.339   2.082
13436TIP3    H140253   6.106   3.327   2.021
13436TIP3    H240254   5.974   3.266   2.065
13437TIP3   OH240255   0.036   0.785   4.583
13437TIP3    H140256   0.101   0.770   4.652
13437TIP3    H240257   0.071   0.739   4.506
13438TIP3   OH240258   2.615   1.713   1.965
13438TIP3    H140259   2.680   1.650   1.934
13438TIP3    H240260   2.614   1.781   1.897
13439TIP3   OH240261   0.084   7.524   4.360
13439TIP3    H140262   0.152   7.591   4.369
13439TIP3    H240263   0.116   7.449   4.410
13440TIP3   OH240264   7.057   6.303   5.122
13440TIP3    H140265   7.141   6.271   5.087
13440TIP3    H240266   7.066   6.398   5.122
13441TIP3   OH240267   6.141   0.651   4.822
13441TIP3    H140268   6.204   0.722   4.811
13441TIP3    H240269   6.061   0.694   4.853
13442TIP3   OH240270   0.083   5.652   2.779
13442TIP3    H140271   0.020   5.693   2.839
13442TIP3    H240272   0.081   5.559   2.803
13443TIP3   OH240273   8.324   6.374   5.172
13443TIP3    H140274   8.346   6.451   5.224
13443TIP3    H240275   8.267   6.321   5.228
13444TIP3   OH240276   1.312   3.983   4.336
13444TIP3    H140277   1.258   4.022   4.404
13444TIP3    H240278   1.290   4.032   4.257
13445TIP3   OH240279   6.550   1.232   6.495
13445TIP3    H140280   6.496   1.155   6.513
13445TIP3    H240281   6.536   1.289   6.571
13446TIP3   OH240282   6.985   6.440   5.976
13446TIP3    H140283   6.965   6.387   5.899
13446TIP3    H240284   6.971   6.530   5.949
13447TIP3   OH240285   3.098   2.079   0.574
13447TIP3    H140286   3.126   2.153   0.627
13447TIP3    H240287   3.003   2.078   0.584
13448TIP3   OH240288   1.071   4.882   6.517
13448TIP3    H140289   1.035   4.947   6.458
13448TIP3    H240290   1.104   4.932   6.592
13449TIP3   OH240291   6.154   3.207   1.613
13449TIP3    H140292   6.221   3.275   1.607
13449TIP3    H240293   6.204   3.127   1.632
13450TIP3   OH240294   2.414   7.588   0.765
13450TIP3    H140295   2.455   7.611   0.849
13450TIP3    H240296   2.332   7.638   0.766
13451TIP3   OH240297   7.487   7.333   1.880
13451TIP3    H140298   7.495   7.384   1.961
13451TIP3    H240299   7.545   7.376   1.818
13452TIP3   OH240300   6.250   7.636   3.668
13452TIP3    H140301   6.338   7.666   3.690
13452TIP3    H240302   6.261   7.544   3.642
13453TIP3   OH240303   5.506   5.144   1.410
13453TIP3    H140304   5.526   5.067   1.462
13453TIP3    H240305   5.451   5.198   1.467
13454TIP3   OH240306   6.343   7.812   6.440
13454TIP3    H140307   6.276   7.757   6.400
13454TIP3    H240308   6.315   7.902   6.422
13455TIP3   OH240309   3.397   5.133   1.653
13455TIP3    H140310   3.346   5.150   1.732
13455TIP3    H240311   3.381   5.041   1.634
13456TIP3   OH240312   1.629   2.741   0.763
13456TIP3    H140313   1.652   2.808   0.828
13456TIP3    H240314   1.535   2.726   0.776
13457TIP3   OH240315   0.586   6.202   5.134
13457TIP3    H140316   0.628   6.281   5.098
13457TIP3    H240317   0.634   6.184   5.214
13458TIP3   OH240318   2.009   1.090   5.472
13458TIP3    H140319   2.005   1.185   5.479
13458TIP3    H240320   1.946   1.058   5.536
13459TIP3   OH240321   8.260   4.149   1.754
13459TIP3    H140322   8.176   4.163   1.796
13459TIP3    H240323   8.320   4.208   1.800
13460TIP3   OH240324   2.376   2.862   3.598
13460TIP3    H140325   2.460   2.849   3.642
13460TIP3    H240326   2.378   2.953   3.569
13461TIP3   OH240327   6.014   3.614   5.592
13461TIP3    H140328   6.042   3.696   5.552
13461TIP3    H240329   6.084   3.552   5.572
13462TIP3   OH240330   0.902   2.007   5.073
13462TIP3    H140331   0.883   2.032   4.983
13462TIP3    H240332   0.923   2.090   5.116
13463TIP3   OH240333   5.109   0.069   4.783
13463TIP3    H140334   5.098   0.071   4.878
13463TIP3    H240335   5.195   0.109   4.768
13464TIP3   OH240336   6.472   7.265   5.565
13464TIP3    H140337   6.506   7.281   5.653
13464TIP3    H240338   6.412   7.338   5.549
13465TIP3   OH240339   1.624   4.813   2.600
13465TIP3    H140340   1.574   4.732   2.587
13465TIP3    H240341   1.559   4.877   2.628
13466TIP3   OH240342   3.809   1.142   1.717
13466TIP3    H140343   3.847   1.065   1.674
13466TIP3    H240344   3.875   1.211   1.705
13467TIP3   OH240345   4.057   2.526   2.899
13467TIP3    H140346   4.038   2.619   2.904
13467TIP3    H240347   4.079   2.511   2.807
13468TIP3   OH240348   6.184   4.301   0.372
13468TIP3    H140349   6.280   4.299   0.381
13468TIP3    H240350   6.165   4.236   0.305
13469TIP3   OH240351   0.227   3.656   2.551
13469TIP3    H140352   0.275   3.622   2.627
13469TIP3    H240353   0.220   3.750   2.566
13470TIP3   OH240354   6.820   0.668   5.705
13470TIP3    H140355   6.743   0.725   5.703
13470TIP3    H240356   6.882   0.710   5.645
13471TIP3   OH240357   1.132   4.174   0.776
13471TIP3    H140358   1.189   4.106   0.812
13471TIP3    H240359   1.189   4.250   0.764
13472TIP3   OH240360   7.428   5.558   6.564
13472TIP3    H140361   7.432   5.653   6.575
13472TIP3    H240362   7.495   5.524   6.624
13473TIP3   OH240363   7.534   6.258   2.920
13473TIP3    H140364   7.592   6.184   2.903
13473TIP3    H240365   7.457   6.220   2.961
13474TIP3   OH240366   3.005   0.819   4.351
13474TIP3    H140367   2.944   0.781   4.288
13474TIP3    H240368   2.948   0.855   4.420
13475TIP3   OH240369   0.004   7.293   0.627
13475TIP3    H140370   0.068   7.242   0.676
13475TIP3    H240371   0.005   7.254   0.539
13476TIP3   OH240372   2.017   0.740   4.987
13476TIP3    H140373   1.927   0.714   4.971
13476TIP3    H240374   2.011   0.832   5.012
13477TIP3   OH240375   1.418   6.006   2.851
13477TIP3    H140376   1.405   6.099   2.835
13477TIP3    H240377   1.384   5.963   2.773
13478TIP3   OH240378   0.409   7.492   4.349
13478TIP3    H140379   0.385   7.426   4.414
13478TIP3    H240380   0.441   7.442   4.275
13479TIP3   OH240381   4.670   4.529   4.224
13479TIP3    H140382   4.741   4.575   4.178
13479TIP3    H240383   4.682   4.437   4.201
13480TIP3   OH240384   8.013   5.436   6.026
13480TIP3    H140385   7.974   5.372   6.085
13480TIP3    H240386   7.942   5.497   6.005
13481TIP3   OH240387   6.506   1.894   3.871
13481TIP3    H140388   6.431   1.938   3.832
13481TIP3    H240389   6.577   1.908   3.809
13482TIP3   OH240390   6.044   1.122   0.860
13482TIP3    H140391   5.995   1.039   0.865
13482TIP3    H240392   6.052   1.139   0.766
13483TIP3   OH240393   4.958   0.325   2.897
13483TIP3    H140394   4.986   0.412   2.871
13483TIP3    H240395   5.018   0.301   2.968
13484TIP3   OH240396   6.326   4.003   4.970
13484TIP3    H140397   6.233   4.024   4.968
13484TIP3    H240398   6.328   3.907   4.973
13485TIP3   OH240399   3.143   7.658   2.197
13485TIP3    H140400   3.147   7.706   2.279
13485TIP3    H240401   3.183   7.573   2.216
13486TIP3   OH240402   3.609   7.111   1.958
13486TIP3    H140403   3.638   7.119   2.049
13486TIP3    H240404   3.689   7.099   1.908
13487TIP3   OH240405   4.374   3.746   1.522
13487TIP3    H140406   4.437   3.817   1.536
13487TIP3    H240407   4.334   3.766   1.437
13488TIP3   OH240408   0.058   6.509   1.512
13488TIP3    H140409   0.126   6.442   1.521
13488TIP3    H240410   0.007   6.502   1.593
13489TIP3   OH240411   6.305   2.470   0.632
13489TIP3    H140412   6.236   2.536   0.639
13489TIP3    H240413   6.272   2.408   0.566
13490TIP3   OH240414   2.231   1.151   5.288
13490TIP3    H140415   2.300   1.156   5.221
13490TIP3    H240416   2.270   1.190   5.366
13491TIP3   OH240417   2.035   4.358   5.502
13491TIP3    H140418   1.995   4.272   5.510
13491TIP3    H240419   2.130   4.341   5.502
13492TIP3   OH240420   7.884   4.271   0.009
13492TIP3    H140421   7.956   4.326   0.041
13492TIP3    H240422   7.915   4.237  -0.075
13493TIP3   OH240423   3.274   7.155   2.370
13493TIP3    H140424   3.340   7.086   2.361
13493TIP3    H240425   3.209   7.135   2.303
13494TIP3   OH240426   5.220   5.738   1.473
13494TIP3    H140427   5.144   5.784   1.440
13494TIP3    H240428   5.274   5.806   1.513
13495TIP3   OH240429   3.525   2.984   0.623
13495TIP3    H140430   3.545   2.958   0.713
13495TIP3    H240431   3.457   2.923   0.594
13496TIP3   OH240432   1.552   3.781   4.817
13496TIP3    H140433   1.488   3.711   4.827
13496TIP3    H240434   1.512   3.842   4.754
13497TIP3   OH240435   3.927   0.549   5.652
13497TIP3    H140436   3.857   0.580   5.595
13497TIP3    H240437   4.006   0.557   5.599
13498TIP3   OH240438   5.656   0.933   4.654
13498TIP3    H140439   5.738   0.975   4.628
13498TIP3    H240440   5.630   0.881   4.578
13499TIP3   OH240441   3.678   4.394   0.479
13499TIP3    H140442   3.760   4.437   0.504
13499TIP3    H240443   3.681   4.309   0.524
13500TIP3   OH240444   7.809   0.757   3.063
13500TIP3    H140445   7.734   0.755   3.003
13500TIP3    H240446   7.775   0.797   3.143
13501TIP3   OH240447   6.946   4.400   6.716
13501TIP3    H140448   7.029   4.370   6.752
13501TIP3    H240449   6.945   4.366   6.626
13502TIP3   OH240450   4.762   3.727   2.888
13502TIP3    H140451   4.823   3.708   2.959
13502TIP3    H240452   4.811   3.783   2.828
13503TIP3   OH240453   5.211   4.701   1.611
13503TIP3    H140454   5.213   4.780   1.665
13503TIP3    H240455   5.119   4.692   1.585
13504TIP3   OH240456   2.343   0.617   3.953
13504TIP3    H140457   2.436   0.633   3.970
13504TIP3    H240458   2.315   0.561   4.025
13505TIP3   OH240459   2.617   5.032   1.755
13505TIP3    H140460   2.535   4.983   1.756
13505TIP3    H240461   2.666   4.996   1.681
13506TIP3   OH240462   2.555   7.108   4.137
13506TIP3    H140463   2.616   7.100   4.210
13506TIP3    H240464   2.542   7.018   4.107
13507TIP3   OH240465   8.003   1.103   2.621
13507TIP3    H140466   8.067   1.083   2.552
13507TIP3    H240467   7.948   1.025   2.627
13508TIP3   OH240468   1.381   0.244   5.343
13508TIP3    H140469   1.319   0.243   5.416
13508TIP3    H240470   1.415   0.155   5.339
13509TIP3   OH240471   5.162   2.859   2.546
13509TIP3    H140472   5.131   2.889   2.460
13509TIP3    H240473   5.083   2.831   2.591
13510TIP3   OH240474   3.451   2.661   2.503
13510TIP3    H140475   3.517   2.721   2.467
13510TIP3    H240476   3.482   2.643   2.592
13511TIP3   OH240477   2.737   7.380   2.380
13511TIP3    H140478   2.762   7.376   2.288
13511TIP3    H240479   2.781   7.305   2.419
13512TIP3   OH240480   1.796   4.015   2.882
13512TIP3    H140481   1.881   4.027   2.840
13512TIP3    H240482   1.808   4.048   2.971
13513TIP3   OH240483   2.130   7.007   1.380
13513TIP3    H140484   2.097   7.096   1.371
13513TIP3    H240485   2.225   7.015   1.372
13514TIP3   OH240486   5.437   1.219   6.451
13514TIP3    H140487   5.471   1.267   6.375
13514TIP3    H240488   5.346   1.248   6.458
13515TIP3   OH240489   7.603   2.393   2.306
13515TIP3    H140490   7.664   2.391   2.379
13515TIP3    H240491   7.636   2.461   2.248
13516TIP3   OH240492   1.721   6.985   1.183
13516TIP3    H140493   1.708   7.075   1.213
13516TIP3    H240494   1.798   6.990   1.126
13517TIP3   OH240495   6.376   4.204   2.416
13517TIP3    H140496   6.377   4.299   2.413
13517TIP3    H240497   6.446   4.181   2.477
13518TIP3   OH240498   0.809   1.525   5.767
13518TIP3    H140499   0.804   1.438   5.728
13518TIP3    H240500   0.721   1.544   5.797
13519TIP3   OH240501   0.584   1.299   1.880
13519TIP3    H140502   0.586   1.373   1.940
13519TIP3    H240503   0.673   1.293   1.845
13520TIP3   OH240504   7.518   7.316   1.543
13520TIP3    H140505   7.509   7.373   1.466
13520TIP3    H240506   7.429   7.288   1.562
13521TIP3   OH240507   6.259   4.237   4.003
13521TIP3    H140508   6.319   4.308   4.027
13521TIP3    H240509   6.248   4.187   4.084
13522TIP3   OH240510   1.734   5.635   2.826
13522TIP3    H140511   1.783   5.716   2.840
13522TIP3    H240512   1.747   5.614   2.734
13523TIP3   OH240513   6.851   5.295   2.720
13523TIP3    H140514   6.898   5.227   2.769
13523TIP3    H240515   6.910   5.369   2.719
13524TIP3   OH240516   0.582   4.391   3.928
13524TIP3    H140517   0.564   4.343   3.848
13524TIP3    H240518   0.496   4.420   3.958
13525TIP3   OH240519   7.020   6.524   2.697
13525TIP3    H140520   6.944   6.493   2.746
13525TIP3    H240521   7.002   6.500   2.606
13526TIP3   OH240522   5.866   3.178   6.531
13526TIP3    H140523   5.914   3.122   6.470
13526TIP3    H240524   5.808   3.230   6.475
13527TIP3   OH240525   8.135   5.063   3.819
13527TIP3    H140526   8.163   5.065   3.727
13527TIP3    H240527   8.148   5.152   3.849
13528TIP3   OH240528   7.272   3.113   5.517
13528TIP3    H140529   7.361   3.106   5.482
13528TIP3    H240530   7.264   3.041   5.579
13529TIP3   OH240531   2.779   0.608   3.337
13529TIP3    H140532   2.842   0.680   3.340
13529TIP3    H240533   2.778   0.573   3.426
13530TIP3   OH240534   5.595   2.857   1.120
13530TIP3    H140535   5.564   2.780   1.072
13530TIP3    H240536   5.620   2.823   1.206
13531TIP3   OH240537   1.577   1.451   5.091
13531TIP3    H140538   1.581   1.545   5.070
13531TIP3    H240539   1.591   1.407   5.008
13532TIP3   OH240540   8.193   3.595   1.548
13532TIP3    H140541   8.144   3.570   1.470
13532TIP3    H240542   8.170   3.530   1.614
13533TIP3   OH240543   6.477   5.559   5.989
13533TIP3    H140544   6.516   5.538   5.904
13533TIP3    H240545   6.502   5.649   6.007
13534TIP3   OH240546   0.800   2.423   0.664
13534TIP3    H140547   0.787   2.449   0.573
13534TIP3    H240548   0.895   2.429   0.677
13535TIP3   OH240549   4.869   3.646   0.193
13535TIP3    H140550   4.878   3.616   0.103
13535TIP3    H240551   4.937   3.713   0.204
13536TIP3   OH240552   3.474   1.284   5.857
13536TIP3    H140553   3.407   1.318   5.916
13536TIP3    H240554   3.427   1.259   5.778
13537TIP3   OH240555   5.416   2.271   5.235
13537TIP3    H140556   5.495   2.223   5.211
13537TIP3    H240557   5.419   2.350   5.182
13538TIP3   OH240558   4.886   3.223   2.656
13538TIP3    H140559   4.953   3.180   2.708
13538TIP3    H240560   4.921   3.311   2.640
13539TIP3   OH240561   5.191   5.142   4.360
13539TIP3    H140562   5.274   5.165   4.319
13539TIP3    H240563   5.126   5.193   4.311
13540TIP3   OH240564   5.863   2.185   6.703
13540TIP3    H140565   5.793   2.250   6.699
13540TIP3    H240566   5.837   2.125   6.773
13541TIP3   OH240567   8.227   3.490   3.897
13541TIP3    H140568   8.290   3.460   3.962
13541TIP3    H240569   8.176   3.412   3.875
13542TIP3   OH240570   4.919   1.994   1.674
13542TIP3    H140571   4.848   2.058   1.681
13542TIP3    H240572   4.880   1.911   1.701
13543TIP3   OH240573   7.255   7.057   6.588
13543TIP3    H140574   7.284   7.024   6.503
13543TIP3    H240575   7.232   7.149   6.572
13544TIP3   OH240576   0.307   4.774   4.408
13544TIP3    H140577   0.214   4.772   4.387
13544TIP3    H240578   0.311   4.816   4.494
13545TIP3   OH240579   1.684   3.574   5.268
13545TIP3    H140580   1.718   3.632   5.336
13545TIP3    H240581   1.591   3.598   5.260
13546TIP3   OH240582   7.132   3.900   2.988
13546TIP3    H140583   7.101   3.969   2.930
13546TIP3    H240584   7.219   3.878   2.954
13547TIP3   OH240585   8.306   2.808   6.382
13547TIP3    H140586   8.320   2.749   6.455
13547TIP3    H240587   8.305   2.895   6.421
13548TIP3   OH240588   7.542   3.522   3.551
13548TIP3    H140589   7.483   3.448   3.541
13548TIP3    H240590   7.492   3.587   3.600
13549TIP3   OH240591   6.500   3.811   5.880
13549TIP3    H140592   6.487   3.894   5.927
13549TIP3    H240593   6.585   3.822   5.836
13550TIP3   OH240594   5.317   6.576   4.237
13550TIP3    H140595   5.267   6.572   4.318
13550TIP3    H240596   5.389   6.637   4.257
13551TIP3   OH240597   6.364   1.861   5.000
13551TIP3    H140598   6.438   1.863   4.939
13551TIP3    H240599   6.402   1.830   5.082
13552TIP3   OH240600   4.821   3.494   5.652
13552TIP3    H140601   4.839   3.471   5.743
13552TIP3    H240602   4.786   3.414   5.613
13553TIP3   OH240603   7.518   6.292   3.284
13553TIP3    H140604   7.532   6.386   3.282
13553TIP3    H240605   7.424   6.281   3.268
13554TIP3   OH240606   0.701   2.923   5.358
13554TIP3    H140607   0.730   2.932   5.449
13554TIP3    H240608   0.605   2.929   5.363
13555TIP3   OH240609   4.435   2.316   1.349
13555TIP3    H140610   4.481   2.232   1.351
13555TIP3    H240611   4.348   2.297   1.383
13556TIP3   OH240612   1.924   2.158   3.664
13556TIP3    H140613   2.007   2.141   3.619
13556TIP3    H240614   1.871   2.203   3.599
13557TIP3   OH240615   6.045   4.787   0.760
13557TIP3    H140616   6.004   4.828   0.836
13557TIP3    H240617   6.007   4.833   0.685
13558TIP3   OH240618   2.178   0.566   1.509
13558TIP3    H140619   2.257   0.613   1.537
13558TIP3    H240620   2.128   0.630   1.459
13559TIP3   OH240621   5.933   3.742   4.847
13559TIP3    H140622   5.920   3.654   4.881
13559TIP3    H240623   6.005   3.778   4.899
13560TIP3   OH240624   0.247   5.717   2.555
13560TIP3    H140625   0.324   5.666   2.579
13560TIP3    H240626   0.180   5.691   2.618
13561TIP3   OH240627   1.089   1.310   5.210
13561TIP3    H140628   1.115   1.318   5.302
13561TIP3    H240629   1.077   1.400   5.180
13562TIP3   OH240630   3.714   4.285   5.732
13562TIP3    H140631   3.718   4.311   5.824
13562TIP3    H240632   3.620   4.278   5.714
13563TIP3   OH240633   7.495   1.843   4.562
13563TIP3    H140634   7.402   1.841   4.586
13563TIP3    H240635   7.501   1.786   4.485
13564TIP3   OH240636   1.336   7.150   3.760
13564TIP3    H140637   1.408   7.206   3.789
13564TIP3    H240638   1.309   7.188   3.676
13565TIP3   OH240639   1.344   3.281   4.033
13565TIP3    H140640   1.361   3.341   3.961
13565TIP3    H240641   1.280   3.326   4.087
13566TIP3   OH240642   7.810   7.249   6.268
13566TIP3    H140643   7.892   7.276   6.225
13566TIP3    H240644   7.766   7.195   6.202
13567TIP3   OH240645   0.389   2.084   1.217
13567TIP3    H140646   0.398   2.006   1.272
13567TIP3    H240647   0.303   2.119   1.239
13568TIP3   OH240648   1.354   6.357   0.637
13568TIP3    H140649   1.299   6.325   0.565
13568TIP3    H240650   1.346   6.452   0.633
13569TIP3   OH240651   3.351   0.201   6.499
13569TIP3    H140652   3.424   0.234   6.447
13569TIP3    H240653   3.364   0.106   6.501
13570TIP3   OH240654   3.476   5.945   5.996
13570TIP3    H140655   3.467   5.913   5.906
13570TIP3    H240656   3.485   5.866   6.049
13571TIP3   OH240657   7.171   3.741   3.861
13571TIP3    H140658   7.076   3.752   3.861
13571TIP3    H240659   7.204   3.817   3.909
13572TIP3   OH240660   5.249   4.337   6.052
13572TIP3    H140661   5.298   4.279   6.110
13572TIP3    H240662   5.312   4.359   5.982
13573TIP3   OH240663   2.169   2.820   3.861
13573TIP3    H140664   2.254   2.788   3.831
13573TIP3    H240665   2.148   2.764   3.936
13574TIP3   OH240666   0.697   3.783   6.003
13574TIP3    H140667   0.663   3.693   6.006
13574TIP3    H240668   0.758   3.783   5.930
13575TIP3   OH240669   0.313   4.906   4.698
13575TIP3    H140670   0.282   4.855   4.773
13575TIP3    H240671   0.302   4.997   4.725
13576TIP3   OH240672   4.830   7.626   5.179
13576TIP3    H140673   4.907   7.673   5.146
13576TIP3    H240674   4.846   7.535   5.156
13577TIP3   OH240675   3.632   6.445   1.779
13577TIP3    H140676   3.620   6.424   1.872
13577TIP3    H240677   3.706   6.390   1.751
13578TIP3   OH240678   4.426   0.164   2.969
13578TIP3    H140679   4.385   0.250   2.969
13578TIP3    H240680   4.489   0.168   2.897
13579TIP3   OH240681   0.768   1.072   2.499
13579TIP3    H140682   0.855   1.065   2.461
13579TIP3    H240683   0.780   1.050   2.591
13580TIP3   OH240684   1.763   2.966   4.801
13580TIP3    H140685   1.834   2.990   4.862
13580TIP3    H240686   1.801   2.978   4.714
13581TIP3   OH240687   4.525   0.351   4.081
13581TIP3    H140688   4.442   0.330   4.039
13581TIP3    H240689   4.502   0.410   4.153
13582TIP3   OH240690   6.958   6.740   0.787
13582TIP3    H140691   6.960   6.743   0.691
13582TIP3    H240692   6.883   6.794   0.811
13583TIP3   OH240693   5.466   0.623   0.907
13583TIP3    H140694   5.376   0.625   0.940
13583TIP3    H240695   5.520   0.646   0.983
13584TIP3   OH240696   6.279   5.622   0.604
13584TIP3    H140697   6.217   5.571   0.657
13584TIP3    H240698   6.267   5.589   0.515
13585TIP3   OH240699   7.916   5.907   2.377
13585TIP3    H140700   7.848   5.972   2.356
13585TIP3    H240701   7.946   5.931   2.464
13586TIP3   OH240702   4.661   0.764   0.390
13586TIP3    H140703   4.634   0.854   0.410
13586TIP3    H240704   4.707   0.735   0.469
13587TIP3   OH240705   4.427   1.638   5.025
13587TIP3    H140706   4.411   1.574   5.095
13587TIP3    H240707   4.453   1.585   4.950
13588TIP3   OH240708   2.290   2.998   3.349
13588TIP3    H140709   2.292   2.934   3.420
13588TIP3    H240710   2.362   3.058   3.368
13589TIP3   OH240711   5.705   7.361   3.767
13589TIP3    H140712   5.688   7.393   3.679
13589TIP3    H240713   5.740   7.437   3.813
13590TIP3   OH240714   5.331   7.057   3.366
13590TIP3    H140715   5.267   6.991   3.339
13590TIP3    H240716   5.279   7.132   3.394
13591TIP3   OH240717   6.510   1.569   1.005
13591TIP3    H140718   6.424   1.538   1.030
13591TIP3    H240719   6.516   1.657   1.043
13592TIP3   OH240720   1.629   2.101   2.644
13592TIP3    H140721   1.590   2.071   2.726
13592TIP3    H240722   1.711   2.143   2.670
13593TIP3   OH240723   6.458   7.454   1.263
13593TIP3    H140724   6.540   7.461   1.311
13593TIP3    H240725   6.399   7.514   1.309
13594TIP3   OH240726   2.949   6.357   5.893
13594TIP3    H140727   3.039   6.360   5.927
13594TIP3    H240728   2.926   6.448   5.879
13595TIP3   OH240729   2.191   2.142   3.591
13595TIP3    H140730   2.208   2.146   3.496
13595TIP3    H240731   2.263   2.192   3.630
13596TIP3   OH240732   8.216   6.106   0.497
13596TIP3    H140733   8.135   6.114   0.448
13596TIP3    H240734   8.245   6.197   0.510
13597TIP3   OH240735   1.388   7.508   5.012
13597TIP3    H140736   1.399   7.546   5.099
13597TIP3    H240737   1.301   7.468   5.014
13598TIP3   OH240738   1.872   2.833   4.143
13598TIP3    H140739   1.859   2.865   4.232
13598TIP3    H240740   1.961   2.857   4.121
13599TIP3   OH240741   7.317   7.741   0.516
13599TIP3    H140742   7.230   7.780   0.522
13599TIP3    H240743   7.354   7.778   0.435
13600TIP3   OH240744   5.918   3.343   6.184
13600TIP3    H140745   5.924   3.341   6.089
13600TIP3    H240746   5.986   3.405   6.211
13601TIP3   OH240747   2.759   3.793   4.175
13601TIP3    H140748   2.709   3.796   4.094
13601TIP3    H240749   2.766   3.885   4.202
13602TIP3   OH240750   2.441   5.899   1.406
13602TIP3    H140751   2.381   5.923   1.477
13602TIP3    H240752   2.442   5.976   1.349
13603TIP3   OH240753   4.498   6.615   0.472
13603TIP3    H140754   4.562   6.612   0.544
13603TIP3    H240755   4.418   6.649   0.513
13604TIP3   OH240756   5.841   6.539   1.822
13604TIP3    H140757   5.824   6.502   1.909
13604TIP3    H240758   5.936   6.547   1.818
13605TIP3   OH240759   4.989   1.360   2.979
13605TIP3    H140760   5.024   1.357   2.890
13605TIP3    H240761   5.037   1.291   3.025
13606TIP3   OH240762   3.250   7.422   2.267
13606TIP3    H140763   3.241   7.378   2.352
13606TIP3    H240764   3.331   7.385   2.230
13607TIP3   OH240765   6.678   2.553   2.933
13607TIP3    H140766   6.695   2.618   2.864
13607TIP3    H240767   6.765   2.524   2.960
13608TIP3   OH240768   3.262   6.069   5.342
13608TIP3    H140769   3.205   5.992   5.353
13608TIP3    H240770   3.209   6.142   5.374
13609TIP3   OH240771   2.579   1.360   0.959
13609TIP3    H140772   2.669   1.389   0.971
13609TIP3    H240773   2.571   1.281   1.013
13610TIP3   OH240774   6.929   0.369   1.476
13610TIP3    H140775   6.967   0.382   1.389
13610TIP3    H240776   6.859   0.306   1.463
13611TIP3   OH240777   5.351   4.459   0.283
13611TIP3    H140778   5.303   4.403   0.344
13611TIP3    H240779   5.410   4.399   0.237
13612TIP3   OH240780   5.672   6.462   5.711
13612TIP3    H140781   5.613   6.482   5.638
13612TIP3    H240782   5.680   6.544   5.759
13613TIP3   OH240783   5.369   6.709   0.107
13613TIP3    H140784   5.333   6.797   0.104
13613TIP3    H240785   5.381   6.690   0.200
13614TIP3   OH240786   0.193   5.571   4.214
13614TIP3    H140787   0.273   5.524   4.192
13614TIP3    H240788   0.219   5.663   4.216
13615TIP3   OH240789   3.760   7.368   5.032
13615TIP3    H140790   3.717   7.283   5.030
13615TIP3    H240791   3.692   7.429   5.002
13616TIP3   OH240792   4.448   4.726   4.826
13616TIP3    H140793   4.511   4.679   4.880
13616TIP3    H240794   4.490   4.734   4.741
13617TIP3   OH240795   3.242   3.450   2.740
13617TIP3    H140796   3.300   3.386   2.780
13617TIP3    H240797   3.300   3.523   2.717
13618TIP3   OH240798   3.497   2.808   4.697
13618TIP3    H140799   3.450   2.749   4.638
13618TIP3    H240800   3.446   2.807   4.778
13619TIP3   OH240801   2.429   7.010   0.166
13619TIP3    H140802   2.489   6.989   0.238
13619TIP3    H240803   2.475   6.981   0.088
13620TIP3   OH240804   4.388   7.672   5.645
13620TIP3    H140805   4.335   7.712   5.713
13620TIP3    H240806   4.370   7.579   5.651
13621TIP3   OH240807   4.235   3.613   6.408
13621TIP3    H140808   4.329   3.618   6.423
13621TIP3    H240809   4.226   3.625   6.313
13622TIP3   OH240810   5.729   2.966   0.732
13622TIP3    H140811   5.636   2.954   0.711
13622TIP3    H240812   5.756   3.038   0.675
13623TIP3   OH240813   6.682   2.984   3.752
13623TIP3    H140814   6.649   3.060   3.703
13623TIP3    H240815   6.679   3.011   3.844
13624TIP3   OH240816   1.757   0.963   4.149
13624TIP3    H140817   1.695   0.919   4.091
13624TIP3    H240818   1.754   1.055   4.122
13625TIP3   OH240819   3.384   0.823   1.686
13625TIP3    H140820   3.424   0.905   1.714
13625TIP3    H240821   3.420   0.808   1.599
13626TIP3   OH240822   1.427   1.232   3.226
13626TIP3    H140823   1.385   1.314   3.252
13626TIP3    H240824   1.354   1.171   3.211
13627TIP3   OH240825   4.208   1.822   3.979
13627TIP3    H140826   4.206   1.877   3.901
13627TIP3    H240827   4.243   1.738   3.948
13628TIP3   OH240828   6.774   5.375   0.604
13628TIP3    H140829   6.720   5.300   0.629
13628TIP3    H240830   6.777   5.372   0.508
13629TIP3   OH240831   0.807   4.538   6.719
13629TIP3    H140832   0.797   4.513   6.627
13629TIP3    H240833   0.717   4.550   6.750
13630TIP3   OH240834   7.804   6.399   6.131
13630TIP3    H140835   7.784   6.312   6.165
13630TIP3    H240836   7.735   6.416   6.067
13631TIP3   OH240837   8.175   6.052   4.257
13631TIP3    H140838   8.117   6.126   4.242
13631TIP3    H240839   8.262   6.091   4.265
13632TIP3   OH240840   2.810   3.105   2.997
13632TIP3    H140841   2.799   3.050   2.919
13632TIP3    H240842   2.889   3.156   2.979
13633TIP3   OH240843   6.687   0.228   4.959
13633TIP3    H140844   6.701   0.253   4.867
13633TIP3    H240845   6.699   0.310   5.007
13634TIP3   OH240846   6.965   6.399   5.489
13634TIP3    H140847   7.027   6.443   5.432
13634TIP3    H240848   6.883   6.398   5.440
13635TIP3   OH240849   0.574   4.170   3.700
13635TIP3    H140850   0.667   4.163   3.720
13635TIP3    H240851   0.554   4.090   3.651
13636TIP3   OH240852   7.978   5.518   3.173
13636TIP3    H140853   8.068   5.522   3.207
13636TIP3    H240854   7.950   5.429   3.192
13637TIP3   OH240855   2.180   1.017   2.707
13637TIP3    H140856   2.207   1.071   2.633
13637TIP3    H240857   2.228   1.053   2.782
13638TIP3   OH240858   2.624   4.977   3.017
13638TIP3    H140859   2.653   4.913   3.081
13638TIP3    H240860   2.666   4.950   2.935
13639TIP3   OH240861   4.826   4.282   6.189
13639TIP3    H140862   4.773   4.258   6.266
13639TIP3    H240863   4.817   4.377   6.182
13640TIP3   OH240864   0.424   0.399   1.804
13640TIP3    H140865   0.411   0.309   1.774
13640TIP3    H240866   0.386   0.453   1.735
13641TIP3   OH240867   0.384   4.452   2.729
13641TIP3    H140868   0.378   4.530   2.785
13641TIP3    H240869   0.464   4.465   2.678
13642TIP3   OH240870   2.879   4.744   5.840
13642TIP3    H140871   2.957   4.714   5.887
13642TIP3    H240872   2.830   4.664   5.821
13643TIP3   OH240873   7.501   3.041   2.219
13643TIP3    H140874   7.466   3.098   2.287
13643TIP3    H240875   7.581   3.004   2.256
13644TIP3   OH240876   7.706   5.668   0.257
13644TIP3    H140877   7.733   5.579   0.234
13644TIP3    H240878   7.633   5.687   0.199
13645TIP3   OH240879   7.890   2.700   2.253
13645TIP3    H140880   7.837   2.638   2.203
13645TIP3    H240881   7.925   2.649   2.326
13646TIP3   OH240882   5.500   1.463   4.944
13646TIP3    H140883   5.406   1.448   4.929
13646TIP3    H240884   5.518   1.419   5.027
13647TIP3   OH240885   0.320   0.516   6.521
13647TIP3    H140886   0.320   0.609   6.545
13647TIP3    H240887   0.252   0.509   6.454
13648TIP3   OH240888   3.699   6.903   3.059
13648TIP3    H140889   3.708   6.910   3.154
13648TIP3    H240890   3.776   6.947   3.023
13649TIP3   OH240891   5.565   7.360   2.265
13649TIP3    H140892   5.588   7.372   2.357
13649TIP3    H240893   5.543   7.449   2.235
13650TIP3   OH240894   0.276   3.147   1.144
13650TIP3    H140895   0.228   3.064   1.141
13650TIP3    H240896   0.211   3.211   1.174
13651TIP3   OH240897   6.805   5.433   1.478
13651TIP3    H140898   6.711   5.415   1.471
13651TIP3    H240899   6.811   5.529   1.481
13652TIP3   OH240900   7.774   2.492   1.662
13652TIP3    H140901   7.840   2.511   1.729
13652TIP3    H240902   7.819   2.433   1.602
13653TIP3   OH240903   2.793   3.303   5.272
13653TIP3    H140904   2.706   3.275   5.244
13653TIP3    H240905   2.778   3.342   5.359
13654TIP3   OH240906   6.595   4.043   3.439
13654TIP3    H140907   6.612   4.112   3.504
13654TIP3    H240908   6.670   4.047   3.380
13655TIP3   OH240909   0.330   6.796   3.866
13655TIP3    H140910   0.298   6.717   3.821
13655TIP3    H240911   0.271   6.806   3.941
13656TIP3   OH240912   6.691   6.142   3.986
13656TIP3    H140913   6.700   6.175   4.075
13656TIP3    H240914   6.597   6.144   3.969
13657TIP3   OH240915   4.147   6.034   6.107
13657TIP3    H140916   4.223   5.976   6.107
13657TIP3    H240917   4.104   6.018   6.191
13658TIP3   OH240918   4.866   0.824   1.870
13658TIP3    H140919   4.805   0.846   1.940
13658TIP3    H240920   4.821   0.755   1.820
13659TIP3   OH240921   3.884   0.843   0.950
13659TIP3    H140922   3.902   0.935   0.971
13659TIP3    H240923   3.806   0.846   0.894
13660TIP3   OH240924   5.468   5.135   6.046
13660TIP3    H140925   5.415   5.066   6.086
13660TIP3    H240926   5.545   5.142   6.102
13661TIP3   OH240927   0.931   3.998   2.311
13661TIP3    H140928   0.982   4.032   2.385
13661TIP3    H240929   0.995   3.987   2.241
13662TIP3   OH240930   6.963   3.860   0.688
13662TIP3    H140931   6.912   3.920   0.742
13662TIP3    H240932   7.054   3.885   0.705
13663TIP3   OH240933   5.397   3.266   5.748
13663TIP3    H140934   5.440   3.311   5.820
13663TIP3    H240935   5.431   3.176   5.752
13664TIP3   OH240936   6.462   5.156   0.680
13664TIP3    H140937   6.520   5.084   0.706
13664TIP3    H240938   6.499   5.233   0.722
13665TIP3   OH240939   6.816   5.373   1.206
13665TIP3    H140940   6.827   5.393   1.299
13665TIP3    H240941   6.905   5.369   1.171
13666TIP3   OH240942   5.356   6.245   5.802
13666TIP3    H140943   5.419   6.281   5.865
13666TIP3    H240944   5.385   6.155   5.789
13667TIP3   OH240945   8.229   5.861   1.072
13667TIP3    H140946   8.291   5.930   1.050
13667TIP3    H240947   8.203   5.880   1.162
13668TIP3   OH240948   1.811   6.514   4.775
13668TIP3    H140949   1.866   6.444   4.810
13668TIP3    H240950   1.734   6.515   4.832
13669TIP3   OH240951   3.383   5.386   4.196
13669TIP3    H140952   3.409   5.349   4.112
13669TIP3    H240953   3.448   5.454   4.213
13670TIP3   OH240954   6.868   3.329   1.113
13670TIP3    H140955   6.798   3.365   1.059
13670TIP3    H240956   6.923   3.279   1.053
13671TIP3   OH240957   4.920   6.639   0.823
13671TIP3    H140958   4.903   6.730   0.799
13671TIP3    H240959   4.999   6.616   0.773
13672TIP3   OH240960   2.191   0.593   2.050
13672TIP3    H140961   2.100   0.608   2.075
13672TIP3    H240962   2.195   0.499   2.029
13673TIP3   OH240963   2.914   0.724   0.321
13673TIP3    H140964   2.900   0.652   0.382
13673TIP3    H240965   2.847   0.712   0.254
13674TIP3   OH240966   6.156   5.231   6.342
13674TIP3    H140967   6.113   5.252   6.259
13674TIP3    H240968   6.208   5.153   6.322
13675TIP3   OH240969   7.332   2.740   0.065
13675TIP3    H140970   7.331   2.836   0.071
13675TIP3    H240971   7.354   2.723  -0.026
13676TIP3   OH240972   4.987   3.488   2.670
13676TIP3    H140973   4.963   3.489   2.763
13676TIP3    H240974   5.073   3.531   2.667
13677TIP3   OH240975   2.316   6.384   0.919
13677TIP3    H140976   2.240   6.349   0.965
13677TIP3    H240977   2.345   6.312   0.863
13678TIP3   OH240978   6.097   4.242   3.564
13678TIP3    H140979   6.074   4.295   3.488
13678TIP3    H240980   6.171   4.189   3.536
13679TIP3   OH240981   3.217   6.655   1.276
13679TIP3    H140982   3.171   6.599   1.338
13679TIP3    H240983   3.259   6.594   1.215
13680TIP3   OH240984   1.920   7.748   6.231
13680TIP3    H140985   1.910   7.764   6.325
13680TIP3    H240986   2.010   7.773   6.212
13681TIP3   OH240987   0.656   1.152   1.123
13681TIP3    H140988   0.727   1.129   1.183
13681TIP3    H240989   0.639   1.245   1.140
13682TIP3   OH240990   8.337   5.797   3.572
13682TIP3    H140991   8.327   5.702   3.571
13682TIP3    H240992   8.257   5.829   3.529
13683TIP3   OH240993   1.157   3.996   1.350
13683TIP3    H140994   1.098   3.946   1.406
13683TIP3    H240995   1.177   4.075   1.400
13684TIP3   OH240996   1.564   2.052   2.917
13684TIP3    H140997   1.505   2.070   2.991
13684TIP3    H240998   1.647   2.090   2.943
13685TIP3   OH240999   4.878   7.140   1.573
13685TIP3    H141000   4.946   7.207   1.564
13685TIP3    H241001   4.923   7.057   1.559
13686TIP3   OH241002   7.938   0.997   5.248
13686TIP3    H141003   7.970   0.925   5.193
13686TIP3    H241004   7.937   1.073   5.189
13687TIP3   OH241005   2.777   1.107   2.778
13687TIP3    H141006   2.739   1.020   2.792
13687TIP3    H241007   2.702   1.167   2.777
13688TIP3   OH241008   1.543   6.275   5.346
13688TIP3    H141009   1.627   6.313   5.319
13688TIP3    H241010   1.529   6.309   5.435
13689TIP3   OH241011   4.664   1.251   3.285
13689TIP3    H141012   4.685   1.183   3.221
13689TIP3    H241013   4.681   1.210   3.369
13690TIP3   OH241014   6.386   2.564   5.648
13690TIP3    H141015   6.412   2.521   5.566
13690TIP3    H241016   6.460   2.548   5.707
13691TIP3   OH241017   7.381   6.303   6.214
13691TIP3    H141018   7.345   6.380   6.169
13691TIP3    H241019   7.455   6.337   6.263
13692TIP3   OH241020   1.215   6.983   5.608
13692TIP3    H141021   1.244   6.995   5.699
13692TIP3    H241022   1.212   7.072   5.572
13693TIP3   OH241023   5.807   5.869   6.182
13693TIP3    H141024   5.791   5.918   6.101
13693TIP3    H241025   5.882   5.913   6.222
13694TIP3   OH241026   2.777   1.815   1.448
13694TIP3    H141027   2.792   1.908   1.462
13694TIP3    H241028   2.775   1.805   1.352
13695TIP3   OH241029   0.822   6.140   1.125
13695TIP3    H141030   0.801   6.150   1.032
13695TIP3    H241031   0.909   6.100   1.126
13696TIP3   OH241032   4.952   1.708   4.992
13696TIP3    H141033   4.861   1.738   4.988
13696TIP3    H241034   4.981   1.709   4.900
13697TIP3   OH241035   6.952   4.422   3.159
13697TIP3    H141036   7.011   4.398   3.088
13697TIP3    H241037   6.868   4.386   3.134
13698TIP3   OH241038   6.297   1.413   1.402
13698TIP3    H141039   6.224   1.379   1.453
13698TIP3    H241040   6.258   1.474   1.340
13699TIP3   OH241041   5.171   3.736   3.582
13699TIP3    H141042   5.138   3.825   3.569
13699TIP3    H241043   5.211   3.737   3.669
13700TIP3   OH241044   6.759   0.501   5.361
13700TIP3    H141045   6.715   0.481   5.444
13700TIP3    H241046   6.849   0.522   5.387
13701TIP3   OH241047   0.270   5.465   5.140
13701TIP3    H141048   0.177   5.444   5.131
13701TIP3    H241049   0.293   5.434   5.228
13702TIP3   OH241050   7.200   7.729   4.520
13702TIP3    H141051   7.190   7.773   4.604
13702TIP3    H241052   7.275   7.773   4.480
13703TIP3   OH241053   4.850   3.152   4.197
13703TIP3    H141054   4.792   3.185   4.265
13703TIP3    H241055   4.794   3.095   4.144
13704TIP3   OH241056   4.047   4.779   4.185
13704TIP3    H141057   4.018   4.716   4.119
13704TIP3    H241058   4.083   4.725   4.256
13705TIP3   OH241059   0.431   0.180   3.816
13705TIP3    H141060   0.477   0.183   3.732
13705TIP3    H241061   0.444   0.091   3.848
13706TIP3   OH241062   8.065   6.539   5.148
13706TIP3    H141063   8.084   6.445   5.149
13706TIP3    H241064   8.071   6.564   5.056
13707TIP3   OH241065   7.996   0.722   1.668
13707TIP3    H141066   8.062   0.770   1.717
13707TIP3    H241067   8.045   0.653   1.622
13708TIP3   OH241068   2.180   3.246   4.349
13708TIP3    H141069   2.205   3.338   4.340
13708TIP3    H241070   2.092   3.249   4.386
13709TIP3   OH241071   8.203   5.047   5.832
13709TIP3    H141072   8.291   5.019   5.858
13709TIP3    H241073   8.149   5.033   5.910
13710TIP3   OH241074   1.788   0.367   6.000
13710TIP3    H141075   1.794   0.434   6.067
13710TIP3    H241076   1.858   0.305   6.021
13711TIP3   OH241077   7.820   0.105   2.950
13711TIP3    H141078   7.856   0.110   3.039
13711TIP3    H241079   7.756   0.034   2.954
13712TIP3   OH241080   1.090   6.141   5.751
13712TIP3    H141081   1.075   6.121   5.659
13712TIP3    H241082   1.005   6.167   5.785
13713TIP3   OH241083   7.726   7.742   2.177
13713TIP3    H141084   7.665   7.773   2.109
13713TIP3    H241085   7.811   7.774   2.148
13714TIP3   OH241086   5.819   2.149   5.638
13714TIP3    H141087   5.850   2.059   5.638
13714TIP3    H241088   5.884   2.197   5.690
13715TIP3   OH241089   5.556   1.690   0.038
13715TIP3    H141090   5.624   1.758   0.040
13715TIP3    H241091   5.605   1.609   0.022
13716TIP3   OH241092   5.836   6.777   4.392
13716TIP3    H141093   5.923   6.738   4.390
13716TIP3    H241094   5.843   6.855   4.338
13717TIP3   OH241095   1.473   5.824   3.702
13717TIP3    H141096   1.502   5.820   3.794
13717TIP3    H241097   1.405   5.891   3.702
13718TIP3   OH241098   4.339   1.188   1.022
13718TIP3    H141099   4.375   1.206   1.109
13718TIP3    H241100   4.395   1.118   0.987
13719TIP3   OH241101   7.666   4.772   5.820
13719TIP3    H141102   7.602   4.713   5.780
13719TIP3    H241103   7.646   4.770   5.913
13720TIP3   OH241104   5.591   7.016   6.339
13720TIP3    H141105   5.609   7.045   6.429
13720TIP3    H241106   5.507   6.971   6.345
13721TIP3   OH241107   1.558   2.409   3.676
13721TIP3    H141108   1.549   2.341   3.609
13721TIP3    H241109   1.489   2.472   3.655
13722TIP3   OH241110   0.645   0.431   1.996
13722TIP3    H141111   0.682   0.509   1.954
13722TIP3    H241112   0.552   0.433   1.974
13723TIP3   OH241113  -0.033  -0.061   6.446
13723TIP3    H141114   0.042  -0.101   6.401
13723TIP3    H241115  -0.018   0.034   6.438
13724TIP3   OH241116   1.896   3.094   0.671
13724TIP3    H141117   1.918   3.166   0.613
13724TIP3    H241118   1.929   3.016   0.626
13725TIP3   OH241119   5.906   0.603   4.210
13725TIP3    H141120   5.836   0.575   4.151
13725TIP3    H241121   5.860   0.628   4.290
13726TIP3   OH241122   0.718   3.912   5.651
13726TIP3    H141123   0.644   3.952   5.695
13726TIP3    H241124   0.771   3.985   5.621
13727TIP3   OH241125   4.045   1.847   5.396
13727TIP3    H141126   3.966   1.840   5.343
13727TIP3    H241127   4.116   1.830   5.334
13728TIP3   OH241128   2.755   1.336   6.152
13728TIP3    H141129   2.737   1.372   6.066
13728TIP3    H241130   2.725   1.245   6.148
13729TIP3   OH241131   2.727   6.848   1.004
13729TIP3    H141132   2.778   6.788   1.058
13729TIP3    H241133   2.784   6.924   0.992
13730TIP3   OH241134   0.713   4.400   3.361
13730TIP3    H141135   0.672   4.472   3.408
13730TIP3    H241136   0.711   4.327   3.423
13731TIP3   OH241137   1.000   4.910   0.023
13731TIP3    H141138   0.921   4.962   0.011
13731TIP3    H241139   1.072   4.971   0.006
13732TIP3   OH241140   0.039   3.041   4.552
13732TIP3    H141141   0.085   3.080   4.627
13732TIP3    H241142  -0.052   3.068   4.565
13733TIP3   OH241143   0.675   0.837   5.640
13733TIP3    H141144   0.691   0.901   5.709
13733TIP3    H241145   0.612   0.879   5.582
13734TIP3   OH241146   4.025   2.328   2.686
13734TIP3    H141147   4.049   2.310   2.595
13734TIP3    H241148   3.932   2.352   2.682
13735TIP3   OH241149   1.408   6.420   4.075
13735TIP3    H141150   1.496   6.445   4.047
13735TIP3    H241151   1.421   6.343   4.130
13736TIP3   OH241152   3.222   1.680   5.632
13736TIP3    H141153   3.240   1.587   5.619
13736TIP3    H241154   3.177   1.708   5.552
13737TIP3   OH241155   1.076   1.487   6.367
13737TIP3    H141156   1.156   1.480   6.315
13737TIP3    H241157   1.007   1.458   6.307
13738TIP3   OH241158   2.834   4.191   6.230
13738TIP3    H141159   2.835   4.123   6.297
13738TIP3    H241160   2.853   4.145   6.149
13739TIP3   OH241161   5.120   6.516   0.669
13739TIP3    H141162   5.195   6.463   0.644
13739TIP3    H241163   5.044   6.469   0.635
13740TIP3   OH241164   4.562   0.502   1.448
13740TIP3    H141165   4.572   0.498   1.544
13740TIP3    H241166   4.535   0.413   1.424
13741TIP3   OH241167   0.466   2.011   2.054
13741TIP3    H141168   0.373   2.032   2.046
13741TIP3    H241169   0.474   1.968   2.140
13742TIP3   OH241170   0.147   2.992   4.808
13742TIP3    H141171   0.237   2.971   4.782
13742TIP3    H241172   0.153   3.013   4.901
13743TIP3   OH241173   5.592   3.121   2.972
13743TIP3    H141174   5.501   3.095   2.954
13743TIP3    H241175   5.603   3.104   3.066
13744TIP3   OH241176   3.509   7.074   6.789
13744TIP3    H141177   3.524   7.021   6.712
13744TIP3    H241178   3.534   7.163   6.763
13745TIP3   OH241179   3.567   6.826   4.706
13745TIP3    H141180   3.473   6.834   4.694
13745TIP3    H241181   3.580   6.843   4.800
13746TIP3   OH241182   3.175   6.653   2.405
13746TIP3    H141183   3.130   6.734   2.427
13746TIP3    H241184   3.188   6.608   2.488
13747TIP3   OH241185   6.029   4.505   5.783
13747TIP3    H141186   5.959   4.538   5.840
13747TIP3    H241187   5.983   4.467   5.709
13748TIP3   OH241188   6.222   0.087   2.328
13748TIP3    H141189   6.150   0.140   2.295
13748TIP3    H241190   6.236   0.021   2.260
13749TIP3   OH241191   0.798   7.660   0.615
13749TIP3    H141192   0.879   7.609   0.606
13749TIP3    H241193   0.728   7.595   0.608
13750TIP3   OH241194   6.678   5.337   4.632
13750TIP3    H141195   6.687   5.287   4.713
13750TIP3    H241196   6.644   5.422   4.660
13751TIP3   OH241197   6.612   7.643   5.698
13751TIP3    H141198   6.544   7.702   5.729
13751TIP3    H241199   6.687   7.659   5.755
13752TIP3   OH241200   3.848   1.235   1.334
13752TIP3    H141201   3.895   1.234   1.250
13752TIP3    H241202   3.756   1.244   1.309
13753TIP3   OH241203   2.995   1.674   5.070
13753TIP3    H141204   2.964   1.676   5.161
13753TIP3    H241205   2.924   1.635   5.021
13754TIP3   OH241206   0.880  -0.017   1.180
13754TIP3    H141207   0.935   0.013   1.253
13754TIP3    H241208   0.848   0.064   1.140
13755TIP3   OH241209   1.173   6.865   0.880
13755TIP3    H141210   1.142   6.805   0.813
13755TIP3    H241211   1.095   6.914   0.907
13756TIP3   OH241212   7.145   2.154   4.562
13756TIP3    H141213   7.158   2.136   4.655
13756TIP3    H241214   7.223   2.201   4.535
13757TIP3   OH241215   1.350   7.770   1.610
13757TIP3    H141216   1.390   7.683   1.599
13757TIP3    H241217   1.335   7.801   1.520
13758TIP3   OH241218   1.586   7.487   1.739
13758TIP3    H141219   1.659   7.508   1.681
13758TIP3    H241220   1.508   7.495   1.683
13759TIP3   OH241221   2.676   1.998   2.490
13759TIP3    H141222   2.697   1.941   2.564
13759TIP3    H241223   2.584   2.019   2.501
13760TIP3   OH241224   4.062   6.912   0.637
13760TIP3    H141225   4.053   7.000   0.674
13760TIP3    H241226   3.974   6.890   0.607
13761TIP3   OH241227   5.118   0.149   1.084
13761TIP3    H141228   5.031   0.185   1.066
13761TIP3    H241229   5.173   0.226   1.098
13762TIP3   OH241230   2.375   2.849   5.832
13762TIP3    H141231   2.363   2.816   5.743
13762TIP3    H241232   2.363   2.944   5.824
13763TIP3   OH241233   5.600   3.433   5.500
13763TIP3    H141234   5.680   3.428   5.448
13763TIP3    H241235   5.532   3.398   5.442
13764TIP3   OH241236   5.609   0.709   2.354
13764TIP3    H141237   5.630   0.636   2.296
13764TIP3    H241238   5.579   0.779   2.295
13765TIP3   OH241239   4.949   5.434   2.671
13765TIP3    H141240   4.900   5.516   2.664
13765TIP3    H241241   4.972   5.412   2.581
13766TIP3   OH241242   3.558   0.262   3.926
13766TIP3    H141243   3.623   0.216   3.979
13766TIP3    H241244   3.555   0.350   3.964
13767TIP3   OH241245   0.866   2.579   4.702
13767TIP3    H141246   0.877   2.556   4.609
13767TIP3    H241247   0.949   2.618   4.727
13768TIP3   OH241248   3.898   3.060   5.509
13768TIP3    H141249   3.847   3.140   5.497
13768TIP3    H241250   3.891   3.013   5.426
13769TIP3   OH241251   4.387   3.006   3.373
13769TIP3    H141252   4.413   2.924   3.414
13769TIP3    H241253   4.387   2.987   3.279
13770TIP3   OH241254   4.671   0.955   4.003
13770TIP3    H141255   4.718   0.926   3.925
13770TIP3    H241256   4.737   0.999   4.057
13771TIP3   OH241257   6.286   5.296   3.745
13771TIP3    H141258   6.223   5.368   3.732
13771TIP3    H241259   6.298   5.292   3.839
13772TIP3   OH241260   3.791   3.379   4.482
13772TIP3    H141261   3.841   3.451   4.443
13772TIP3    H241262   3.774   3.320   4.409
13773TIP3   OH241263   0.549   5.789   2.737
13773TIP3    H141264   0.592   5.874   2.746
13773TIP3    H241265   0.486   5.786   2.809
13774TIP3   OH241266   0.473   5.894   3.740
13774TIP3    H141267   0.463   5.913   3.647
13774TIP3    H241268   0.389   5.856   3.766
13775TIP3   OH241269   3.481   0.193   3.233
13775TIP3    H141270   3.530   0.181   3.314
13775TIP3    H241271   3.513   0.276   3.197
13776TIP3   OH241272   8.355   3.679   3.727
13776TIP3    H141273   8.283   3.700   3.668
13776TIP3    H241274   8.315   3.625   3.795
13777TIP3   OH241275   2.132   5.664   2.877
13777TIP3    H141276   2.158   5.659   2.969
13777TIP3    H241277   2.042   5.696   2.879
13778TIP3   OH241278   7.157   6.137   6.299
13778TIP3    H141279   7.085   6.193   6.327
13778TIP3    H241280   7.212   6.195   6.245
13779TIP3   OH241281   1.360   1.849   4.655
13779TIP3    H141282   1.404   1.774   4.615
13779TIP3    H241283   1.431   1.909   4.677
13780TIP3   OH241284   2.549   2.659   1.713
13780TIP3    H141285   2.498   2.710   1.775
13780TIP3    H241286   2.595   2.594   1.767
13781TIP3   OH241287   2.423   2.910   1.737
13781TIP3    H141288   2.497   2.969   1.723
13781TIP3    H241289   2.360   2.932   1.668
13782TIP3   OH241290   7.460   5.739   5.786
13782TIP3    H141291   7.538   5.741   5.730
13782TIP3    H241292   7.435   5.647   5.791
13783TIP3   OH241293   4.737   2.896   0.141
13783TIP3    H141294   4.781   2.820   0.179
13783TIP3    H241295   4.733   2.960   0.213
13784TIP3   OH241296   3.906   2.012   0.546
13784TIP3    H141297   3.924   1.980   0.634
13784TIP3    H241298   3.828   1.963   0.518
13785TIP3   OH241299   6.398   2.474   5.138
13785TIP3    H141300   6.371   2.393   5.096
13785TIP3    H241301   6.347   2.542   5.094
13786TIP3   OH241302   2.499   0.808   2.325
13786TIP3    H141303   2.452   0.743   2.378
13786TIP3    H241304   2.470   0.892   2.359
13787TIP3   OH241305   0.705   1.646   4.250
13787TIP3    H141306   0.711   1.554   4.226
13787TIP3    H241307   0.648   1.685   4.184
13788TIP3   OH241308   3.400   3.056   4.938
13788TIP3    H141309   3.350   3.062   4.857
13788TIP3    H241310   3.350   3.107   5.001
13789TIP3   OH241311   6.914   1.672   0.190
13789TIP3    H141312   6.964   1.596   0.219
13789TIP3    H241313   6.963   1.747   0.223
13790TIP3   OH241314   0.114   0.692   2.971
13790TIP3    H141315   0.107   0.778   2.931
13790TIP3    H241316   0.141   0.634   2.900
13791TIP3   OH241317   0.414   1.710   0.363
13791TIP3    H141318   0.496   1.757   0.353
13791TIP3    H241319   0.389   1.725   0.454
13792TIP3   OH241320   3.811   0.453   4.550
13792TIP3    H141321   3.800   0.413   4.464
13792TIP3    H241322   3.746   0.410   4.605
13793TIP3   OH241323   5.418   3.385   6.237
13793TIP3    H141324   5.412   3.450   6.307
13793TIP3    H241325   5.493   3.331   6.262
13794TIP3   OH241326   6.878   4.728   3.709
13794TIP3    H141327   6.958   4.676   3.718
13794TIP3    H241328   6.833   4.718   3.793
13795TIP3   OH241329   0.463   7.312   0.148
13795TIP3    H141330   0.517   7.355   0.082
13795TIP3    H241331   0.414   7.245   0.099
13796TIP3   OH241332   5.216   7.919   0.055
13796TIP3    H141333   5.182   7.868  -0.018
13796TIP3    H241334   5.291   7.966   0.019
13797TIP3   OH241335   1.574   3.743   1.214
13797TIP3    H141336   1.637   3.814   1.224
13797TIP3    H241337   1.614   3.683   1.152
13798TIP3   OH241338   6.702   1.067   3.489
13798TIP3    H141339   6.638   1.122   3.534
13798TIP3    H241340   6.750   1.024   3.560
13799TIP3   OH241341   0.709   6.752   1.923
13799TIP3    H141342   0.627   6.746   1.972
13799TIP3    H241343   0.703   6.836   1.878
13800TIP3   OH241344   4.347   2.957   1.665
13800TIP3    H141345   4.312   2.991   1.583
13800TIP3    H241346   4.276   2.966   1.728
13801TIP3   OH241347   0.967   5.253   1.312
13801TIP3    H141348   0.929   5.208   1.388
13801TIP3    H241349   0.957   5.190   1.240
13802TIP3   OH241350   0.655   1.491  -0.021
13802TIP3    H141351   0.674   1.473   0.071
13802TIP3    H241352   0.573   1.445  -0.039
13803TIP3   OH241353   2.489   5.690   1.744
13803TIP3    H141354   2.456   5.617   1.797
13803TIP3    H241355   2.578   5.704   1.775
13804TIP3   OH241356   1.789   6.284   3.106
13804TIP3    H141357   1.873   6.282   3.152
13804TIP3    H241358   1.746   6.203   3.131
13805TIP3   OH241359   7.979   2.809   0.541
13805TIP3    H141360   8.070   2.839   0.536
13805TIP3    H241361   7.961   2.775   0.454
13806TIP3   OH241362   6.842   1.558   2.663
13806TIP3    H141363   6.781   1.494   2.698
13806TIP3    H241364   6.794   1.602   2.593
13807TIP3   OH241365   8.034   4.379   5.659
13807TIP3    H141366   8.013   4.452   5.717
13807TIP3    H241367   7.994   4.403   5.575
13808TIP3   OH241368   2.919   2.237   1.072
13808TIP3    H141369   2.912   2.286   1.153
13808TIP3    H241370   2.995   2.274   1.027
13809TIP3   OH241371   7.988   1.408   5.275
13809TIP3    H141372   8.022   1.420   5.364
13809TIP3    H241373   8.004   1.492   5.232
13810TIP3   OH241374   8.272   5.424   1.284
13810TIP3    H141375   8.313   5.425   1.198
13810TIP3    H241376   8.204   5.357   1.278
13811TIP3   OH241377   0.536   2.399   3.786
13811TIP3    H141378   0.448   2.404   3.822
13811TIP3    H241379   0.523   2.392   3.692
13812TIP3   OH241380   1.382   3.004   3.517
13812TIP3    H141381   1.366   3.016   3.610
13812TIP3    H241382   1.298   2.975   3.481
13813TIP3   OH241383   6.906   0.876   4.076
13813TIP3    H141384   6.917   0.958   4.028
13813TIP3    H241385   6.959   0.813   4.026
13814TIP3   OH241386   5.594   1.867   3.940
13814TIP3    H141387   5.669   1.885   3.884
13814TIP3    H241388   5.561   1.954   3.965
13815TIP3   OH241389   6.707   4.764   2.914
13815TIP3    H141390   6.723   4.669   2.912
13815TIP3    H241391   6.616   4.772   2.942
13816TIP3   OH241392   3.928   5.470   4.835
13816TIP3    H141393   3.835   5.494   4.830
13816TIP3    H241394   3.927   5.374   4.826
13817TIP3   OH241395   0.649   7.549   3.996
13817TIP3    H141396   0.677   7.634   3.961
13817TIP3    H241397   0.581   7.519   3.935
13818TIP3   OH241398   7.931   1.681   1.426
13818TIP3    H141399   7.878   1.610   1.390
13818TIP3    H241400   7.878   1.760   1.410
13819TIP3   OH241401   2.941   4.386   3.108
13819TIP3    H141402   2.935   4.323   3.036
13819TIP3    H241403   2.994   4.342   3.174
13820TIP3   OH241404   1.178   5.662   2.474
13820TIP3    H141405   1.120   5.694   2.405
13820TIP3    H241406   1.134   5.584   2.508
13821TIP3   OH241407   3.422   7.550   5.475
13821TIP3    H141408   3.394   7.632   5.515
13821TIP3    H241409   3.470   7.505   5.544
13822TIP3   OH241410   6.775   3.847   2.332
13822TIP3    H141411   6.815   3.826   2.248
13822TIP3    H241412   6.681   3.839   2.317
13823TIP3   OH241413   1.344   6.694   3.925
13823TIP3    H141414   1.276   6.628   3.915
13823TIP3    H241415   1.397   6.663   3.999
13824TIP3   OH241416   5.332   0.342   1.737
13824TIP3    H141417   5.300   0.285   1.807
13824TIP3    H241418   5.386   0.285   1.682
13825TIP3   OH241419   3.195   2.299   1.022
13825TIP3    H141420   3.212   2.355   0.947
13825TIP3    H241421   3.178   2.212   0.984
13826TIP3   OH241422   2.846   3.991   6.040
13826TIP3    H141423   2.761   3.976   5.999
13826TIP3    H241424   2.909   3.985   5.968
13827TIP3   OH241425   7.824   1.687   0.189
13827TIP3    H141426   7.741   1.736   0.197
13827TIP3    H241427   7.853   1.674   0.279
13828TIP3   OH241428   5.096   7.360   5.742
13828TIP3    H141429   5.139   7.369   5.827
13828TIP3    H241430   5.016   7.413   5.750
13829TIP3   OH241431   5.993   6.838   0.158
13829TIP3    H141432   5.952   6.834   0.244
13829TIP3    H241433   5.991   6.931   0.135
13830TIP3   OH241434   0.428   0.371   2.669
13830TIP3    H141435   0.387   0.356   2.754
13830TIP3    H241436   0.425   0.285   2.626
13831TIP3   OH241437   0.249   3.607   5.670
13831TIP3    H141438   0.173   3.554   5.692
13831TIP3    H241439   0.311   3.545   5.631
13832TIP3   OH241440   4.586   2.979   2.038
13832TIP3    H141441   4.552   2.936   1.960
13832TIP3    H241442   4.673   3.009   2.013
13833TIP3   OH241443   6.308   1.084   2.583
13833TIP3    H141444   6.254   1.020   2.630
13833TIP3    H241445   6.293   1.064   2.490
13834TIP3   OH241446   2.214   1.976   6.357
13834TIP3    H141447   2.237   2.056   6.406
13834TIP3    H241448   2.258   1.906   6.404
13835TIP3   OH241449   0.993   1.850   0.889
13835TIP3    H141450   1.027   1.812   0.970
13835TIP3    H241451   0.988   1.944   0.907
13836TIP3   OH241452   4.121   7.255   5.758
13836TIP3    H141453   4.067   7.248   5.679
13836TIP3    H241454   4.058   7.260   5.830
13837TIP3   OH241455   8.288   4.943   5.128
13837TIP3    H141456   8.229   4.984   5.065
13837TIP3    H241457   8.374   4.945   5.086
13838TIP3   OH241458   2.112   0.551   5.271
13838TIP3    H141459   2.018   0.535   5.262
13838TIP3    H241460   2.151   0.511   5.193
13839TIP3   OH241461   7.842   7.559   5.781
13839TIP3    H141462   7.826   7.523   5.693
13839TIP3    H241463   7.929   7.597   5.776
13840TIP3   OH241464   1.773   0.188   5.518
13840TIP3    H141465   1.788   0.106   5.470
13840TIP3    H241466   1.813   0.173   5.604
13841TIP3   OH241467   7.428   4.586   4.317
13841TIP3    H141468   7.503   4.543   4.276
13841TIP3    H241469   7.461   4.671   4.344
13842TIP3   OH241470   2.949   4.616   6.320
13842TIP3    H141471   2.993   4.681   6.374
13842TIP3    H241472   2.998   4.615   6.238
13843TIP3   OH241473   1.670   2.111   5.348
13843TIP3    H141474   1.640   2.092   5.437
13843TIP3    H241475   1.740   2.048   5.332
13844TIP3   OH241476   5.966   4.021   6.628
13844TIP3    H141477   5.979   3.986   6.540
13844TIP3    H241478   5.873   4.008   6.646
13845TIP3   OH241479   4.043   5.693   6.032
13845TIP3    H141480   3.972   5.660   6.087
13845TIP3    H241481   4.116   5.707   6.093
13846TIP3   OH241482   1.609   6.574   4.969
13846TIP3    H141483   1.543   6.643   4.961
13846TIP3    H241484   1.643   6.583   5.058
13847TIP3   OH241485   2.151   2.010   3.034
13847TIP3    H141486   2.067   2.030   3.074
13847TIP3    H241487   2.129   1.952   2.961
13848TIP3   OH241488   7.381   1.014   3.377
13848TIP3    H141489   7.306   0.956   3.363
13848TIP3    H241490   7.451   0.976   3.323
13849TIP3   OH241491   7.216   5.102   2.011
13849TIP3    H141492   7.189   5.162   1.942
13849TIP3    H241493   7.136   5.088   2.063
13850TIP3   OH241494   7.030   6.995   6.731
13850TIP3    H141495   7.114   7.031   6.703
13850TIP3    H241496   7.044   6.968   6.822
13851TIP3   OH241497   7.282   3.023   0.039
13851TIP3    H141498   7.336   3.101   0.033
13851TIP3    H241499   7.253   3.006  -0.050
13852TIP3   OH241500   6.012   6.868   1.605
13852TIP3    H141501   6.074   6.875   1.677
13852TIP3    H241502   6.064   6.890   1.527
13853TIP3   OH241503   0.364   6.346   6.126
13853TIP3    H141504   0.436   6.405   6.150
13853TIP3    H241505   0.301   6.355   6.198
13854TIP3   OH241506   7.216   0.991   4.846
13854TIP3    H141507   7.165   0.949   4.776
13854TIP3    H241508   7.300   0.946   4.845
13855TIP3   OH241509   5.237   4.443   4.814
13855TIP3    H141510   5.323   4.473   4.785
13855TIP3    H241511   5.178   4.466   4.742
13856TIP3   OH241512   1.926   5.927   3.539
13856TIP3    H141513   1.838   5.948   3.509
13856TIP3    H241514   1.942   5.839   3.505
13857TIP3   OH241515   4.233   5.701   2.124
13857TIP3    H141516   4.311   5.691   2.070
13857TIP3    H241517   4.197   5.612   2.131
13858TIP3   OH241518   2.355   2.440   5.468
13858TIP3    H141519   2.389   2.353   5.488
13858TIP3    H241520   2.375   2.493   5.545
13859TIP3   OH241521   4.038   5.998   6.773
13859TIP3    H141522   4.069   6.048   6.849
13859TIP3    H241523   4.104   5.931   6.759
13860TIP3   OH241524   6.598   4.149   1.719
13860TIP3    H141525   6.552   4.203   1.655
13860TIP3    H241526   6.638   4.079   1.667
13861TIP3   OH241527   6.137   5.085   3.141
13861TIP3    H141528   6.124   4.990   3.141
13861TIP3    H241529   6.125   5.110   3.049
13862TIP3   OH241530   2.891   0.680   3.829
13862TIP3    H141531   2.941   0.716   3.903
13862TIP3    H241532   2.951   0.616   3.789
13863TIP3   OH241533   4.981   4.748   4.437
13863TIP3    H141534   5.044   4.681   4.463
13863TIP3    H241535   4.930   4.765   4.516
13864TIP3   OH241536   8.137   7.706   5.321
13864TIP3    H141537   8.142   7.782   5.379
13864TIP3    H241538   8.089   7.737   5.245
13865TIP3   OH241539   5.359   3.588   6.607
13865TIP3    H141540   5.345   3.657   6.672
13865TIP3    H241541   5.369   3.634   6.524
13866TIP3   OH241542   6.070   6.912   3.883
13866TIP3    H141543   6.158   6.950   3.894
13866TIP3    H241544   6.077   6.824   3.919
13867TIP3   OH241545   7.903   7.035   0.880
13867TIP3    H141546   7.897   7.029   0.975
13867TIP3    H241547   7.817   7.066   0.852
13868TIP3   OH241548   1.314   5.426   1.869
13868TIP3    H141549   1.404   5.413   1.898
13868TIP3    H241550   1.323   5.480   1.790
13869TIP3   OH241551   3.058   1.625   6.727
13869TIP3    H141552   3.128   1.560   6.737
13869TIP3    H241553   3.036   1.622   6.634
13870TIP3   OH241554   3.198   5.529   3.171
13870TIP3    H141555   3.201   5.621   3.199
13870TIP3    H241556   3.147   5.530   3.090
13871TIP3   OH241557   4.214   4.837   0.639
13871TIP3    H141558   4.205   4.932   0.645
13871TIP3    H241559   4.225   4.808   0.729
13872TIP3   OH241560   4.819   0.491   3.802
13872TIP3    H141561   4.738   0.451   3.770
13872TIP3    H241562   4.801   0.585   3.801
13873TIP3   OH241563   6.086   2.506   0.406
13873TIP3    H141564   6.033   2.464   0.339
13873TIP3    H241565   6.176   2.505   0.371
13874TIP3   OH241566   7.004   6.897   6.478
13874TIP3    H141567   7.000   6.943   6.562
13874TIP3    H241568   7.014   6.805   6.502
13875TIP3   OH241569   4.834   0.063   1.504
13875TIP3    H141570   4.919   0.107   1.503
13875TIP3    H241571   4.842  -0.004   1.572
13876TIP3   OH241572   5.492   2.986   6.558
13876TIP3    H141573   5.501   2.901   6.601
13876TIP3    H241574   5.547   2.980   6.480
13877TIP3   OH241575   0.611   0.100   3.603
13877TIP3    H141576   0.615   0.026   3.664
13877TIP3    H241577   0.700   0.136   3.604
13878TIP3   OH241578   6.709   5.821   0.955
13878TIP3    H141579   6.689   5.868   1.036
13878TIP3    H241580   6.782   5.763   0.978
13879TIP3   OH241581   4.428   4.928   5.495
13879TIP3    H141582   4.354   4.945   5.553
13879TIP3    H241583   4.447   4.835   5.508
13880TIP3   OH241584   2.162   7.716   0.840
13880TIP3    H141585   2.195   7.719   0.931
13880TIP3    H241586   2.101   7.789   0.835
13881TIP3   OH241587   6.922   4.144   1.544
13881TIP3    H141588   6.881   4.164   1.460
13881TIP3    H241589   6.876   4.066   1.576
13882TIP3   OH241590   5.240   3.643   2.369
13882TIP3    H141591   5.202   3.691   2.295
13882TIP3    H241592   5.332   3.631   2.345
13883TIP3   OH241593   0.646   3.642   3.341
13883TIP3    H141594   0.697   3.723   3.340
13883TIP3    H241595   0.630   3.625   3.434
13884TIP3   OH241596   0.458   5.104   6.441
13884TIP3    H141597   0.491   5.194   6.432
13884TIP3    H241598   0.362   5.114   6.438
13885TIP3   OH241599   1.093   3.415   0.804
13885TIP3    H141600   1.015   3.439   0.855
13885TIP3    H241601   1.103   3.321   0.818
13886TIP3   OH241602   6.114   0.073   4.930
13886TIP3    H141603   6.030   0.104   4.897
13886TIP3    H241604   6.156   0.032   4.854
13887TIP3   OH241605   4.644   6.049   0.790
13887TIP3    H141606   4.720   6.048   0.732
13887TIP3    H241607   4.603   5.963   0.778
13888TIP3   OH241608   7.450   6.776   5.335
13888TIP3    H141609   7.409   6.752   5.419
13888TIP3    H241610   7.385   6.832   5.292
13889TIP3   OH241611   4.728   6.550   5.769
13889TIP3    H141612   4.702   6.526   5.680
13889TIP3    H241613   4.720   6.468   5.819
13890TIP3   OH241614   3.273   3.223   4.249
13890TIP3    H141615   3.258   3.315   4.271
13890TIP3    H241616   3.366   3.219   4.225
13891TIP3   OH241617   7.524   4.269   3.594
13891TIP3    H141618   7.448   4.325   3.577
13891TIP3    H241619   7.518   4.199   3.529
13892TIP3   OH241620   2.401   0.751   1.524
13892TIP3    H141621   2.479   0.790   1.486
13892TIP3    H241622   2.410   0.765   1.618
13893TIP3   OH241623   1.293   3.467   5.021
13893TIP3    H141624   1.272   3.498   5.109
13893TIP3    H241625   1.378   3.425   5.031
13894TIP3   OH241626   3.757   0.150   4.761
13894TIP3    H141627   3.793   0.112   4.681
13894TIP3    H241628   3.794   0.098   4.832
13895TIP3   OH241629   0.977   2.466   3.080
13895TIP3    H141630   0.980   2.455   2.985
13895TIP3    H241631   0.994   2.379   3.115
13896TIP3   OH241632   4.127   5.135   5.467
13896TIP3    H141633   4.060   5.079   5.507
13896TIP3    H241634   4.086   5.169   5.388
13897TIP3   OH241635   2.969   3.882   5.276
13897TIP3    H141636   3.044   3.847   5.227
13897TIP3    H241637   2.909   3.808   5.284
13898TIP3   OH241638   4.829   2.879   6.120
13898TIP3    H141639   4.771   2.884   6.196
13898TIP3    H241640   4.910   2.839   6.154
13899TIP3   OH241641   4.967   3.263   3.342
13899TIP3    H141642   5.041   3.229   3.392
13899TIP3    H241643   4.890   3.234   3.391
13900TIP3   OH241644   0.099   5.259   6.161
13900TIP3    H141645   0.170   5.222   6.214
13900TIP3    H241646   0.026   5.198   6.173
13901TIP3   OH241647   3.866   4.350   5.341
13901TIP3    H141648   3.918   4.419   5.382
13901TIP3    H241649   3.895   4.349   5.250
13902TIP3   OH241650   1.354   4.357   0.724
13902TIP3    H141651   1.367   4.451   0.737
13902TIP3    H241652   1.402   4.337   0.644
13903TIP3   OH241653   2.921   0.667   5.542
13903TIP3    H141654   2.948   0.659   5.633
13903TIP3    H241655   2.985   0.616   5.493
13904TIP3   OH241656   6.213   6.871   4.272
13904TIP3    H141657   6.162   6.808   4.323
13904TIP3    H241658   6.299   6.871   4.313
13905TIP3   OH241659   0.940   7.554   4.382
13905TIP3    H141660   0.921   7.553   4.288
13905TIP3    H241661   0.883   7.487   4.419
13906TIP3   OH241662   1.001   7.466   1.817
13906TIP3    H141663   1.013   7.449   1.723
13906TIP3    H241664   1.088   7.487   1.849
13907TIP3   OH241665   0.259   6.548   3.740
13907TIP3    H141666   0.172   6.509   3.748
13907TIP3    H241667   0.320   6.479   3.766
13908TIP3   OH241668   7.502   7.741   3.433
13908TIP3    H141669   7.455   7.736   3.516
13908TIP3    H241670   7.485   7.658   3.390
13909TIP3   OH241671   2.598   5.944   1.941
13909TIP3    H141672   2.567   5.995   1.866
13909TIP3    H241673   2.649   5.873   1.902
13910TIP3   OH241674   7.450   5.905   3.778
13910TIP3    H141675   7.498   5.964   3.836
13910TIP3    H241676   7.451   5.821   3.823
13911TIP3   OH241677   3.155   0.587   4.398
13911TIP3    H141678   3.193   0.562   4.314
13911TIP3    H241679   3.102   0.664   4.378
13912TIP3   OH241680   1.821   1.056   3.029
13912TIP3    H141681   1.900   1.078   2.980
13912TIP3    H241682   1.765   1.133   3.022
13913TIP3   OH241683   1.284   2.235   5.139
13913TIP3    H141684   1.300   2.215   5.232
13913TIP3    H241685   1.262   2.150   5.100
13914TIP3   OH241686   5.804   0.552   5.612
13914TIP3    H141687   5.720   0.595   5.594
13914TIP3    H241688   5.813   0.486   5.544
13915TIP3   OH241689   6.610   6.550   4.538
13915TIP3    H141690   6.655   6.470   4.567
13915TIP3    H241691   6.619   6.610   4.612
13916TIP3   OH241692   3.232   1.900   6.148
13916TIP3    H141693   3.174   1.869   6.217
13916TIP3    H241694   3.244   1.825   6.090
13917TIP3   OH241695   1.440   1.297   6.671
13917TIP3    H141696   1.512   1.236   6.685
13917TIP3    H241697   1.420   1.331   6.759
13918TIP3   OH241698   4.857   1.467   5.901
13918TIP3    H141699   4.844   1.501   5.812
13918TIP3    H241700   4.780   1.496   5.950
13919TIP3   OH241701   3.110   2.453   2.616
13919TIP3    H141702   3.094   2.377   2.559
13919TIP3    H241703   3.023   2.474   2.652
13920TIP3   OH241704   8.218   2.564   1.598
13920TIP3    H141705   8.153   2.601   1.538
13920TIP3    H241706   8.302   2.582   1.556
13921TIP3   OH241707   3.107   3.631   1.618
13921TIP3    H141708   3.028   3.686   1.614
13921TIP3    H241709   3.137   3.639   1.708
13922TIP3   OH241710   3.448   6.049   3.303
13922TIP3    H141711   3.417   5.967   3.266
13922TIP3    H241712   3.426   6.044   3.396
13923TIP3   OH241713   0.246   0.777   4.762
13923TIP3    H141714   0.307   0.845   4.790
13923TIP3    H241715   0.287   0.738   4.685
13924TIP3   OH241716   1.137   1.806   2.941
13924TIP3    H141717   1.103   1.881   2.893
13924TIP3    H241718   1.062   1.772   2.990
13925TIP3   OH241719   6.425   3.665   1.116
13925TIP3    H141720   6.339   3.675   1.156
13925TIP3    H241721   6.484   3.647   1.189
13926TIP3   OH241722   1.243   7.452   0.747
13926TIP3    H141723   1.212   7.534   0.708
13926TIP3    H241724   1.205   7.383   0.692
13927TIP3   OH241725   4.940   0.037   3.921
13927TIP3    H141726   4.937   0.084   4.005
13927TIP3    H241727   4.987  -0.044   3.941
13928TIP3   OH241728   2.007   0.718   5.725
13928TIP3    H141729   1.994   0.745   5.815
13928TIP3    H241730   2.095   0.679   5.724
13929TIP3   OH241731   0.070   5.656   2.331
13929TIP3    H141732   0.139   5.695   2.385
13929TIP3    H241733   0.068   5.710   2.252
13930TIP3   OH241734   7.899   7.219   3.389
13930TIP3    H141735   7.849   7.299   3.375
13930TIP3    H241736   7.979   7.247   3.433
13931TIP3   OH241737   3.372   0.902   3.339
13931TIP3    H141738   3.402   0.880   3.427
13931TIP3    H241739   3.313   0.977   3.351
13932TIP3   OH241740   6.071  -0.028   5.463
13932TIP3    H141741   5.982  -0.045   5.495
13932TIP3    H241742   6.076   0.068   5.455
13933TIP3   OH241743   2.297   3.217   1.047
13933TIP3    H141744   2.305   3.175   1.133
13933TIP3    H241745   2.272   3.146   0.988
13934TIP3   OH241746   3.875   7.257   6.277
13934TIP3    H141747   3.966   7.276   6.255
13934TIP3    H241748   3.838   7.343   6.300
13935TIP3   OH241749   5.385   6.595   2.756
13935TIP3    H141750   5.413   6.553   2.838
13935TIP3    H241751   5.320   6.659   2.784
13936TIP3   OH241752   4.920   0.982   5.396
13936TIP3    H141753   5.011   0.954   5.408
13936TIP3    H241754   4.882   0.917   5.337
13937TIP3   OH241755   4.940   5.291   0.919
13937TIP3    H141756   5.012   5.232   0.943
13937TIP3    H241757   4.926   5.344   0.997
13938TIP3   OH241758   5.841   5.509   2.900
13938TIP3    H141759   5.796   5.592   2.915
13938TIP3    H241760   5.882   5.489   2.984
13939TIP3   OH241761   2.065   3.304   2.798
13939TIP3    H141762   2.040   3.234   2.858
13939TIP3    H241763   2.142   3.344   2.838
13940TIP3   OH241764   6.166   4.525   3.830
13940TIP3    H141765   6.192   4.441   3.868
13940TIP3    H241766   6.071   4.525   3.836
13941TIP3   OH241767   2.694   5.120   3.921
13941TIP3    H141768   2.600   5.112   3.906
13941TIP3    H241769   2.703   5.126   4.016
13942TIP3   OH241770   3.225   2.789   2.115
13942TIP3    H141771   3.209   2.749   2.201
13942TIP3    H241772   3.259   2.717   2.061
13943TIP3   OH241773   2.983   7.795   5.469
13943TIP3    H141774   2.924   7.738   5.518
13943TIP3    H241775   2.955   7.788   5.378
13944TIP3   OH241776   3.157   5.846   3.845
13944TIP3    H141777   3.174   5.901   3.921
13944TIP3    H241778   3.210   5.767   3.860
13945TIP3   OH241779   5.356   6.073   4.072
13945TIP3    H141780   5.427   6.042   4.129
13945TIP3    H241781   5.300   6.125   4.130
13946TIP3   OH241782   3.581   5.272   5.158
13946TIP3    H141783   3.570   5.330   5.234
13946TIP3    H241784   3.492   5.257   5.126
13947TIP3   OH241785   0.077   0.795   6.625
13947TIP3    H141786   0.066   0.853   6.700
13947TIP3    H241787   0.039   0.712   6.653
13948TIP3   OH241788   4.642   1.923   5.565
13948TIP3    H141789   4.647   1.872   5.485
13948TIP3    H241790   4.571   1.883   5.615
13949TIP3   OH241791   3.633   1.589   5.940
13949TIP3    H141792   3.648   1.532   6.015
13949TIP3    H241793   3.554   1.638   5.962
13950TIP3   OH241794   6.529   5.395   1.486
13950TIP3    H141795   6.528   5.320   1.546
13950TIP3    H241796   6.437   5.406   1.460
13951TIP3   OH241797   0.425   3.687   0.340
13951TIP3    H141798   0.416   3.593   0.355
13951TIP3    H241799   0.518   3.705   0.358
13952TIP3   OH241800   2.512   7.784   5.957
13952TIP3    H141801   2.519   7.696   5.995
13952TIP3    H241802   2.425   7.787   5.919
13953TIP3   OH241803   6.433   2.288   4.578
13953TIP3    H141804   6.419   2.255   4.489
13953TIP3    H241805   6.356   2.342   4.595
13954TIP3   OH241806   3.470   5.764   5.763
13954TIP3    H141807   3.562   5.782   5.745
13954TIP3    H241808   3.424   5.787   5.683
13955TIP3   OH241809   5.164   2.824   4.447
13955TIP3    H141810   5.091   2.869   4.405
13955TIP3    H241811   5.215   2.788   4.375
13956TIP3   OH241812   4.000   6.813   1.341
13956TIP3    H141813   3.952   6.864   1.407
13956TIP3    H241814   3.940   6.741   1.320
13957TIP3   OH241815   0.717   5.378   5.674
13957TIP3    H141816   0.750   5.466   5.658
13957TIP3    H241817   0.740   5.328   5.596
13958TIP3   OH241818   1.650   1.091   6.638
13958TIP3    H141819   1.741   1.121   6.630
13958TIP3    H241820   1.642   1.022   6.572
13959TIP3   OH241821   6.838   3.201   6.189
13959TIP3    H141822   6.902   3.201   6.260
13959TIP3    H241823   6.826   3.294   6.168
13960TIP3   OH241824   5.833   2.989   5.805
13960TIP3    H141825   5.891   2.916   5.784
13960TIP3    H241826   5.883   3.067   5.782
13961TIP3   OH241827   2.499   0.979   3.301
13961TIP3    H141828   2.526   0.921   3.371
13961TIP3    H241829   2.405   0.992   3.315
13962TIP3   OH241830   6.050   1.537   6.319
13962TIP3    H141831   6.097   1.612   6.356
13962TIP3    H241832   5.961   1.548   6.353
13963TIP3   OH241833   6.492   4.400   1.546
13963TIP3    H141834   6.492   4.472   1.609
13963TIP3    H241835   6.402   4.396   1.514
13964TIP3   OH241836   4.679   7.309   0.822
13964TIP3    H141837   4.683   7.260   0.739
13964TIP3    H241838   4.730   7.256   0.883
13965TIP3   OH241839   7.728   3.144   5.910
13965TIP3    H141840   7.636   3.119   5.917
13965TIP3    H241841   7.773   3.064   5.882
13966TIP3   OH241842   0.461   1.585   1.730
13966TIP3    H141843   0.410   1.509   1.703
13966TIP3    H241844   0.461   1.581   1.826
13967TIP3   OH241845   7.679   2.377   3.246
13967TIP3    H141846   7.663   2.339   3.333
13967TIP3    H241847   7.593   2.406   3.217
13968TIP3   OH241848   0.738   6.866   2.610
13968TIP3    H141849   0.768   6.782   2.575
13968TIP3    H241850   0.701   6.912   2.535
13969TIP3   OH241851   4.177   0.720   0.340
13969TIP3    H141852   4.205   0.806   0.372
13969TIP3    H241853   4.258   0.670   0.333
13970TIP3   OH241854   7.563   2.062   2.759
13970TIP3    H141855   7.647   2.074   2.715
13970TIP3    H241856   7.585   2.018   2.841
13971TIP3   OH241857   4.748   5.721   5.214
13971TIP3    H141858   4.743   5.749   5.305
13971TIP3    H241859   4.699   5.788   5.166
13972TIP3   OH241860   0.321   6.856   4.342
13972TIP3    H141861   0.351   6.766   4.329
13972TIP3    H241862   0.400   6.905   4.363
13973TIP3   OH241863   5.302   3.331   6.534
13973TIP3    H141864   5.319   3.422   6.559
13973TIP3    H241865   5.233   3.337   6.468
13974TIP3   OH241866   4.579   2.452   6.467
13974TIP3    H141867   4.580   2.546   6.452
13974TIP3    H241868   4.645   2.417   6.407
13975TIP3   OH241869   6.172   4.493   3.420
13975TIP3    H141870   6.087   4.500   3.464
13975TIP3    H241871   6.208   4.582   3.424
13976TIP3   OH241872   4.632   3.534   4.717
13976TIP3    H141873   4.547   3.490   4.722
13976TIP3    H241874   4.654   3.556   4.808
13977TIP3   OH241875   6.494   0.144   5.173
13977TIP3    H141876   6.575   0.155   5.123
13977TIP3    H241877   6.442   0.082   5.121
13978TIP3   OH241878   1.889   3.104   3.799
13978TIP3    H141879   1.860   3.076   3.712
13978TIP3    H241880   1.845   3.043   3.859
13979TIP3   OH241881   1.574   4.065   0.707
13979TIP3    H141882   1.556   4.149   0.664
13979TIP3    H241883   1.600   4.007   0.636
13980TIP3   OH241884   7.938   7.536   6.375
13980TIP3    H141885   7.939   7.441   6.384
13980TIP3    H241886   8.031   7.560   6.371
13981TIP3   OH241887   3.516   1.467   1.444
13981TIP3    H141888   3.545   1.390   1.394
13981TIP3    H241889   3.585   1.481   1.509
13982TIP3   OH241890   7.218   3.519   6.211
13982TIP3    H141891   7.278   3.542   6.282
13982TIP3    H241892   7.145   3.476   6.255
13983TIP3   OH241893   0.258   5.620   0.370
13983TIP3    H141894   0.241   5.539   0.322
13983TIP3    H241895   0.199   5.684   0.331
13984TIP3   OH241896   5.646   2.746   2.091
13984TIP3    H141897   5.612   2.774   2.176
13984TIP3    H241898   5.721   2.804   2.075
13985TIP3   OH241899   5.531   0.501   3.270
13985TIP3    H141900   5.494   0.560   3.335
13985TIP3    H241901   5.458   0.480   3.212
13986TIP3   OH241902   7.487   3.975   1.811
13986TIP3    H141903   7.521   4.043   1.869
13986TIP3    H241904   7.561   3.916   1.797
13987TIP3   OH241905   7.731   2.353   6.743
13987TIP3    H141906   7.699   2.402   6.819
13987TIP3    H241907   7.704   2.405   6.668
13988TIP3   OH241908   0.098   3.895   0.561
13988TIP3    H141909   0.016   3.845   0.552
13988TIP3    H241910   0.128   3.908   0.471
13989TIP3   OH241911   3.910   0.268   6.623
13989TIP3    H141912   3.869   0.351   6.600
13989TIP3    H241913   3.999   0.274   6.589
13990TIP3   OH241914   8.333   1.972   0.946
13990TIP3    H141915   8.249   1.978   0.901
13990TIP3    H241916   8.347   2.059   0.982
13991TIP3   OH241917   3.340   5.358   0.138
13991TIP3    H141918   3.335   5.450   0.115
13991TIP3    H241919   3.355   5.313   0.055
13992TIP3   OH241920   6.906   2.656   3.952
13992TIP3    H141921   6.955   2.600   4.012
13992TIP3    H241922   6.884   2.734   4.005
13993TIP3   OH241923   2.913   5.121   3.035
13993TIP3    H141924   2.957   5.039   3.014
13993TIP3    H241925   2.956   5.153   3.114
13994TIP3   OH241926   1.124   6.187   1.383
13994TIP3    H141927   1.111   6.282   1.382
13994TIP3    H241928   1.045   6.153   1.425
13995TIP3   OH241929   4.898   6.983   3.250
13995TIP3    H141930   4.908   7.012   3.159
13995TIP3    H241931   4.938   6.896   3.252
13996TIP3   OH241932   4.328   6.049   1.501
13996TIP3    H141933   4.287   6.130   1.469
13996TIP3    H241934   4.322   6.055   1.596
13997TIP3   OH241935   2.742   1.514   4.611
13997TIP3    H141936   2.745   1.508   4.515
13997TIP3    H241937   2.830   1.541   4.636
13998TIP3   OH241938   0.684   2.089   3.960
13998TIP3    H141939   0.740   2.029   3.911
13998TIP3    H241940   0.728   2.173   3.955
13999TIP3   OH241941   3.845   3.616   6.414
13999TIP3    H141942   3.924   3.668   6.402
13999TIP3    H241943   3.820   3.630   6.505
14000TIP3   OH241944   4.202   7.463   2.927
14000TIP3    H141945   4.134   7.400   2.903
14000TIP3    H241946   4.283   7.413   2.927
14001TIP3   OH241947   2.619   7.691   1.462
14001TIP3    H141948   2.635   7.700   1.368
14001TIP3    H241949   2.703   7.665   1.499
14002TIP3   OH241950   7.015   2.045   2.924
14002TIP3    H141951   6.946   2.068   2.985
14002TIP3    H241952   7.031   1.952   2.939
14003TIP3   OH241953   2.562   1.178   5.311
14003TIP3    H141954   2.492   1.243   5.300
14003TIP3    H241955   2.637   1.229   5.341
14004TIP3   OH241956   2.234   0.001   3.432
14004TIP3    H141957   2.142  -0.017   3.448
14004TIP3    H241958   2.238   0.024   3.339
14005TIP3   OH241959   7.335   3.080   1.261
14005TIP3    H141960   7.272   3.056   1.193
14005TIP3    H241961   7.405   3.126   1.214
14006TIP3   OH241962   6.241   0.243   3.032
14006TIP3    H141963   6.281   0.329   3.048
14006TIP3    H241964   6.304   0.180   3.067
14007TIP3   OH241965   5.992   0.840   5.794
14007TIP3    H141966   5.897   0.838   5.791
14007TIP3    H241967   6.016   0.925   5.755
14008TIP3   OH241968   1.308   3.535   5.291
14008TIP3    H141969   1.377   3.597   5.268
14008TIP3    H241970   1.355   3.460   5.329
14009TIP3   OH241971   6.676   5.575   6.881
14009TIP3    H141972   6.714   5.514   6.818
14009TIP3    H241973   6.740   5.646   6.887
14010TIP3   OH241974   7.195   6.812   4.195
14010TIP3    H141975   7.132   6.740   4.199
14010TIP3    H241976   7.144   6.886   4.162
14011TIP3   OH241977   0.030   7.269   2.728
14011TIP3    H141978   0.086   7.222   2.791
14011TIP3    H241979   0.091   7.327   2.681
14012TIP3   OH241980   2.643   6.944   0.456
14012TIP3    H141981   2.639   7.027   0.504
14012TIP3    H241982   2.658   6.878   0.524
14013TIP3   OH241983   4.296   7.753   0.372
14013TIP3    H141984   4.269   7.807   0.298
14013TIP3    H241985   4.391   7.765   0.378
14014TIP3   OH241986   1.976   7.762   3.412
14014TIP3    H141987   1.937   7.780   3.497
14014TIP3    H241988   1.975   7.847   3.367
14015TIP3   OH241989   5.493   1.371   3.690
14015TIP3    H141990   5.503   1.461   3.661
14015TIP3    H241991   5.442   1.377   3.771
14016TIP3   OH241992   1.615   1.238   5.301
14016TIP3    H141993   1.639   1.146   5.287
14016TIP3    H241994   1.585   1.269   5.216
14017TIP3   OH241995   6.788   3.735   4.386
14017TIP3    H141996   6.727   3.662   4.394
14017TIP3    H241997   6.874   3.694   4.373
14018TIP3   OH241998   4.539   4.974   2.321
14018TIP3    H141999   4.562   4.882   2.335
14018TIP3    H242000   4.490   4.974   2.239
14019TIP3   OH242001   3.595   5.273   0.389
14019TIP3    H142002   3.651   5.196   0.392
14019TIP3    H242003   3.589   5.295   0.296
14020TIP3   OH242004   7.406   6.816   2.846
14020TIP3    H142005   7.436   6.762   2.772
14020TIP3    H242006   7.482   6.823   2.903
14021TIP3   OH242007   2.660   3.939   2.685
14021TIP3    H142008   2.578   3.895   2.706
14021TIP3    H242009   2.718   3.917   2.757
14022TIP3   OH242010   2.609   5.872   1.005
14022TIP3    H142011   2.524   5.916   1.010
14022TIP3    H242012   2.671   5.943   0.990
14023TIP3   OH242013   1.895   7.219   3.903
14023TIP3    H142014   1.915   7.152   3.968
14023TIP3    H242015   1.813   7.190   3.863
14024TIP3   OH242016   6.747   1.421   5.460
14024TIP3    H142017   6.755   1.326   5.466
14024TIP3    H242018   6.652   1.437   5.461
14025TIP3   OH242019   7.472   4.385   4.935
14025TIP3    H142020   7.521   4.377   4.853
14025TIP3    H242021   7.537   4.412   5.000
14026TIP3   OH242022   5.023   0.400   1.323
14026TIP3    H142023   4.977   0.484   1.330
14026TIP3    H242024   5.110   0.423   1.291
14027TIP3   OH242025   5.204   7.314   2.697
14027TIP3    H142026   5.158   7.317   2.613
14027TIP3    H242027   5.287   7.358   2.680
14028TIP3   OH242028   4.550   0.525   2.700
14028TIP3    H142029   4.612   0.491   2.764
14028TIP3    H242030   4.483   0.569   2.752
14029TIP3   OH242031   4.875   6.047   2.444
14029TIP3    H142032   4.905   6.113   2.508
14029TIP3    H242033   4.882   5.964   2.490
14030TIP3   OH242034   8.259   5.313   3.871
14030TIP3    H142035   8.285   5.383   3.931
14030TIP3    H242036   8.271   5.351   3.784
14031TIP3   OH242037   8.078   3.105   0.732
14031TIP3    H142038   8.123   3.188   0.749
14031TIP3    H242039   8.136   3.058   0.671
14032TIP3   OH242040   1.882   1.375   6.738
14032TIP3    H142041   1.901   1.390   6.646
14032TIP3    H242042   1.881   1.462   6.777
14033TIP3   OH242043   0.634   2.299   6.638
14033TIP3    H142044   0.647   2.390   6.662
14033TIP3    H242045   0.634   2.252   6.721
14034TIP3   OH242046   2.209   0.749   6.367
14034TIP3    H142047   2.250   0.700   6.296
14034TIP3    H242048   2.144   0.804   6.324
14035TIP3   OH242049   2.296   3.915   1.569
14035TIP3    H142050   2.369   3.862   1.537
14035TIP3    H242051   2.235   3.918   1.495
14036TIP3   OH242052   1.135   4.523   2.640
14036TIP3    H142053   1.130   4.584   2.567
14036TIP3    H242054   1.047   4.484   2.645
14037TIP3   OH242055   6.063   3.572   4.360
14037TIP3    H142056   6.155   3.556   4.341
14037TIP3    H242057   6.064   3.643   4.424
14038TIP3   OH242058   6.225   4.861   2.788
14038TIP3    H142059   6.241   4.768   2.805
14038TIP3    H242060   6.274   4.879   2.708
14039TIP3   OH242061   2.123   4.215   2.135
14039TIP3    H142062   2.107   4.307   2.112
14039TIP3    H242063   2.195   4.188   2.078
14040TIP3   OH242064   5.765   4.272   6.020
14040TIP3    H142065   5.734   4.314   6.100
14040TIP3    H242066   5.858   4.259   6.034
14041TIP3   OH242067   0.470   4.575   0.369
14041TIP3    H142068   0.459   4.636   0.296
14041TIP3    H242069   0.545   4.521   0.343
14042TIP3   OH242070   4.573   7.641   4.750
14042TIP3    H142071   4.553   7.550   4.773
14042TIP3    H242072   4.544   7.649   4.659
14043TIP3   OH242073   0.498   0.243   1.040
14043TIP3    H142074   0.561   0.283   1.100
14043TIP3    H242075   0.546   0.171   0.999
14044TIP3   OH242076   6.942   6.101   1.781
14044TIP3    H142077   6.916   6.065   1.696
14044TIP3    H242078   6.901   6.043   1.845
14045TIP3   OH242079   5.743   0.301   4.328
14045TIP3    H142080   5.825   0.284   4.374
14045TIP3    H242081   5.722   0.392   4.350
14046TIP3   OH242082   6.731   4.284   5.026
14046TIP3    H142083   6.661   4.349   5.033
14046TIP3    H242084   6.788   4.317   4.957
14047TIP3   OH242085   3.336   1.344   3.900
14047TIP3    H142086   3.370   1.265   3.857
14047TIP3    H242087   3.345   1.326   3.994
14048TIP3   OH242088   2.770   3.456   1.432
14048TIP3    H142089   2.852   3.430   1.475
14048TIP3    H242090   2.776   3.418   1.345
14049TIP3   OH242091   7.382   2.259   1.701
14049TIP3    H142092   7.368   2.354   1.705
14049TIP3    H242093   7.295   2.222   1.691
14050TIP3   OH242094   1.702   4.439   2.020
14050TIP3    H142095   1.699   4.535   2.015
14050TIP3    H242096   1.763   4.421   2.091
14051TIP3   OH242097   3.942   1.286   3.448
14051TIP3    H142098   4.009   1.218   3.456
14051TIP3    H242099   3.959   1.346   3.520
14052TIP3   OH242100   6.898   5.992   0.490
14052TIP3    H142101   6.846   6.067   0.518
14052TIP3    H242102   6.951   5.970   0.567
14053TIP3   OH242103   8.081   4.642   5.224
14053TIP3    H142104   7.997   4.644   5.177
14053TIP3    H242105   8.093   4.732   5.256
14054TIP3   OH242106   4.964   5.058   5.154
14054TIP3    H142107   4.871   5.061   5.178
14054TIP3    H242108   4.970   5.117   5.078
14055TIP3   OH242109   0.446   5.330   3.968
14055TIP3    H142110   0.414   5.351   4.056
14055TIP3    H242111   0.409   5.399   3.912
14056TIP3   OH242112   1.188   7.508   1.017
14056TIP3    H142113   1.243   7.483   0.943
14056TIP3    H242114   1.146   7.427   1.045
14057TIP3   OH242115   5.750   0.744   6.528
14057TIP3    H142116   5.684   0.786   6.473
14057TIP3    H242117   5.798   0.817   6.568
14058TIP3   OH242118   4.394   5.052   4.928
14058TIP3    H142119   4.472   4.997   4.941
14058TIP3    H242120   4.323   4.989   4.915
14059TIP3   OH242121   1.618   6.750   1.019
14059TIP3    H142122   1.629   6.773   0.927
14059TIP3    H242123   1.618   6.834   1.065
14060TIP3   OH242124   5.863   6.639   2.935
14060TIP3    H142125   5.871   6.677   2.847
14060TIP3    H242126   5.772   6.652   2.959
14061TIP3   OH242127   0.875   0.440   0.809
14061TIP3    H142128   0.923   0.465   0.731
14061TIP3    H242129   0.785   0.467   0.792
14062TIP3   OH242130   5.686   0.521   1.616
14062TIP3    H142131   5.607   0.539   1.667
14062TIP3    H242132   5.657   0.515   1.526
14063TIP3   OH242133   1.142   2.432   2.288
14063TIP3    H142134   1.205   2.454   2.356
14063TIP3    H242135   1.136   2.512   2.235
14064TIP3   OH242136   6.231   1.360   4.473
14064TIP3    H142137   6.289   1.358   4.397
14064TIP3    H242138   6.283   1.323   4.544
14065TIP3   OH242139   6.084   1.831   0.146
14065TIP3    H142140   6.131   1.878   0.215
14065TIP3    H242141   6.019   1.779   0.192
14066TIP3   OH242142   0.184   6.307   6.344
14066TIP3    H142143   0.162   6.272   6.430
14066TIP3    H242144   0.102   6.305   6.295
14067TIP3   OH242145   1.798   6.371   5.345
14067TIP3    H142146   1.880   6.354   5.300
14067TIP3    H242147   1.810   6.334   5.433
14068TIP3   OH242148   1.755   4.523   4.003
14068TIP3    H142149   1.713   4.483   3.927
14068TIP3    H242150   1.688   4.520   4.071
14069TIP3   OH242151   3.250   3.946   0.049
14069TIP3    H142152   3.323   3.996   0.085
14069TIP3    H242153   3.267   3.944  -0.046
14070TIP3   OH242154   2.724   2.310   4.673
14070TIP3    H142155   2.817   2.326   4.658
14070TIP3    H242156   2.721   2.229   4.724
14071TIP3   OH242157   0.353   7.143   4.041
14071TIP3    H142158   0.411   7.069   4.021
14071TIP3    H242159   0.409   7.207   4.083
14072TIP3   OH242160   5.074   1.973   5.071
14072TIP3    H142161   5.041   1.951   4.983
14072TIP3    H242162   4.995   1.992   5.121
14073TIP3   OH242163   1.236   2.550   2.947
14073TIP3    H142164   1.201   2.583   3.030
14073TIP3    H242165   1.196   2.607   2.881
14074TIP3   OH242166   2.893   4.706   2.238
14074TIP3    H142167   2.964   4.722   2.301
14074TIP3    H242168   2.904   4.774   2.171
14075TIP3   OH242169   1.197   6.665   2.213
14075TIP3    H142170   1.177   6.743   2.162
14075TIP3    H242171   1.290   6.649   2.197
14076TIP3   OH242172   3.433   3.064   3.034
14076TIP3    H142173   3.498   3.000   3.007
14076TIP3    H242174   3.389   3.024   3.109
14077TIP3   OH242175   5.461   4.161   4.826
14077TIP3    H142176   5.485   4.202   4.909
14077TIP3    H242177   5.378   4.202   4.802
14078TIP3   OH242178   0.972   7.588   2.542
14078TIP3    H142179   0.909   7.548   2.602
14078TIP3    H242180   1.045   7.527   2.540
14079TIP3   OH242181   4.649   2.869   5.195
14079TIP3    H142182   4.565   2.890   5.235
14079TIP3    H242183   4.714   2.915   5.248
14080TIP3   OH242184   7.447   0.305   4.205
14080TIP3    H142185   7.384   0.299   4.132
14080TIP3    H242186   7.396   0.342   4.277
14081TIP3   OH242187   3.450   7.298   0.969
14081TIP3    H142188   3.495   7.213   0.971
14081TIP3    H242189   3.415   7.308   1.058
14082TIP3   OH242190   7.806   4.758   5.342
14082TIP3    H142191   7.891   4.795   5.363
14082TIP3    H242192   7.793   4.778   5.249
14083TIP3   OH242193   2.779   3.660   4.902
14083TIP3    H142194   2.732   3.589   4.859
14083TIP3    H242195   2.716   3.732   4.904
14084TIP3   OH242196   3.830   2.587   0.684
14084TIP3    H142197   3.845   2.680   0.697
14084TIP3    H242198   3.801   2.555   0.770
14085TIP3   OH242199   7.455   6.918   4.281
14085TIP3    H142200   7.382   6.932   4.220
14085TIP3    H242201   7.513   6.858   4.235
14086TIP3   OH242202   5.685   1.895   4.487
14086TIP3    H142203   5.738   1.821   4.460
14086TIP3    H242204   5.740   1.944   4.548
14087TIP3   OH242205   3.076   5.090   5.582
14087TIP3    H142206   3.015   5.062   5.513
14087TIP3    H242207   3.023   5.091   5.662
14088TIP3   OH242208   3.490   1.560   0.407
14088TIP3    H142209   3.519   1.498   0.341
14088TIP3    H242210   3.532   1.530   0.488
14089TIP3   OH242211   5.179   2.270   1.290
14089TIP3    H142212   5.187   2.240   1.380
14089TIP3    H242213   5.098   2.320   1.289
14090TIP3   OH242214   3.413   4.550   1.136
14090TIP3    H142215   3.428   4.460   1.164
14090TIP3    H242216   3.357   4.543   1.059
14091TIP3   OH242217   1.711   3.204   2.084
14091TIP3    H142218   1.623   3.241   2.074
14091TIP3    H242219   1.761   3.274   2.125
14092TIP3   OH242220   1.648   3.610   2.676
14092TIP3    H142221   1.706   3.537   2.656
14092TIP3    H242222   1.607   3.587   2.759
14093TIP3   OH242223   0.914   7.530   0.214
14093TIP3    H142224   0.898   7.511   0.307
14093TIP3    H242225   1.006   7.553   0.210
14094TIP3   OH242226   3.147   2.344   2.006
14094TIP3    H142227   3.131   2.267   2.061
14094TIP3    H242228   3.126   2.315   1.917
14095TIP3   OH242229   4.692   0.550   4.692
14095TIP3    H142230   4.746   0.618   4.653
14095TIP3    H242231   4.659   0.588   4.773
14096TIP3   OH242232   4.013   1.099   5.704
14096TIP3    H142233   4.021   1.022   5.648
14096TIP3    H242234   3.924   1.130   5.688
14097TIP3   OH242235   1.801   0.492   6.232
14097TIP3    H142236   1.876   0.506   6.290
14097TIP3    H242237   1.731   0.543   6.272
14098TIP3   OH242238   7.330   1.828   2.618
14098TIP3    H142239   7.371   1.893   2.674
14098TIP3    H242240   7.290   1.880   2.547
14099TIP3   OH242241   0.342   1.016   0.259
14099TIP3    H142242   0.343   1.103   0.219
14099TIP3    H242243   0.401   1.024   0.334
14100TIP3   OH242244   3.923   0.078   4.282
14100TIP3    H142245   3.852   0.136   4.307
14100TIP3    H242246   3.999   0.111   4.330
14101TIP3   OH242247   4.684   7.152   5.985
14101TIP3    H142248   4.633   7.222   6.024
14101TIP3    H242249   4.775   7.170   6.010
14102TIP3   OH242250   5.409   0.857   5.806
14102TIP3    H142251   5.423   0.762   5.814
14102TIP3    H242252   5.316   0.868   5.821
14103TIP3   OH242253   4.042   0.814   1.886
14103TIP3    H142254   3.951   0.841   1.877
14103TIP3    H242255   4.079   0.874   1.951
14104TIP3   OH242256   0.682   5.752   4.912
14104TIP3    H142257   0.707   5.787   4.826
14104TIP3    H242258   0.628   5.821   4.951
14105TIP3   OH242259   5.662   0.029   6.595
14105TIP3    H142260   5.647   0.112   6.639
14105TIP3    H242261   5.721  -0.019   6.653
14106TIP3   OH242262   1.548   7.741   4.359
14106TIP3    H142263   1.572   7.824   4.316
14106TIP3    H242264   1.630   7.710   4.397
14107TIP3   OH242265   5.674   6.570   1.558
14107TIP3    H142266   5.635   6.483   1.554
14107TIP3    H242267   5.726   6.569   1.638
14108TIP3   OH242268   2.681   6.889   1.817
14108TIP3    H142269   2.754   6.883   1.880
14108TIP3    H242270   2.645   6.976   1.831
14109TIP3   OH242271   7.178   3.087   5.957
14109TIP3    H142272   7.210   3.065   6.044
14109TIP3    H242273   7.207   3.177   5.943
14110TIP3   OH242274   2.341   3.402   2.010
14110TIP3    H142275   2.427   3.429   1.978
14110TIP3    H242276   2.338   3.307   1.995
14111TIP3   OH242277   8.145   3.812   4.578
14111TIP3    H142278   8.081   3.832   4.510
14111TIP3    H242279   8.104   3.745   4.632
14112TIP3   OH242280   4.420   0.169   5.843
14112TIP3    H142281   4.372   0.093   5.809
14112TIP3    H242282   4.416   0.160   5.938
14113TIP3   OH242283   0.797   1.797   2.020
14113TIP3    H142284   0.891   1.781   2.030
14113TIP3    H242285   0.780   1.870   2.080
14114TIP3   OH242286   1.772   1.222   4.061
14114TIP3    H142287   1.735   1.294   4.009
14114TIP3    H242288   1.863   1.216   4.031
14115TIP3   OH242289   7.867   5.712   4.389
14115TIP3    H142290   7.905   5.665   4.315
14115TIP3    H242291   7.932   5.779   4.411
14116TIP3   OH242292   7.893   1.845   2.428
14116TIP3    H142293   7.946   1.891   2.492
14116TIP3    H242294   7.956   1.816   2.362
14117TIP3   OH242295   0.622   3.485   5.875
14117TIP3    H142296   0.705   3.440   5.860
14117TIP3    H242297   0.617   3.549   5.804
14118TIP3   OH242298   1.946   5.590   3.935
14118TIP3    H142299   2.019   5.630   3.983
14118TIP3    H242300   1.886   5.662   3.920
14119TIP3   OH242301   2.240   0.708   0.458
14119TIP3    H142302   2.272   0.758   0.383
14119TIP3    H242303   2.159   0.667   0.427
14120TIP3   OH242304   6.823   0.430   2.550
14120TIP3    H142305   6.754   0.394   2.606
14120TIP3    H242306   6.777   0.487   2.488
14121TIP3   OH242307   2.384   6.468   5.500
14121TIP3    H142308   2.465   6.428   5.469
14121TIP3    H242309   2.354   6.520   5.425
14122TIP3   OH242310   4.343   1.877   0.657
14122TIP3    H142311   4.272   1.813   0.659
14122TIP3    H242312   4.342   1.910   0.567
14123TIP3   OH242313   3.089   1.408   0.857
14123TIP3    H142314   3.090   1.434   0.765
14123TIP3    H242315   3.090   1.491   0.905
14124TIP3   OH242316   5.742   2.190   2.225
14124TIP3    H142317   5.722   2.237   2.144
14124TIP3    H242318   5.703   2.244   2.294
14125TIP3   OH242319   4.828   5.305   6.354
14125TIP3    H142320   4.878   5.237   6.400
14125TIP3    H242321   4.763   5.333   6.418
14126TIP3   OH242322   0.712   1.126   5.432
14126TIP3    H142323   0.634   1.076   5.456
14126TIP3    H242324   0.679   1.194   5.374
14127TIP3   OH242325   4.337   1.377   5.130
14127TIP3    H142326   4.357   1.317   5.202
14127TIP3    H242327   4.375   1.335   5.053
14128TIP3   OH242328   7.587   6.569   3.316
14128TIP3    H142329   7.533   6.648   3.314
14128TIP3    H242330   7.654   6.588   3.382
14129TIP3   OH242331   7.876   6.549  -0.023
14129TIP3    H142332   7.876   6.642   0.003
14129TIP3    H242333   7.830   6.504   0.048
14130TIP3   OH242334   2.046   7.151   0.579
14130TIP3    H142335   2.012   7.066   0.553
14130TIP3    H242336   2.138   7.150   0.551
14131TIP3   OH242337   2.141   3.045   0.476
14131TIP3    H142338   2.162   2.961   0.517
14131TIP3    H242339   2.222   3.071   0.432
14132TIP3   OH242340   3.742   4.675   6.313
14132TIP3    H142341   3.727   4.717   6.397
14132TIP3    H242342   3.777   4.588   6.336
14133TIP3   OH242343   7.485   5.301   1.086
14133TIP3    H142344   7.538   5.309   1.006
14133TIP3    H242345   7.398   5.330   1.059
14134TIP3   OH242346   2.730   1.969   3.185
14134TIP3    H142347   2.773   2.001   3.106
14134TIP3    H242348   2.773   2.016   3.257
14135TIP3   OH242349   4.089   5.539   2.793
14135TIP3    H142350   4.143   5.478   2.742
14135TIP3    H242351   4.108   5.625   2.756
14136TIP3   OH242352   5.696   3.327   6.344
14136TIP3    H142353   5.763   3.315   6.277
14136TIP3    H242354   5.691   3.422   6.355
14137TIP3   OH242355   3.809   7.456   1.510
14137TIP3    H142356   3.903   7.455   1.524
14137TIP3    H242357   3.798   7.481   1.418
14138TIP3   OH242358   3.139   7.403   5.525
14138TIP3    H142359   3.134   7.344   5.449
14138TIP3    H242360   3.214   7.459   5.506
14139TIP3   OH242361   1.283   1.008   5.307
14139TIP3    H142362   1.189   0.993   5.294
14139TIP3    H242363   1.288   1.095   5.346
14140TIP3   OH242364   3.764   4.805   6.554
14140TIP3    H142365   3.793   4.896   6.552
14140TIP3    H242366   3.688   4.806   6.613
14141TIP3   OH242367   8.149   1.083   1.970
14141TIP3    H142368   8.206   1.120   2.037
14141TIP3    H242369   8.201   1.011   1.932
14142TIP3   OH242370   4.695   2.447   3.446
14142TIP3    H142371   4.646   2.442   3.364
14142TIP3    H242372   4.746   2.528   3.440
14143TIP3   OH242373   7.364   6.614   4.324
14143TIP3    H142374   7.377   6.596   4.417
14143TIP3    H242375   7.324   6.701   4.321
14144TIP3   OH242376   5.376   6.906   3.611
14144TIP3    H142377   5.377   6.971   3.540
14144TIP3    H242378   5.462   6.913   3.651
14145TIP3   OH242379   1.164   4.797   2.779
14145TIP3    H142380   1.184   4.715   2.825
14145TIP3    H242381   1.249   4.837   2.763
14146TIP3   OH242382   4.484   0.907   2.557
14146TIP3    H142383   4.524   0.979   2.508
14146TIP3    H242384   4.512   0.828   2.510
14147TIP3   OH242385   3.350   2.389   2.718
14147TIP3    H142386   3.343   2.295   2.733
14147TIP3    H242387   3.263   2.415   2.689
14148TIP3   OH242388   7.648   1.726   6.232
14148TIP3    H142389   7.712   1.781   6.188
14148TIP3    H242390   7.635   1.767   6.318
14149TIP3   OH242391   0.870   0.405   6.730
14149TIP3    H142392   0.871   0.420   6.635
14149TIP3    H242393   0.959   0.426   6.758
14150TIP3   OH242394   7.978   3.917   3.163
14150TIP3    H142395   7.974   3.822   3.154
14150TIP3    H242396   7.989   3.933   3.256
14151TIP3   OH242397   3.925   3.591   2.542
14151TIP3    H142398   4.014   3.608   2.510
14151TIP3    H242399   3.899   3.674   2.583
14152TIP3   OH242400   2.294   5.922   3.938
14152TIP3    H142401   2.275   5.962   4.023
14152TIP3    H242402   2.304   5.829   3.958
14153TIP3   OH242403   6.109   4.728   6.740
14153TIP3    H142404   6.079   4.678   6.816
14153TIP3    H242405   6.099   4.819   6.766
14154TIP3   OH242406   3.580   3.456   1.382
14154TIP3    H142407   3.558   3.545   1.410
14154TIP3    H242408   3.620   3.416   1.459
14155TIP3   OH242409   1.069   7.096   4.783
14155TIP3    H142410   1.005   7.144   4.835
14155TIP3    H242411   1.023   7.017   4.756
14156TIP3   OH242412   3.774   2.273   4.335
14156TIP3    H142413   3.866   2.273   4.361
14156TIP3    H242414   3.736   2.349   4.380
14157TIP3   OH242415   0.925   7.633   5.506
14157TIP3    H142416   0.854   7.682   5.546
14157TIP3    H242417   1.005   7.678   5.535
14158TIP3   OH242418   7.278   4.736   0.158
14158TIP3    H142419   7.200   4.788   0.140
14158TIP3    H242420   7.283   4.734   0.254
14159TIP3   OH242421   7.117   5.835   4.721
14159TIP3    H142422   7.187   5.853   4.658
14159TIP3    H242423   7.145   5.756   4.766
14160TIP3   OH242424   7.946   3.538   0.615
14160TIP3    H142425   7.940   3.570   0.705
14160TIP3    H242426   8.037   3.509   0.606
14161TIP3   OH242427   1.482   6.250   3.877
14161TIP3    H142428   1.405   6.307   3.869
14161TIP3    H242429   1.445   6.162   3.878
14162TIP3   OH242430   5.531   0.086   2.021
14162TIP3    H142431   5.500   0.091   2.111
14162TIP3    H242432   5.603   0.149   2.016
14163TIP3   OH242433   1.878   0.698   3.660
14163TIP3    H142434   1.961   0.745   3.659
14163TIP3    H242435   1.858   0.689   3.753
14164TIP3   OH242436   1.026   7.279   0.306
14164TIP3    H142437   1.120   7.276   0.325
14164TIP3    H242438   1.020   7.322   0.220
14165TIP3   OH242439   3.810   3.966   2.939
14165TIP3    H142440   3.726   3.969   2.986
14165TIP3    H242441   3.859   4.040   2.974
14166TIP3   OH242442   0.724   6.917   1.248
14166TIP3    H142443   0.809   6.881   1.274
14166TIP3    H242444   0.662   6.845   1.263
14167TIP3   OH242445   1.853   6.937   2.252
14167TIP3    H142446   1.899   6.914   2.172
14167TIP3    H242447   1.864   7.032   2.261
14168TIP3   OH242448   6.380   4.924   1.777
14168TIP3    H142449   6.293   4.947   1.810
14168TIP3    H242450   6.422   4.878   1.850
14169TIP3   OH242451   6.602   6.452   3.455
14169TIP3    H142452   6.584   6.473   3.363
14169TIP3    H242453   6.677   6.393   3.452
14170TIP3   OH242454   6.359   2.542   4.423
14170TIP3    H142455   6.340   2.627   4.463
14170TIP3    H242456   6.454   2.533   4.429
14171TIP3   OH242457   4.847   6.428   4.281
14171TIP3    H142458   4.917   6.494   4.281
14171TIP3    H242459   4.878   6.359   4.339
14172TIP3   OH242460   2.004   2.057   1.078
14172TIP3    H142461   1.963   2.078   1.162
14172TIP3    H242462   2.084   2.010   1.101
14173TIP3   OH242463   0.650   6.269   4.277
14173TIP3    H142464   0.581   6.204   4.265
14173TIP3    H242465   0.720   6.242   4.217
14174TIP3   OH242466   4.504   0.103   1.929
14174TIP3    H142467   4.453   0.027   1.902
14174TIP3    H242468   4.569   0.069   1.990
14175TIP3   OH242469   0.611   0.425   2.267
14175TIP3    H142470   0.615   0.400   2.175
14175TIP3    H242471   0.692   0.475   2.281
14176TIP3   OH242472   7.459   2.831   5.383
14176TIP3    H142473   7.414   2.900   5.334
14176TIP3    H242474   7.389   2.774   5.413
14177TIP3   OH242475   7.900   0.387   6.045
14177TIP3    H142476   7.858   0.473   6.044
14177TIP3    H242477   7.828   0.325   6.034
14178TIP3   OH242478   3.767   2.459   2.634
14178TIP3    H142479   3.699   2.442   2.699
14178TIP3    H242480   3.721   2.456   2.550
14179TIP3   OH242481   5.763   3.580   6.089
14179TIP3    H142482   5.805   3.524   6.155
14179TIP3    H242483   5.835   3.606   6.031
14180TIP3   OH242484   1.661   7.454   5.757
14180TIP3    H142485   1.670   7.361   5.740
14180TIP3    H242486   1.589   7.460   5.820
14181TIP3   OH242487   7.240   4.264   1.635
14181TIP3    H142488   7.268   4.345   1.593
14181TIP3    H242489   7.318   4.208   1.632
14182TIP3   OH242490   5.459   7.385   2.570
14182TIP3    H142491   5.503   7.388   2.655
14182TIP3    H242492   5.447   7.477   2.546
14183TIP3   OH242493   4.569   1.596   1.389
14183TIP3    H142494   4.624   1.518   1.380
14183TIP3    H242495   4.481   1.567   1.367
14184TIP3   OH242496   3.937   0.875   3.342
14184TIP3    H142497   4.021   0.873   3.389
14184TIP3    H242498   3.875   0.836   3.403
14185TIP3   OH242499   0.630   2.212   1.276
14185TIP3    H142500   0.590   2.252   1.353
14185TIP3    H242501   0.557   2.169   1.230
14186TIP3   OH242502   2.795   3.068   2.209
14186TIP3    H142503   2.886   3.048   2.186
14186TIP3    H242504   2.748   3.063   2.126
14187TIP3   OH242505   4.728   6.388   4.662
14187TIP3    H142506   4.747   6.301   4.628
14187TIP3    H242507   4.699   6.374   4.752
14188TIP3   OH242508   1.796   5.869   0.242
14188TIP3    H142509   1.805   5.930   0.315
14188TIP3    H242510   1.806   5.782   0.282
14189TIP3   OH242511   8.245   4.297   4.172
14189TIP3    H142512   8.219   4.229   4.233
14189TIP3    H242513   8.238   4.255   4.086
14190TIP3   OH242514   5.903   1.058   4.549
14190TIP3    H142515   5.996   1.047   4.567
14190TIP3    H242516   5.898   1.130   4.487
14191TIP3   OH242517   8.218   5.865   2.946
14191TIP3    H142518   8.235   5.956   2.920
14191TIP3    H242519   8.239   5.863   3.040
14192TIP3   OH242520   2.648   0.445   0.839
14192TIP3    H142521   2.701   0.491   0.774
14192TIP3    H242522   2.635   0.358   0.802
14193TIP3   OH242523   5.311   1.467   3.872
14193TIP3    H142524   5.293   1.455   3.966
14193TIP3    H242525   5.225   1.458   3.830
14194TIP3   OH242526   4.642   0.348   0.327
14194TIP3    H142527   4.677   0.375   0.242
14194TIP3    H242528   4.602   0.263   0.310
14195TIP3   OH242529   4.691   5.698   4.907
14195TIP3    H142530   4.625   5.662   4.966
14195TIP3    H242531   4.651   5.694   4.820
14196TIP3   OH242532   6.182   7.217   2.672
14196TIP3    H142533   6.148   7.169   2.596
14196TIP3    H242534   6.212   7.149   2.732
14197TIP3   OH242535   5.153   0.225   2.243
14197TIP3    H142536   5.223   0.261   2.299
14197TIP3    H242537   5.158   0.131   2.256
14198TIP3   OH242538   7.231   7.238   5.336
14198TIP3    H142539   7.301   7.238   5.271
14198TIP3    H242540   7.188   7.153   5.325
14199TIP3   OH242541   6.906   0.604   3.506
14199TIP3    H142542   6.990   0.581   3.466
14199TIP3    H242543   6.840   0.562   3.451
14200TIP3   OH242544   3.056   6.124   3.699
14200TIP3    H142545   2.981   6.182   3.685
14200TIP3    H242546   3.021   6.036   3.689
14201TIP3   OH242547   2.048   5.202   6.737
14201TIP3    H142548   2.122   5.210   6.797
14201TIP3    H242549   2.086   5.217   6.651
14202TIP3   OH242550   7.899  -0.077   0.709
14202TIP3    H142551   7.943  -0.074   0.794
14202TIP3    H242552   7.843   0.001   0.708
14203TIP3   OH242553   3.894   1.668   2.533
14203TIP3    H142554   3.853   1.755   2.530
14203TIP3    H242555   3.858   1.627   2.612
14204TIP3   OH242556   0.838   6.298   0.222
14204TIP3    H142557   0.781   6.239   0.171
14204TIP3    H242558   0.814   6.386   0.193
14205TIP3   OH242559   3.881   7.370   2.135
14205TIP3    H142560   3.914   7.460   2.134
14205TIP3    H242561   3.916   7.331   2.056
14206TIP3   OH242562   0.792   5.405   0.119
14206TIP3    H142563   0.754   5.386   0.205
14206TIP3    H242564   0.728   5.461   0.076
14207TIP3   OH242565   7.095   0.686   5.138
14207TIP3    H142566   7.126   0.770   5.104
14207TIP3    H242567   7.106   0.625   5.065
14208TIP3   OH242568   7.741   4.953   1.049
14208TIP3    H142569   7.716   4.957   0.957
14208TIP3    H242570   7.702   4.872   1.081
14209TIP3   OH242571   0.245   7.159   6.544
14209TIP3    H142572   0.194   7.091   6.587
14209TIP3    H242573   0.336   7.141   6.570
14210TIP3   OH242574   0.572   0.280   1.544
14210TIP3    H142575   0.604   0.303   1.631
14210TIP3    H242576   0.532   0.360   1.511
14211TIP3   OH242577   2.885   4.435   4.074
14211TIP3    H142578   2.802   4.445   4.121
14211TIP3    H242579   2.931   4.517   4.089
14212TIP3   OH242580   2.947   2.253   3.674
14212TIP3    H142581   3.041   2.259   3.688
14212TIP3    H242582   2.909   2.257   3.761
14213TIP3   OH242583   3.171   7.026   4.719
14213TIP3    H142584   3.134   7.099   4.670
14213TIP3    H242585   3.265   7.047   4.726
14214TIP3   OH242586   8.248   6.938   2.752
14214TIP3    H142587   8.208   6.992   2.820
14214TIP3    H242588   8.270   6.856   2.796
14215TIP3   OH242589   5.440   2.503   3.219
14215TIP3    H142590   5.394   2.420   3.231
14215TIP3    H242591   5.369   2.568   3.212
14216TIP3   OH242592   0.848   1.021  -0.001
14216TIP3    H142593   0.911   1.062   0.058
14216TIP3    H242594   0.786   0.975   0.057
14217TIP3   OH242595   0.220   6.383   1.962
14217TIP3    H142596   0.204   6.472   1.929
14217TIP3    H242597   0.312   6.385   1.991
14218TIP3   OH242598   0.943   3.968   6.237
14218TIP3    H142599   0.983   3.953   6.151
14218TIP3    H242600   0.978   3.897   6.292
14219TIP3   OH242601   7.399   6.387   1.013
14219TIP3    H142602   7.309   6.360   0.993
14219TIP3    H242603   7.434   6.316   1.066
14220TIP3   OH242604   4.149   0.281   4.796
14220TIP3    H142605   4.076   0.332   4.762
14220TIP3    H242606   4.222   0.304   4.738
14221TIP3   OH242607   4.522   0.071   0.178
14221TIP3    H142608   4.479  -0.008   0.211
14221TIP3    H242609   4.579   0.041   0.108
14222TIP3   OH242610   5.707   4.432   3.806
14222TIP3    H142611   5.785   4.484   3.827
14222TIP3    H242612   5.711   4.358   3.867
14223TIP3   OH242613   3.203   5.779   3.449
14223TIP3    H142614   3.254   5.835   3.508
14223TIP3    H242615   3.144   5.839   3.403
14224TIP3   OH242616   6.950   4.413   4.275
14224TIP3    H142617   7.040   4.396   4.245
14224TIP3    H242618   6.937   4.507   4.260
14225TIP3   OH242619   4.590   0.216   2.402
14225TIP3    H142620   4.545   0.213   2.317
14225TIP3    H242621   4.523   0.242   2.464
14226TIP3   OH242622   3.377   6.644   4.370
14226TIP3    H142623   3.466   6.622   4.396
14226TIP3    H242624   3.322   6.615   4.443
14227TIP3   OH242625   0.743   4.974   3.498
14227TIP3    H142626   0.819   4.940   3.546
14227TIP3    H242627   0.686   5.010   3.566
14228TIP3   OH242628   2.596   7.512   6.057
14228TIP3    H142629   2.536   7.442   6.082
14228TIP3    H242630   2.673   7.498   6.112
14229TIP3   OH242631   2.004   0.879   5.985
14229TIP3    H142632   2.076   0.889   6.047
14229TIP3    H242633   1.925   0.893   6.038
14230TIP3   OH242634   6.762   1.057   4.494
14230TIP3    H142635   6.673   1.022   4.497
14230TIP3    H242636   6.816   0.981   4.471
14231TIP3   OH242637   0.698   3.281   4.094
14231TIP3    H142638   0.698   3.206   4.034
14231TIP3    H242639   0.784   3.323   4.081
14232TIP3   OH242640   4.838   4.286   3.315
14232TIP3    H142641   4.886   4.204   3.303
14232TIP3    H242642   4.762   4.278   3.258
14233TIP3   OH242643   4.614   6.964   3.653
14233TIP3    H142644   4.584   6.984   3.565
14233TIP3    H242645   4.707   6.987   3.653
14234TIP3   OH242646   4.632   2.221   5.709
14234TIP3    H142647   4.643   2.290   5.644
14234TIP3    H242648   4.538   2.203   5.709
14235TIP3   OH242649   2.160   2.782   2.600
14235TIP3    H142650   2.256   2.783   2.605
14235TIP3    H242651   2.132   2.850   2.662
14236TIP3   OH242652   7.600   4.365   4.232
14236TIP3    H142653   7.673   4.326   4.183
14236TIP3    H242654   7.580   4.301   4.300
14237TIP3   OH242655   5.910   0.081   5.153
14237TIP3    H142656   5.829   0.042   5.186
14237TIP3    H242657   5.897   0.175   5.164
14238TIP3   OH242658   6.380   2.022   4.651
14238TIP3    H142659   6.417   2.108   4.631
14238TIP3    H242660   6.413   2.002   4.739
14239TIP3   OH242661   3.408   4.768   3.627
14239TIP3    H142662   3.326   4.720   3.616
14239TIP3    H242663   3.475   4.700   3.631
14240TIP3   OH242664   8.145   2.172   5.901
14240TIP3    H142665   8.109   2.191   5.814
14240TIP3    H242666   8.211   2.240   5.915
14241TIP3   OH242667   8.262   5.588   0.920
14241TIP3    H142668   8.350   5.625   0.930
14241TIP3    H242669   8.209   5.636   0.984
14242TIP3   OH242670   0.851   6.699   3.900
14242TIP3    H142671   0.884   6.616   3.866
14242TIP3    H242672   0.762   6.679   3.930
14243TIP3   OH242673   2.023   1.452   1.376
14243TIP3    H142674   2.079   1.382   1.341
14243TIP3    H242675   2.039   1.527   1.318
14244TIP3   OH242676   5.061   0.899   2.393
14244TIP3    H142677   5.033   0.842   2.322
14244TIP3    H242678   5.117   0.964   2.351
14245TIP3   OH242679   6.172   0.935   4.582
14245TIP3    H142680   6.218   0.922   4.665
14245TIP3    H242681   6.151   0.847   4.551
14246TIP3   OH242682   0.571   6.934   2.807
14246TIP3    H142683   0.641   6.912   2.745
14246TIP3    H242684   0.495   6.953   2.752
14247TIP3   OH242685   3.118   2.094   5.996
14247TIP3    H142686   3.147   2.032   6.063
14247TIP3    H242687   3.150   2.056   5.914
14248TIP3   OH242688   6.558   4.919   4.434
14248TIP3    H142689   6.640   4.953   4.469
14248TIP3    H242690   6.581   4.879   4.350
14249TIP3   OH242691   5.369   3.963   2.577
14249TIP3    H142692   5.396   3.999   2.492
14249TIP3    H242693   5.350   4.040   2.631
14250TIP3   OH242694   0.603   3.513   4.765
14250TIP3    H142695   0.667   3.443   4.753
14250TIP3    H242696   0.600   3.527   4.860
14251TIP3   OH242697   3.346   4.506   6.499
14251TIP3    H142698   3.344   4.437   6.433
14251TIP3    H242699   3.357   4.459   6.582
14252TIP3   OH242700   5.351   4.148   4.106
14252TIP3    H142701   5.330   4.225   4.160
14252TIP3    H242702   5.321   4.074   4.158
14253TIP3   OH242703   6.661   1.537   4.984
14253TIP3    H142704   6.599   1.464   4.992
14253TIP3    H242705   6.732   1.514   5.043
14254TIP3   OH242706   1.728   0.638   4.881
14254TIP3    H142707   1.725   0.624   4.976
14254TIP3    H242708   1.642   0.677   4.861
14255TIP3   OH242709   0.322   7.486   1.960
14255TIP3    H142710   0.268   7.419   1.919
14255TIP3    H242711   0.331   7.554   1.892
14256TIP3   OH242712   0.334   7.396   5.414
14256TIP3    H142713   0.268   7.413   5.346
14256TIP3    H242714   0.290   7.419   5.496
14257TIP3   OH242715   1.832   0.067   1.441
14257TIP3    H142716   1.738   0.083   1.433
14257TIP3    H242717   1.870   0.102   1.360
14258TIP3   OH242718   1.525   5.402   2.834
14258TIP3    H142719   1.449   5.430   2.885
14258TIP3    H242720   1.575   5.482   2.820
14259TIP3   OH242721   6.466   3.624   5.323
14259TIP3    H142722   6.459   3.528   5.320
14259TIP3    H242723   6.500   3.643   5.410
14260TIP3   OH242724   6.734   3.732   3.274
14260TIP3    H142725   6.643   3.752   3.253
14260TIP3    H242726   6.785   3.784   3.212
14261TIP3   OH242727   6.771   1.657   0.632
14261TIP3    H142728   6.819   1.737   0.651
14261TIP3    H242729   6.730   1.673   0.547
14262TIP3   OH242730   4.192   1.191   0.482
14262TIP3    H142731   4.232   1.272   0.513
14262TIP3    H242732   4.150   1.214   0.400
14263TIP3   OH242733   3.313   3.623   3.302
14263TIP3    H142734   3.401   3.660   3.308
14263TIP3    H242735   3.327   3.531   3.283
14264TIP3   OH242736   6.409   0.138   4.385
14264TIP3    H142737   6.429   0.171   4.472
14264TIP3    H242738   6.364   0.055   4.401
14265TIP3   OH242739   1.897   6.497   2.963
14265TIP3    H142740   1.839   6.423   2.979
14265TIP3    H242741   1.968   6.461   2.910
14266TIP3   OH242742   6.914   2.269   1.908
14266TIP3    H142743   6.852   2.251   1.979
14266TIP3    H242744   6.969   2.190   1.904
14267TIP3   OH242745   0.179   5.659   3.302
14267TIP3    H142746   0.231   5.632   3.377
14267TIP3    H242747   0.243   5.676   3.233
14268TIP3   OH242748   5.743   4.749   3.224
14268TIP3    H142749   5.829   4.777   3.257
14268TIP3    H242750   5.751   4.756   3.128
14269TIP3   OH242751   0.860   4.576   1.099
14269TIP3    H142752   0.840   4.571   1.192
14269TIP3    H242753   0.930   4.512   1.085
14270TIP3   OH242754   7.724   4.148   2.234
14270TIP3    H142755   7.707   4.062   2.274
14270TIP3    H242756   7.689   4.211   2.298
14271TIP3   OH242757   2.442   3.339   6.046
14271TIP3    H142758   2.400   3.380   6.122
14271TIP3    H242759   2.449   3.409   5.982
14272TIP3   OH242760   7.778   7.682   0.311
14272TIP3    H142761   7.780   7.769   0.272
14272TIP3    H242762   7.866   7.646   0.296
14273TIP3   OH242763   6.184   3.686   3.818
14273TIP3    H142764   6.150   3.760   3.767
14273TIP3    H242765   6.111   3.660   3.874
14274TIP3   OH242766   3.754   1.912   2.573
14274TIP3    H142767   3.733   1.971   2.645
14274TIP3    H242768   3.673   1.861   2.560
14275TIP3   OH242769   5.509   6.650   2.073
14275TIP3    H142770   5.507   6.565   2.029
14275TIP3    H242771   5.418   6.667   2.095
14276TIP3   OH242772   8.230   0.836   5.726
14276TIP3    H142773   8.209   0.746   5.704
14276TIP3    H242774   8.179   0.889   5.665
14277TIP3   OH242775   2.890   0.279   6.181
14277TIP3    H142776   2.898   0.339   6.255
14277TIP3    H242777   2.897   0.192   6.220
14278TIP3   OH242778   0.121   0.074   2.558
14278TIP3    H142779   0.101   0.142   2.622
14278TIP3    H242780   0.215   0.060   2.566
14279TIP3   OH242781   4.291   0.498   6.430
14279TIP3    H142782   4.295   0.506   6.334
14279TIP3    H242783   4.363   0.553   6.461
14280TIP3   OH242784   5.492   3.435   0.107
14280TIP3    H142785   5.428   3.481   0.161
14280TIP3    H242786   5.553   3.396   0.170
14281TIP3   OH242787   8.006   4.119   0.800
14281TIP3    H142788   8.093   4.147   0.827
14281TIP3    H242789   7.956   4.200   0.793
14282TIP3   OH242790   1.310   1.677   2.282
14282TIP3    H142791   1.403   1.667   2.305
14282TIP3    H242792   1.293   1.770   2.291
14283TIP3   OH242793   6.252   7.441   2.330
14283TIP3    H142794   6.244   7.371   2.264
14283TIP3    H242795   6.333   7.486   2.307
14284TIP3   OH242796   4.885   0.655   1.321
14284TIP3    H142797   4.810   0.682   1.268
14284TIP3    H242798   4.937   0.735   1.333
14285TIP3   OH242799   2.400   6.817   1.094
14285TIP3    H142800   2.389   6.907   1.064
14285TIP3    H242801   2.482   6.818   1.144
14286TIP3   OH242802   0.468   1.516   6.256
14286TIP3    H142803   0.448   1.573   6.182
14286TIP3    H242804   0.513   1.441   6.218
14287TIP3   OH242805   0.772   7.555   4.793
14287TIP3    H142806   0.867   7.554   4.787
14287TIP3    H242807   0.753   7.541   4.886
14288TIP3   OH242808   5.573   2.855   5.609
14288TIP3    H142809   5.591   2.930   5.665
14288TIP3    H242810   5.583   2.779   5.667
14289TIP3   OH242811   2.988   6.121   4.525
14289TIP3    H142812   2.918   6.124   4.459
14289TIP3    H242813   2.959   6.055   4.588
14290TIP3   OH242814   4.648   2.772   5.543
14290TIP3    H142815   4.700   2.801   5.468
14290TIP3    H242816   4.559   2.765   5.508
14291TIP3   OH242817   5.063   1.221   3.846
14291TIP3    H142818   5.053   1.246   3.938
14291TIP3    H242819   5.040   1.128   3.844
14292TIP3   OH242820   0.667   3.866   5.275
14292TIP3    H142821   0.656   3.772   5.288
14292TIP3    H242822   0.715   3.896   5.352
14293TIP3   OH242823   6.572   4.639   3.923
14293TIP3    H142824   6.596   4.731   3.911
14293TIP3    H242825   6.560   4.605   3.835
14294TIP3   OH242826   2.564   5.074   1.199
14294TIP3    H142827   2.626   5.007   1.170
14294TIP3    H242828   2.611   5.121   1.267
14295TIP3   OH242829   0.087   5.768   5.965
14295TIP3    H142830   0.050   5.686   5.995
14295TIP3    H242831   0.141   5.744   5.889
14296TIP3   OH242832   7.867   4.864   1.771
14296TIP3    H142833   7.942   4.868   1.830
14296TIP3    H242834   7.791   4.855   1.829
14297TIP3   OH242835   2.322   5.504   5.183
14297TIP3    H142836   2.238   5.537   5.151
14297TIP3    H242837   2.334   5.421   5.137
14298TIP3   OH242838   0.834   3.415   0.929
14298TIP3    H142839   0.768   3.460   0.877
14298TIP3    H242840   0.830   3.323   0.901
14299TIP3   OH242841   7.481   5.829   3.505
14299TIP3    H142842   7.459   5.857   3.593
14299TIP3    H242843   7.552   5.888   3.478
14300TIP3   OH242844   1.125   2.902   3.452
14300TIP3    H142845   1.089   2.916   3.539
14300TIP3    H242846   1.056   2.857   3.404
14301TIP3   OH242847   1.872   4.039   2.556
14301TIP3    H142848   1.854   4.126   2.592
14301TIP3    H242849   1.797   3.986   2.584
14302TIP3   OH242850   0.643   6.527   3.055
14302TIP3    H142851   0.571   6.587   3.036
14302TIP3    H242852   0.611   6.441   3.029
14303TIP3   OH242853   5.188   0.896   3.135
14303TIP3    H142854   5.128   0.947   3.080
14303TIP3    H242855   5.195   0.811   3.092
14304TIP3   OH242856   4.393   0.116   5.153
14304TIP3    H142857   4.451   0.069   5.212
14304TIP3    H242858   4.370   0.052   5.086
14305TIP3   OH242859   0.601   6.301   0.439
14305TIP3    H142860   0.578   6.261   0.355
14305TIP3    H242861   0.545   6.256   0.502
14306TIP3   OH242862   0.241   3.703   3.539
14306TIP3    H142863   0.186   3.691   3.616
14306TIP3    H242864   0.319   3.749   3.572
14307TIP3   OH242865   5.251   1.587   4.482
14307TIP3    H142866   5.332   1.631   4.506
14307TIP3    H242867   5.189   1.658   4.464
14308TIP3   OH242868   6.137   3.155   6.051
14308TIP3    H142869   6.161   3.230   5.997
14308TIP3    H242870   6.167   3.177   6.139
14309TIP3   OH242871   7.116   5.372   3.602
14309TIP3    H142872   7.176   5.442   3.628
14309TIP3    H242873   7.168   5.292   3.610
14310TIP3   OH242874   2.466   1.596   1.122
14310TIP3    H142875   2.479   1.659   1.051
14310TIP3    H242876   2.539   1.534   1.112
14311TIP3   OH242877   1.602   2.172  -0.011
14311TIP3    H142878   1.659   2.248  -0.011
14311TIP3    H242879   1.596   2.147   0.082
14312TIP3   OH242880   5.681   0.474   6.529
14312TIP3    H142881   5.716   0.557   6.499
14312TIP3    H242882   5.754   0.413   6.522
14313TIP3   OH242883   4.581   0.145   1.067
14313TIP3    H142884   4.506   0.168   1.012
14313TIP3    H242885   4.554   0.169   1.156
14314TIP3   OH242886   6.778   1.668   6.518
14314TIP3    H142887   6.716   1.738   6.534
14314TIP3    H242888   6.850   1.685   6.578
14315TIP3   OH242889   1.995   0.399   4.257
14315TIP3    H142890   1.905   0.400   4.289
14315TIP3    H242891   2.043   0.346   4.321
14316TIP3   OH242892   0.155   0.145   3.860
14316TIP3    H142893   0.092   0.184   3.799
14316TIP3    H242894   0.236   0.195   3.846
14317TIP3   OH242895   4.059   4.089   2.493
14317TIP3    H142896   4.108   4.170   2.477
14317TIP3    H242897   4.121   4.033   2.540
14318TIP3   OH242898   7.841   5.050   6.634
14318TIP3    H142899   7.866   5.041   6.726
14318TIP3    H242900   7.923   5.069   6.589
14319TIP3   OH242901   4.959   1.515   1.135
14319TIP3    H142902   4.956   1.487   1.043
14319TIP3    H242903   4.974   1.610   1.130
14320TIP3   OH242904   1.179   5.152   1.598
14320TIP3    H142905   1.102   5.110   1.561
14320TIP3    H242906   1.197   5.104   1.678
14321TIP3   OH242907   0.664   2.404   2.882
14321TIP3    H142908   0.591   2.384   2.941
14321TIP3    H242909   0.658   2.337   2.814
14322TIP3   OH242910   0.817   0.747   2.557
14322TIP3    H142911   0.856   0.729   2.642
14322TIP3    H242912   0.862   0.826   2.527
14323TIP3   OH242913   4.592   5.330   4.136
14323TIP3    H142914   4.510   5.379   4.131
14323TIP3    H242915   4.627   5.333   4.047
14324TIP3   OH242916   6.017   2.647   2.131
14324TIP3    H142917   6.110   2.652   2.153
14324TIP3    H242918   6.005   2.559   2.095
14325TIP3   OH242919   6.033   4.642   0.189
14325TIP3    H142920   5.981   4.592   0.252
14325TIP3    H242921   6.102   4.682   0.241
14326TIP3   OH242922   7.395   4.003   4.211
14326TIP3    H142923   7.347   4.039   4.137
14326TIP3    H242924   7.407   3.911   4.189
14327TIP3   OH242925   4.520   5.686   4.420
14327TIP3    H142926   4.492   5.760   4.366
14327TIP3    H242927   4.613   5.675   4.398
14328TIP3   OH242928   6.532   0.217   1.707
14328TIP3    H142929   6.547   0.141   1.763
14328TIP3    H242930   6.509   0.287   1.768
14329TIP3   OH242931   2.970   4.536   0.754
14329TIP3    H142932   2.879   4.564   0.747
14329TIP3    H242933   2.996   4.516   0.664
14330TIP3   OH242934   3.691   0.778   3.480
14330TIP3    H142935   3.597   0.760   3.487
14330TIP3    H242936   3.718   0.799   3.569
14331TIP3   OH242937   4.941   0.030   6.194
14331TIP3    H142938   4.923   0.124   6.189
14331TIP3    H242939   4.949   0.003   6.103
14332TIP3   OH242940   2.128   0.306   1.572
14332TIP3    H142941   2.118   0.400   1.560
14332TIP3    H242942   2.214   0.295   1.613
14333TIP3   OH242943   2.236   1.562   6.560
14333TIP3    H142944   2.150   1.601   6.577
14333TIP3    H242945   2.243   1.491   6.623
14334TIP3   OH242946   0.528   4.366   5.198
14334TIP3    H142947   0.520   4.367   5.293
14334TIP3    H242948   0.562   4.279   5.177
14335TIP3   OH242949   1.121   4.484   6.741
14335TIP3    H142950   1.032   4.508   6.717
14335TIP3    H242951   1.141   4.407   6.689
14336TIP3   OH242952   3.579   2.010   3.616
14336TIP3    H142953   3.623   2.095   3.622
14336TIP3    H242954   3.599   1.979   3.527
14337TIP3   OH242955   8.198   1.177   1.298
14337TIP3    H142956   8.143   1.110   1.255
14337TIP3    H242957   8.143   1.256   1.297
14338TIP3   OH242958   3.661   1.991   6.086
14338TIP3    H142959   3.678   2.083   6.104
14338TIP3    H242960   3.746   1.949   6.089
14339TIP3   OH242961   7.741   1.306   4.801
14339TIP3    H142962   7.721   1.359   4.724
14339TIP3    H242963   7.774   1.223   4.765
14340TIP3   OH242964   7.941   7.067   5.668
14340TIP3    H142965   7.857   7.092   5.706
14340TIP3    H242966   7.938   7.101   5.578
14341TIP3   OH242967   4.343   1.597   4.486
14341TIP3    H142968   4.354   1.663   4.418
14341TIP3    H242969   4.432   1.571   4.509
14342TIP3   OH242970   5.795   1.579   1.603
14342TIP3    H142971   5.846   1.648   1.560
14342TIP3    H242972   5.704   1.608   1.595
14343TIP3   OH242973   4.020   6.511   4.915
14343TIP3    H142974   4.030   6.605   4.928
14343TIP3    H242975   4.104   6.481   4.881
14344TIP3   OH242976   2.886   7.394   6.574
14344TIP3    H142977   2.847   7.481   6.565
14344TIP3    H242978   2.909   7.388   6.667
14345TIP3   OH242979   4.132   6.495   2.520
14345TIP3    H142980   4.062   6.530   2.465
14345TIP3    H242981   4.160   6.415   2.475
14346TIP3   OH242982   3.974   0.898   0.242
14346TIP3    H142983   4.037   0.831   0.267
14346TIP3    H242984   3.890   0.865   0.274
14347TIP3   OH242985   8.119   4.948   1.923
14347TIP3    H142986   8.108   5.039   1.893
14347TIP3    H242987   8.185   4.954   1.992
14348TIP3   OH242988   5.167   3.198   5.121
14348TIP3    H142989   5.188   3.154   5.038
14348TIP3    H242990   5.072   3.195   5.127
14349TIP3   OH242991   3.588   4.468   2.280
14349TIP3    H142992   3.545   4.462   2.194
14349TIP3    H242993   3.632   4.553   2.278
14350TIP3   OH242994   1.338   6.359   6.078
14350TIP3    H142995   1.298   6.277   6.051
14350TIP3    H242996   1.429   6.337   6.096
14351TIP3   OH242997   0.194   2.646   2.906
14351TIP3    H142998   0.164   2.677   2.991
14351TIP3    H242999   0.152   2.560   2.897
14352TIP3   OH243000   5.600   4.123   1.213
14352TIP3    H143001   5.575   4.138   1.304
14352TIP3    H243002   5.560   4.196   1.165
14353TIP3   OH243003   5.241   6.489   5.092
14353TIP3    H143004   5.240   6.456   5.182
14353TIP3    H243005   5.334   6.499   5.071
14354TIP3   OH243006   3.023   1.392   5.196
14354TIP3    H143007   3.082   1.336   5.144
14354TIP3    H243008   3.056   1.481   5.182
14355TIP3   OH243009   4.441   6.076   4.054
14355TIP3    H143010   4.524   6.112   4.086
14355TIP3    H243011   4.402   6.147   4.004
14356TIP3   OH243012   2.226   5.160   2.557
14356TIP3    H143013   2.248   5.118   2.641
14356TIP3    H243014   2.310   5.163   2.510
14357TIP3   OH243015   0.702   1.335   6.647
14357TIP3    H143016   0.724   1.412   6.595
14357TIP3    H243017   0.704   1.262   6.585
14358TIP3   OH243018   7.922   7.402   4.128
14358TIP3    H143019   7.846   7.452   4.158
14358TIP3    H243020   7.998   7.455   4.155
14359TIP3   OH243021   3.454   0.843   2.438
14359TIP3    H143022   3.451   0.802   2.525
14359TIP3    H243023   3.366   0.877   2.425
14360TIP3   OH243024   2.457   3.735   3.303
14360TIP3    H143025   2.539   3.691   3.327
14360TIP3    H243026   2.481   3.827   3.294
14361TIP3   OH243027   5.703   0.556   4.437
14361TIP3    H143028   5.674   0.639   4.399
14361TIP3    H243029   5.721   0.577   4.528
14362TIP3   OH243030   6.896   7.316   4.779
14362TIP3    H143031   6.902   7.381   4.849
14362TIP3    H243032   6.853   7.241   4.821
14363TIP3   OH243033   2.759   6.054   1.708
14363TIP3    H143034   2.669   6.028   1.686
14363TIP3    H243035   2.750   6.113   1.783
14364TIP3   OH243036   7.940   1.745   1.716
14364TIP3    H143037   7.938   1.666   1.661
14364TIP3    H243038   7.926   1.817   1.654
14365TIP3   OH243039   1.540   4.903   5.725
14365TIP3    H143040   1.446   4.894   5.717
14365TIP3    H243041   1.552   4.988   5.769
14366TIP3   OH243042   1.387   4.880  -0.045
14366TIP3    H143043   1.483   4.888  -0.046
14366TIP3    H243044   1.369   4.821   0.028
14367TIP3   OH243045   5.476   7.649   4.365
14367TIP3    H143046   5.436   7.682   4.446
14367TIP3    H243047   5.419   7.578   4.337
14368TIP3   OH243048   0.345   2.865   6.374
14368TIP3    H143049   0.298   2.835   6.296
14368TIP3    H243050   0.376   2.785   6.416
14369TIP3   OH243051   2.697   5.030   2.192
14369TIP3    H143052   2.744   5.029   2.275
14369TIP3    H243053   2.668   4.940   2.180
14370TIP3   OH243054   5.032   7.651   2.015
14370TIP3    H143055   5.114   7.602   2.022
14370TIP3    H243056   4.985   7.609   1.942
14371TIP3   OH243057   8.080   7.798   0.655
14371TIP3    H143058   8.164   7.755   0.642
14371TIP3    H243059   8.018   7.726   0.666
14372TIP3   OH243060   0.792   7.796   6.051
14372TIP3    H143061   0.781   7.870   5.991
14372TIP3    H243062   0.710   7.791   6.099
14373TIP3   OH243063   7.702   2.077   6.693
14373TIP3    H143064   7.619   2.075   6.742
14373TIP3    H243065   7.729   2.169   6.697
14374TIP3   OH243066   1.115   1.978   6.602
14374TIP3    H143067   1.126   1.901   6.546
14374TIP3    H243068   1.083   1.943   6.685
14375TIP3   OH243069   4.776   1.199   3.551
14375TIP3    H143070   4.832   1.276   3.551
14375TIP3    H243071   4.750   1.187   3.643
14376TIP3   OH243072   0.637   0.898   6.036
14376TIP3    H143073   0.577   0.868   6.106
14376TIP3    H243074   0.702   0.950   6.082
14377TIP3   OH243075   6.005   4.071   3.319
14377TIP3    H143076   6.064   4.020   3.263
14377TIP3    H243077   5.972   4.140   3.261
14378TIP3   OH243078   1.831   1.770   5.916
14378TIP3    H143079   1.876   1.747   5.834
14378TIP3    H243080   1.890   1.740   5.985
14379TIP3   OH243081   1.852   1.724   3.692
14379TIP3    H143082   1.780   1.665   3.713
14379TIP3    H243083   1.825   1.808   3.728
14380TIP3   OH243084   1.711   7.303   0.393
14380TIP3    H143085   1.636   7.356   0.364
14380TIP3    H243086   1.678   7.254   0.468
14381TIP3   OH243087   0.242   3.381   3.670
14381TIP3    H143088   0.325   3.344   3.698
14381TIP3    H243089   0.254   3.476   3.680
14382TIP3   OH243090   3.390   6.576   2.853
14382TIP3    H143091   3.359   6.497   2.895
14382TIP3    H243092   3.425   6.629   2.925
14383TIP3   OH243093   1.253   3.991   6.630
14383TIP3    H143094   1.231   4.004   6.722
14383TIP3    H243095   1.212   3.907   6.607
14384TIP3   OH243096   3.114   5.040   2.504
14384TIP3    H143097   3.132   4.951   2.476
14384TIP3    H243098   3.199   5.084   2.502
14385TIP3   OH243099   2.720   0.373   4.286
14385TIP3    H143100   2.755   0.430   4.354
14385TIP3    H243101   2.690   0.295   4.332
14386TIP3   OH243102   0.797   4.929   1.020
14386TIP3    H143103   0.839   4.846   0.998
14386TIP3    H243104   0.717   4.905   1.065
14387TIP3   OH243105   4.058   3.038   4.502
14387TIP3    H143106   4.153   3.024   4.496
14387TIP3    H243107   4.021   2.978   4.438
14388TIP3   OH243108   5.696   5.921   2.173
14388TIP3    H143109   5.698   5.999   2.229
14388TIP3    H243110   5.652   5.950   2.093
14389TIP3   OH243111   6.707   3.696   0.155
14389TIP3    H143112   6.748   3.766   0.205
14389TIP3    H243113   6.617   3.726   0.142
14390TIP3   OH243114   1.227   5.375   1.353
14390TIP3    H143115   1.279   5.300   1.381
14390TIP3    H243116   1.139   5.340   1.340
14391TIP3   OH243117   0.408   0.283   5.372
14391TIP3    H143118   0.380   0.337   5.447
14391TIP3    H243119   0.362   0.200   5.384
14392TIP3   OH243120   6.606   5.210   2.265
14392TIP3    H143121   6.672   5.260   2.312
14392TIP3    H243122   6.579   5.268   2.193
14393TIP3   OH243123   6.601   2.270   1.685
14393TIP3    H143124   6.516   2.239   1.654
14393TIP3    H243125   6.663   2.203   1.654
14394TIP3   OH243126   2.149   0.529   3.788
14394TIP3    H143127   2.229   0.538   3.840
14394TIP3    H243128   2.097   0.464   3.836
14395TIP3   OH243129   2.872   4.886   3.867
14395TIP3    H143130   2.962   4.918   3.877
14395TIP3    H243131   2.820   4.964   3.853
14396TIP3   OH243132   0.478   6.506   3.496
14396TIP3    H143133   0.453   6.514   3.587
14396TIP3    H243134   0.451   6.588   3.456
14397TIP3   OH243135   5.762   3.616   6.378
14397TIP3    H143136   5.682   3.648   6.337
14397TIP3    H243137   5.759   3.651   6.468
14398TIP3   OH243138   5.747   0.730   3.447
14398TIP3    H143139   5.801   0.806   3.425
14398TIP3    H243140   5.698   0.711   3.367
14399TIP3   OH243141   6.864   7.786   4.628
14399TIP3    H143142   6.932   7.721   4.646
14399TIP3    H243143   6.851   7.782   4.533
14400TIP3   OH243144   3.281   0.847   4.461
14400TIP3    H143145   3.356   0.789   4.444
14400TIP3    H243146   3.209   0.808   4.411
14401TIP3   OH243147   5.157   1.600   5.138
14401TIP3    H143148   5.173   1.693   5.125
14401TIP3    H243149   5.064   1.589   5.119
14402TIP3   OH243150   0.068   0.500   6.413
14402TIP3    H143151   0.053   0.568   6.347
14402TIP3    H243152   0.020   0.530   6.490
14403TIP3   OH243153   3.845   0.743   5.072
14403TIP3    H143154   3.920   0.698   5.034
14403TIP3    H243155   3.802   0.677   5.126
14404TIP3   OH243156   4.117   0.695   0.597
14404TIP3    H143157   4.138   0.701   0.503
14404TIP3    H243158   4.200   0.673   0.639
14405TIP3   OH243159   3.275   1.348   3.225
14405TIP3    H143160   3.343   1.406   3.260
14405TIP3    H243161   3.321   1.267   3.205
14406TIP3   OH243162   0.730   0.099   4.015
14406TIP3    H143163   0.744   0.180   4.062
14406TIP3    H243164   0.719   0.033   4.083
14407TIP3   OH243165   3.302   7.269   1.244
14407TIP3    H143166   3.234   7.336   1.251
14407TIP3    H243167   3.379   7.308   1.284
14408TIP3   OH243168   4.492   3.811   1.842
14408TIP3    H143169   4.544   3.793   1.921
14408TIP3    H243170   4.436   3.734   1.832
14409TIP3   OH243171   8.209   2.660   4.429
14409TIP3    H143172   8.208   2.575   4.473
14409TIP3    H243173   8.157   2.717   4.486
14410TIP3   OH243174   8.030   1.543   1.121
14410TIP3    H143175   8.104   1.603   1.128
14410TIP3    H243176   7.958   1.588   1.164
14411TIP3   OH243177   5.726   3.879   4.720
14411TIP3    H143178   5.791   3.827   4.768
14411TIP3    H243179   5.752   3.871   4.629
14412TIP3   OH243180   6.134   6.659   3.626
14412TIP3    H143181   6.168   6.691   3.709
14412TIP3    H243182   6.042   6.688   3.625
14413TIP3   OH243183   6.747   5.329   5.040
14413TIP3    H143184   6.658   5.358   5.063
14413TIP3    H243185   6.800   5.408   5.047
14414TIP3   OH243186   7.619   5.678   3.052
14414TIP3    H143187   7.687   5.676   3.119
14414TIP3    H243188   7.550   5.622   3.086
14415TIP3   OH243189   8.038   0.637   3.679
14415TIP3    H143190   8.076   0.664   3.595
14415TIP3    H243191   8.098   0.672   3.744
14416TIP3   OH243192   5.110   4.562   1.991
14416TIP3    H143193   5.023   4.528   2.012
14416TIP3    H243194   5.103   4.656   2.008
14417TIP3   OH243195   6.070   4.451  -0.004
14417TIP3    H143196   6.066   4.509   0.073
14417TIP3    H243197   6.152   4.474  -0.047
14418TIP3   OH243198   0.136   6.935   4.818
14418TIP3    H143199   0.060   6.884   4.843
14418TIP3    H243200   0.132   6.937   4.722
14419TIP3   OH243201   6.678   1.684   0.382
14419TIP3    H143202   6.663   1.779   0.374
14419TIP3    H243203   6.756   1.668   0.329
14420TIP3   OH243204   5.573   6.664   6.395
14420TIP3    H143205   5.561   6.687   6.303
14420TIP3    H243206   5.544   6.743   6.442
14421TIP3   OH243207   5.516   1.805   3.407
14421TIP3    H143208   5.559   1.878   3.363
14421TIP3    H243209   5.431   1.797   3.362
14422TIP3   OH243210   0.574   3.033   5.606
14422TIP3    H143211   0.621   3.083   5.673
14422TIP3    H243212   0.510   2.981   5.655
14423TIP3   OH243213   5.257   1.754   4.773
14423TIP3    H143214   5.297   1.744   4.860
14423TIP3    H243215   5.174   1.708   4.780
14424TIP3   OH243216   4.292   3.923   3.755
14424TIP3    H143217   4.266   3.831   3.757
14424TIP3    H243218   4.210   3.971   3.752
14425TIP3   OH243219   6.656   2.186   4.740
14425TIP3    H143220   6.598   2.231   4.680
14425TIP3    H243221   6.744   2.215   4.715
14426TIP3   OH243222   3.071   3.583   1.049
14426TIP3    H143223   3.144   3.521   1.058
14426TIP3    H243224   3.101   3.645   0.982
14427TIP3   OH243225   2.819   0.217   2.086
14427TIP3    H143226   2.742   0.271   2.106
14427TIP3    H243227   2.871   0.220   2.166
14428TIP3   OH243228   0.681   1.137   2.261
14428TIP3    H143229   0.733   1.090   2.196
14428TIP3    H243230   0.730   1.127   2.342
14429TIP3   OH243231   5.860   0.643   5.148
14429TIP3    H143232   5.886   0.558   5.183
14429TIP3    H243233   5.789   0.672   5.205
14430TIP3   OH243234   0.401   5.527   6.220
14430TIP3    H143235   0.458   5.582   6.273
14430TIP3    H243236   0.316   5.570   6.224
14431TIP3   OH243237   0.534   7.600   2.111
14431TIP3    H143238   0.468   7.555   2.059
14431TIP3    H243239   0.600   7.627   2.048
14432TIP3   OH243240   7.772   7.490   3.871
14432TIP3    H143241   7.681   7.468   3.894
14432TIP3    H243242   7.821   7.477   3.951
14433TIP3   OH243243   3.595   3.254   6.185
14433TIP3    H143244   3.536   3.276   6.113
14433TIP3    H243245   3.640   3.337   6.205
14434TIP3   OH243246   3.163   2.021   1.865
14434TIP3    H143247   3.236   2.031   1.926
14434TIP3    H243248   3.143   1.927   1.867
14435TIP3   OH243249   0.585   2.065   0.647
14435TIP3    H143250   0.535   2.116   0.711
14435TIP3    H243251   0.577   1.975   0.678
14436TIP3   OH243252   1.381   6.909   1.093
14436TIP3    H143253   1.377   7.002   1.069
14436TIP3    H243254   1.335   6.864   1.022
14437TIP3   OH243255   7.133   5.609   6.147
14437TIP3    H143256   7.039   5.601   6.132
14437TIP3    H243257   7.144   5.695   6.187
14438TIP3   OH243258   6.250   0.478   6.572
14438TIP3    H143259   6.204   0.418   6.630
14438TIP3    H243260   6.343   0.464   6.591
14439TIP3   OH243261   3.907   3.692   1.272
14439TIP3    H143262   3.834   3.662   1.218
14439TIP3    H243263   3.934   3.775   1.231
14440TIP3   OH243264   8.100   1.996   3.201
14440TIP3    H143265   8.015   1.969   3.166
14440TIP3    H243266   8.094   1.977   3.295
14441TIP3   OH243267   1.490   7.747   5.786
14441TIP3    H143268   1.528   7.664   5.759
14441TIP3    H243269   1.449   7.782   5.706
14442TIP3   OH243270   4.137   6.587   3.645
14442TIP3    H143271   4.204   6.635   3.597
14442TIP3    H243272   4.086   6.542   3.578
14443TIP3   OH243273   8.324   5.395   6.504
14443TIP3    H143274   8.244   5.365   6.462
14443TIP3    H243275   8.306   5.486   6.528
14444TIP3   OH243276   7.759   6.118   6.531
14444TIP3    H143277   7.817   6.093   6.603
14444TIP3    H243278   7.674   6.132   6.572
14445TIP3   OH243279   2.003   5.359   0.275
14445TIP3    H143280   2.027   5.267   0.263
14445TIP3    H243281   2.085   5.406   0.267
14446TIP3   OH243282   6.802   5.984   3.345
14446TIP3    H143283   6.887   5.940   3.353
14446TIP3    H243284   6.738   5.914   3.357
14447TIP3   OH243285   6.444   0.879   5.736
14447TIP3    H143286   6.398   0.848   5.659
14447TIP3    H243287   6.512   0.938   5.702
14448TIP3   OH243288   2.656   1.454   3.149
14448TIP3    H143289   2.709   1.491   3.078
14448TIP3    H243290   2.715   1.392   3.193
14449TIP3   OH243291   2.354   6.888   6.611
14449TIP3    H143292   2.309   6.854   6.689
14449TIP3    H243293   2.375   6.810   6.560
14450TIP3   OH243294   3.173   3.221   0.312
14450TIP3    H143295   3.244   3.172   0.270
14450TIP3    H243296   3.146   3.286   0.246
14451TIP3   OH243297   5.831   5.499   5.819
14451TIP3    H143298   5.772   5.553   5.872
14451TIP3    H243299   5.802   5.409   5.836
14452TIP3   OH243300   4.868   3.707   2.045
14452TIP3    H143301   4.843   3.632   1.991
14452TIP3    H243302   4.905   3.669   2.125
14453TIP3   OH243303   3.303   5.315   5.159
14453TIP3    H143304   3.279   5.406   5.140
14453TIP3    H243305   3.280   5.304   5.252
14454TIP3   OH243306   3.888   0.283   6.297
14454TIP3    H143307   3.898   0.188   6.298
14454TIP3    H243308   3.910   0.311   6.385
14455TIP3   OH243309   4.285   2.287   5.263
14455TIP3    H143310   4.219   2.355   5.251
14455TIP3    H243311   4.364   2.335   5.290
14456TIP3   OH243312   3.269   1.205   5.332
14456TIP3    H143313   3.350   1.219   5.380
14456TIP3    H243314   3.207   1.266   5.371
14457TIP3   OH243315   2.840   1.161   0.793
14457TIP3    H143316   2.859   1.250   0.824
14457TIP3    H243317   2.766   1.171   0.734
14458TIP3   OH243318   0.476   2.000   6.669
14458TIP3    H143319   0.511   2.088   6.657
14458TIP3    H243320   0.502   1.976   6.758
14459TIP3   OH243321   6.860   4.285   0.199
14459TIP3    H143322   6.765   4.284   0.196
14459TIP3    H243323   6.886   4.325   0.116
14460TIP3   OH243324   0.968   3.355   3.309
14460TIP3    H143325   1.026   3.389   3.377
14460TIP3    H243326   1.025   3.341   3.234
14461TIP3   OH243327   7.044   1.212   2.930
14461TIP3    H143328   6.994   1.226   2.850
14461TIP3    H243329   7.090   1.294   2.945
14462TIP3   OH243330   3.670   1.684   5.539
14462TIP3    H143331   3.599   1.748   5.538
14462TIP3    H243332   3.638   1.613   5.595
14463TIP3   OH243333   5.277   0.886   0.249
14463TIP3    H143334   5.240   0.811   0.203
14463TIP3    H243335   5.338   0.848   0.312
14464TIP3   OH243336   3.912   5.698   3.202
14464TIP3    H143337   3.976   5.724   3.269
14464TIP3    H243338   3.939   5.610   3.176
14465TIP3   OH243339   1.623   7.656   3.618
14465TIP3    H143340   1.617   7.601   3.696
14465TIP3    H243341   1.699   7.712   3.634
14466TIP3   OH243342   5.481   6.643   3.925
14466TIP3    H143343   5.538   6.679   3.993
14466TIP3    H243344   5.481   6.548   3.941
14467TIP3   OH243345   0.408   3.430   4.149
14467TIP3    H143346   0.468   3.359   4.124
14467TIP3    H243347   0.465   3.506   4.159
14468TIP3   OH243348   7.919   4.957   5.964
14468TIP3    H143349   7.958   4.873   5.988
14468TIP3    H243350   7.886   4.992   6.047
14469TIP3   OH243351   6.808   7.341   0.148
14469TIP3    H143352   6.748   7.354   0.074
14469TIP3    H243353   6.856   7.424   0.155
14470TIP3   OH243354   7.984   5.510   1.481
14470TIP3    H143355   7.889   5.501   1.493
14470TIP3    H243356   8.011   5.425   1.447
14471TIP3   OH243357   0.017   2.086   1.758
14471TIP3    H143358   0.068   2.020   1.711
14471TIP3    H243359   0.059   2.092   1.844
14472TIP3   OH243360   2.537   2.847   0.496
14472TIP3    H143361   2.466   2.800   0.453
14472TIP3    H243362   2.590   2.882   0.424
14473TIP3   OH243363   1.386   2.231   5.884
14473TIP3    H143364   1.480   2.217   5.876
14473TIP3    H243365   1.347   2.145   5.870
14474TIP3   OH243366   2.775   7.456   6.248
14474TIP3    H143367   2.799   7.509   6.324
14474TIP3    H243368   2.767   7.367   6.282
14475TIP3   OH243369   6.813   0.441   3.898
14475TIP3    H143370   6.776   0.371   3.846
14475TIP3    H243371   6.765   0.437   3.981
14476TIP3   OH243372   1.437   5.964   6.274
14476TIP3    H143373   1.521   5.933   6.242
14476TIP3    H243374   1.375   5.895   6.251
14477TIP3   OH243375   0.465   5.149   6.810
14477TIP3    H143376   0.531   5.214   6.787
14477TIP3    H243377   0.490   5.071   6.759
14478TIP3   OH243378   4.737   0.442   0.102
14478TIP3    H143379   4.823   0.419   0.139
14478TIP3    H243380   4.757   0.507   0.034
14479TIP3   OH243381   6.568   3.523   1.970
14479TIP3    H143382   6.550   3.462   2.042
14479TIP3    H243383   6.639   3.578   2.003
14480TIP3   OH243384   6.663   7.124   3.193
14480TIP3    H143385   6.748   7.166   3.205
14480TIP3    H243386   6.653   7.069   3.271
14481TIP3   OH243387   2.088   2.806   6.230
14481TIP3    H143388   2.159   2.780   6.289
14481TIP3    H243389   2.118   2.779   6.143
14482TIP3   OH243390   1.080   3.206   6.666
14482TIP3    H143391   1.171   3.231   6.651
14482TIP3    H243392   1.029   3.284   6.643
14483TIP3   OH243393   6.639   7.307   4.552
14483TIP3    H143394   6.547   7.310   4.577
14483TIP3    H243395   6.685   7.355   4.621
14484TIP3   OH243396   7.608   1.574   3.341
14484TIP3    H143397   7.599   1.609   3.252
14484TIP3    H243398   7.558   1.492   3.339
14485TIP3   OH243399   2.454   1.969   1.882
14485TIP3    H143400   2.409   1.972   1.798
14485TIP3    H243401   2.537   2.013   1.866
14486TIP3   OH243402   5.797   1.654   3.358
14486TIP3    H143403   5.807   1.581   3.297
14486TIP3    H243404   5.730   1.624   3.420
14487TIP3   OH243405   6.353   4.761   5.782
14487TIP3    H143406   6.435   4.729   5.744
14487TIP3    H243407   6.307   4.681   5.808
14488TIP3   OH243408   6.738   3.443   3.109
14488TIP3    H143409   6.669   3.508   3.123
14488TIP3    H243410   6.818   3.494   3.097
14489TIP3   OH243411   4.815   4.353   2.579
14489TIP3    H143412   4.801   4.276   2.524
14489TIP3    H243413   4.835   4.318   2.665
14490TIP3   OH243414   1.616   0.384   5.476
14490TIP3    H143415   1.688   0.322   5.480
14490TIP3    H243416   1.538   0.330   5.461
14491TIP3   OH243417   1.052   1.708   6.524
14491TIP3    H143418   1.091   1.675   6.605
14491TIP3    H243419   1.070   1.640   6.459
14492TIP3   OH243420   7.094   2.920   4.534
14492TIP3    H143421   7.144   2.958   4.462
14492TIP3    H243422   7.044   2.849   4.493
14493TIP3   OH243423   8.054   6.699   3.752
14493TIP3    H143424   8.038   6.608   3.728
14493TIP3    H243425   7.987   6.719   3.818
14494TIP3   OH243426   5.326   2.916   0.318
14494TIP3    H143427   5.393   2.860   0.279
14494TIP3    H243428   5.309   2.877   0.403
14495TIP3   OH243429   4.820   6.025   4.354
14495TIP3    H143430   4.769   6.037   4.274
14495TIP3    H243431   4.911   6.023   4.324
14496TIP3   OH243432   6.860   5.958   6.064
14496TIP3    H143433   6.784   6.009   6.035
14496TIP3    H243434   6.837   5.932   6.153
14497TIP3   OH243435   1.210   6.492   2.951
14497TIP3    H143436   1.182   6.512   3.041
14497TIP3    H243437   1.149   6.539   2.895
14498TIP3   OH243438   7.088   4.501   4.735
14498TIP3    H143439   7.153   4.502   4.805
14498TIP3    H243440   7.138   4.517   4.655
14499TIP3   OH243441   5.136   2.942   3.252
14499TIP3    H143442   5.191   2.999   3.198
14499TIP3    H243443   5.141   2.981   3.340
14500TIP3   OH243444   5.629   2.186   6.383
14500TIP3    H143445   5.591   2.273   6.392
14500TIP3    H243446   5.668   2.186   6.296
14501TIP3   OH243447   6.780   7.211   5.331
14501TIP3    H143448   6.845   7.141   5.324
14501TIP3    H243449   6.697   7.170   5.309
14502TIP3   OH243450   5.862   1.377   2.554
14502TIP3    H143451   5.769   1.356   2.545
14502TIP3    H243452   5.905   1.322   2.488
14503TIP3   OH243453   6.812   4.455   3.485
14503TIP3    H143454   6.745   4.489   3.427
14503TIP3    H243455   6.884   4.430   3.428
14504TIP3   OH243456   6.315   1.026   6.511
14504TIP3    H143457   6.337   0.933   6.510
14504TIP3    H243458   6.310   1.050   6.418
14505TIP3   OH243459   0.030   6.093   5.074
14505TIP3    H143460   0.009   6.186   5.071
14505TIP3    H243461   0.088   6.084   5.149
14506TIP3   OH243462   0.166   5.418   1.824
14506TIP3    H143463   0.248   5.372   1.809
14506TIP3    H243464   0.192   5.509   1.841
14507TIP3   OH243465   1.526   3.202   3.738
14507TIP3    H143466   1.471   3.134   3.778
14507TIP3    H243467   1.575   3.158   3.670
14508TIP3   OH243468   5.708   7.687   2.196
14508TIP3    H143469   5.616   7.689   2.222
14508TIP3    H243470   5.744   7.769   2.228
14509TIP3   OH243471   8.067   1.297   6.108
14509TIP3    H143472   8.019   1.378   6.127
14509TIP3    H243473   8.002   1.228   6.119
14510TIP3   OH243474   2.767   5.751   0.350
14510TIP3    H143475   2.843   5.792   0.311
14510TIP3    H243476   2.732   5.693   0.281
14511TIP3   OH243477   3.528   3.077   4.642
14511TIP3    H143478   3.606   3.051   4.691
14511TIP3    H243479   3.472   2.999   4.644
14512TIP3   OH243480   7.013   1.044   5.665
14512TIP3    H143481   7.012   1.060   5.760
14512TIP3    H243482   6.995   0.951   5.656
14513TIP3   OH243483   2.348   2.472   5.072
14513TIP3    H143484   2.382   2.560   5.086
14513TIP3    H243485   2.342   2.464   4.976
14514TIP3   OH243486   3.946   2.567   5.721
14514TIP3    H143487   3.946   2.522   5.805
14514TIP3    H243488   3.865   2.540   5.679
14515TIP3   OH243489   6.203   6.426   4.073
14515TIP3    H143490   6.206   6.475   3.991
14515TIP3    H243491   6.151   6.349   4.053
14516TIP3   OH243492   0.541   1.829   4.641
14516TIP3    H143493   0.585   1.827   4.726
14516TIP3    H243494   0.543   1.921   4.614
14517TIP3   OH243495   7.841   2.610   2.704
14517TIP3    H143496   7.785   2.683   2.732
14517TIP3    H243497   7.929   2.635   2.731
14518TIP3   OH243498   8.180   2.947   0.352
14518TIP3    H143499   8.230   3.026   0.374
14518TIP3    H243500   8.246   2.879   0.342
14519TIP3   OH243501   2.407   0.846   5.310
14519TIP3    H143502   2.334   0.868   5.252
14519TIP3    H243503   2.366   0.833   5.396
14520TIP3   OH243504   1.945   5.073   2.266
14520TIP3    H143505   2.018   5.075   2.204
14520TIP3    H243506   1.942   5.161   2.303
14521TIP3   OH243507   0.467   5.610   0.554
14521TIP3    H143508   0.529   5.680   0.536
14521TIP3    H243509   0.400   5.619   0.487
14522TIP3   OH243510   4.107   4.060   3.491
14522TIP3    H143511   4.140   4.068   3.580
14522TIP3    H243512   4.021   4.103   3.492
14523TIP3   OH243513   6.537   5.212   3.702
14523TIP3    H143514   6.443   5.231   3.702
14523TIP3    H243515   6.570   5.256   3.624
14524TIP3   OH243516   5.761   5.620   5.052
14524TIP3    H143517   5.854   5.633   5.033
14524TIP3    H243518   5.755   5.529   5.080
14525TIP3   OH243519   8.121   1.001   5.520
14525TIP3    H143520   8.184   1.071   5.503
14525TIP3    H243521   8.090   0.974   5.434
14526TIP3   OH243522   0.110   6.987   4.517
14526TIP3    H143523   0.033   7.003   4.462
14526TIP3    H243524   0.176   6.952   4.457
14527TIP3   OH243525   7.387   1.507   4.741
14527TIP3    H143526   7.471   1.477   4.706
14527TIP3    H243527   7.338   1.426   4.757
14528TIP3   OH243528   7.257   0.684   4.733
14528TIP3    H143529   7.205   0.651   4.807
14528TIP3    H243530   7.204   0.753   4.695
14529TIP3   OH243531   4.237   1.996   6.609
14529TIP3    H143532   4.297   1.952   6.549
14529TIP3    H243533   4.243   2.089   6.585
14530TIP3   OH243534   6.460   4.095   3.865
14530TIP3    H143535   6.512   4.121   3.789
14530TIP3    H243536   6.417   4.176   3.893
14531TIP3   OH243537   1.039   5.523   5.749
14531TIP3    H143538   0.969   5.553   5.690
14531TIP3    H243539   1.035   5.427   5.742
14532TIP3   OH243540   1.469   5.101   4.382
14532TIP3    H143541   1.454   5.008   4.363
14532TIP3    H243542   1.444   5.111   4.473
14533TIP3   OH243543   5.864   1.053   5.015
14533TIP3    H143544   5.831   1.084   4.931
14533TIP3    H243545   5.897   1.132   5.059
14534TIP3   OH243546   5.352   2.404   6.676
14534TIP3    H143547   5.390   2.418   6.590
14534TIP3    H243548   5.274   2.351   6.660
14535TIP3   OH243549   8.111   6.589   3.029
14535TIP3    H143550   8.034   6.644   3.041
14535TIP3    H243551   8.136   6.601   2.937
14536TIP3   OH243552   0.445   0.911   2.708
14536TIP3    H143553   0.540   0.920   2.711
14536TIP3    H243554   0.421   0.936   2.619
14537TIP3   OH243555   3.215   6.289   4.213
14537TIP3    H143556   3.164   6.220   4.172
14537TIP3    H243557   3.293   6.244   4.247
14538TIP3   OH243558   1.096   3.474   4.478
14538TIP3    H143559   1.128   3.543   4.420
14538TIP3    H243560   1.145   3.485   4.559
14539TIP3   OH243561   5.337   2.957   3.842
14539TIP3    H143562   5.292   3.036   3.812
14539TIP3    H243563   5.305   2.944   3.932
14540TIP3   OH243564   2.229   7.521   3.974
14540TIP3    H143565   2.295   7.478   4.028
14540TIP3    H243566   2.148   7.515   4.025
14541TIP3   OH243567   3.440   4.606  -0.015
14541TIP3    H143568   3.428   4.542  -0.086
14541TIP3    H243569   3.445   4.553   0.064
14542TIP3   OH243570   3.249   2.720   1.709
14542TIP3    H143571   3.279   2.662   1.639
14542TIP3    H243572   3.264   2.671   1.790
14543TIP3   OH243573   2.990   1.219   6.266
14543TIP3    H143574   2.961   1.299   6.222
14543TIP3    H243575   2.942   1.149   6.222
14544TIP3   OH243576   3.345   4.762   1.795
14544TIP3    H143577   3.304   4.838   1.837
14544TIP3    H243578   3.275   4.696   1.793
14545TIP3   OH243579   4.251   5.551   1.450
14545TIP3    H143580   4.304   5.480   1.413
14545TIP3    H243581   4.315   5.615   1.482
14546TIP3   OH243582   5.974   7.104   5.544
14546TIP3    H143583   6.005   7.180   5.495
14546TIP3    H243584   6.018   7.111   5.629
14547TIP3   OH243585   1.015   7.190   2.044
14547TIP3    H143586   1.046   7.175   2.134
14547TIP3    H243587   0.997   7.284   2.041
14548TIP3   OH243588   8.122   3.217   2.470
14548TIP3    H143589   8.036   3.224   2.427
14548TIP3    H243590   8.102   3.185   2.558
14549TIP3   OH243591   6.085   6.894   4.973
14549TIP3    H143592   6.056   6.837   5.044
14549TIP3    H243593   6.026   6.969   4.976
14550TIP3   OH243594   6.516   7.085   4.216
14550TIP3    H143595   6.607   7.103   4.239
14550TIP3    H243596   6.466   7.139   4.277
14551TIP3   OH243597   3.555   2.611   0.854
14551TIP3    H143598   3.528   2.577   0.940
14551TIP3    H243599   3.566   2.705   0.868
14552TIP3   OH243600   3.754   1.858   3.764
14552TIP3    H143601   3.769   1.923   3.832
14552TIP3    H243602   3.690   1.899   3.705
14553TIP3   OH243603   0.099   6.462   5.638
14553TIP3    H143604   0.102   6.555   5.658
14553TIP3    H243605   0.099   6.458   5.542
14554TIP3   OH243606   4.971   1.547   6.422
14554TIP3    H143607   5.037   1.610   6.394
14554TIP3    H243608   4.888   1.582   6.390
14555TIP3   OH243609   5.676   3.099   6.037
14555TIP3    H143610   5.726   3.051   5.970
14555TIP3    H243611   5.677   3.190   6.007
14556TIP3   OH243612   4.012   7.145   0.409
14556TIP3    H143613   3.971   7.108   0.331
14556TIP3    H243614   4.084   7.198   0.375
14557TIP3   OH243615   7.108   5.501   0.318
14557TIP3    H143616   7.134   5.408   0.322
14557TIP3    H243617   7.018   5.499   0.286
14558TIP3   OH243618   5.849   5.345   0.195
14558TIP3    H143619   5.763   5.370   0.230
14558TIP3    H243620   5.892   5.429   0.176
14559TIP3   OH243621   7.713   4.632   4.390
14559TIP3    H143622   7.716   4.650   4.296
14559TIP3    H243623   7.758   4.548   4.400
14560TIP3   OH243624   1.386   6.719   4.985
14560TIP3    H143625   1.433   6.800   4.963
14560TIP3    H243626   1.293   6.742   4.975
14561TIP3   OH243627   5.841   3.937   6.330
14561TIP3    H143628   5.751   3.912   6.349
14561TIP3    H243629   5.844   3.942   6.234
14562TIP3   OH243630   3.088   4.300   2.081
14562TIP3    H143631   3.142   4.379   2.085
14562TIP3    H243632   3.015   4.318   2.140
14563TIP3   OH243633   0.424   7.068   0.607
14563TIP3    H143634   0.484   7.143   0.606
14563TIP3    H243635   0.443   7.023   0.524
14564TIP3   OH243636   6.763   1.218   5.695
14564TIP3    H143637   6.786   1.232   5.786
14564TIP3    H243638   6.839   1.175   5.656
14565TIP3   OH243639   3.387   5.891   6.417
14565TIP3    H143640   3.462   5.892   6.475
14565TIP3    H243641   3.328   5.957   6.452
14566TIP3   OH243642   7.146   1.481   2.977
14566TIP3    H143643   7.200   1.493   2.898
14566TIP3    H243644   7.066   1.530   2.959
14567TIP3   OH243645   2.582   7.128   1.893
14567TIP3    H143646   2.629   7.212   1.894
14567TIP3    H243647   2.566   7.108   1.985
14568TIP3   OH243648   5.562   0.386   4.628
14568TIP3    H143649   5.603   0.343   4.703
14568TIP3    H243650   5.634   0.411   4.571
14569TIP3   OH243651   1.386   4.269   4.214
14569TIP3    H143652   1.307   4.317   4.186
14569TIP3    H243653   1.405   4.211   4.140
14570TIP3   OH243654   7.615   5.673   0.688
14570TIP3    H143655   7.563   5.736   0.639
14570TIP3    H243656   7.630   5.601   0.627
14571TIP3   OH243657   2.891   6.615   4.970
14571TIP3    H143658   2.955   6.613   5.041
14571TIP3    H243659   2.809   6.640   5.012
14572TIP3   OH243660   1.742   3.079   2.335
14572TIP3    H143661   1.727   3.109   2.246
14572TIP3    H243662   1.701   3.146   2.390
14573TIP3   OH243663   2.413   0.473   0.183
14573TIP3    H143664   2.349   0.463   0.253
14573TIP3    H243665   2.421   0.568   0.171
14574TIP3   OH243666   1.003   4.889   3.575
14574TIP3    H143667   1.043   4.824   3.519
14574TIP3    H243668   1.032   4.866   3.664
14575TIP3   OH243669   6.723   0.457   3.397
14575TIP3    H143670   6.642   0.445   3.446
14575TIP3    H243671   6.698   0.442   3.306
14576TIP3   OH243672   5.815   2.368   2.917
14576TIP3    H143673   5.767   2.423   2.979
14576TIP3    H243674   5.839   2.428   2.846
14577TIP3   OH243675   6.554   0.522   4.509
14577TIP3    H143676   6.612   0.456   4.473
14577TIP3    H243677   6.491   0.473   4.563
14578TIP3   OH243678   1.244   3.111   2.130
14578TIP3    H143679   1.246   3.054   2.208
14578TIP3    H243680   1.166   3.165   2.143
14579TIP3   OH243681   4.839   1.056   2.235
14579TIP3    H143682   4.917   1.111   2.236
14579TIP3    H243683   4.873   0.966   2.233
14580TIP3   OH243684   1.560   0.948   0.114
14580TIP3    H143685   1.540   0.856   0.096
14580TIP3    H243686   1.623   0.973   0.046
14581TIP3   OH243687   1.177   2.003   5.063
14581TIP3    H143688   1.083   1.988   5.064
14581TIP3    H243689   1.204   1.982   4.973
14582TIP3   OH243690   0.553   2.536   6.785
14582TIP3    H143691   0.556   2.631   6.789
14582TIP3    H243692   0.485   2.512   6.848
14583TIP3   OH243693   7.047   0.528   5.388
14583TIP3    H143694   7.091   0.445   5.370
14583TIP3    H243695   7.058   0.579   5.307
14584TIP3   OH243696   7.562   6.497   6.001
14584TIP3    H143697   7.581   6.498   5.907
14584TIP3    H243698   7.469   6.473   6.006
14585TIP3   OH243699   7.240   1.914   4.909
14585TIP3    H143700   7.227   2.007   4.888
14585TIP3    H243701   7.152   1.877   4.910
14586TIP3   OH243702   1.252   1.228   0.293
14586TIP3    H143703   1.283   1.138   0.303
14586TIP3    H243704   1.270   1.250   0.202
14587TIP3   OH243705   8.015   5.674   6.785
14587TIP3    H143706   8.038   5.598   6.732
14587TIP3    H243707   8.098   5.705   6.820
14588TIP3   OH243708   2.366   3.222   6.758
14588TIP3    H143709   2.391   3.267   6.839
14588TIP3    H243710   2.385   3.286   6.689
14589TIP3   OH243711   2.720   1.826   2.691
14589TIP3    H143712   2.651   1.798   2.751
14589TIP3    H243713   2.800   1.787   2.726
14590TIP3   OH243714   6.554   4.746   1.197
14590TIP3    H143715   6.612   4.761   1.272
14590TIP3    H243716   6.558   4.651   1.183
14591TIP3   OH243717   3.972   0.757   2.227
14591TIP3    H143718   4.007   0.771   2.139
14591TIP3    H243719   3.905   0.824   2.237
14592TIP3   OH243720   4.401   5.555   1.954
14592TIP3    H143721   4.410   5.610   1.876
14592TIP3    H243722   4.345   5.483   1.926
14593TIP3   OH243723   0.823   2.487   5.572
14593TIP3    H143724   0.846   2.469   5.663
14593TIP3    H243725   0.906   2.487   5.525
14594TIP3   OH243726   7.612   2.931   6.143
14594TIP3    H143727   7.564   2.951   6.223
14594TIP3    H243728   7.564   2.977   6.074
14595TIP3   OH243729   8.190   0.272   2.323
14595TIP3    H143730   8.179   0.177   2.326
14595TIP3    H243731   8.239   0.293   2.402
14596TIP3   OH243732   7.128   4.807   5.893
14596TIP3    H143733   7.205   4.822   5.948
14596TIP3    H243734   7.150   4.848   5.809
14597TIP3   OH243735   0.791   2.885   2.284
14597TIP3    H143736   0.808   2.792   2.272
14597TIP3    H243737   0.742   2.911   2.206
14598TIP3   OH243738   3.942   7.150   5.966
14598TIP3    H143739   4.005   7.086   6.000
14598TIP3    H243740   3.857   7.117   5.995
14599TIP3   OH243741   8.125   7.771  -0.031
14599TIP3    H143742   8.189   7.817   0.023
14599TIP3    H243743   8.049   7.760   0.026
14600TIP3   OH243744   0.779   4.891   5.808
14600TIP3    H143745   0.848   4.957   5.816
14600TIP3    H243746   0.816   4.812   5.847
14601TIP3   OH243747   0.616   2.116   5.240
14601TIP3    H143748   0.711   2.131   5.242
14601TIP3    H243749   0.583   2.181   5.179
14602TIP3   OH243750   2.715   7.624   5.337
14602TIP3    H143751   2.688   7.564   5.406
14602TIP3    H243752   2.656   7.605   5.264
14603TIP3   OH243753   3.360   1.511   6.330
14603TIP3    H143754   3.366   1.580   6.395
14603TIP3    H243755   3.329   1.434   6.379
14604TIP3   OH243756   7.517   0.862   5.785
14604TIP3    H143757   7.561   0.818   5.713
14604TIP3    H243758   7.465   0.931   5.743
14605TIP3   OH243759   6.694   1.104   4.140
14605TIP3    H143760   6.732   1.161   4.074
14605TIP3    H243761   6.728   1.139   4.223
14606TIP3   OH243762   0.506   5.302   6.130
14606TIP3    H143763   0.596   5.320   6.159
14606TIP3    H243764   0.452   5.365   6.177
14607TIP3   OH243765   5.426   7.611   3.698
14607TIP3    H143766   5.445   7.600   3.791
14607TIP3    H243767   5.397   7.702   3.690
14608TIP3   OH243768   0.131   4.034   4.363
14608TIP3    H143769   0.039   4.042   4.337
14608TIP3    H243770   0.128   3.987   4.447
14609TIP3   OH243771   7.948   5.507   4.553
14609TIP3    H143772   7.958   5.444   4.482
14609TIP3    H243773   7.909   5.584   4.510
14610TIP3   OH243774   0.959   4.376   1.512
14610TIP3    H143775   1.043   4.334   1.528
14610TIP3    H243776   0.899   4.334   1.574
14611TIP3   OH243777   5.919   6.360   1.538
14611TIP3    H143778   5.893   6.313   1.459
14611TIP3    H243779   5.971   6.434   1.506
14612TIP3   OH243780   3.469   0.313   6.070
14612TIP3    H143781   3.380   0.294   6.097
14612TIP3    H243782   3.482   0.258   5.992
14613TIP3   OH243783   6.260   7.527   4.456
14613TIP3    H143784   6.169   7.531   4.484
14613TIP3    H243785   6.311   7.535   4.537
14614TIP3   OH243786   5.628   2.536   3.030
14614TIP3    H143787   5.601   2.604   2.970
14614TIP3    H243788   5.559   2.533   3.096
14615TIP3   OH243789   2.474   5.794   5.550
14615TIP3    H143790   2.456   5.842   5.631
14615TIP3    H243791   2.492   5.863   5.486
14616TIP3   OH243792   4.652   3.238   4.375
14616TIP3    H143793   4.568   3.248   4.331
14616TIP3    H243794   4.632   3.239   4.468
14617TIP3   OH243795   5.417   3.353   1.712
14617TIP3    H143796   5.369   3.331   1.632
14617TIP3    H243797   5.506   3.319   1.697
14618TIP3   OH243798   0.183   6.821   2.093
14618TIP3    H143799   0.211   6.894   2.038
14618TIP3    H243800   0.143   6.863   2.170
14619TIP3   OH243801   7.169   7.838   3.835
14619TIP3    H143802   7.219   7.766   3.872
14619TIP3    H243803   7.118   7.797   3.765
14620TIP3   OH243804   7.904   2.497   6.272
14620TIP3    H143805   7.933   2.523   6.185
14620TIP3    H243806   7.911   2.578   6.324
14621TIP3   OH243807   0.048   5.714   5.096
14621TIP3    H143808   0.086   5.801   5.104
14621TIP3    H243809   0.118   5.654   5.122
14622TIP3   OH243810   0.243   6.618   4.639
14622TIP3    H143811   0.245   6.672   4.560
14622TIP3    H243812   0.159   6.573   4.636
14623TIP3   OH243813   2.235   2.986   6.696
14623TIP3    H143814   2.204   3.010   6.608
14623TIP3    H243815   2.276   3.066   6.729
14624TIP3   OH243816   1.496   5.155   1.936
14624TIP3    H143817   1.559   5.227   1.928
14624TIP3    H243818   1.459   5.145   1.849
14625TIP3   OH243819   3.036   5.160   0.494
14625TIP3    H143820   2.978   5.084   0.487
14625TIP3    H243821   3.125   5.123   0.485
14626TIP3   OH243822   1.446   0.777   3.156
14626TIP3    H143823   1.360   0.795   3.118
14626TIP3    H243824   1.493   0.861   3.151
14627TIP3   OH243825   0.287   6.988   1.028
14627TIP3    H143826   0.238   7.064   0.999
14627TIP3    H243827   0.360   7.024   1.079
14628TIP3   OH243828   5.753   6.330   3.034
14628TIP3    H143829   5.801   6.256   3.071
14628TIP3    H243830   5.812   6.404   3.043
14629TIP3   OH243831   6.248   1.898   1.062
14629TIP3    H143832   6.155   1.920   1.069
14629TIP3    H243833   6.282   1.957   0.994
14630TIP3   OH243834   4.052   6.340   5.411
14630TIP3    H143835   3.989   6.384   5.469
14630TIP3    H243836   4.027   6.368   5.323
14631TIP3   OH243837   2.146   6.845   1.152
14631TIP3    H143838   2.235   6.872   1.129
14631TIP3    H243839   2.111   6.919   1.203
14632TIP3   OH243840   6.368   1.188   1.730
14632TIP3    H143841   6.392   1.172   1.638
14632TIP3    H243842   6.419   1.265   1.755
14633TIP3   OH243843   5.237   0.919   2.722
14633TIP3    H143844   5.155   0.915   2.772
14633TIP3    H243845   5.226   0.854   2.653
14634TIP3   OH243846   5.011   0.345   6.212
14634TIP3    H143847   4.973   0.304   6.290
14634TIP3    H243848   5.090   0.388   6.244
14635TIP3   OH243849   0.918   0.544   6.454
14635TIP3    H143850   1.008   0.516   6.440
14635TIP3    H243851   0.925   0.636   6.480
14636TIP3   OH243852   4.175   4.855   1.823
14636TIP3    H143853   4.183   4.934   1.877
14636TIP3    H243854   4.148   4.887   1.737
14637TIP3   OH243855   1.351   2.428   4.957
14637TIP3    H143856   1.324   2.514   4.991
14637TIP3    H243857   1.343   2.369   5.031
14638TIP3   OH243858   5.153   1.134   6.568
14638TIP3    H143859   5.154   1.115   6.474
14638TIP3    H243860   5.187   1.054   6.609
14639TIP3   OH243861   7.992   0.087   5.835
14639TIP3    H143862   7.939   0.040   5.899
14639TIP3    H243863   7.965   0.050   5.751
14640TIP3   OH243864   7.566   5.260   3.111
14640TIP3    H143865   7.499   5.208   3.068
14640TIP3    H243866   7.517   5.321   3.166
14641TIP3   OH243867   5.373   1.973   6.373
14641TIP3    H143868   5.398   1.881   6.366
14641TIP3    H243869   5.456   2.020   6.376
14642TIP3   OH243870   2.275   5.826   5.092
14642TIP3    H143871   2.215   5.757   5.119
14642TIP3    H243872   2.333   5.784   5.029
14643TIP3   OH243873   7.696   0.406   2.369
14643TIP3    H143874   7.636   0.349   2.321
14643TIP3    H243875   7.648   0.489   2.375
14644TIP3   OH243876   7.515   4.562   5.717
14644TIP3    H143877   7.444   4.526   5.663
14644TIP3    H243878   7.510   4.512   5.798
14645TIP3   OH243879   4.327   6.537   3.821
14645TIP3    H143880   4.243   6.559   3.780
14645TIP3    H243881   4.377   6.618   3.821
14646TIP3   OH243882   1.396   1.113   4.859
14646TIP3    H143883   1.432   1.109   4.948
14646TIP3    H243884   1.356   1.027   4.846
14647TIP3   OH243885   2.755   5.244   0.881
14647TIP3    H143886   2.777   5.162   0.837
14647TIP3    H243887   2.670   5.228   0.921
14648TIP3   OH243888   1.284   2.958   1.838
14648TIP3    H143889   1.248   3.025   1.781
14648TIP3    H243890   1.279   2.995   1.926
14649TIP3   OH243891   7.177   0.078   4.789
14649TIP3    H143892   7.265   0.102   4.759
14649TIP3    H243893   7.191   0.037   4.874
14650TIP3   OH243894   3.845   5.566   5.510
14650TIP3    H143895   3.926   5.517   5.524
14650TIP3    H243896   3.843   5.630   5.581
14651TIP3   OH243897   6.556   5.679   6.575
14651TIP3    H143898   6.533   5.760   6.530
14651TIP3    H243899   6.595   5.624   6.507
14652TIP3   OH243900   1.601   3.800   3.559
14652TIP3    H143901   1.618   3.751   3.640
14652TIP3    H243902   1.683   3.844   3.540
14653TIP3   OH243903   3.639   7.296   0.571
14653TIP3    H143904   3.674   7.234   0.507
14653TIP3    H243905   3.566   7.250   0.612
14654TIP3   OH243906   5.451   6.118   3.003
14654TIP3    H143907   5.397   6.131   3.081
14654TIP3    H243908   5.468   6.024   3.001
14655TIP3   OH243909   2.468   3.136   3.536
14655TIP3    H143910   2.481   3.175   3.623
14655TIP3    H243911   2.557   3.121   3.503
14656TIP3   OH243912   6.438   3.120   2.308
14656TIP3    H143913   6.433   3.171   2.389
14656TIP3    H243914   6.439   3.029   2.338
14657TIP3   OH243915   2.654   4.452   4.200
14657TIP3    H143916   2.619   4.437   4.112
14657TIP3    H243917   2.599   4.398   4.256
14658TIP3   OH243918   5.284   3.643   5.001
14658TIP3    H143919   5.321   3.709   4.943
14658TIP3    H243920   5.230   3.692   5.063
14659TIP3   OH243921   1.824   1.375   1.820
14659TIP3    H143922   1.890   1.351   1.885
14659TIP3    H243923   1.741   1.357   1.863
14660TIP3   OH243924   0.184   3.537   6.605
14660TIP3    H143925   0.193   3.591   6.683
14660TIP3    H243926   0.090   3.524   6.595
14661TIP3   OH243927   8.098   5.851   0.450
14661TIP3    H143928   8.120   5.858   0.357
14661TIP3    H243929   8.038   5.777   0.455
14662TIP3   OH243930   6.482   2.216   1.230
14662TIP3    H143931   6.390   2.224   1.205
14662TIP3    H243932   6.499   2.294   1.283
14663TIP3   OH243933   6.922   0.079   6.505
14663TIP3    H143934   6.972   0.156   6.531
14663TIP3    H243935   6.926   0.078   6.409
14664TIP3   OH243936   6.347   5.210   1.316
14664TIP3    H143937   6.281   5.186   1.251
14664TIP3    H243938   6.304   5.196   1.401
14665TIP3   OH243939   2.558   7.017   3.392
14665TIP3    H143940   2.631   7.020   3.453
14665TIP3    H243941   2.541   6.924   3.378
14666TIP3   OH243942   2.311   6.631   1.357
14666TIP3    H143943   2.387   6.652   1.303
14666TIP3    H243944   2.287   6.714   1.399
14667TIP3   OH243945   0.914   0.130   4.823
14667TIP3    H143946   0.868   0.142   4.906
14667TIP3    H243947   1.003   0.107   4.848
14668TIP3   OH243948   3.414   0.452   5.679
14668TIP3    H143949   3.468   0.485   5.750
14668TIP3    H243950   3.458   0.481   5.599
14669TIP3   OH243951   7.521   7.688   1.508
14669TIP3    H143952   7.448   7.634   1.477
14669TIP3    H243953   7.503   7.775   1.472
14670TIP3   OH243954   2.171   3.583   1.530
14670TIP3    H143955   2.120   3.561   1.608
14670TIP3    H243956   2.240   3.518   1.526
14671TIP3   OH243957   2.685   0.156   4.459
14671TIP3    H143958   2.672   0.147   4.553
14671TIP3    H243959   2.674   0.068   4.424
14672TIP3   OH243960   8.276   0.350   4.628
14672TIP3    H143961   8.353   0.308   4.666
14672TIP3    H243962   8.201   0.309   4.671
14673TIP3   OH243963   2.188   1.616   6.251
14673TIP3    H143964   2.169   1.630   6.344
14673TIP3    H243965   2.251   1.544   6.250
14674TIP3   OH243966   4.575   7.108   3.174
14674TIP3    H143967   4.605   7.018   3.164
14674TIP3    H243968   4.559   7.138   3.085
14675TIP3   OH243969   7.374   3.179   2.415
14675TIP3    H143970   7.343   3.239   2.483
14675TIP3    H243971   7.300   3.171   2.355
14676TIP3   OH243972   0.970   6.817   1.985
14676TIP3    H143973   0.945   6.898   2.029
14676TIP3    H243974   0.889   6.765   1.984
14677TIP3   OH243975   6.537   6.177   0.472
14677TIP3    H143976   6.469   6.235   0.435
14677TIP3    H243977   6.579   6.138   0.395
14678TIP3   OH243978   8.118   7.439   4.335
14678TIP3    H143979   8.190   7.502   4.330
14678TIP3    H243980   8.148   7.363   4.286
14679TIP3   OH243981   2.322   2.776   5.370
14679TIP3    H143982   2.232   2.804   5.352
14679TIP3    H243983   2.345   2.722   5.295
14680TIP3   OH243984   0.846   3.685   2.577
14680TIP3    H143985   0.797   3.750   2.526
14680TIP3    H243986   0.777   3.632   2.618
14681TIP3   OH243987   4.934   2.481   0.868
14681TIP3    H143988   4.859   2.532   0.836
14681TIP3    H243989   4.896   2.418   0.928
14682TIP3   OH243990   7.829   7.271   1.952
14682TIP3    H143991   7.881   7.342   1.991
14682TIP3    H243992   7.793   7.309   1.872
14683TIP3   OH243993   6.670   0.376   5.641
14683TIP3    H143994   6.633   0.360   5.727
14683TIP3    H243995   6.595   0.391   5.584
14684TIP3   OH243996   6.319   4.960   4.818
14684TIP3    H143997   6.227   4.955   4.845
14684TIP3    H243998   6.325   5.042   4.769
14685TIP3   OH243999   6.961   5.669   6.677
14685TIP3    H144000   6.975   5.575   6.685
14685TIP3    H244001   6.934   5.682   6.587
14686TIP3   OH244002   2.923   5.875   3.681
14686TIP3    H144003   2.983   5.872   3.755
14686TIP3    H244004   2.836   5.882   3.720
14687TIP3   OH244005   6.643   0.808   6.570
14687TIP3    H144006   6.626   0.883   6.627
14687TIP3    H244007   6.595   0.735   6.609
14688TIP3   OH244008   7.130   0.193   6.705
14688TIP3    H144009   7.142   0.285   6.728
14688TIP3    H244010   7.172   0.145   6.776
14689TIP3   OH244011   0.248   0.913   3.453
14689TIP3    H144012   0.164   0.957   3.434
14689TIP3    H244013   0.227   0.849   3.520
14690TIP3   OH244014   8.281   6.997   3.803
14690TIP3    H144015   8.310   6.925   3.859
14690TIP3    H244016   8.224   6.955   3.738
14691TIP3   OH244017   4.044   2.734   3.110
14691TIP3    H144018   4.044   2.813   3.056
14691TIP3    H244019   3.962   2.690   3.088
14692TIP3   OH244020   3.822   5.512   2.016
14692TIP3    H144021   3.728   5.523   2.024
14692TIP3    H244022   3.849   5.469   2.097
14693TIP3   OH244023   1.569   7.684   6.492
14693TIP3    H144024   1.651   7.729   6.513
14693TIP3    H244025   1.592   7.591   6.495
14694TIP3   OH244026   6.899   5.652   6.009
14694TIP3    H144027   6.931   5.734   5.972
14694TIP3    H244028   6.864   5.604   5.934
14695TIP3   OH244029   3.090   1.931   0.188
14695TIP3    H144030   3.127   1.892   0.108
14695TIP3    H244031   3.096   1.861   0.253
14696TIP3   OH244032   3.954   0.768   4.498
14696TIP3    H144033   3.962   0.782   4.592
14696TIP3    H244034   3.919   0.679   4.490
14697TIP3   OH244035   7.406   7.155   3.009
14697TIP3    H144036   7.477   7.094   2.990
14697TIP3    H244037   7.347   7.107   3.066
14698TIP3   OH244038   0.191   1.296   1.035
14698TIP3    H144039   0.233   1.334   0.958
14698TIP3    H244040   0.120   1.244   1.000
14699TIP3   OH244041   2.707   6.658   5.501
14699TIP3    H144042   2.676   6.681   5.588
14699TIP3    H244043   2.688   6.565   5.492
14700TIP3   OH244044   7.330   4.692   4.812
14700TIP3    H144045   7.306   4.761   4.750
14700TIP3    H244046   7.411   4.655   4.778
14701TIP3   OH244047   5.151   2.118   6.340
14701TIP3    H144048   5.232   2.067   6.338
14701TIP3    H244049   5.179   2.209   6.333
14702TIP3   OH244050   0.127   0.094   1.767
14702TIP3    H144051   0.215   0.080   1.732
14702TIP3    H244052   0.114   0.188   1.764
14703TIP3   OH244053   5.483   6.119   0.592
14703TIP3    H144054   5.546   6.097   0.524
14703TIP3    H244055   5.507   6.064   0.666
14704TIP3   OH244056   3.944   7.746   1.014
14704TIP3    H144057   3.961   7.769   0.922
14704TIP3    H244058   3.943   7.830   1.060
14705TIP3   OH244059   1.988   6.295   4.795
14705TIP3    H144060   1.929   6.258   4.861
14705TIP3    H244061   2.060   6.233   4.790
14706TIP3   OH244062   2.095   7.154   6.481
14706TIP3    H144063   2.155   7.128   6.551
14706TIP3    H244064   2.148   7.210   6.425
14707TIP3   OH244065   4.886   1.245   0.792
14707TIP3    H144066   4.888   1.164   0.741
14707TIP3    H244067   4.823   1.229   0.861
14708TIP3   OH244068   0.313   2.524   6.075
14708TIP3    H144069   0.382   2.587   6.093
14708TIP3    H244070   0.268   2.512   6.159
14709TIP3   OH244071   2.065   2.323   3.979
14709TIP3    H144072   1.992   2.385   3.980
14709TIP3    H244073   2.027   2.241   3.948
14710TIP3   OH244074   2.857   7.829   1.047
14710TIP3    H144075   2.855   7.816   0.952
14710TIP3    H244076   2.948   7.851   1.065
14711TIP3   OH244077   6.216   7.775   2.391
14711TIP3    H144078   6.247   7.705   2.449
14711TIP3    H244079   6.278   7.847   2.405
14712TIP3   OH244080   7.555   1.357   0.983
14712TIP3    H144081   7.553   1.403   1.067
14712TIP3    H244082   7.541   1.265   1.006
14713TIP3   OH244083   0.462   1.862   2.295
14713TIP3    H144084   0.426   1.821   2.374
14713TIP3    H244085   0.556   1.867   2.312
14714TIP3   OH244086   7.983   5.731   2.889
14714TIP3    H144087   7.999   5.639   2.909
14714TIP3    H244088   8.053   5.778   2.934
14715TIP3   OH244089   2.117   6.469   2.550
14715TIP3    H144090   2.171   6.538   2.589
14715TIP3    H244091   2.070   6.431   2.624
14716TIP3   OH244092   6.331   5.709   4.487
14716TIP3    H144093   6.426   5.703   4.498
14716TIP3    H244094   6.310   5.645   4.419
14717TIP3   OH244095   4.825   6.132   2.966
14717TIP3    H144096   4.808   6.150   3.059
14717TIP3    H244097   4.867   6.046   2.966
14718TIP3   OH244098   4.642   3.191   2.266
14718TIP3    H144099   4.661   3.152   2.181
14718TIP3    H244100   4.552   3.223   2.258
14719TIP3   OH244101   4.636   7.696   3.286
14719TIP3    H144102   4.647   7.615   3.236
14719TIP3    H244103   4.545   7.695   3.314
14720TIP3   OH244104   2.307   7.616   6.256
14720TIP3    H144105   2.298   7.582   6.167
14720TIP3    H244106   2.259   7.700   6.254
14721TIP3   OH244107   6.216   4.087   2.234
14721TIP3    H144108   6.278   4.108   2.303
14721TIP3    H244109   6.231   4.153   2.166
14722TIP3   OH244110   8.186   1.435   3.296
14722TIP3    H144111   8.268   1.470   3.259
14722TIP3    H244112   8.203   1.342   3.310
14723TIP3   OH244113   8.096   2.356   0.288
14723TIP3    H144114   8.176   2.312   0.261
14723TIP3    H244115   8.125   2.441   0.322
14724TIP3   OH244116   7.773   3.037   4.789
14724TIP3    H144117   7.756   2.956   4.838
14724TIP3    H244118   7.719   3.029   4.710
14725TIP3   OH244119   4.782   2.402   1.091
14725TIP3    H144120   4.844   2.398   1.164
14725TIP3    H244121   4.789   2.316   1.049
14726TIP3   OH244122   2.671   7.653   4.251
14726TIP3    H144123   2.744   7.708   4.281
14726TIP3    H244124   2.617   7.713   4.199
14727TIP3   OH244125   0.127   4.601   2.283
14727TIP3    H144126   0.192   4.639   2.342
14727TIP3    H244127   0.170   4.524   2.247
14728TIP3   OH244128   2.505   1.288   2.998
14728TIP3    H144129   2.567   1.215   3.006
14728TIP3    H244130   2.536   1.352   3.062
14729TIP3   OH244131   2.555   6.308   1.071
14729TIP3    H144132   2.482   6.338   1.017
14729TIP3    H244133   2.631   6.353   1.034
14730TIP3   OH244134   4.677   2.447   1.393
14730TIP3    H144135   4.586   2.417   1.397
14730TIP3    H244136   4.672   2.530   1.345
14731TIP3   OH244137   6.389   4.363   3.544
14731TIP3    H144138   6.368   4.270   3.544
14731TIP3    H244139   6.305   4.407   3.532
14732TIP3   OH244140   7.376   0.754   6.019
14732TIP3    H144141   7.447   0.775   5.957
14732TIP3    H244142   7.330   0.836   6.032
14733TIP3   OH244143   2.831   6.372   4.611
14733TIP3    H144144   2.877   6.339   4.688
14733TIP3    H244145   2.901   6.389   4.547
14734TIP3   OH244146   4.385   4.560   6.554
14734TIP3    H144147   4.379   4.581   6.647
14734TIP3    H244148   4.321   4.619   6.512
14735TIP3   OH244149   2.755   5.754   1.814
14735TIP3    H144150   2.780   5.697   1.887
14735TIP3    H244151   2.832   5.756   1.758
14736TIP3   OH244152   1.643   1.002   0.839
14736TIP3    H144153   1.588   0.967   0.909
14736TIP3    H244154   1.591   0.988   0.759
14737TIP3   OH244155   0.742   5.945   2.209
14737TIP3    H144156   0.837   5.937   2.209
14737TIP3    H244157   0.719   5.961   2.300
14738TIP3   OH244158   3.965   1.437   1.479
14738TIP3    H144159   3.943   1.356   1.432
14738TIP3    H244160   4.051   1.462   1.444
14739TIP3   OH244161   5.807   0.789   0.605
14739TIP3    H144162   5.743   0.805   0.674
14739TIP3    H244163   5.865   0.722   0.641
14740TIP3   OH244164   8.112   5.146   2.409
14740TIP3    H144165   8.067   5.161   2.492
14740TIP3    H244166   8.199   5.185   2.420
14741TIP3   OH244167   5.826   5.868   6.514
14741TIP3    H144168   5.884   5.894   6.442
14741TIP3    H244169   5.879   5.881   6.592
14742TIP3   OH244170   0.261   2.591   5.618
14742TIP3    H144171   0.204   2.554   5.685
14742TIP3    H244172   0.349   2.586   5.656
14743TIP3   OH244173   6.099   5.503   3.748
14743TIP3    H144174   6.055   5.427   3.786
14743TIP3    H244175   6.040   5.534   3.679
14744TIP3   OH244176   2.651   6.167   5.563
14744TIP3    H144177   2.641   6.217   5.482
14744TIP3    H244178   2.562   6.160   5.598
14745TIP3   OH244179   2.711   3.689   1.121
14745TIP3    H144180   2.674   3.756   1.178
14745TIP3    H244181   2.803   3.682   1.149
14746TIP3   OH244182   7.770   2.788   5.173
14746TIP3    H144183   7.782   2.791   5.078
14746TIP3    H244184   7.763   2.880   5.199
14747TIP3   OH244185   0.778   3.172   0.730
14747TIP3    H144186   0.735   3.227   0.666
14747TIP3    H244187   0.724   3.093   0.735
14748TIP3   OH244188   5.314   0.138   2.836
14748TIP3    H144189   5.403   0.164   2.814
14748TIP3    H244190   5.272   0.123   2.751
14749TIP3   OH244191   1.940   4.705   3.871
14749TIP3    H144192   1.903   4.629   3.916
14749TIP3    H244193   1.960   4.767   3.941
14750TIP3   OH244194   7.582   2.056   5.703
14750TIP3    H144195   7.624   2.111   5.637
14750TIP3    H244196   7.645   1.986   5.719
14751TIP3   OH244197   3.925   6.471   5.188
14751TIP3    H144198   3.945   6.564   5.199
14751TIP3    H244199   3.934   6.456   5.094
14752TIP3   OH244200   7.913   6.035   3.962
14752TIP3    H144201   7.877   6.062   3.877
14752TIP3    H244202   7.886   5.943   3.971
14753TIP3   OH244203   0.222   3.073   5.077
14753TIP3    H144204   0.222   3.104   5.168
14753TIP3    H244205   0.310   3.037   5.064
14754TIP3   OH244206   8.148   5.840   0.175
14754TIP3    H144207   8.134   5.930   0.145
14754TIP3    H244208   8.101   5.786   0.111
14755TIP3   OH244209   7.084   2.278   6.639
14755TIP3    H144210   7.002   2.247   6.678
14755TIP3    H244211   7.057   2.321   6.558
14756TIP3   OH244212   3.372   3.299   6.014
14756TIP3    H144213   3.438   3.313   5.946
14756TIP3    H244214   3.293   3.341   5.979
14757TIP3   OH244215   1.954   7.251   0.260
14757TIP3    H144216   2.006   7.206   0.327
14757TIP3    H244217   1.867   7.260   0.299
14758TIP3   OH244218   3.128   3.365   0.088
14758TIP3    H144219   3.113   3.458   0.072
14758TIP3    H244220   3.186   3.337   0.018
14759TIP3   OH244221   4.319   3.629   4.987
14759TIP3    H144222   4.349   3.628   5.078
14759TIP3    H244223   4.225   3.610   4.993
14760TIP3   OH244224   2.275   0.466   6.651
14760TIP3    H144225   2.370   0.467   6.663
14760TIP3    H244226   2.248   0.556   6.668
14761TIP3   OH244227   1.074   1.193   3.383
14761TIP3    H144228   1.128   1.160   3.311
14761TIP3    H244229   0.985   1.165   3.361
14762TIP3   OH244230   0.321   7.553   3.832
14762TIP3    H144231   0.320   7.596   3.746
14762TIP3    H244232   0.362   7.468   3.816
14763TIP3   OH244233   5.964   4.998   1.426
14763TIP3    H144234   6.000   5.081   1.395
14763TIP3    H244235   6.029   4.933   1.403
14764TIP3   OH244236   3.361   5.333   4.890
14764TIP3    H144237   3.293   5.311   4.953
14764TIP3    H244238   3.324   5.404   4.838
14765TIP3   OH244239   6.165   0.487   6.308
14765TIP3    H144240   6.093   0.550   6.306
14765TIP3    H244241   6.194   0.486   6.399
14766TIP3   OH244242   0.139   4.478   4.154
14766TIP3    H144243   0.081   4.402   4.159
14766TIP3    H244244   0.095   4.545   4.206
14767TIP3   OH244245   5.290   6.997   2.100
14767TIP3    H144246   5.269   7.017   2.191
14767TIP3    H244247   5.214   6.950   2.067
14768TIP3   OH244248   3.463   0.476   0.862
14768TIP3    H144249   3.539   0.429   0.827
14768TIP3    H244250   3.482   0.487   0.955
14769TIP3   OH244251   3.261   2.795   4.940
14769TIP3    H144252   3.248   2.826   5.029
14769TIP3    H244253   3.214   2.858   4.885
14770TIP3   OH244254   1.994   4.793   2.397
14770TIP3    H144255   1.983   4.811   2.491
14770TIP3    H244256   2.061   4.725   2.394
14771TIP3   OH244257   4.957   0.280   3.704
14771TIP3    H144258   4.905   0.343   3.753
14771TIP3    H244259   4.931   0.293   3.613
14772TIP3   OH244260   1.161   1.332   1.090
14772TIP3    H144261   1.197   1.273   1.156
14772TIP3    H244262   1.067   1.336   1.111
14773TIP3   OH244263   1.480   6.867   6.563
14773TIP3    H144264   1.458   6.829   6.648
14773TIP3    H244265   1.575   6.859   6.556
14774TIP3   OH244266   5.777   7.444   0.892
14774TIP3    H144267   5.762   7.397   0.974
14774TIP3    H244268   5.699   7.499   0.882
14775TIP3   OH244269   2.467   4.618   1.975
14775TIP3    H144270   2.539   4.559   1.997
14775TIP3    H244271   2.412   4.568   1.916
14776TIP3   OH244272   4.860   7.566   6.113
14776TIP3    H144273   4.766   7.548   6.101
14776TIP3    H244274   4.877   7.542   6.204
14777TIP3   OH244275   4.898   6.837   4.773
14777TIP3    H144276   4.837   6.795   4.712
14777TIP3    H244277   4.931   6.765   4.827
14778TIP3   OH244278   5.686   0.670   5.888
14778TIP3    H144279   5.702   0.633   5.801
14778TIP3    H244280   5.718   0.603   5.949
14779TIP3   OH244281   0.080   2.431   5.763
14779TIP3    H144282   0.017   2.418   5.693
14779TIP3    H244283   0.029   2.461   5.838
14780TIP3   OH244284   8.095   7.215   1.185
14780TIP3    H144285   8.047   7.193   1.265
14780TIP3    H244286   8.184   7.182   1.201
14781TIP3   OH244287   2.591   1.527   6.601
14781TIP3    H144288   2.573   1.614   6.637
14781TIP3    H244289   2.665   1.541   6.541
14782TIP3   OH244290   4.013   0.396   2.983
14782TIP3    H144291   4.085   0.414   3.043
14782TIP3    H244292   3.965   0.323   3.023
14783TIP3   OH244293   3.603   2.255   1.111
14783TIP3    H144294   3.676   2.195   1.094
14783TIP3    H244295   3.548   2.248   1.033
14784TIP3   OH244296   6.439   0.414   5.160
14784TIP3    H144297   6.534   0.424   5.152
14784TIP3    H244298   6.428   0.325   5.194
14785TIP3   OH244299   2.293   0.208   0.735
14785TIP3    H144300   2.334   0.291   0.757
14785TIP3    H244301   2.351   0.168   0.670
14786TIP3   OH244302   1.757   5.251   3.696
14786TIP3    H144303   1.834   5.300   3.668
14786TIP3    H244304   1.714   5.308   3.760
14787TIP3   OH244305   1.294   7.709   2.712
14787TIP3    H144306   1.226   7.766   2.677
14787TIP3    H244307   1.313   7.743   2.799
14788TIP3   OH244308   2.284   0.059   1.824
14788TIP3    H144309   2.332   0.124   1.771
14788TIP3    H244310   2.341  -0.018   1.824
14789TIP3   OH244311   6.556   0.011   1.887
14789TIP3    H144312   6.638  -0.020   1.924
14789TIP3    H244313   6.492  -0.056   1.910
14790TIP3   OH244314   0.324   1.223   2.683
14790TIP3    H144315   0.266   1.148   2.671
14790TIP3    H244316   0.302   1.282   2.611
14791TIP3   OH244317   8.001   3.151   5.663
14791TIP3    H144318   7.948   3.207   5.606
14791TIP3    H244319   8.027   3.078   5.607
14792TIP3   OH244320   3.604   0.800   6.114
14792TIP3    H144321   3.632   0.830   6.027
14792TIP3    H244322   3.674   0.828   6.172
14793TIP3   OH244323   5.967   3.643   2.768
14793TIP3    H144324   5.896   3.586   2.739
14793TIP3    H244325   6.004   3.599   2.845
14794TIP3   OH244326   8.037   1.313   6.515
14794TIP3    H144327   8.131   1.321   6.529
14794TIP3    H244328   8.011   1.239   6.569
14795TIP3   OH244329   2.157   5.455   1.466
14795TIP3    H144330   2.245   5.435   1.435
14795TIP3    H244331   2.150   5.410   1.550
14796TIP3   OH244332   0.981   5.827   5.805
14796TIP3    H144333   0.974   5.732   5.799
14796TIP3    H244334   1.022   5.853   5.722
14797TIP3   OH244335   7.823   6.898   6.723
14797TIP3    H144336   7.906   6.904   6.676
14797TIP3    H244337   7.810   6.804   6.738
14798TIP3   OH244338   7.517   5.317   4.867
14798TIP3    H144339   7.507   5.319   4.963
14798TIP3    H244340   7.462   5.243   4.840
14799TIP3   OH244341   0.619   5.886   0.880
14799TIP3    H144342   0.524   5.888   0.868
14799TIP3    H244343   0.632   5.880   0.974
14800TIP3   OH244344   4.546   4.828   1.083
14800TIP3    H144345   4.553   4.767   1.010
14800TIP3    H244346   4.514   4.909   1.044
14801TIP3   OH244347   5.075   0.819   5.089
14801TIP3    H144348   5.058   0.912   5.103
14801TIP3    H244349   5.169   0.810   5.104
14802TIP3   OH244350   1.505   3.571   2.919
14802TIP3    H144351   1.485   3.643   2.979
14802TIP3    H244352   1.464   3.494   2.959
14803TIP3   OH244353   5.440   4.888   2.611
14803TIP3    H144354   5.402   4.953   2.670
14803TIP3    H244355   5.444   4.807   2.663
14804TIP3   OH244356   7.680   5.673   5.064
14804TIP3    H144357   7.686   5.623   4.983
14804TIP3    H244358   7.713   5.614   5.132
14805TIP3   OH244359   2.068   5.270   6.087
14805TIP3    H144360   2.097   5.350   6.133
14805TIP3    H244361   2.022   5.219   6.154
14806TIP3   OH244362   0.268   4.176   4.589
14806TIP3    H144363   0.264   4.097   4.535
14806TIP3    H244364   0.290   4.145   4.676
14807TIP3   OH244365   2.023   2.167   0.016
14807TIP3    H144366   2.094   2.146  -0.044
14807TIP3    H244367   2.054   2.243   0.065
14808TIP3   OH244368   4.321   5.348   6.308
14808TIP3    H144369   4.284   5.267   6.273
14808TIP3    H244370   4.253   5.381   6.367
14809TIP3   OH244371   5.171   2.784   4.012
14809TIP3    H144372   5.125   2.710   4.053
14809TIP3    H244373   5.262   2.771   4.038
14810TIP3   OH244374   0.267   0.968   1.750
14810TIP3    H144375   0.182   0.924   1.755
14810TIP3    H244376   0.250   1.048   1.700
14811TIP3   OH244377   6.071   4.448   6.277
14811TIP3    H144378   6.088   4.541   6.259
14811TIP3    H244379   6.143   4.421   6.335
14812TIP3   OH244380   7.914   0.312   2.487
14812TIP3    H144381   7.887   0.341   2.575
14812TIP3    H244382   7.852   0.355   2.428
14813TIP3   OH244383   5.112   6.269   6.532
14813TIP3    H144384   5.145   6.286   6.621
14813TIP3    H244385   5.127   6.351   6.485
14814TIP3   OH244386   5.610   2.195   3.494
14814TIP3    H144387   5.568   2.156   3.571
14814TIP3    H244388   5.631   2.284   3.521
14815TIP3   OH244389   7.168   2.021   1.391
14815TIP3    H144390   7.171   2.062   1.477
14815TIP3    H244391   7.074   2.012   1.372
14816TIP3   OH244392   2.674   2.587   5.011
14816TIP3    H144393   2.680   2.492   5.011
14816TIP3    H244394   2.762   2.617   5.035
14817TIP3   OH244395   7.526   7.425   3.566
14817TIP3    H144396   7.515   7.371   3.488
14817TIP3    H244397   7.598   7.383   3.614
14818TIP3   OH244398   1.242   2.021   1.887
14818TIP3    H144399   1.196   2.016   1.804
14818TIP3    H244400   1.208   2.100   1.929
14819TIP3   OH244401   4.304   2.240   3.425
14819TIP3    H144402   4.342   2.271   3.344
14819TIP3    H244403   4.287   2.147   3.410
14820TIP3   OH244404   6.000   1.938   3.035
14820TIP3    H144405   5.951   1.858   3.057
14820TIP3    H244406   6.091   1.917   3.056
14821TIP3   OH244407   7.389   4.087   3.424
14821TIP3    H144408   7.309   4.101   3.373
14821TIP3    H244409   7.360   4.041   3.503
14822TIP3   OH244410   6.633   4.630   3.308
14822TIP3    H144411   6.619   4.724   3.297
14822TIP3    H244412   6.571   4.589   3.248
14823TIP3   OH244413   4.830   3.909   5.476
14823TIP3    H144414   4.799   3.821   5.497
14823TIP3    H244415   4.923   3.908   5.499
14824TIP3   OH244416   6.451   6.214   1.509
14824TIP3    H144417   6.482   6.155   1.440
14824TIP3    H244418   6.398   6.158   1.566
14825TIP3   OH244419   3.510   2.621   3.217
14825TIP3    H144420   3.427   2.657   3.187
14825TIP3    H244421   3.503   2.527   3.199
14826TIP3   OH244422   6.232   5.841   6.270
14826TIP3    H144423   6.245   5.865   6.178
14826TIP3    H244424   6.194   5.754   6.267
14827TIP3   OH244425   0.697   0.613   4.275
14827TIP3    H144426   0.699   0.519   4.292
14827TIP3    H244427   0.753   0.624   4.198
14828TIP3   OH244428   3.259   2.674   3.024
14828TIP3    H144429   3.327   2.735   2.995
14828TIP3    H244430   3.192   2.678   2.956
14829TIP3   OH244431   3.356   1.847   5.091
14829TIP3    H144432   3.290   1.910   5.119
14829TIP3    H244433   3.309   1.765   5.080
14830TIP3   OH244434   6.592   5.597   2.325
14830TIP3    H144435   6.623   5.528   2.383
14830TIP3    H244436   6.629   5.677   2.361
14831TIP3   OH244437   0.932   3.853   4.060
14831TIP3    H144438   0.917   3.780   4.120
14831TIP3    H244439   0.979   3.918   4.112
14832TIP3   OH244440   1.814   7.647   4.418
14832TIP3    H144441   1.812   7.585   4.346
14832TIP3    H244442   1.809   7.592   4.497
14833TIP3   OH244443   7.309   6.967   0.166
14833TIP3    H144444   7.258   6.905   0.114
14833TIP3    H244445   7.397   6.928   0.169
14834TIP3   OH244446   2.487   3.951   1.352
14834TIP3    H144447   2.535   3.950   1.269
14834TIP3    H244448   2.548   3.914   1.416
14835TIP3   OH244449  -0.020   4.660   3.934
14835TIP3    H144450   0.037   4.731   3.906
14835TIP3    H244451  -0.033   4.674   4.027
14836TIP3   OH244452   2.418   1.691   5.623
14836TIP3    H144453   2.368   1.619   5.661
14836TIP3    H244454   2.509   1.670   5.644
14837TIP3   OH244455   6.858   5.378   6.747
14837TIP3    H144456   6.819   5.382   6.660
14837TIP3    H244457   6.952   5.387   6.732
14838TIP3   OH244458   1.553   5.151   0.840
14838TIP3    H144459   1.574   5.223   0.900
14838TIP3    H244460   1.539   5.076   0.897
14839TIP3   OH244461   6.556   1.105   6.203
14839TIP3    H144462   6.584   1.132   6.290
14839TIP3    H244463   6.556   1.010   6.206
   8.30187   7.82708   6.77845   0.00000   0.00000  -2.76729   0.00000  -2.76729  -3.91354
