Title t= 101.00000 step= 50500
44463
    1GLY      N    1   2.900   3.344   4.002
    1GLY    HT1    2   2.859   3.428   3.956
    1GLY    HT2    3   2.957   3.285   3.938
    1GLY    HT3    4   2.965   3.375   4.077
    1GLY     CA    5   2.794   3.271   4.063
    1GLY    HA1    6   2.744   3.217   3.984
    1GLY    HA2    7   2.733   3.344   4.113
    1GLY      C    8   2.836   3.155   4.154
    1GLY      O    9   2.955   3.150   4.187
    2PRO      N   10   2.752   3.058   4.197
    2PRO     CD   11   2.606   3.071   4.181
    2PRO    HD1   12   2.575   3.062   4.075
    2PRO    HD2   13   2.566   3.168   4.218
    2PRO     CA   14   2.792   2.940   4.268
    2PRO     HA   15   2.809   2.973   4.370
    2PRO     CB   16   2.672   2.850   4.270
    2PRO    HB1   17   2.667   2.787   4.361
    2PRO    HB2   18   2.672   2.776   4.187
    2PRO     CG   19   2.552   2.945   4.260
    2PRO    HG1   20   2.470   2.898   4.203
    2PRO    HG2   21   2.521   2.981   4.361
    2PRO      C   22   2.912   2.856   4.230
    2PRO      O   23   2.941   2.832   4.111
    3GLY      N   24   2.989   2.807   4.335
    3GLY     HN   25   2.957   2.813   4.429
    3GLY     CA   26   3.113   2.735   4.316
    3GLY    HA1   27   3.151   2.719   4.415
    3GLY    HA2   28   3.176   2.796   4.253
    3GLY      C   29   3.108   2.599   4.247
    3GLY      O   30   3.003   2.550   4.199
    4ASP      N   31   3.223   2.529   4.241
    4ASP     HN   32   3.308   2.573   4.271
    4ASP     CA   33   3.239   2.395   4.203
    4ASP     HA   34   3.212   2.394   4.099
    4ASP     CB   35   3.385   2.355   4.213
    4ASP    HB1   36   3.389   2.255   4.164
    4ASP    HB2   37   3.426   2.367   4.315
    4ASP     CG   38   3.478   2.432   4.122
    4ASP    OD1   39   3.580   2.491   4.167
    4ASP    OD2   40   3.454   2.423   3.995
    4ASP      C   41   3.157   2.286   4.281
    4ASP      O   42   3.166   2.282   4.405
    5PRO      N   43   3.088   2.197   4.212
    5PRO     CD   44   3.075   2.183   4.063
    5PRO    HD1   45   3.167   2.137   4.021
    5PRO    HD2   46   3.047   2.276   4.009
    5PRO     CA   47   3.023   2.082   4.270
    5PRO     HA   48   2.946   2.125   4.333
    5PRO     CB   49   2.978   1.993   4.160
    5PRO    HB1   50   2.893   1.933   4.201
    5PRO    HB2   51   3.050   1.924   4.112
    5PRO     CG   52   2.955   2.093   4.049
    5PRO    HG1   53   2.956   2.041   3.951
    5PRO    HG2   54   2.861   2.151   4.055
    5PRO      C   55   3.105   1.987   4.360
    5PRO      O   56   3.220   1.967   4.331
    6GLY      N   57   3.041   1.929   4.464
    6GLY     HN   58   2.942   1.926   4.467
    6GLY     CA   59   3.103   1.859   4.581
    6GLY    HA1   60   3.031   1.845   4.661
    6GLY    HA2   61   3.182   1.923   4.617
    6GLY      C   62   3.157   1.716   4.548
    6GLY      O   63   3.155   1.663   4.439
    7PRO      N   64   3.208   1.650   4.646
    7PRO     CD   65   3.233   1.711   4.780
    7PRO    HD1   66   3.145   1.702   4.848
    7PRO    HD2   67   3.263   1.817   4.770
    7PRO     CA   68   3.279   1.519   4.633
    7PRO     HA   69   3.347   1.540   4.551
    7PRO     CB   70   3.326   1.491   4.774
    7PRO    HB1   71   3.423   1.441   4.790
    7PRO    HB2   72   3.244   1.441   4.830
    7PRO     CG   73   3.348   1.629   4.833
    7PRO    HG1   74   3.359   1.631   4.944
    7PRO    HG2   75   3.444   1.664   4.788
    7PRO      C   76   3.215   1.404   4.565
    7PRO      O   77   3.096   1.374   4.582
    8GLY      N   78   3.280   1.324   4.479
    8GLY     HN   79   3.374   1.344   4.452
    8GLY     CA   80   3.216   1.218   4.408
    8GLY    HA1   81   3.157   1.152   4.470
    8GLY    HA2   82   3.305   1.167   4.372
    8GLY      C   83   3.128   1.254   4.293
    8GLY      O   84   3.105   1.372   4.269
    9ASP      N   85   3.081   1.156   4.218
    9ASP     HN   86   3.124   1.067   4.228
    9ASP     CA   87   2.990   1.165   4.104
    9ASP     HA   88   3.063   1.192   4.029
    9ASP     CB   89   2.923   1.032   4.062
    9ASP    HB1   90   2.854   1.058   3.979
    9ASP    HB2   91   2.871   0.988   4.150
    9ASP     CG   92   3.033   0.934   4.031
    9ASP    OD1   93   3.143   0.967   3.982
    9ASP    OD2   94   3.012   0.809   4.030
    9ASP      C   95   2.891   1.288   4.102
    9ASP      O   96   2.821   1.305   4.203
   10PRO      N   97   2.871   1.367   3.987
   10PRO     CD   98   2.927   1.340   3.857
   10PRO    HD1   99   2.898   1.240   3.819
   10PRO    HD2  100   3.036   1.355   3.869
   10PRO     CA  101   2.793   1.489   3.983
   10PRO     HA  102   2.818   1.546   4.071
   10PRO     CB  103   2.834   1.557   3.858
   10PRO    HB1  104   2.931   1.604   3.885
   10PRO    HB2  105   2.774   1.644   3.823
   10PRO     CG  106   2.867   1.440   3.760
   10PRO    HG1  107   2.771   1.400   3.720
   10PRO    HG2  108   2.933   1.455   3.672
   10PRO      C  109   2.641   1.469   3.978
   10PRO      O  110   2.573   1.571   3.963
   11GLY      N  111   2.582   1.346   3.993
   11GLY     HN  112   2.644   1.276   4.027
   11GLY     CA  113   2.440   1.315   3.984
   11GLY    HA1  114   2.423   1.210   3.971
   11GLY    HA2  115   2.400   1.374   3.903
   11GLY      C  116   2.362   1.354   4.105
   11GLY      O  117   2.414   1.427   4.186
   12PRO      N  118   2.241   1.309   4.122
   12PRO     CD  119   2.170   1.224   4.028
   12PRO    HD1  120   2.204   1.120   4.048
   12PRO    HD2  121   2.194   1.267   3.928
   12PRO     CA  122   2.165   1.330   4.248
   12PRO     HA  123   2.146   1.437   4.254
   12PRO     CB  124   2.032   1.245   4.219
   12PRO    HB1  125   1.942   1.290   4.265
   12PRO    HB2  126   2.044   1.144   4.263
   12PRO     CG  127   2.024   1.237   4.070
   12PRO    HG1  128   1.972   1.152   4.021
   12PRO    HG2  129   1.969   1.325   4.030
   12PRO      C  130   2.223   1.297   4.391
   12PRO      O  131   2.264   1.184   4.405
   13GLY      N  132   2.228   1.394   4.480
   13GLY     HN  133   2.197   1.486   4.454
   13GLY     CA  134   2.277   1.378   4.617
   13GLY    HA1  135   2.285   1.476   4.662
   13GLY    HA2  136   2.371   1.326   4.622
   13GLY      C  137   2.180   1.290   4.697
   13GLY      O  138   2.078   1.242   4.652
   14ASP      N  139   2.208   1.272   4.822
   14ASP     HN  140   2.269   1.339   4.865
   14ASP     CA  141   2.140   1.173   4.906
   14ASP     HA  142   2.074   1.105   4.854
   14ASP     CB  143   2.251   1.093   4.981
   14ASP    HB1  144   2.205   1.021   5.053
   14ASP    HB2  145   2.307   1.163   5.046
   14ASP     CG  146   2.344   1.013   4.894
   14ASP    OD1  147   2.469   1.021   4.923
   14ASP    OD2  148   2.312   0.928   4.812
   14ASP      C  149   2.057   1.248   5.005
   14ASP      O  150   2.089   1.368   5.030
   15PRO      N  151   1.955   1.184   5.071
   15PRO     CD  152   1.902   1.047   5.043
   15PRO    HD1  153   1.973   0.965   5.070
   15PRO    HD2  154   1.871   1.044   4.937
   15PRO     CA  155   1.857   1.273   5.133
   15PRO     HA  156   1.849   1.375   5.098
   15PRO     CB  157   1.724   1.201   5.111
   15PRO    HB1  158   1.692   1.224   5.007
   15PRO    HB2  159   1.648   1.215   5.190
   15PRO     CG  160   1.767   1.049   5.118
   15PRO    HG1  161   1.790   1.016   5.221
   15PRO    HG2  162   1.703   0.972   5.071
   15PRO      C  163   1.900   1.284   5.283
   15PRO    OT1  164   1.971   1.191   5.327
   15PRO    OT2  165   1.863   1.380   5.350
   16LIT    LIT  166   1.854   1.244   5.495
   17LIT    LIT  167   1.195   2.526   6.312
   18LIT    LIT  168   3.706   7.538   2.874
   19LIT    LIT  169   5.653   4.528   1.303
   20LIT    LIT  170   1.707   5.390   2.443
   21LIT    LIT  171   7.613   2.850   2.992
   22LIT    LIT  172   7.881   2.401   4.953
   23LIT    LIT  173   1.726   1.901   2.864
   24LIT    LIT  174   1.511   0.498   4.233
   25LIT    LIT  175   1.497   7.629   4.897
   26LIT    LIT  176   6.609   2.728   2.908
   27LIT    LIT  177   6.345   0.251   0.480
   28LIT    LIT  178   6.000   0.903   6.002
   29LIT    LIT  179   1.980   4.866   1.033
   30LIT    LIT  180   4.333   2.304   0.042
   31LIT    LIT  181   6.804   6.318   6.318
   32LIT    LIT  182   2.031   0.166   6.444
   33LIT    LIT  183   7.774   2.370   0.965
   34LIT    LIT  184   5.077   7.291   3.023
   35LIT    LIT  185   0.914   3.468   1.051
   36LIT    LIT  186   3.177   0.755   3.977
   37LIT    LIT  187   0.950   4.857   1.154
   38LIT    LIT  188   4.596   7.110   4.047
   39LIT    LIT  189   3.055   0.393   2.339
   40LIT    LIT  190   5.368   7.009   0.157
   41LIT    LIT  191   1.986   6.448   2.999
   42LIT    LIT  192   8.062   4.574   5.357
   43LIT    LIT  193   6.777   2.803   0.521
   44LIT    LIT  194   6.716   2.650   5.277
   45LIT    LIT  195   7.319   5.528   3.634
   46LIT    LIT  196   6.703   5.346   2.137
   47LIT    LIT  197   1.500   5.148   3.098
   48LIT    LIT  198   6.569   4.567   4.937
   49LIT    LIT  199   3.214   6.112   1.105
   50LIT    LIT  200   0.262   0.099   4.189
   51LIT    LIT  201   2.529   0.256   3.576
   52LIT    LIT  202   6.430   5.201   0.908
   53LIT    LIT  203   0.080   2.386   2.986
   54LIT    LIT  204   1.179   2.514   1.465
   55LIT    LIT  205   0.949   1.010   2.658
   56LIT    LIT  206   5.196   6.538   1.384
   57LIT    LIT  207   5.441   4.338   3.466
   58LIT    LIT  208   2.494   0.912   4.759
   59LIT    LIT  209   1.567   5.652   4.597
   60LIT    LIT  210   4.142   4.370   5.322
   61CLA    CLA  211   0.328   6.073   3.686
   62CLA    CLA  212   1.292   5.039   4.567
   63CLA    CLA  213   1.864   0.686   1.559
   64CLA    CLA  214   4.817   3.104   0.223
   65CLA    CLA  215   5.130   6.674   3.187
   66CLA    CLA  216   0.128   0.299   3.300
   67CLA    CLA  217   1.498   0.910   5.457
   68CLA    CLA  218   3.503   7.029   4.526
   69CLA    CLA  219   2.045   2.474   5.593
   70CLA    CLA  220   5.071   6.421   6.202
   71CLA    CLA  221   0.133   4.836   5.392
   72CLA    CLA  222   3.028   5.864   1.554
   73CLA    CLA  223   1.524   7.561   5.929
   74CLA    CLA  224   7.358   7.531   2.315
   75CLA    CLA  225   7.706   2.400   4.512
   76CLA    CLA  226   4.820   0.002   0.247
   77CLA    CLA  227   2.830   4.518   4.147
   78CLA    CLA  228   4.647   4.924   0.258
   79CLA    CLA  229   8.139   5.416   0.337
   80CLA    CLA  230   7.928   3.972   2.251
   81CLA    CLA  231   5.592   6.530   5.278
   82CLA    CLA  232   0.857   1.137   6.439
   83CLA    CLA  233   1.967   4.087   0.878
   84CLA    CLA  234   0.861   7.266   0.835
   85CLA    CLA  235   6.521   0.027   6.425
   86CLA    CLA  236   7.591   4.462   5.194
   87CLA    CLA  237   3.682   6.614   2.793
   88CLA    CLA  238   5.870   5.074   1.587
   89CLA    CLA  239   6.871   5.253   4.590
   90CLA    CLA  240   2.936   0.314   6.544
   91CLA    CLA  241   3.059   3.185   3.798
   92CLA    CLA  242   8.239   7.563   4.044
   93CLA    CLA  243   4.931   1.820   4.551
   94CLA    CLA  244   4.580   6.736   0.471
   95CLA    CLA  245   3.494   5.525   4.847
   96CLA    CLA  246   1.289   0.913   2.352
   97CLA    CLA  247   6.423   1.523   4.232
   98CLA    CLA  248   0.923   5.296   3.219
   99CLA    CLA  249   7.808   2.304   1.179
  100CLA    CLA  250   0.462   4.040   4.122
  101CLA    CLA  251   7.763   2.850   2.815
  102CLA    CLA  252   0.140   2.437   4.089
  103TIP3   OH2  253   1.938   4.373   2.982
  103TIP3    H1  254   1.942   4.422   3.065
  103TIP3    H2  255   1.935   4.441   2.914
  104TIP3   OH2  256   2.481   2.550   0.100
  104TIP3    H1  257   2.561   2.567   0.049
  104TIP3    H2  258   2.509   2.487   0.166
  105TIP3   OH2  259   7.265   3.918   2.931
  105TIP3    H1  260   7.204   3.846   2.914
  105TIP3    H2  261   7.211   3.987   2.968
  106TIP3   OH2  262   5.908   4.709   1.935
  106TIP3    H1  263   5.971   4.757   1.989
  106TIP3    H2  264   5.895   4.764   1.858
  107TIP3   OH2  265   2.749   5.089   4.210
  107TIP3    H1  266   2.782   5.002   4.187
  107TIP3    H2  267   2.655   5.077   4.223
  108TIP3   OH2  268   0.377   3.403   1.609
  108TIP3    H1  269   0.329   3.352   1.674
  108TIP3    H2  270   0.320   3.477   1.590
  109TIP3   OH2  271   1.671   4.290   2.322
  109TIP3    H1  272   1.659   4.317   2.231
  109TIP3    H2  273   1.678   4.194   2.317
  110TIP3   OH2  274   5.080   4.215   3.097
  110TIP3    H1  275   4.995   4.254   3.118
  110TIP3    H2  276   5.064   4.166   3.016
  111TIP3   OH2  277   2.200   5.993   5.300
  111TIP3    H1  278   2.229   5.910   5.263
  111TIP3    H2  279   2.180   6.048   5.225
  112TIP3   OH2  280   1.173   4.584   3.478
  112TIP3    H1  281   1.113   4.515   3.450
  112TIP3    H2  282   1.133   4.665   3.445
  113TIP3   OH2  283   8.180   1.988   4.244
  113TIP3    H1  284   8.129   2.070   4.246
  113TIP3    H2  285   8.271   2.016   4.245
  114TIP3   OH2  286   0.626   1.075   1.942
  114TIP3    H1  287   0.595   1.087   2.031
  114TIP3    H2  288   0.709   1.027   1.952
  115TIP3   OH2  289   5.442   4.977   2.057
  115TIP3    H1  290   5.451   5.066   2.090
  115TIP3    H2  291   5.488   4.977   1.973
  116TIP3   OH2  292   1.268   2.253   6.584
  116TIP3    H1  293   1.326   2.272   6.657
  116TIP3    H2  294   1.301   2.171   6.548
  117TIP3   OH2  295   4.828   4.983   5.369
  117TIP3    H1  296   4.776   4.904   5.356
  117TIP3    H2  297   4.908   4.952   5.412
  118TIP3   OH2  298   0.004   2.369   6.366
  118TIP3    H1  299   0.026   2.315   6.291
  118TIP3    H2  300   0.021   2.459   6.337
  119TIP3   OH2  301   7.250   4.189   1.680
  119TIP3    H1  302   7.215   4.200   1.592
  119TIP3    H2  303   7.322   4.127   1.670
  120TIP3   OH2  304   4.425   4.188   1.579
  120TIP3    H1  305   4.367   4.264   1.575
  120TIP3    H2  306   4.513   4.225   1.578
  121TIP3   OH2  307   1.923   2.883   5.995
  121TIP3    H1  308   1.895   2.813   5.937
  121TIP3    H2  309   1.941   2.840   6.079
  122TIP3   OH2  310   4.681   5.278   5.779
  122TIP3    H1  311   4.648   5.361   5.744
  122TIP3    H2  312   4.634   5.211   5.729
  123TIP3   OH2  313   5.622   5.612   1.588
  123TIP3    H1  314   5.689   5.648   1.645
  123TIP3    H2  315   5.582   5.541   1.639
  124TIP3   OH2  316   2.360   0.077   4.592
  124TIP3    H1  317   2.327  -0.011   4.606
  124TIP3    H2  318   2.365   0.086   4.497
  125TIP3   OH2  319   0.973   4.732   2.633
  125TIP3    H1  320   0.925   4.815   2.630
  125TIP3    H2  321   0.924   4.679   2.696
  126TIP3   OH2  322   1.165   1.304   0.996
  126TIP3    H1  323   1.124   1.286   0.911
  126TIP3    H2  324   1.146   1.227   1.049
  127TIP3   OH2  325   1.505   2.779   6.409
  127TIP3    H1  326   1.479   2.762   6.318
  127TIP3    H2  327   1.492   2.873   6.420
  128TIP3   OH2  328   6.602   6.546   5.211
  128TIP3    H1  329   6.606   6.556   5.116
  128TIP3    H2  330   6.667   6.608   5.244
  129TIP3   OH2  331   0.177   6.022   2.537
  129TIP3    H1  332   0.193   5.941   2.586
  129TIP3    H2  333   0.116   6.072   2.591
  130TIP3   OH2  334   1.297   1.002   1.600
  130TIP3    H1  335   1.356   0.989   1.675
  130TIP3    H2  336   1.243   1.077   1.625
  131TIP3   OH2  337   3.776   0.547   0.698
  131TIP3    H1  338   3.690   0.527   0.663
  131TIP3    H2  339   3.817   0.602   0.632
  132TIP3   OH2  340   3.292   5.033   5.699
  132TIP3    H1  341   3.245   4.971   5.642
  132TIP3    H2  342   3.368   5.058   5.648
  133TIP3   OH2  343   0.011   6.615   4.882
  133TIP3    H1  344   0.107   6.621   4.880
  133TIP3    H2  345  -0.007   6.523   4.864
  134TIP3   OH2  346   4.773   1.362   5.267
  134TIP3    H1  347   4.690   1.334   5.228
  134TIP3    H2  348   4.761   1.455   5.285
  135TIP3   OH2  349   7.473   7.236   5.282
  135TIP3    H1  350   7.519   7.162   5.243
  135TIP3    H2  351   7.395   7.198   5.322
  136TIP3   OH2  352   1.683   3.078   1.612
  136TIP3    H1  353   1.699   3.007   1.551
  136TIP3    H2  354   1.598   3.058   1.651
  137TIP3   OH2  355   2.065   4.396   1.910
  137TIP3    H1  356   2.040   4.404   1.818
  137TIP3    H2  357   2.130   4.325   1.911
  138TIP3   OH2  358   2.073   5.881   5.879
  138TIP3    H1  359   2.094   5.821   5.951
  138TIP3    H2  360   2.001   5.934   5.914
  139TIP3   OH2  361   5.381   2.458   4.617
  139TIP3    H1  362   5.353   2.421   4.534
  139TIP3    H2  363   5.391   2.382   4.675
  140TIP3   OH2  364   3.585   0.155   0.078
  140TIP3    H1  365   3.593   0.097   0.002
  140TIP3    H2  366   3.567   0.096   0.151
  141TIP3   OH2  367   3.831   1.665   2.031
  141TIP3    H1  368   3.869   1.749   2.058
  141TIP3    H2  369   3.848   1.660   1.937
  142TIP3   OH2  370   6.354   5.234   4.282
  142TIP3    H1  371   6.414   5.181   4.336
  142TIP3    H2  372   6.362   5.322   4.318
  143TIP3   OH2  373   5.552   4.064   5.342
  143TIP3    H1  374   5.610   4.011   5.397
  143TIP3    H2  375   5.472   4.073   5.394
  144TIP3   OH2  376   0.723   7.457   3.546
  144TIP3    H1  377   0.805   7.451   3.595
  144TIP3    H2  378   0.743   7.517   3.474
  145TIP3   OH2  379   4.925   4.912   3.868
  145TIP3    H1  380   4.977   4.917   3.787
  145TIP3    H2  381   4.896   4.821   3.871
  146TIP3   OH2  382   6.425   4.237   1.995
  146TIP3    H1  383   6.410   4.173   1.925
  146TIP3    H2  384   6.459   4.314   1.951
  147TIP3   OH2  385   1.018   2.909   3.760
  147TIP3    H1  386   0.932   2.943   3.738
  147TIP3    H2  387   1.022   2.916   3.856
  148TIP3   OH2  388   6.077   1.515   2.417
  148TIP3    H1  389   6.169   1.506   2.392
  148TIP3    H2  390   6.032   1.532   2.334
  149TIP3   OH2  391   0.597   5.914   1.376
  149TIP3    H1  392   0.504   5.932   1.388
  149TIP3    H2  393   0.642   5.980   1.427
  150TIP3   OH2  394   4.633   5.384   1.113
  150TIP3    H1  395   4.547   5.411   1.145
  150TIP3    H2  396   4.616   5.349   1.025
  151TIP3   OH2  397  -0.027   5.267   4.627
  151TIP3    H1  398   0.035   5.317   4.680
  151TIP3    H2  399   0.026   5.197   4.588
  152TIP3   OH2  400   4.158   0.054   6.265
  152TIP3    H1  401   4.222   0.050   6.194
  152TIP3    H2  402   4.073   0.042   6.222
  153TIP3   OH2  403   5.633   6.121   3.183
  153TIP3    H1  404   5.685   6.198   3.162
  153TIP3    H2  405   5.565   6.154   3.242
  154TIP3   OH2  406   4.423   6.960   4.003
  154TIP3    H1  407   4.348   6.916   4.043
  154TIP3    H2  408   4.432   6.920   3.916
  155TIP3   OH2  409   6.530   6.886   0.897
  155TIP3    H1  410   6.441   6.912   0.873
  155TIP3    H2  411   6.529   6.885   0.993
  156TIP3   OH2  412   1.869   3.452   2.957
  156TIP3    H1  413   1.894   3.386   3.022
  156TIP3    H2  414   1.780   3.478   2.981
  157TIP3   OH2  415   3.289   1.216   2.425
  157TIP3    H1  416   3.375   1.255   2.437
  157TIP3    H2  417   3.306   1.122   2.418
  158TIP3   OH2  418   3.510   1.337   0.730
  158TIP3    H1  419   3.453   1.390   0.785
  158TIP3    H2  420   3.540   1.266   0.788
  159TIP3   OH2  421   0.172   4.426   5.843
  159TIP3    H1  422   0.196   4.358   5.906
  159TIP3    H2  423   0.086   4.399   5.811
  160TIP3   OH2  424   1.643   3.583   3.039
  160TIP3    H1  425   1.595   3.501   3.025
  160TIP3    H2  426   1.578   3.641   3.079
  161TIP3   OH2  427   0.429   0.103   6.473
  161TIP3    H1  428   0.358   0.131   6.531
  161TIP3    H2  429   0.471   0.185   6.446
  162TIP3   OH2  430   4.557   0.204   5.487
  162TIP3    H1  431   4.522   0.195   5.576
  162TIP3    H2  432   4.535   0.121   5.444
  163TIP3   OH2  433   7.180   1.275   2.202
  163TIP3    H1  434   7.215   1.344   2.259
  163TIP3    H2  435   7.093   1.257   2.236
  164TIP3   OH2  436   4.102   1.435   6.599
  164TIP3    H1  437   4.022   1.486   6.585
  164TIP3    H2  438   4.083   1.380   6.674
  165TIP3   OH2  439   4.676   1.861   5.671
  165TIP3    H1  440   4.609   1.922   5.641
  165TIP3    H2  441   4.632   1.776   5.676
  166TIP3   OH2  442   6.291   5.485   1.279
  166TIP3    H1  443   6.218   5.489   1.218
  166TIP3    H2  444   6.360   5.536   1.238
  167TIP3   OH2  445   6.539   3.439   5.030
  167TIP3    H1  446   6.524   3.370   5.094
  167TIP3    H2  447   6.483   3.416   4.956
  168TIP3   OH2  448   8.318   2.563   2.502
  168TIP3    H1  449   8.259   2.598   2.569
  168TIP3    H2  450   8.260   2.513   2.444
  169TIP3   OH2  451   6.433   5.157   3.121
  169TIP3    H1  452   6.356   5.103   3.102
  169TIP3    H2  453   6.503   5.093   3.137
  170TIP3   OH2  454   1.252   4.586   5.483
  170TIP3    H1  455   1.263   4.532   5.405
  170TIP3    H2  456   1.266   4.676   5.452
  171TIP3   OH2  457   3.612   4.230   6.106
  171TIP3    H1  458   3.669   4.246   6.030
  171TIP3    H2  459   3.527   4.267   6.080
  172TIP3   OH2  460   5.064   3.291   2.328
  172TIP3    H1  461   5.075   3.221   2.265
  172TIP3    H2  462   5.049   3.247   2.412
  173TIP3   OH2  463   4.981   5.517   4.525
  173TIP3    H1  464   5.039   5.591   4.506
  173TIP3    H2  465   4.896   5.544   4.490
  174TIP3   OH2  466   8.129   5.164   3.597
  174TIP3    H1  467   8.075   5.234   3.558
  174TIP3    H2  468   8.073   5.087   3.594
  175TIP3   OH2  469   5.892   0.878   4.873
  175TIP3    H1  470   5.952   0.906   4.804
  175TIP3    H2  471   5.949   0.857   4.947
  176TIP3   OH2  472   4.352   6.260   3.411
  176TIP3    H1  473   4.327   6.335   3.356
  176TIP3    H2  474   4.436   6.232   3.376
  177TIP3   OH2  475   8.274   6.770   3.557
  177TIP3    H1  476   8.222   6.792   3.634
  177TIP3    H2  477   8.355   6.732   3.592
  178TIP3   OH2  478   8.129   0.622   4.958
  178TIP3    H1  479   8.197   0.661   5.014
  178TIP3    H2  480   8.173   0.609   4.874
  179TIP3   OH2  481   0.599   7.721   3.086
  179TIP3    H1  482   0.572   7.661   3.156
  179TIP3    H2  483   0.517   7.746   3.044
  180TIP3   OH2  484   5.071   6.602   3.655
  180TIP3    H1  485   5.091   6.690   3.622
  180TIP3    H2  486   5.151   6.574   3.700
  181TIP3   OH2  487   8.023   4.810   2.183
  181TIP3    H1  488   8.068   4.750   2.242
  181TIP3    H2  489   8.041   4.897   2.218
  182TIP3   OH2  490   5.892   2.589   6.778
  182TIP3    H1  491   5.852   2.660   6.828
  182TIP3    H2  492   5.984   2.616   6.768
  183TIP3   OH2  493   1.298   5.044   6.538
  183TIP3    H1  494   1.349   5.125   6.551
  183TIP3    H2  495   1.247   5.035   6.619
  184TIP3   OH2  496   1.995   0.165   3.083
  184TIP3    H1  497   1.984   0.114   3.163
  184TIP3    H2  498   1.936   0.125   3.020
  185TIP3   OH2  499   3.427   4.760   1.568
  185TIP3    H1  500   3.484   4.768   1.492
  185TIP3    H2  501   3.440   4.841   1.616
  186TIP3   OH2  502   7.767   1.370   4.247
  186TIP3    H1  503   7.847   1.337   4.206
  186TIP3    H2  504   7.793   1.391   4.337
  187TIP3   OH2  505   4.119   7.320   3.754
  187TIP3    H1  506   4.184   7.250   3.743
  187TIP3    H2  507   4.152   7.372   3.828
  188TIP3   OH2  508   5.729   1.251   6.481
  188TIP3    H1  509   5.810   1.251   6.531
  188TIP3    H2  510   5.755   1.281   6.393
  189TIP3   OH2  511   2.455   3.504   2.124
  189TIP3    H1  512   2.430   3.594   2.106
  189TIP3    H2  513   2.382   3.467   2.174
  190TIP3   OH2  514   3.258   7.203   0.269
  190TIP3    H1  515   3.194   7.155   0.217
  190TIP3    H2  516   3.328   7.139   0.285
  191TIP3   OH2  517   4.781   0.112   6.605
  191TIP3    H1  518   4.831   0.087   6.683
  191TIP3    H2  519   4.844   0.107   6.534
  192TIP3   OH2  520   5.084   5.278   6.729
  192TIP3    H1  521   5.149   5.213   6.702
  192TIP3    H2  522   5.122   5.320   6.806
  193TIP3   OH2  523   6.548   7.202   1.741
  193TIP3    H1  524   6.578   7.265   1.807
  193TIP3    H2  525   6.452   7.205   1.747
  194TIP3   OH2  526   6.057   5.369   4.323
  194TIP3    H1  527   6.050   5.457   4.284
  194TIP3    H2  528   6.151   5.358   4.337
  195TIP3   OH2  529   6.192   6.700   0.208
  195TIP3    H1  530   6.282   6.710   0.176
  195TIP3    H2  531   6.180   6.606   0.217
  196TIP3   OH2  532   2.868   1.640   1.203
  196TIP3    H1  533   2.847   1.701   1.274
  196TIP3    H2  534   2.946   1.593   1.234
  197TIP3   OH2  535   5.924   5.892   0.156
  197TIP3    H1  536   5.983   5.851   0.219
  197TIP3    H2  537   5.861   5.939   0.209
  198TIP3   OH2  538   5.322   6.412   1.723
  198TIP3    H1  539   5.301   6.358   1.647
  198TIP3    H2  540   5.404   6.376   1.756
  199TIP3   OH2  541   4.526   7.049   6.738
  199TIP3    H1  542   4.480   6.967   6.724
  199TIP3    H2  543   4.459   7.117   6.731
  200TIP3   OH2  544   3.408   6.388   4.507
  200TIP3    H1  545   3.384   6.439   4.585
  200TIP3    H2  546   3.471   6.444   4.461
  201TIP3   OH2  547   0.204   5.695   4.610
  201TIP3    H1  548   0.245   5.626   4.662
  201TIP3    H2  549   0.123   5.656   4.578
  202TIP3   OH2  550   7.042   6.424   5.693
  202TIP3    H1  551   7.047   6.329   5.701
  202TIP3    H2  552   7.125   6.456   5.728
  203TIP3   OH2  553   0.806   5.923   2.352
  203TIP3    H1  554   0.723   5.917   2.399
  203TIP3    H2  555   0.846   5.836   2.362
  204TIP3   OH2  556   3.393   5.419   5.123
  204TIP3    H1  557   3.401   5.449   5.032
  204TIP3    H2  558   3.435   5.333   5.124
  205TIP3   OH2  559   0.745   6.061   2.696
  205TIP3    H1  560   0.761   6.153   2.677
  205TIP3    H2  561   0.817   6.034   2.753
  206TIP3   OH2  562   4.006   4.752   6.564
  206TIP3    H1  563   3.938   4.734   6.629
  206TIP3    H2  564   3.968   4.817   6.506
  207TIP3   OH2  565   4.523   6.748   5.826
  207TIP3    H1  566   4.610   6.787   5.819
  207TIP3    H2  567   4.518   6.687   5.752
  208TIP3   OH2  568   6.834   2.358   3.956
  208TIP3    H1  569   6.738   2.355   3.964
  208TIP3    H2  570   6.854   2.295   3.887
  209TIP3   OH2  571   2.000   3.697   3.458
  209TIP3    H1  572   1.986   3.684   3.552
  209TIP3    H2  573   1.912   3.703   3.421
  210TIP3   OH2  574   0.999   4.834   5.221
  210TIP3    H1  575   0.918   4.863   5.265
  210TIP3    H2  576   1.042   4.915   5.194
  211TIP3   OH2  577   6.359   4.351   1.245
  211TIP3    H1  578   6.328   4.438   1.268
  211TIP3    H2  579   6.392   4.315   1.327
  212TIP3   OH2  580   0.677   7.328   1.153
  212TIP3    H1  581   0.746   7.284   1.103
  212TIP3    H2  582   0.650   7.401   1.097
  213TIP3   OH2  583   4.826   6.834   3.278
  213TIP3    H1  584   4.761   6.802   3.342
  213TIP3    H2  585   4.909   6.797   3.309
  214TIP3   OH2  586   7.724   2.432   6.424
  214TIP3    H1  587   7.730   2.493   6.351
  214TIP3    H2  588   7.759   2.481   6.499
  215TIP3   OH2  589   0.187   6.220   1.048
  215TIP3    H1  590   0.276   6.255   1.040
  215TIP3    H2  591   0.132   6.284   1.004
  216TIP3   OH2  592   1.327   2.278   3.068
  216TIP3    H1  593   1.334   2.212   3.000
  216TIP3    H2  594   1.233   2.297   3.074
  217TIP3   OH2  595   0.755   6.623   3.662
  217TIP3    H1  596   0.729   6.597   3.750
  217TIP3    H2  597   0.674   6.619   3.610
  218TIP3   OH2  598   0.193   1.611   3.066
  218TIP3    H1  599   0.151   1.647   2.988
  218TIP3    H2  600   0.161   1.666   3.137
  219TIP3   OH2  601   4.448   3.225   3.553
  219TIP3    H1  602   4.427   3.309   3.513
  219TIP3    H2  603   4.522   3.243   3.610
  220TIP3   OH2  604   2.942   4.149   2.446
  220TIP3    H1  605   2.891   4.216   2.402
  220TIP3    H2  606   2.996   4.110   2.377
  221TIP3   OH2  607   8.194   3.077   2.043
  221TIP3    H1  608   8.153   3.089   2.129
  221TIP3    H2  609   8.125   3.101   1.981
  222TIP3   OH2  610   5.627   7.685   5.340
  222TIP3    H1  611   5.722   7.689   5.328
  222TIP3    H2  612   5.598   7.776   5.332
  223TIP3   OH2  613   5.861   7.708   3.136
  223TIP3    H1  614   5.796   7.726   3.204
  223TIP3    H2  615   5.831   7.627   3.095
  224TIP3   OH2  616   1.838   4.214   4.690
  224TIP3    H1  617   1.754   4.258   4.706
  224TIP3    H2  618   1.881   4.212   4.776
  225TIP3   OH2  619   5.291   1.537   5.134
  225TIP3    H1  620   5.293   1.445   5.162
  225TIP3    H2  621   5.217   1.575   5.181
  226TIP3   OH2  622   1.494   7.305   5.163
  226TIP3    H1  623   1.451   7.369   5.220
  226TIP3    H2  624   1.587   7.322   5.175
  227TIP3   OH2  625   2.695   2.718   1.045
  227TIP3    H1  626   2.726   2.732   1.134
  227TIP3    H2  627   2.749   2.776   0.991
  228TIP3   OH2  628   0.470   5.876   2.606
  228TIP3    H1  629   0.502   5.788   2.586
  228TIP3    H2  630   0.548   5.931   2.606
  229TIP3   OH2  631   0.340   1.349   3.047
  229TIP3    H1  632   0.296   1.283   3.100
  229TIP3    H2  633   0.295   1.431   3.069
  230TIP3   OH2  634   7.506   1.718   2.563
  230TIP3    H1  635   7.512   1.755   2.651
  230TIP3    H2  636   7.512   1.793   2.504
  231TIP3   OH2  637   4.220   3.625   5.789
  231TIP3    H1  638   4.148   3.564   5.805
  231TIP3    H2  639   4.186   3.710   5.817
  232TIP3   OH2  640   1.443   3.844   3.260
  232TIP3    H1  641   1.417   3.808   3.345
  232TIP3    H2  642   1.535   3.869   3.272
  233TIP3   OH2  643   7.003   5.981   0.180
  233TIP3    H1  644   7.074   6.027   0.225
  233TIP3    H2  645   6.999   6.022   0.094
  234TIP3   OH2  646   1.091   3.277   5.091
  234TIP3    H1  647   1.139   3.223   5.029
  234TIP3    H2  648   1.034   3.331   5.036
  235TIP3   OH2  649   3.322   2.292   1.470
  235TIP3    H1  650   3.276   2.234   1.530
  235TIP3    H2  651   3.256   2.315   1.404
  236TIP3   OH2  652   5.974   3.226   2.342
  236TIP3    H1  653   5.977   3.315   2.308
  236TIP3    H2  654   5.892   3.222   2.392
  237TIP3   OH2  655   7.731   5.314   4.632
  237TIP3    H1  656   7.680   5.235   4.646
  237TIP3    H2  657   7.817   5.295   4.669
  238TIP3   OH2  658   0.978   3.315   3.833
  238TIP3    H1  659   1.056   3.287   3.785
  238TIP3    H2  660   0.960   3.242   3.893
  239TIP3   OH2  661   5.670   6.244   2.497
  239TIP3    H1  662   5.616   6.300   2.441
  239TIP3    H2  663   5.627   6.158   2.493
  240TIP3   OH2  664   6.917   3.890   5.488
  240TIP3    H1  665   6.988   3.879   5.551
  240TIP3    H2  666   6.866   3.810   5.495
  241TIP3   OH2  667   8.313   6.763   0.805
  241TIP3    H1  668   8.363   6.772   0.886
  241TIP3    H2  669   8.254   6.689   0.821
  242TIP3   OH2  670   4.935   7.459   4.974
  242TIP3    H1  671   4.947   7.374   4.933
  242TIP3    H2  672   4.843   7.461   4.999
  243TIP3   OH2  673   2.932   7.102   1.684
  243TIP3    H1  674   2.880   7.039   1.735
  243TIP3    H2  675   3.015   7.057   1.668
  244TIP3   OH2  676   8.067   1.281   1.338
  244TIP3    H1  677   8.150   1.288   1.386
  244TIP3    H2  678   8.062   1.189   1.313
  245TIP3   OH2  679   1.255   2.400   5.664
  245TIP3    H1  680   1.346   2.389   5.692
  245TIP3    H2  681   1.210   2.323   5.699
  246TIP3   OH2  682   2.950   7.575   0.254
  246TIP3    H1  683   2.896   7.496   0.253
  246TIP3    H2  684   3.010   7.561   0.328
  247TIP3   OH2  685   7.980   1.735   1.162
  247TIP3    H1  686   7.958   1.823   1.131
  247TIP3    H2  687   8.025   1.749   1.246
  248TIP3   OH2  688   3.241   2.582   2.640
  248TIP3    H1  689   3.273   2.493   2.621
  248TIP3    H2  690   3.312   2.639   2.613
  249TIP3   OH2  691   0.705   2.184   4.856
  249TIP3    H1  692   0.742   2.241   4.923
  249TIP3    H2  693   0.621   2.156   4.892
  250TIP3   OH2  694   4.510   2.728   6.289
  250TIP3    H1  695   4.493   2.735   6.196
  250TIP3    H2  696   4.529   2.635   6.303
  251TIP3   OH2  697   6.376   6.326   0.259
  251TIP3    H1  698   6.368   6.336   0.354
  251TIP3    H2  699   6.438   6.254   0.248
  252TIP3   OH2  700   7.498   4.673   2.946
  252TIP3    H1  701   7.432   4.624   2.896
  252TIP3    H2  702   7.496   4.761   2.908
  253TIP3   OH2  703   2.281   1.611   1.289
  253TIP3    H1  704   2.202   1.632   1.238
  253TIP3    H2  705   2.251   1.549   1.355
  254TIP3   OH2  706   4.092   5.958   5.771
  254TIP3    H1  707   4.011   5.936   5.817
  254TIP3    H2  708   4.151   5.988   5.841
  255TIP3   OH2  709   5.646   1.790   2.690
  255TIP3    H1  710   5.633   1.852   2.761
  255TIP3    H2  711   5.680   1.712   2.733
  256TIP3   OH2  712   6.687   4.876   1.620
  256TIP3    H1  713   6.650   4.809   1.677
  256TIP3    H2  714   6.779   4.850   1.609
  257TIP3   OH2  715   0.978   1.420   2.847
  257TIP3    H1  716   0.970   1.492   2.910
  257TIP3    H2  717   1.071   1.400   2.845
  258TIP3   OH2  718   6.840   7.379   6.235
  258TIP3    H1  719   6.836   7.342   6.323
  258TIP3    H2  720   6.850   7.473   6.249
  259TIP3   OH2  721   4.599   7.032   6.169
  259TIP3    H1  722   4.668   7.018   6.234
  259TIP3    H2  723   4.617   7.118   6.132
  260TIP3   OH2  724   3.996   2.437   5.614
  260TIP3    H1  725   3.986   2.526   5.648
  260TIP3    H2  726   3.976   2.380   5.688
  261TIP3   OH2  727   5.810   1.441   5.531
  261TIP3    H1  728   5.894   1.399   5.551
  261TIP3    H2  729   5.777   1.394   5.454
  262TIP3   OH2  730   2.601   4.169   1.286
  262TIP3    H1  731   2.544   4.101   1.251
  262TIP3    H2  732   2.619   4.227   1.212
  263TIP3   OH2  733   3.706   1.330   2.118
  263TIP3    H1  734   3.681   1.337   2.026
  263TIP3    H2  735   3.792   1.372   2.124
  264TIP3   OH2  736   4.850   1.113   5.758
  264TIP3    H1  737   4.785   1.061   5.712
  264TIP3    H2  738   4.896   1.161   5.690
  265TIP3   OH2  739   1.136   6.357   6.224
  265TIP3    H1  740   1.123   6.295   6.152
  265TIP3    H2  741   1.220   6.331   6.262
  266TIP3   OH2  742   5.667   4.914   2.228
  266TIP3    H1  743   5.609   4.911   2.152
  266TIP3    H2  744   5.682   4.822   2.250
  267TIP3   OH2  745   0.578   1.098   3.332
  267TIP3    H1  746   0.616   1.150   3.403
  267TIP3    H2  747   0.632   1.020   3.328
  268TIP3   OH2  748   6.465   3.534   4.222
  268TIP3    H1  749   6.469   3.586   4.142
  268TIP3    H2  750   6.475   3.444   4.193
  269TIP3   OH2  751   5.113   5.994   3.304
  269TIP3    H1  752   5.043   5.966   3.245
  269TIP3    H2  753   5.193   5.969   3.259
  270TIP3   OH2  754   8.203   4.448   3.595
  270TIP3    H1  755   8.157   4.493   3.666
  270TIP3    H2  756   8.198   4.507   3.521
  271TIP3   OH2  757   2.272   7.238   3.694
  271TIP3    H1  758   2.241   7.254   3.605
  271TIP3    H2  759   2.213   7.171   3.729
  272TIP3   OH2  760   2.194   7.521   5.686
  272TIP3    H1  761   2.184   7.544   5.779
  272TIP3    H2  762   2.265   7.456   5.685
  273TIP3   OH2  763   2.813   6.639   5.307
  273TIP3    H1  764   2.904   6.669   5.298
  273TIP3    H2  765   2.762   6.699   5.253
  274TIP3   OH2  766   7.285   0.919   4.819
  274TIP3    H1  767   7.276   0.863   4.896
  274TIP3    H2  768   7.253   1.005   4.849
  275TIP3   OH2  769   4.667   5.616   5.947
  275TIP3    H1  770   4.738   5.675   5.921
  275TIP3    H2  771   4.645   5.568   5.867
  276TIP3   OH2  772   3.127   4.544   3.650
  276TIP3    H1  773   3.080   4.478   3.702
  276TIP3    H2  774   3.154   4.498   3.571
  277TIP3   OH2  775   6.814   5.873   0.389
  277TIP3    H1  776   6.870   5.941   0.354
  277TIP3    H2  777   6.874   5.805   0.420
  278TIP3   OH2  778   5.957   6.903   2.912
  278TIP3    H1  779   5.940   6.825   2.859
  278TIP3    H2  780   5.870   6.939   2.929
  279TIP3   OH2  781   3.592   2.526   1.283
  279TIP3    H1  782   3.521   2.507   1.221
  279TIP3    H2  783   3.549   2.571   1.356
  280TIP3   OH2  784   4.135   7.776   2.324
  280TIP3    H1  785   4.186   7.703   2.288
  280TIP3    H2  786   4.049   7.767   2.285
  281TIP3   OH2  787   4.757   0.484   5.437
  281TIP3    H1  788   4.851   0.500   5.436
  281TIP3    H2  789   4.737   0.465   5.529
  282TIP3   OH2  790   0.532   1.939   0.586
  282TIP3    H1  791   0.467   1.943   0.516
  282TIP3    H2  792   0.589   2.015   0.571
  283TIP3   OH2  793   4.420   2.811   0.873
  283TIP3    H1  794   4.405   2.721   0.902
  283TIP3    H2  795   4.475   2.850   0.941
  284TIP3   OH2  796   2.064   2.520   3.990
  284TIP3    H1  797   2.084   2.577   4.063
  284TIP3    H2  798   1.970   2.503   3.998
  285TIP3   OH2  799   3.581   7.260   5.440
  285TIP3    H1  800   3.673   7.270   5.464
  285TIP3    H2  801   3.542   7.346   5.457
  286TIP3   OH2  802   2.973   3.122   4.888
  286TIP3    H1  803   2.879   3.107   4.885
  286TIP3    H2  804   3.011   3.043   4.850
  287TIP3   OH2  805   0.781   0.658   5.830
  287TIP3    H1  806   0.861   0.700   5.864
  287TIP3    H2  807   0.710   0.718   5.854
  288TIP3   OH2  808   4.445   6.907  -0.040
  288TIP3    H1  809   4.505   6.923   0.033
  288TIP3    H2  810   4.357   6.913  -0.001
  289TIP3   OH2  811   1.806   5.471   6.232
  289TIP3    H1  812   1.768   5.558   6.222
  289TIP3    H2  813   1.884   5.472   6.175
  290TIP3   OH2  814   1.460   2.224   1.288
  290TIP3    H1  815   1.476   2.217   1.194
  290TIP3    H2  816   1.543   2.198   1.329
  291TIP3   OH2  817   0.504   5.921   4.894
  291TIP3    H1  818   0.587   5.968   4.901
  291TIP3    H2  819   0.522   5.850   4.832
  292TIP3   OH2  820   4.844   3.327   6.492
  292TIP3    H1  821   4.886   3.410   6.474
  292TIP3    H2  822   4.833   3.285   6.406
  293TIP3   OH2  823   0.481   2.327   4.376
  293TIP3    H1  824   0.515   2.341   4.465
  293TIP3    H2  825   0.416   2.257   4.386
  294TIP3   OH2  826   2.477   7.491   2.511
  294TIP3    H1  827   2.444   7.479   2.421
  294TIP3    H2  828   2.423   7.561   2.547
  295TIP3   OH2  829   4.294   7.141   4.918
  295TIP3    H1  830   4.334   7.072   4.865
  295TIP3    H2  831   4.232   7.095   4.975
  296TIP3   OH2  832   3.913   3.371   1.090
  296TIP3    H1  833   3.921   3.309   1.162
  296TIP3    H2  834   3.913   3.457   1.133
  297TIP3   OH2  835   7.305   5.365   0.631
  297TIP3    H1  836   7.311   5.277   0.668
  297TIP3    H2  837   7.305   5.351   0.536
  298TIP3   OH2  838   0.081   0.080   1.861
  298TIP3    H1  839   0.138   0.033   1.922
  298TIP3    H2  840   0.011   0.018   1.842
  299TIP3   OH2  841   7.378   5.697   4.268
  299TIP3    H1  842   7.459   5.729   4.229
  299TIP3    H2  843   7.389   5.710   4.362
  300TIP3   OH2  844   5.813   7.339   6.482
  300TIP3    H1  845   5.791   7.263   6.428
  300TIP3    H2  846   5.761   7.328   6.562
  301TIP3   OH2  847   6.430   5.572   6.343
  301TIP3    H1  848   6.520   5.562   6.373
  301TIP3    H2  849   6.404   5.484   6.317
  302TIP3   OH2  850   4.290   4.258   2.470
  302TIP3    H1  851   4.313   4.226   2.558
  302TIP3    H2  852   4.365   4.312   2.445
  303TIP3   OH2  853   5.604   2.858   3.732
  303TIP3    H1  854   5.629   2.786   3.790
  303TIP3    H2  855   5.682   2.913   3.727
  304TIP3   OH2  856   6.048   7.167   6.077
  304TIP3    H1  857   5.958   7.163   6.108
  304TIP3    H2  858   6.101   7.170   6.156
  305TIP3   OH2  859   1.746   6.056   3.319
  305TIP3    H1  860   1.755   5.964   3.342
  305TIP3    H2  861   1.824   6.098   3.356
  306TIP3   OH2  862   3.125   3.948   3.764
  306TIP3    H1  863   3.183   3.873   3.754
  306TIP3    H2  864   3.174   4.021   3.726
  307TIP3   OH2  865   1.213   4.781   5.790
  307TIP3    H1  866   1.287   4.782   5.851
  307TIP3    H2  867   1.235   4.849   5.725
  308TIP3   OH2  868   4.526   7.437   5.204
  308TIP3    H1  869   4.470   7.433   5.127
  308TIP3    H2  870   4.467   7.424   5.278
  309TIP3   OH2  871   3.492   4.299   2.588
  309TIP3    H1  872   3.542   4.222   2.617
  309TIP3    H2  873   3.459   4.338   2.669
  310TIP3   OH2  874   3.923   0.913   2.777
  310TIP3    H1  875   3.938   0.822   2.802
  310TIP3    H2  876   3.920   0.912   2.682
  311TIP3   OH2  877   5.793   3.578   6.507
  311TIP3    H1  878   5.858   3.570   6.577
  311TIP3    H2  879   5.839   3.627   6.439
  312TIP3   OH2  880   8.097   5.001   2.780
  312TIP3    H1  881   8.183   4.978   2.743
  312TIP3    H2  882   8.088   4.943   2.856
  313TIP3   OH2  883   2.923   1.267   2.686
  313TIP3    H1  884   2.976   1.199   2.645
  313TIP3    H2  885   2.981   1.343   2.691
  314TIP3   OH2  886   0.915   7.731   2.284
  314TIP3    H1  887   0.989   7.789   2.266
  314TIP3    H2  888   0.897   7.689   2.199
  315TIP3   OH2  889   6.789   6.890   5.143
  315TIP3    H1  890   6.759   6.859   5.228
  315TIP3    H2  891   6.729   6.960   5.120
  316TIP3   OH2  892   5.942   4.022   3.888
  316TIP3    H1  893   5.875   4.074   3.932
  316TIP3    H2  894   5.911   3.932   3.895
  317TIP3   OH2  895   1.549   7.363   4.076
  317TIP3    H1  896   1.594   7.377   3.992
  317TIP3    H2  897   1.589   7.427   4.135
  318TIP3   OH2  898   2.379   3.511   6.165
  318TIP3    H1  899   2.306   3.507   6.227
  318TIP3    H2  900   2.408   3.602   6.168
  319TIP3   OH2  901   2.232   4.421   0.678
  319TIP3    H1  902   2.258   4.430   0.587
  319TIP3    H2  903   2.293   4.477   0.726
  320TIP3   OH2  904   6.154   5.475   6.551
  320TIP3    H1  905   6.166   5.501   6.460
  320TIP3    H2  906   6.095   5.541   6.587
  321TIP3   OH2  907   5.451   0.287   3.774
  321TIP3    H1  908   5.503   0.329   3.705
  321TIP3    H2  909   5.375   0.344   3.785
  322TIP3   OH2  910   1.569   7.543   1.377
  322TIP3    H1  911   1.627   7.512   1.307
  322TIP3    H2  912   1.626   7.596   1.432
  323TIP3   OH2  913   1.263   7.166   0.772
  323TIP3    H1  914   1.201   7.094   0.762
  323TIP3    H2  915   1.349   7.126   0.760
  324TIP3   OH2  916   5.331   4.322   1.249
  324TIP3    H1  917   5.240   4.341   1.269
  324TIP3    H2  918   5.363   4.273   1.325
  325TIP3   OH2  919   0.330   1.221   6.029
  325TIP3    H1  920   0.267   1.290   6.048
  325TIP3    H2  921   0.315   1.156   6.098
  326TIP3   OH2  922   1.488   0.107   4.692
  326TIP3    H1  923   1.422   0.060   4.743
  326TIP3    H2  924   1.529   0.166   4.755
  327TIP3   OH2  925   3.439   4.289   6.628
  327TIP3    H1  926   3.452   4.247   6.713
  327TIP3    H2  927   3.434   4.217   6.566
  328TIP3   OH2  928   1.243   1.364   1.269
  328TIP3    H1  929   1.177   1.370   1.200
  328TIP3    H2  930   1.224   1.281   1.314
  329TIP3   OH2  931   3.111   4.140   0.637
  329TIP3    H1  932   3.103   4.185   0.554
  329TIP3    H2  933   3.147   4.054   0.615
  330TIP3   OH2  934   1.673   1.346   0.123
  330TIP3    H1  935   1.679   1.350   0.219
  330TIP3    H2  936   1.756   1.384   0.093
  331TIP3   OH2  937   1.200   5.405   3.324
  331TIP3    H1  938   1.133   5.360   3.274
  331TIP3    H2  939   1.241   5.465   3.262
  332TIP3   OH2  940   3.604   0.228   2.315
  332TIP3    H1  941   3.662   0.154   2.294
  332TIP3    H2  942   3.624   0.248   2.406
  333TIP3   OH2  943   6.691   1.323   3.074
  333TIP3    H1  944   6.648   1.372   3.144
  333TIP3    H2  945   6.713   1.389   3.008
  334TIP3   OH2  946   3.244   5.453   2.253
  334TIP3    H1  947   3.336   5.431   2.235
  334TIP3    H2  948   3.248   5.533   2.305
  335TIP3   OH2  949   3.652   3.523   6.612
  335TIP3    H1  950   3.609   3.438   6.607
  335TIP3    H2  951   3.683   3.529   6.703
  336TIP3   OH2  952   0.548   7.319   0.866
  336TIP3    H1  953   0.516   7.238   0.826
  336TIP3    H2  954   0.641   7.303   0.883
  337TIP3   OH2  955   2.408   7.528   3.006
  337TIP3    H1  956   2.485   7.509   2.952
  337TIP3    H2  957   2.415   7.467   3.079
  338TIP3   OH2  958   7.634   5.728   6.529
  338TIP3    H1  959   7.574   5.786   6.482
  338TIP3    H2  960   7.608   5.737   6.621
  339TIP3   OH2  961   6.030   2.794   6.440
  339TIP3    H1  962   6.089   2.844   6.498
  339TIP3    H2  963   5.942   2.821   6.467
  340TIP3   OH2  964   8.055   7.419   4.252
  340TIP3    H1  965   8.105   7.465   4.184
  340TIP3    H2  966   8.108   7.429   4.331
  341TIP3   OH2  967   3.944   1.606   3.966
  341TIP3    H1  968   3.915   1.595   3.876
  341TIP3    H2  969   3.909   1.530   4.012
  342TIP3   OH2  970   4.323   6.753   0.651
  342TIP3    H1  971   4.407   6.779   0.613
  342TIP3    H2  972   4.301   6.670   0.607
  343TIP3   OH2  973   3.635   2.280   1.147
  343TIP3    H1  974   3.613   2.327   1.067
  343TIP3    H2  975   3.653   2.349   1.211
  344TIP3   OH2  976   0.633   4.800   2.397
  344TIP3    H1  977   0.612   4.707   2.398
  344TIP3    H2  978   0.571   4.839   2.458
  345TIP3   OH2  979   0.979   6.516   6.374
  345TIP3    H1  980   1.026   6.467   6.307
  345TIP3    H2  981   0.900   6.546   6.330
  346TIP3   OH2  982   7.169   7.121   5.308
  346TIP3    H1  983   7.137   7.034   5.286
  346TIP3    H2  984   7.154   7.173   5.229
  347TIP3   OH2  985   0.927   4.557   6.541
  347TIP3    H1  986   0.890   4.574   6.628
  347TIP3    H2  987   1.018   4.584   6.548
  348TIP3   OH2  988   4.177   4.956   3.379
  348TIP3    H1  989   4.171   5.015   3.304
  348TIP3    H2  990   4.213   4.874   3.343
  349TIP3   OH2  991   5.488   1.556   3.990
  349TIP3    H1  992   5.468   1.620   4.058
  349TIP3    H2  993   5.427   1.575   3.920
  350TIP3   OH2  994   5.708   5.065   3.945
  350TIP3    H1  995   5.753   5.127   4.001
  350TIP3    H2  996   5.763   4.987   3.946
  351TIP3   OH2  997   7.656   7.124   1.638
  351TIP3    H1  998   7.565   7.142   1.612
  351TIP3    H2  999   7.703   7.204   1.617
  352TIP3   OH2 1000   2.508   0.916   0.908
  352TIP3    H1 1001   2.460   0.900   0.826
  352TIP3    H2 1002   2.581   0.853   0.905
  353TIP3   OH2 1003   6.327   7.095   5.769
  353TIP3    H1 1004   6.314   7.174   5.717
  353TIP3    H2 1005   6.319   7.023   5.707
  354TIP3   OH2 1006   7.830   4.023   4.528
  354TIP3    H1 1007   7.831   4.118   4.518
  354TIP3    H2 1008   7.922   3.997   4.520
  355TIP3   OH2 1009   1.849   5.898   4.938
  355TIP3    H1 1010   1.864   5.874   5.030
  355TIP3    H2 1011   1.926   5.951   4.915
  356TIP3   OH2 1012   0.099   1.200   1.656
  356TIP3    H1 1013   0.147   1.119   1.641
  356TIP3    H2 1014   0.140   1.240   1.732
  357TIP3   OH2 1015   1.061   6.011   2.450
  357TIP3    H1 1016   0.985   5.953   2.450
  357TIP3    H2 1017   1.047   6.069   2.376
  358TIP3   OH2 1018   5.473   0.520   1.612
  358TIP3    H1 1019   5.448   0.610   1.589
  358TIP3    H2 1020   5.569   0.520   1.609
  359TIP3   OH2 1021   6.524   7.142   2.751
  359TIP3    H1 1022   6.491   7.215   2.804
  359TIP3    H2 1023   6.501   7.064   2.802
  360TIP3   OH2 1024   2.602   7.572   3.236
  360TIP3    H1 1025   2.520   7.538   3.271
  360TIP3    H2 1026   2.627   7.510   3.168
  361TIP3   OH2 1027   2.489   4.969   4.217
  361TIP3    H1 1028   2.400   4.948   4.188
  361TIP3    H2 1029   2.536   4.886   4.214
  362TIP3   OH2 1030   2.767   3.803   2.699
  362TIP3    H1 1031   2.699   3.870   2.709
  362TIP3    H2 1032   2.740   3.754   2.621
  363TIP3   OH2 1033   1.803   2.012   2.512
  363TIP3    H1 1034   1.831   1.927   2.479
  363TIP3    H2 1035   1.876   2.071   2.493
  364TIP3   OH2 1036   6.345   5.385   3.822
  364TIP3    H1 1037   6.389   5.414   3.742
  364TIP3    H2 1038   6.389   5.304   3.846
  365TIP3   OH2 1039   7.973   6.234   1.874
  365TIP3    H1 1040   8.012   6.239   1.961
  365TIP3    H2 1041   7.958   6.325   1.849
  366TIP3   OH2 1042   4.860   7.357   5.282
  366TIP3    H1 1043   4.897   7.373   5.369
  366TIP3    H2 1044   4.899   7.424   5.227
  367TIP3   OH2 1045   4.066   6.799   5.943
  367TIP3    H1 1046   3.979   6.818   5.978
  367TIP3    H2 1047   4.091   6.716   5.985
  368TIP3   OH2 1048   0.581   3.419   1.111
  368TIP3    H1 1049   0.532   3.382   1.184
  368TIP3    H2 1050   0.618   3.500   1.145
  369TIP3   OH2 1051   6.092   2.622   1.526
  369TIP3    H1 1052   6.015   2.679   1.534
  369TIP3    H2 1053   6.140   2.657   1.451
  370TIP3   OH2 1054   1.552   5.309   6.177
  370TIP3    H1 1055   1.646   5.293   6.171
  370TIP3    H2 1056   1.512   5.241   6.122
  371TIP3   OH2 1057   7.559   3.656   1.089
  371TIP3    H1 1058   7.573   3.668   1.182
  371TIP3    H2 1059   7.502   3.579   1.082
  372TIP3   OH2 1060   0.651   7.733   4.509
  372TIP3    H1 1061   0.637   7.677   4.433
  372TIP3    H2 1062   0.746   7.729   4.524
  373TIP3   OH2 1063   5.390   1.903   6.135
  373TIP3    H1 1064   5.335   1.946   6.071
  373TIP3    H2 1065   5.385   1.810   6.113
  374TIP3   OH2 1066   7.919   7.315   1.471
  374TIP3    H1 1067   7.929   7.253   1.398
  374TIP3    H2 1068   8.007   7.322   1.508
  375TIP3   OH2 1069   5.657   0.703   6.641
  375TIP3    H1 1070   5.728   0.668   6.586
  375TIP3    H2 1071   5.672   0.797   6.643
  376TIP3   OH2 1072   6.870   2.162   4.152
  376TIP3    H1 1073   6.884   2.250   4.118
  376TIP3    H2 1074   6.833   2.113   4.079
  377TIP3   OH2 1075   3.649   6.310   2.384
  377TIP3    H1 1076   3.740   6.332   2.365
  377TIP3    H2 1077   3.653   6.243   2.452
  378TIP3   OH2 1078   3.292   2.483   0.874
  378TIP3    H1 1079   3.226   2.551   0.880
  378TIP3    H2 1080   3.316   2.482   0.781
  379TIP3   OH2 1081   6.275   0.661   0.599
  379TIP3    H1 1082   6.341   0.717   0.639
  379TIP3    H2 1083   6.204   0.720   0.576
  380TIP3   OH2 1084   2.290   6.613   4.454
  380TIP3    H1 1085   2.271   6.602   4.361
  380TIP3    H2 1086   2.206   6.633   4.494
  381TIP3   OH2 1087   0.667   4.009   3.652
  381TIP3    H1 1088   0.740   3.968   3.607
  381TIP3    H2 1089   0.677   3.983   3.744
  382TIP3   OH2 1090   7.168   3.504   2.168
  382TIP3    H1 1091   7.099   3.504   2.102
  382TIP3    H2 1092   7.122   3.493   2.251
  383TIP3   OH2 1093   3.380   3.440   6.085
  383TIP3    H1 1094   3.355   3.409   6.172
  383TIP3    H2 1095   3.474   3.426   6.080
  384TIP3   OH2 1096   6.445   6.392   3.776
  384TIP3    H1 1097   6.427   6.435   3.692
  384TIP3    H2 1098   6.496   6.314   3.752
  385TIP3   OH2 1099   0.846   4.865   0.476
  385TIP3    H1 1100   0.867   4.861   0.569
  385TIP3    H2 1101   0.753   4.889   0.474
  386TIP3   OH2 1102   3.979   2.345   1.326
  386TIP3    H1 1103   3.961   2.334   1.419
  386TIP3    H2 1104   3.963   2.259   1.287
  387TIP3   OH2 1105   5.552   6.526   1.169
  387TIP3    H1 1106   5.552   6.607   1.220
  387TIP3    H2 1107   5.603   6.465   1.222
  388TIP3   OH2 1108   5.113   6.249   2.660
  388TIP3    H1 1109   5.099   6.257   2.754
  388TIP3    H2 1110   5.191   6.302   2.642
  389TIP3   OH2 1111   3.218   1.949   5.422
  389TIP3    H1 1112   3.140   2.004   5.414
  389TIP3    H2 1113   3.250   1.967   5.510
  390TIP3   OH2 1114   0.278   5.835   4.194
  390TIP3    H1 1115   0.210   5.849   4.128
  390TIP3    H2 1116   0.303   5.743   4.183
  391TIP3   OH2 1117   4.999   3.003   5.669
  391TIP3    H1 1118   4.934   2.948   5.713
  391TIP3    H2 1119   5.045   2.944   5.610
  392TIP3   OH2 1120   1.385   3.272   0.026
  392TIP3    H1 1121   1.318   3.252  -0.039
  392TIP3    H2 1122   1.364   3.215   0.100
  393TIP3   OH2 1123   3.278   1.468   3.628
  393TIP3    H1 1124   3.205   1.510   3.582
  393TIP3    H2 1125   3.247   1.379   3.646
  394TIP3   OH2 1126   1.218   0.179   4.883
  394TIP3    H1 1127   1.138   0.199   4.931
  394TIP3    H2 1128   1.280   0.148   4.949
  395TIP3   OH2 1129   3.363   4.177   0.792
  395TIP3    H1 1130   3.306   4.121   0.739
  395TIP3    H2 1131   3.451   4.163   0.755
  396TIP3   OH2 1132   4.911   7.670   1.732
  396TIP3    H1 1133   4.898   7.590   1.682
  396TIP3    H2 1134   4.828   7.716   1.727
  397TIP3   OH2 1135   1.652   4.889   5.545
  397TIP3    H1 1136   1.626   4.808   5.502
  397TIP3    H2 1137   1.734   4.914   5.502
  398TIP3   OH2 1138   6.824   1.151   1.513
  398TIP3    H1 1139   6.773   1.069   1.515
  398TIP3    H2 1140   6.765   1.216   1.550
  399TIP3   OH2 1141   1.367   6.711   1.289
  399TIP3    H1 1142   1.438   6.647   1.299
  399TIP3    H2 1143   1.300   6.683   1.351
  400TIP3   OH2 1144   5.008   4.864   1.933
  400TIP3    H1 1145   5.090   4.867   1.983
  400TIP3    H2 1146   4.989   4.771   1.924
  401TIP3   OH2 1147   3.115   0.736   5.879
  401TIP3    H1 1148   3.098   0.646   5.905
  401TIP3    H2 1149   3.071   0.789   5.946
  402TIP3   OH2 1150   4.985   5.672   5.941
  402TIP3    H1 1151   4.972   5.581   5.967
  402TIP3    H2 1152   5.079   5.686   5.948
  403TIP3   OH2 1153   1.913   6.592   3.586
  403TIP3    H1 1154   2.003   6.602   3.616
  403TIP3    H2 1155   1.862   6.654   3.638
  404TIP3   OH2 1156   5.947   5.333   3.287
  404TIP3    H1 1157   5.883   5.272   3.253
  404TIP3    H2 1158   5.936   5.329   3.382
  405TIP3   OH2 1159   0.224   6.435   4.052
  405TIP3    H1 1160   0.209   6.374   3.980
  405TIP3    H2 1161   0.139   6.475   4.069
  406TIP3   OH2 1162   1.247   3.936   4.274
  406TIP3    H1 1163   1.155   3.910   4.282
  406TIP3    H2 1164   1.295   3.864   4.317
  407TIP3   OH2 1165   3.577   5.174   3.982
  407TIP3    H1 1166   3.603   5.082   3.986
  407TIP3    H2 1167   3.482   5.173   3.981
  408TIP3   OH2 1168   2.990   1.557   2.394
  408TIP3    H1 1169   2.981   1.463   2.406
  408TIP3    H2 1170   3.079   1.569   2.360
  409TIP3   OH2 1171   3.616   6.670   6.764
  409TIP3    H1 1172   3.575   6.584   6.766
  409TIP3    H2 1173   3.648   6.678   6.674
  410TIP3   OH2 1174   5.979   0.674   2.343
  410TIP3    H1 1175   6.054   0.637   2.389
  410TIP3    H2 1176   5.949   0.604   2.285
  411TIP3   OH2 1177   2.648   3.268   3.564
  411TIP3    H1 1178   2.651   3.172   3.567
  411TIP3    H2 1179   2.561   3.289   3.529
  412TIP3   OH2 1180   1.210   3.210   1.013
  412TIP3    H1 1181   1.267   3.223   0.937
  412TIP3    H2 1182   1.264   3.161   1.075
  413TIP3   OH2 1183   4.062   1.646   2.622
  413TIP3    H1 1184   4.046   1.684   2.708
  413TIP3    H2 1185   4.117   1.569   2.640
  414TIP3   OH2 1186   3.194   3.817   1.031
  414TIP3    H1 1187   3.214   3.845   1.120
  414TIP3    H2 1188   3.273   3.836   0.981
  415TIP3   OH2 1189   8.319   3.185   6.049
  415TIP3    H1 1190   8.308   3.158   6.140
  415TIP3    H2 1191   8.251   3.251   6.035
  416TIP3   OH2 1192   5.033   1.553   5.492
  416TIP3    H1 1193   5.115   1.601   5.506
  416TIP3    H2 1194   5.015   1.565   5.399
  417TIP3   OH2 1195   5.894   5.710   4.843
  417TIP3    H1 1196   5.936   5.649   4.782
  417TIP3    H2 1197   5.801   5.698   4.829
  418TIP3   OH2 1198   5.331   4.662   4.142
  418TIP3    H1 1199   5.314   4.675   4.235
  418TIP3    H2 1200   5.413   4.709   4.126
  419TIP3   OH2 1201   5.606   5.246   2.720
  419TIP3    H1 1202   5.674   5.289   2.773
  419TIP3    H2 1203   5.552   5.200   2.784
  420TIP3   OH2 1204   6.483   2.126   0.742
  420TIP3    H1 1205   6.569   2.094   0.769
  420TIP3    H2 1206   6.440   2.050   0.702
  421TIP3   OH2 1207   2.503   2.286   1.012
  421TIP3    H1 1208   2.493   2.320   0.923
  421TIP3    H2 1209   2.413   2.275   1.043
  422TIP3   OH2 1210   0.846   7.635   6.691
  422TIP3    H1 1211   0.927   7.652   6.644
  422TIP3    H2 1212   0.795   7.715   6.682
  423TIP3   OH2 1213   4.696   3.834   0.017
  423TIP3    H1 1214   4.626   3.876   0.067
  423TIP3    H2 1215   4.732   3.768   0.076
  424TIP3   OH2 1216   6.171   6.383   5.620
  424TIP3    H1 1217   6.257   6.376   5.580
  424TIP3    H2 1218   6.110   6.377   5.547
  425TIP3   OH2 1219   2.739   7.011   0.217
  425TIP3    H1 1220   2.670   7.074   0.197
  425TIP3    H2 1221   2.770   6.982   0.131
  426TIP3   OH2 1222   7.349   4.507   3.157
  426TIP3    H1 1223   7.401   4.582   3.185
  426TIP3    H2 1224   7.263   4.521   3.197
  427TIP3   OH2 1225   1.035   6.568   3.768
  427TIP3    H1 1226   1.110   6.580   3.710
  427TIP3    H2 1227   0.959   6.589   3.713
  428TIP3   OH2 1228   2.486   0.009   5.614
  428TIP3    H1 1229   2.546   0.073   5.575
  428TIP3    H2 1230   2.410   0.062   5.640
  429TIP3   OH2 1231   7.033   6.059   1.562
  429TIP3    H1 1232   7.036   6.154   1.551
  429TIP3    H2 1233   6.943   6.034   1.541
  430TIP3   OH2 1234   0.786   3.655   5.446
  430TIP3    H1 1235   0.749   3.577   5.489
  430TIP3    H2 1236   0.755   3.649   5.355
  431TIP3   OH2 1237   5.125   1.033   6.616
  431TIP3    H1 1238   5.084   0.985   6.688
  431TIP3    H2 1239   5.106   0.981   6.539
  432TIP3   OH2 1240   5.132   5.768   4.687
  432TIP3    H1 1241   5.119   5.687   4.736
  432TIP3    H2 1242   5.209   5.808   4.728
  433TIP3   OH2 1243   3.997   2.426   4.569
  433TIP3    H1 1244   3.916   2.420   4.621
  433TIP3    H2 1245   4.011   2.337   4.537
  434TIP3   OH2 1246   7.891   6.873   1.879
  434TIP3    H1 1247   7.799   6.867   1.856
  434TIP3    H2 1248   7.901   6.960   1.918
  435TIP3   OH2 1249   1.698   3.769   5.318
  435TIP3    H1 1250   1.710   3.686   5.271
  435TIP3    H2 1251   1.751   3.832   5.269
  436TIP3   OH2 1252   2.557   5.626   5.610
  436TIP3    H1 1253   2.477   5.648   5.562
  436TIP3    H2 1254   2.611   5.580   5.546
  437TIP3   OH2 1255   0.625   5.531   5.344
  437TIP3    H1 1256   0.557   5.515   5.278
  437TIP3    H2 1257   0.579   5.526   5.428
  438TIP3   OH2 1258   4.485   4.094   1.275
  438TIP3    H1 1259   4.461   4.185   1.292
  438TIP3    H2 1260   4.556   4.076   1.337
  439TIP3   OH2 1261   7.111   0.561   4.834
  439TIP3    H1 1262   7.111   0.616   4.913
  439TIP3    H2 1263   7.181   0.597   4.780
  440TIP3   OH2 1264   0.948   6.841   3.972
  440TIP3    H1 1265   0.991   6.790   4.040
  440TIP3    H2 1266   0.945   6.782   3.896
  441TIP3   OH2 1267   4.628   1.701   4.618
  441TIP3    H1 1268   4.647   1.768   4.684
  441TIP3    H2 1269   4.700   1.710   4.555
  442TIP3   OH2 1270   6.517   4.244   6.675
  442TIP3    H1 1271   6.436   4.203   6.707
  442TIP3    H2 1272   6.579   4.172   6.667
  443TIP3   OH2 1273   0.275   2.940   4.362
  443TIP3    H1 1274   0.215   2.919   4.434
  443TIP3    H2 1275   0.218   2.947   4.286
  444TIP3   OH2 1276   7.195   1.109   2.931
  444TIP3    H1 1277   7.138   1.164   2.878
  444TIP3    H2 1278   7.219   1.036   2.874
  445TIP3   OH2 1279   2.792   6.088   1.480
  445TIP3    H1 1280   2.785   6.091   1.385
  445TIP3    H2 1281   2.880   6.052   1.496
  446TIP3   OH2 1282   8.067   4.364   0.084
  446TIP3    H1 1283   8.063   4.457   0.059
  446TIP3    H2 1284   8.158   4.338   0.066
  447TIP3   OH2 1285   3.057   7.228   1.355
  447TIP3    H1 1286   2.962   7.222   1.368
  447TIP3    H2 1287   3.093   7.225   1.443
  448TIP3   OH2 1288   2.161   3.585   1.844
  448TIP3    H1 1289   2.187   3.625   1.761
  448TIP3    H2 1290   2.235   3.600   1.903
  449TIP3   OH2 1291   4.720   7.796   3.892
  449TIP3    H1 1292   4.701   7.829   3.804
  449TIP3    H2 1293   4.769   7.716   3.878
  450TIP3   OH2 1294   6.094   6.579   6.615
  450TIP3    H1 1295   6.144   6.637   6.557
  450TIP3    H2 1296   6.059   6.637   6.682
  451TIP3   OH2 1297   8.076   4.615   4.436
  451TIP3    H1 1298   7.986   4.598   4.407
  451TIP3    H2 1299   8.081   4.710   4.444
  452TIP3   OH2 1300   8.099   4.290   0.696
  452TIP3    H1 1301   8.180   4.240   0.702
  452TIP3    H2 1302   8.080   4.293   0.602
  453TIP3   OH2 1303   0.801   3.812   1.531
  453TIP3    H1 1304   0.750   3.734   1.509
  453TIP3    H2 1305   0.878   3.808   1.474
  454TIP3   OH2 1306   3.702   6.744   0.838
  454TIP3    H1 1307   3.690   6.663   0.790
  454TIP3    H2 1308   3.787   6.777   0.809
  455TIP3   OH2 1309   2.503   7.514   5.506
  455TIP3    H1 1310   2.485   7.446   5.441
  455TIP3    H2 1311   2.492   7.596   5.458
  456TIP3   OH2 1312   0.368   1.393   0.324
  456TIP3    H1 1313   0.390   1.300   0.332
  456TIP3    H2 1314   0.446   1.433   0.287
  457TIP3   OH2 1315   4.622   7.082   3.853
  457TIP3    H1 1316   4.597   7.158   3.802
  457TIP3    H2 1317   4.595   7.007   3.800
  458TIP3   OH2 1318   6.492   7.419   0.097
  458TIP3    H1 1319   6.578   7.410   0.137
  458TIP3    H2 1320   6.444   7.479   0.154
  459TIP3   OH2 1321   7.075   5.015   2.433
  459TIP3    H1 1322   7.009   4.958   2.473
  459TIP3    H2 1323   7.158   4.969   2.449
  460TIP3   OH2 1324   6.047   5.218   1.372
  460TIP3    H1 1325   6.073   5.150   1.310
  460TIP3    H2 1326   5.962   5.189   1.405
  461TIP3   OH2 1327   7.086   7.092   0.716
  461TIP3    H1 1328   7.034   7.020   0.753
  461TIP3    H2 1329   7.021   7.150   0.676
  462TIP3   OH2 1330   0.109   3.996   0.931
  462TIP3    H1 1331   0.073   4.072   0.976
  462TIP3    H2 1332   0.055   3.986   0.853
  463TIP3   OH2 1333   2.576   3.493   1.014
  463TIP3    H1 1334   2.528   3.495   1.096
  463TIP3    H2 1335   2.655   3.544   1.030
  464TIP3   OH2 1336   1.969   3.790   5.795
  464TIP3    H1 1337   1.902   3.722   5.796
  464TIP3    H2 1338   2.041   3.754   5.743
  465TIP3   OH2 1339   0.671   2.673   5.598
  465TIP3    H1 1340   0.579   2.647   5.597
  465TIP3    H2 1341   0.715   2.607   5.544
  466TIP3   OH2 1342   7.663   1.801   0.971
  466TIP3    H1 1343   7.593   1.842   1.021
  466TIP3    H2 1344   7.744   1.835   1.010
  467TIP3   OH2 1345   2.001   4.055   1.718
  467TIP3    H1 1346   2.060   4.068   1.643
  467TIP3    H2 1347   2.052   4.003   1.780
  468TIP3   OH2 1348   1.887   4.008   3.765
  468TIP3    H1 1349   1.795   3.989   3.786
  468TIP3    H2 1350   1.887   4.099   3.738
  469TIP3   OH2 1351   2.665   6.837   2.615
  469TIP3    H1 1352   2.668   6.800   2.527
  469TIP3    H2 1353   2.711   6.921   2.607
  470TIP3   OH2 1354   8.150   2.435   5.635
  470TIP3    H1 1355   8.177   2.509   5.689
  470TIP3    H2 1356   8.135   2.472   5.548
  471TIP3   OH2 1357   1.493   6.954   6.357
  471TIP3    H1 1358   1.566   6.948   6.295
  471TIP3    H2 1359   1.435   6.882   6.333
  472TIP3   OH2 1360   6.327   0.444   5.841
  472TIP3    H1 1361   6.404   0.418   5.891
  472TIP3    H2 1362   6.254   0.407   5.889
  473TIP3   OH2 1363   6.703   3.263   5.752
  473TIP3    H1 1364   6.750   3.250   5.834
  473TIP3    H2 1365   6.679   3.356   5.753
  474TIP3   OH2 1366   4.878   2.291   2.977
  474TIP3    H1 1367   4.942   2.231   2.938
  474TIP3    H2 1368   4.796   2.243   2.975
  475TIP3   OH2 1369   8.073   0.813   5.918
  475TIP3    H1 1370   8.080   0.856   5.833
  475TIP3    H2 1371   7.979   0.799   5.931
  476TIP3   OH2 1372   4.268   2.685   0.238
  476TIP3    H1 1373   4.242   2.769   0.276
  476TIP3    H2 1374   4.221   2.681   0.155
  477TIP3   OH2 1375   4.447   3.297   6.399
  477TIP3    H1 1376   4.385   3.254   6.458
  477TIP3    H2 1377   4.498   3.355   6.457
  478TIP3   OH2 1378   2.302   7.186   1.820
  478TIP3    H1 1379   2.325   7.110   1.872
  478TIP3    H2 1380   2.258   7.150   1.743
  479TIP3   OH2 1381   6.564   7.714   4.396
  479TIP3    H1 1382   6.550   7.630   4.441
  479TIP3    H2 1383   6.479   7.757   4.397
  480TIP3   OH2 1384   5.523   6.356   4.470
  480TIP3    H1 1385   5.457   6.400   4.416
  480TIP3    H2 1386   5.496   6.374   4.560
  481TIP3   OH2 1387   7.205   3.938   3.362
  481TIP3    H1 1388   7.194   3.861   3.307
  481TIP3    H2 1389   7.299   3.943   3.378
  482TIP3   OH2 1390   3.873   6.852   3.401
  482TIP3    H1 1391   3.824   6.909   3.341
  482TIP3    H2 1392   3.940   6.812   3.347
  483TIP3   OH2 1393   5.617   7.543   2.833
  483TIP3    H1 1394   5.689   7.605   2.837
  483TIP3    H2 1395   5.580   7.543   2.921
  484TIP3   OH2 1396   2.006   6.161   3.378
  484TIP3    H1 1397   1.949   6.215   3.432
  484TIP3    H2 1398   2.094   6.179   3.410
  485TIP3   OH2 1399   1.917   5.545   5.917
  485TIP3    H1 1400   1.896   5.601   5.842
  485TIP3    H2 1401   1.976   5.479   5.881
  486TIP3   OH2 1402   0.628   1.946   0.867
  486TIP3    H1 1403   0.668   2.030   0.892
  486TIP3    H2 1404   0.614   1.954   0.773
  487TIP3   OH2 1405   4.812   2.890   1.349
  487TIP3    H1 1406   4.755   2.906   1.274
  487TIP3    H2 1407   4.792   2.801   1.376
  488TIP3   OH2 1408   6.717   2.276   2.238
  488TIP3    H1 1409   6.671   2.317   2.165
  488TIP3    H2 1410   6.763   2.349   2.281
  489TIP3   OH2 1411   1.239   6.293   3.058
  489TIP3    H1 1412   1.233   6.252   3.144
  489TIP3    H2 1413   1.332   6.306   3.043
  490TIP3   OH2 1414   1.196   7.373   3.659
  490TIP3    H1 1415   1.111   7.418   3.657
  490TIP3    H2 1416   1.225   7.382   3.750
  491TIP3   OH2 1417   0.712   1.792   5.644
  491TIP3    H1 1418   0.683   1.701   5.649
  491TIP3    H2 1419   0.699   1.827   5.732
  492TIP3   OH2 1420   8.031   0.702   3.278
  492TIP3    H1 1421   7.966   0.633   3.267
  492TIP3    H2 1422   8.077   0.679   3.359
  493TIP3   OH2 1423   1.829   3.050   2.139
  493TIP3    H1 1424   1.923   3.057   2.156
  493TIP3    H2 1425   1.823   3.040   2.044
  494TIP3   OH2 1426   5.341   3.903   3.379
  494TIP3    H1 1427   5.286   3.975   3.410
  494TIP3    H2 1428   5.320   3.831   3.438
  495TIP3   OH2 1429   2.849   5.770   3.529
  495TIP3    H1 1430   2.940   5.761   3.559
  495TIP3    H2 1431   2.847   5.855   3.486
  496TIP3   OH2 1432   1.533   4.000   2.070
  496TIP3    H1 1433   1.580   3.942   2.011
  496TIP3    H2 1434   1.558   3.971   2.158
  497TIP3   OH2 1435   1.420   3.962   2.804
  497TIP3    H1 1436   1.477   4.010   2.745
  497TIP3    H2 1437   1.353   4.025   2.829
  498TIP3   OH2 1438   3.664   6.294   1.691
  498TIP3    H1 1439   3.639   6.378   1.729
  498TIP3    H2 1440   3.721   6.317   1.618
  499TIP3   OH2 1441   6.466   7.401   0.502
  499TIP3    H1 1442   6.470   7.459   0.426
  499TIP3    H2 1443   6.556   7.372   0.515
  500TIP3   OH2 1444   3.727   4.496   1.783
  500TIP3    H1 1445   3.792   4.517   1.850
  500TIP3    H2 1446   3.769   4.429   1.729
  501TIP3   OH2 1447   3.495   4.082   5.806
  501TIP3    H1 1448   3.542   4.134   5.741
  501TIP3    H2 1449   3.408   4.069   5.768
  502TIP3   OH2 1450   5.397   4.477   3.821
  502TIP3    H1 1451   5.391   4.488   3.727
  502TIP3    H2 1452   5.313   4.439   3.847
  503TIP3   OH2 1453   7.328   1.026   4.422
  503TIP3    H1 1454   7.382   1.057   4.494
  503TIP3    H2 1455   7.311   0.934   4.441
  504TIP3   OH2 1456   2.590   6.623   3.410
  504TIP3    H1 1457   2.655   6.654   3.472
  504TIP3    H2 1458   2.641   6.582   3.340
  505TIP3   OH2 1459   2.108   0.230   2.842
  505TIP3    H1 1460   2.100   0.139   2.813
  505TIP3    H2 1461   2.077   0.229   2.932
  506TIP3   OH2 1462   1.933   7.473   6.130
  506TIP3    H1 1463   1.849   7.518   6.141
  506TIP3    H2 1464   1.912   7.380   6.142
  507TIP3   OH2 1465   3.216   6.126   3.698
  507TIP3    H1 1466   3.151   6.073   3.745
  507TIP3    H2 1467   3.277   6.062   3.661
  508TIP3   OH2 1468   6.903   3.672   3.406
  508TIP3    H1 1469   6.976   3.627   3.450
  508TIP3    H2 1470   6.897   3.628   3.321
  509TIP3   OH2 1471   7.243   7.795   6.584
  509TIP3    H1 1472   7.327   7.771   6.623
  509TIP3    H2 1473   7.193   7.714   6.581
  510TIP3   OH2 1474   2.642   3.665   2.477
  510TIP3    H1 1475   2.656   3.617   2.395
  510TIP3    H2 1476   2.661   3.756   2.454
  511TIP3   OH2 1477   6.311   5.460   4.429
  511TIP3    H1 1478   6.293   5.501   4.513
  511TIP3    H2 1479   6.404   5.477   4.414
  512TIP3   OH2 1480   2.839   7.244   0.947
  512TIP3    H1 1481   2.756   7.270   0.986
  512TIP3    H2 1482   2.903   7.308   0.979
  513TIP3   OH2 1483   8.104   3.315   3.642
  513TIP3    H1 1484   8.181   3.327   3.587
  513TIP3    H2 1485   8.070   3.403   3.656
  514TIP3   OH2 1486   5.377   5.764   0.536
  514TIP3    H1 1487   5.320   5.706   0.485
  514TIP3    H2 1488   5.445   5.706   0.571
  515TIP3   OH2 1489   5.318   6.852   1.615
  515TIP3    H1 1490   5.363   6.924   1.658
  515TIP3    H2 1491   5.344   6.859   1.523
  516TIP3   OH2 1492   5.357   5.466   5.598
  516TIP3    H1 1493   5.338   5.540   5.540
  516TIP3    H2 1494   5.452   5.462   5.602
  517TIP3   OH2 1495   7.853   7.109   6.552
  517TIP3    H1 1496   7.802   7.167   6.609
  517TIP3    H2 1497   7.795   7.037   6.532
  518TIP3   OH2 1498   2.841   1.228   0.294
  518TIP3    H1 1499   2.918   1.283   0.286
  518TIP3    H2 1500   2.803   1.250   0.379
  519TIP3   OH2 1501   4.464   2.056   6.686
  519TIP3    H1 1502   4.514   1.982   6.721
  519TIP3    H2 1503   4.401   2.077   6.756
  520TIP3   OH2 1504   4.732   7.723   4.680
  520TIP3    H1 1505   4.820   7.696   4.706
  520TIP3    H2 1506   4.743   7.761   4.592
  521TIP3   OH2 1507   2.624   6.256   2.345
  521TIP3    H1 1508   2.565   6.311   2.397
  521TIP3    H2 1509   2.588   6.167   2.355
  522TIP3   OH2 1510   7.784   4.800   4.188
  522TIP3    H1 1511   7.748   4.758   4.110
  522TIP3    H2 1512   7.791   4.730   4.253
  523TIP3   OH2 1513   4.759   5.898   4.144
  523TIP3    H1 1514   4.800   5.846   4.212
  523TIP3    H2 1515   4.707   5.963   4.191
  524TIP3   OH2 1516   5.257   3.399   5.568
  524TIP3    H1 1517   5.297   3.322   5.527
  524TIP3    H2 1518   5.181   3.418   5.513
  525TIP3   OH2 1519   5.029   7.821   3.019
  525TIP3    H1 1520   5.098   7.873   2.977
  525TIP3    H2 1521   5.061   7.806   3.108
  526TIP3   OH2 1522   2.258   1.869   1.539
  526TIP3    H1 1523   2.286   1.809   1.608
  526TIP3    H2 1524   2.185   1.823   1.497
  527TIP3   OH2 1525   4.779   2.609   1.125
  527TIP3    H1 1526   4.810   2.521   1.145
  527TIP3    H2 1527   4.731   2.600   1.042
  528TIP3   OH2 1528   1.935   3.414   4.496
  528TIP3    H1 1529   1.866   3.462   4.543
  528TIP3    H2 1530   1.887   3.353   4.439
  529TIP3   OH2 1531   2.137   3.940   1.123
  529TIP3    H1 1532   2.132   3.850   1.089
  529TIP3    H2 1533   2.106   3.994   1.050
  530TIP3   OH2 1534   0.709   2.631   4.758
  530TIP3    H1 1535   0.686   2.682   4.681
  530TIP3    H2 1536   0.651   2.664   4.827
  531TIP3   OH2 1537   2.782   5.877   4.113
  531TIP3    H1 1538   2.744   5.815   4.175
  531TIP3    H2 1539   2.856   5.831   4.075
  532TIP3   OH2 1540   2.116   6.951   4.425
  532TIP3    H1 1541   2.198   6.917   4.389
  532TIP3    H2 1542   2.140   6.982   4.513
  533TIP3   OH2 1543   5.728   6.601   1.418
  533TIP3    H1 1544   5.660   6.615   1.484
  533TIP3    H2 1545   5.724   6.678   1.363
  534TIP3   OH2 1546   8.148   1.890   2.151
  534TIP3    H1 1547   8.142   1.966   2.094
  534TIP3    H2 1548   8.058   1.859   2.160
  535TIP3   OH2 1549   4.119   2.871   3.436
  535TIP3    H1 1550   4.200   2.916   3.463
  535TIP3    H2 1551   4.126   2.866   3.341
  536TIP3   OH2 1552   7.942   1.999   0.447
  536TIP3    H1 1553   7.942   1.956   0.362
  536TIP3    H2 1554   8.023   1.971   0.488
  537TIP3   OH2 1555   6.987   7.350   1.130
  537TIP3    H1 1556   6.961   7.430   1.175
  537TIP3    H2 1557   6.905   7.308   1.105
  538TIP3   OH2 1558   0.793   1.720   5.376
  538TIP3    H1 1559   0.778   1.741   5.468
  538TIP3    H2 1560   0.711   1.680   5.347
  539TIP3   OH2 1561   4.208   6.096   3.118
  539TIP3    H1 1562   4.292   6.141   3.131
  539TIP3    H2 1563   4.147   6.166   3.095
  540TIP3   OH2 1564   0.805   6.305   5.775
  540TIP3    H1 1565   0.712   6.281   5.778
  540TIP3    H2 1566   0.841   6.253   5.703
  541TIP3   OH2 1567   7.669   3.479   1.639
  541TIP3    H1 1568   7.616   3.537   1.694
  541TIP3    H2 1569   7.611   3.405   1.620
  542TIP3   OH2 1570   5.789   4.133   0.525
  542TIP3    H1 1571   5.884   4.122   0.522
  542TIP3    H2 1572   5.764   4.090   0.607
  543TIP3   OH2 1573   4.907   1.382   2.410
  543TIP3    H1 1574   4.833   1.322   2.407
  543TIP3    H2 1575   4.871   1.467   2.382
  544TIP3   OH2 1576   2.403   2.263   6.458
  544TIP3    H1 1577   2.375   2.224   6.541
  544TIP3    H2 1578   2.394   2.357   6.472
  545TIP3   OH2 1579   3.816   7.542   1.439
  545TIP3    H1 1580   3.838   7.631   1.464
  545TIP3    H2 1581   3.723   7.533   1.460
  546TIP3   OH2 1582   1.591   0.104   3.988
  546TIP3    H1 1583   1.559   0.104   3.897
  546TIP3    H2 1584   1.530   0.047   4.034
  547TIP3   OH2 1585   2.414   5.793   2.900
  547TIP3    H1 1586   2.433   5.749   2.983
  547TIP3    H2 1587   2.499   5.815   2.864
  548TIP3   OH2 1588   0.421   7.048   4.911
  548TIP3    H1 1589   0.432   7.040   5.006
  548TIP3    H2 1590   0.332   7.082   4.900
  549TIP3   OH2 1591   3.920   2.536   4.073
  549TIP3    H1 1592   3.832   2.570   4.060
  549TIP3    H2 1593   3.959   2.594   4.139
  550TIP3   OH2 1594   6.282   0.357   6.125
  550TIP3    H1 1595   6.295   0.274   6.171
  550TIP3    H2 1596   6.188   0.359   6.105
  551TIP3   OH2 1597   5.296   7.294   4.093
  551TIP3    H1 1598   5.341   7.247   4.163
  551TIP3    H2 1599   5.247   7.363   4.138
  552TIP3   OH2 1600   1.068   0.728   2.171
  552TIP3    H1 1601   1.005   0.705   2.239
  552TIP3    H2 1602   1.128   0.789   2.215
  553TIP3   OH2 1603   4.091   3.273   0.000
  553TIP3    H1 1604   4.153   3.334   0.041
  553TIP3    H2 1605   4.144   3.196  -0.021
  554TIP3   OH2 1606   6.428   0.667   5.533
  554TIP3    H1 1607   6.342   0.633   5.555
  554TIP3    H2 1608   6.489   0.610   5.580
  555TIP3   OH2 1609   5.092   3.194   1.680
  555TIP3    H1 1610   5.016   3.204   1.623
  555TIP3    H2 1611   5.075   3.113   1.728
  556TIP3   OH2 1612   4.362   0.814   4.347
  556TIP3    H1 1613   4.428   0.862   4.295
  556TIP3    H2 1614   4.414   0.758   4.405
  557TIP3   OH2 1615   1.572   7.408   0.772
  557TIP3    H1 1616   1.564   7.498   0.742
  557TIP3    H2 1617   1.664   7.398   0.796
  558TIP3   OH2 1618   7.595   5.039   5.765
  558TIP3    H1 1619   7.534   5.031   5.693
  558TIP3    H2 1620   7.660   4.970   5.750
  559TIP3   OH2 1621   5.683   6.839   1.307
  559TIP3    H1 1622   5.686   6.871   1.217
  559TIP3    H2 1623   5.768   6.861   1.345
  560TIP3   OH2 1624   5.960   1.466   2.666
  560TIP3    H1 1625   6.029   1.513   2.713
  560TIP3    H2 1626   5.992   1.460   2.576
  561TIP3   OH2 1627   4.968   6.318   4.076
  561TIP3    H1 1628   4.998   6.244   4.129
  561TIP3    H2 1629   4.894   6.354   4.125
  562TIP3   OH2 1630   5.599   2.593   4.712
  562TIP3    H1 1631   5.604   2.569   4.804
  562TIP3    H2 1632   5.510   2.571   4.685
  563TIP3   OH2 1633   7.038   7.478   2.325
  563TIP3    H1 1634   7.030   7.395   2.372
  563TIP3    H2 1635   7.130   7.503   2.334
  564TIP3   OH2 1636   7.009   1.514   0.412
  564TIP3    H1 1637   6.968   1.452   0.351
  564TIP3    H2 1638   7.024   1.593   0.360
  565TIP3   OH2 1639   7.463   0.170   5.159
  565TIP3    H1 1640   7.492   0.082   5.132
  565TIP3    H2 1641   7.429   0.209   5.078
  566TIP3   OH2 1642   3.394   3.951   0.179
  566TIP3    H1 1643   3.314   3.905   0.153
  566TIP3    H2 1644   3.431   3.983   0.097
  567TIP3   OH2 1645   5.532   6.453   3.119
  567TIP3    H1 1646   5.563   6.534   3.159
  567TIP3    H2 1647   5.444   6.442   3.152
  568TIP3   OH2 1648   4.373   4.376   5.878
  568TIP3    H1 1649   4.413   4.395   5.962
  568TIP3    H2 1650   4.443   4.339   5.825
  569TIP3   OH2 1651   3.517   1.822   2.235
  569TIP3    H1 1652   3.438   1.831   2.182
  569TIP3    H2 1653   3.534   1.728   2.237
  570TIP3   OH2 1654   2.907   1.483   1.932
  570TIP3    H1 1655   2.877   1.416   1.871
  570TIP3    H2 1656   2.858   1.467   2.012
  571TIP3   OH2 1657   0.438   0.728   5.995
  571TIP3    H1 1658   0.369   0.776   6.039
  571TIP3    H2 1659   0.496   0.796   5.959
  572TIP3   OH2 1660   6.680   2.657   5.059
  572TIP3    H1 1661   6.617   2.718   5.019
  572TIP3    H2 1662   6.734   2.627   4.985
  573TIP3   OH2 1663   7.806   3.971   1.533
  573TIP3    H1 1664   7.763   4.039   1.585
  573TIP3    H2 1665   7.845   3.913   1.598
  574TIP3   OH2 1666   0.914   4.112   2.974
  574TIP3    H1 1667   0.880   4.026   3.000
  574TIP3    H2 1668   1.008   4.107   2.993
  575TIP3   OH2 1669   5.223   4.843   2.143
  575TIP3    H1 1670   5.315   4.869   2.132
  575TIP3    H2 1671   5.194   4.888   2.222
  576TIP3   OH2 1672   1.023   6.302   1.140
  576TIP3    H1 1673   1.051   6.234   1.080
  576TIP3    H2 1674   0.929   6.311   1.124
  577TIP3   OH2 1675   4.252   5.336   4.730
  577TIP3    H1 1676   4.196   5.397   4.778
  577TIP3    H2 1677   4.336   5.339   4.777
  578TIP3   OH2 1678   6.155   2.880   2.159
  578TIP3    H1 1679   6.166   2.969   2.126
  578TIP3    H2 1680   6.243   2.853   2.184
  579TIP3   OH2 1681   6.373   5.200   0.718
  579TIP3    H1 1682   6.413   5.218   0.633
  579TIP3    H2 1683   6.279   5.196   0.700
  580TIP3   OH2 1684   3.540   2.720   2.363
  580TIP3    H1 1685   3.528   2.735   2.457
  580TIP3    H2 1686   3.452   2.701   2.331
  581TIP3   OH2 1687   1.580   6.553   3.656
  581TIP3    H1 1688   1.646   6.610   3.696
  581TIP3    H2 1689   1.589   6.470   3.702
  582TIP3   OH2 1690   3.937   7.222   0.113
  582TIP3    H1 1691   4.025   7.259   0.100
  582TIP3    H2 1692   3.952   7.128   0.118
  583TIP3   OH2 1693   4.240   3.284   0.755
  583TIP3    H1 1694   4.315   3.227   0.772
  583TIP3    H2 1695   4.226   3.331   0.838
  584TIP3   OH2 1696   3.262   6.474   2.033
  584TIP3    H1 1697   3.237   6.400   1.978
  584TIP3    H2 1698   3.333   6.441   2.087
  585TIP3   OH2 1699   1.066   2.667   6.234
  585TIP3    H1 1700   1.087   2.758   6.217
  585TIP3    H2 1701   0.986   2.650   6.185
  586TIP3   OH2 1702   7.421   6.647   5.676
  586TIP3    H1 1703   7.509   6.620   5.702
  586TIP3    H2 1704   7.427   6.742   5.665
  587TIP3   OH2 1705   1.146   2.635   5.755
  587TIP3    H1 1706   1.177   2.556   5.711
  587TIP3    H2 1707   1.087   2.603   5.823
  588TIP3   OH2 1708   4.281   0.050   4.068
  588TIP3    H1 1709   4.363   0.060   4.019
  588TIP3    H2 1710   4.238  -0.025   4.027
  589TIP3   OH2 1711   0.565   2.293   6.079
  589TIP3    H1 1712   0.602   2.339   6.004
  589TIP3    H2 1713   0.498   2.237   6.042
  590TIP3   OH2 1714   5.622   4.134   4.918
  590TIP3    H1 1715   5.576   4.054   4.892
  590TIP3    H2 1716   5.661   4.166   4.837
  591TIP3   OH2 1717   2.643   3.756   6.723
  591TIP3    H1 1718   2.655   3.827   6.787
  591TIP3    H2 1719   2.714   3.695   6.741
  592TIP3   OH2 1720   4.262   7.118   4.342
  592TIP3    H1 1721   4.194   7.052   4.328
  592TIP3    H2 1722   4.342   7.067   4.354
  593TIP3   OH2 1723   3.877   6.889   5.542
  593TIP3    H1 1724   3.972   6.876   5.544
  593TIP3    H2 1725   3.848   6.863   5.629
  594TIP3   OH2 1726   2.852   5.524   3.369
  594TIP3    H1 1727   2.940   5.488   3.384
  594TIP3    H2 1728   2.845   5.596   3.432
  595TIP3   OH2 1729   7.287   3.161   1.031
  595TIP3    H1 1730   7.275   3.100   1.104
  595TIP3    H2 1731   7.344   3.115   0.970
  596TIP3   OH2 1732   1.013   2.887   4.026
  596TIP3    H1 1733   0.968   2.914   4.105
  596TIP3    H2 1734   1.031   2.794   4.040
  597TIP3   OH2 1735   5.691   6.038   5.271
  597TIP3    H1 1736   5.617   6.039   5.332
  597TIP3    H2 1737   5.728   6.126   5.277
  598TIP3   OH2 1738   0.035   3.388   3.529
  598TIP3    H1 1739   0.101   3.329   3.495
  598TIP3    H2 1740   0.042   3.466   3.474
  599TIP3   OH2 1741   5.232   1.008   0.272
  599TIP3    H1 1742   5.303   1.008   0.207
  599TIP3    H2 1743   5.270   1.053   0.348
  600TIP3   OH2 1744   4.418   7.740   4.719
  600TIP3    H1 1745   4.410   7.835   4.730
  600TIP3    H2 1746   4.500   7.718   4.763
  601TIP3   OH2 1747   2.966   5.367   6.658
  601TIP3    H1 1748   3.007   5.445   6.695
  601TIP3    H2 1749   2.920   5.400   6.580
  602TIP3   OH2 1750   5.268   3.446   3.678
  602TIP3    H1 1751   5.258   3.405   3.764
  602TIP3    H2 1752   5.312   3.379   3.624
  603TIP3   OH2 1753   3.682   2.650   6.374
  603TIP3    H1 1754   3.730   2.732   6.365
  603TIP3    H2 1755   3.603   2.663   6.322
  604TIP3   OH2 1756   4.065   0.301   5.075
  604TIP3    H1 1757   4.137   0.320   5.136
  604TIP3    H2 1758   4.017   0.383   5.069
  605TIP3   OH2 1759   1.571   2.080   0.099
  605TIP3    H1 1760   1.615   2.165   0.103
  605TIP3    H2 1761   1.482   2.097   0.128
  606TIP3   OH2 1762   4.689   5.931   0.276
  606TIP3    H1 1763   4.606   5.898   0.308
  606TIP3    H2 1764   4.747   5.855   0.276
  607TIP3   OH2 1765   3.330   7.395   2.175
  607TIP3    H1 1766   3.301   7.310   2.206
  607TIP3    H2 1767   3.403   7.418   2.232
  608TIP3   OH2 1768   6.392   4.145   0.123
  608TIP3    H1 1769   6.312   4.175   0.080
  608TIP3    H2 1770   6.365   4.068   0.173
  609TIP3   OH2 1771   3.019   7.038   3.472
  609TIP3    H1 1772   3.099   7.091   3.471
  609TIP3    H2 1773   3.050   6.948   3.457
  610TIP3   OH2 1774   6.441   0.703   3.273
  610TIP3    H1 1775   6.449   0.640   3.345
  610TIP3    H2 1776   6.488   0.661   3.200
  611TIP3   OH2 1777   0.059   2.763   1.805
  611TIP3    H1 1778  -0.006   2.727   1.865
  611TIP3    H2 1779   0.072   2.694   1.740
  612TIP3   OH2 1780   2.123   6.592   6.158
  612TIP3    H1 1781   2.123   6.542   6.239
  612TIP3    H2 1782   2.152   6.530   6.091
  613TIP3   OH2 1783   6.818   7.514   3.874
  613TIP3    H1 1784   6.828   7.545   3.784
  613TIP3    H2 1785   6.761   7.579   3.915
  614TIP3   OH2 1786   0.640   3.831   1.933
  614TIP3    H1 1787   0.686   3.859   2.012
  614TIP3    H2 1788   0.707   3.786   1.880
  615TIP3   OH2 1789   4.751   6.051   6.237
  615TIP3    H1 1790   4.818   5.993   6.201
  615TIP3    H2 1791   4.717   6.004   6.313
  616TIP3   OH2 1792   5.817   7.696   0.137
  616TIP3    H1 1793   5.909   7.682   0.113
  616TIP3    H2 1794   5.817   7.698   0.233
  617TIP3   OH2 1795   6.749   2.850   6.319
  617TIP3    H1 1796   6.766   2.786   6.389
  617TIP3    H2 1797   6.656   2.872   6.330
  618TIP3   OH2 1798   7.486   1.865   2.127
  618TIP3    H1 1799   7.557   1.890   2.067
  618TIP3    H2 1800   7.415   1.926   2.107
  619TIP3   OH2 1801   7.625   2.634   1.278
  619TIP3    H1 1802   7.721   2.630   1.271
  619TIP3    H2 1803   7.597   2.677   1.197
  620TIP3   OH2 1804   5.172   5.512   3.927
  620TIP3    H1 1805   5.260   5.505   3.890
  620TIP3    H2 1806   5.118   5.543   3.855
  621TIP3   OH2 1807   4.667   7.439   3.272
  621TIP3    H1 1808   4.711   7.515   3.236
  621TIP3    H2 1809   4.684   7.443   3.366
  622TIP3   OH2 1810   0.838   7.623   1.680
  622TIP3    H1 1811   0.817   7.568   1.605
  622TIP3    H2 1812   0.806   7.710   1.656
  623TIP3   OH2 1813   6.547   6.628   4.951
  623TIP3    H1 1814   6.528   6.602   4.861
  623TIP3    H2 1815   6.639   6.654   4.949
  624TIP3   OH2 1816   7.079   7.595   1.888
  624TIP3    H1 1817   7.115   7.676   1.854
  624TIP3    H2 1818   7.154   7.549   1.926
  625TIP3   OH2 1819   4.158   7.484   3.979
  625TIP3    H1 1820   4.220   7.541   4.026
  625TIP3    H2 1821   4.177   7.396   4.013
  626TIP3   OH2 1822   3.563   2.599   4.636
  626TIP3    H1 1823   3.609   2.550   4.569
  626TIP3    H2 1824   3.559   2.689   4.603
  627TIP3   OH2 1825   4.933   7.276   4.034
  627TIP3    H1 1826   5.004   7.338   4.046
  627TIP3    H2 1827   4.951   7.206   4.097
  628TIP3   OH2 1828   7.885   5.850   6.282
  628TIP3    H1 1829   7.919   5.854   6.371
  628TIP3    H2 1830   7.956   5.811   6.231
  629TIP3   OH2 1831   2.488   6.318   4.275
  629TIP3    H1 1832   2.577   6.347   4.296
  629TIP3    H2 1833   2.482   6.328   4.180
  630TIP3   OH2 1834   4.565   1.453   3.813
  630TIP3    H1 1835   4.559   1.436   3.719
  630TIP3    H2 1836   4.616   1.533   3.820
  631TIP3   OH2 1837   0.702   0.534   4.548
  631TIP3    H1 1838   0.793   0.504   4.552
  631TIP3    H2 1839   0.670   0.502   4.463
  632TIP3   OH2 1840   3.392   1.795   2.708
  632TIP3    H1 1841   3.487   1.798   2.722
  632TIP3    H2 1842   3.381   1.729   2.640
  633TIP3   OH2 1843   6.434   0.244   4.952
  633TIP3    H1 1844   6.501   0.274   4.891
  633TIP3    H2 1845   6.455   0.289   5.034
  634TIP3   OH2 1846   8.173   3.961   4.076
  634TIP3    H1 1847   8.180   4.057   4.076
  634TIP3    H2 1848   8.263   3.931   4.060
  635TIP3   OH2 1849   5.866   6.875   0.726
  635TIP3    H1 1850   5.772   6.881   0.742
  635TIP3    H2 1851   5.906   6.928   0.795
  636TIP3   OH2 1852   3.600   4.576   1.199
  636TIP3    H1 1853   3.687   4.586   1.237
  636TIP3    H2 1854   3.594   4.647   1.135
  637TIP3   OH2 1855   7.573   4.670   1.485
  637TIP3    H1 1856   7.555   4.581   1.456
  637TIP3    H2 1857   7.577   4.721   1.405
  638TIP3   OH2 1858   4.386   5.204   3.823
  638TIP3    H1 1859   4.459   5.246   3.868
  638TIP3    H2 1860   4.369   5.124   3.872
  639TIP3   OH2 1861   5.753   1.747   2.158
  639TIP3    H1 1862   5.790   1.802   2.227
  639TIP3    H2 1863   5.815   1.675   2.149
  640TIP3   OH2 1864   5.656   7.269   2.034
  640TIP3    H1 1865   5.672   7.361   2.011
  640TIP3    H2 1866   5.690   7.261   2.123
  641TIP3   OH2 1867   5.554   0.763   3.061
  641TIP3    H1 1868   5.588   0.789   3.146
  641TIP3    H2 1869   5.621   0.791   2.998
  642TIP3   OH2 1870   0.826   5.315   4.706
  642TIP3    H1 1871   0.861   5.370   4.636
  642TIP3    H2 1872   0.731   5.321   4.696
  643TIP3   OH2 1873   0.701   4.343   4.637
  643TIP3    H1 1874   0.778   4.396   4.614
  643TIP3    H2 1875   0.632   4.407   4.655
  644TIP3   OH2 1876   3.048   5.258   4.943
  644TIP3    H1 1877   3.044   5.171   4.905
  644TIP3    H2 1878   2.965   5.299   4.919
  645TIP3   OH2 1879   7.518   7.843   4.242
  645TIP3    H1 1880   7.545   7.799   4.323
  645TIP3    H2 1881   7.510   7.772   4.178
  646TIP3   OH2 1882   7.344   1.429   0.716
  646TIP3    H1 1883   7.376   1.503   0.664
  646TIP3    H2 1884   7.404   1.357   0.696
  647TIP3   OH2 1885   5.095   7.382   1.109
  647TIP3    H1 1886   5.063   7.447   1.047
  647TIP3    H2 1887   5.027   7.375   1.175
  648TIP3   OH2 1888   6.039   2.516   0.647
  648TIP3    H1 1889   5.999   2.439   0.608
  648TIP3    H2 1890   6.063   2.571   0.573
  649TIP3   OH2 1891   6.613   4.730   3.053
  649TIP3    H1 1892   6.519   4.713   3.051
  649TIP3    H2 1893   6.632   4.767   2.967
  650TIP3   OH2 1894   8.008   2.908   6.546
  650TIP3    H1 1895   7.917   2.916   6.518
  650TIP3    H2 1896   8.058   2.907   6.464
  651TIP3   OH2 1897   6.776   4.756   4.596
  651TIP3    H1 1898   6.859   4.710   4.585
  651TIP3    H2 1899   6.783   4.831   4.536
  652TIP3   OH2 1900   5.305   4.861   2.866
  652TIP3    H1 1901   5.255   4.928   2.914
  652TIP3    H2 1902   5.334   4.906   2.787
  653TIP3   OH2 1903   1.234   0.058   4.490
  653TIP3    H1 1904   1.144   0.035   4.464
  653TIP3    H2 1905   1.260  -0.012   4.549
  654TIP3   OH2 1906   6.597   7.004   4.506
  654TIP3    H1 1907   6.565   7.093   4.520
  654TIP3    H2 1908   6.657   7.012   4.432
  655TIP3   OH2 1909   0.068   0.046   2.627
  655TIP3    H1 1910   0.161   0.065   2.610
  655TIP3    H2 1911   0.023   0.080   2.549
  656TIP3   OH2 1912   8.089   3.161   0.195
  656TIP3    H1 1913   8.030   3.221   0.148
  656TIP3    H2 1914   8.088   3.192   0.285
  657TIP3   OH2 1915   7.258   7.424   2.622
  657TIP3    H1 1916   7.338   7.383   2.653
  657TIP3    H2 1917   7.267   7.426   2.527
  658TIP3   OH2 1918   0.572   3.297   6.318
  658TIP3    H1 1919   0.618   3.222   6.279
  658TIP3    H2 1920   0.494   3.308   6.262
  659TIP3   OH2 1921   6.533   4.587   2.594
  659TIP3    H1 1922   6.517   4.597   2.688
  659TIP3    H2 1923   6.456   4.541   2.561
  660TIP3   OH2 1924   0.380   7.742   4.930
  660TIP3    H1 1925   0.447   7.718   4.867
  660TIP3    H2 1926   0.373   7.837   4.923
  661TIP3   OH2 1927   4.415   0.888   3.069
  661TIP3    H1 1928   4.360   0.967   3.068
  661TIP3    H2 1929   4.383   0.838   3.144
  662TIP3   OH2 1930   0.264   3.601   5.844
  662TIP3    H1 1931   0.328   3.662   5.881
  662TIP3    H2 1932   0.310   3.559   5.771
  663TIP3   OH2 1933   8.026   2.371   2.476
  663TIP3    H1 1934   7.962   2.400   2.410
  663TIP3    H2 1935   8.050   2.283   2.448
  664TIP3   OH2 1936   1.968   3.775   5.483
  664TIP3    H1 1937   1.941   3.864   5.463
  664TIP3    H2 1938   2.055   3.766   5.444
  665TIP3   OH2 1939   1.849   6.310   4.302
  665TIP3    H1 1940   1.859   6.342   4.392
  665TIP3    H2 1941   1.934   6.271   4.282
  666TIP3   OH2 1942   4.146   6.034   6.072
  666TIP3    H1 1943   4.180   6.016   6.160
  666TIP3    H2 1944   4.221   6.020   6.014
  667TIP3   OH2 1945   0.326   3.161   1.766
  667TIP3    H1 1946   0.381   3.187   1.839
  667TIP3    H2 1947   0.243   3.133   1.806
  668TIP3   OH2 1948   5.065   7.804   0.100
  668TIP3    H1 1949   5.003   7.844   0.160
  668TIP3    H2 1950   5.090   7.721   0.142
  669TIP3   OH2 1951   1.331   7.429   2.743
  669TIP3    H1 1952   1.245   7.469   2.757
  669TIP3    H2 1953   1.386   7.501   2.715
  670TIP3   OH2 1954   4.710   2.248   4.997
  670TIP3    H1 1955   4.790   2.196   5.002
  670TIP3    H2 1956   4.684   2.262   5.088
  671TIP3   OH2 1957   3.619   0.322   0.842
  671TIP3    H1 1958   3.655   0.281   0.763
  671TIP3    H2 1959   3.673   0.400   0.854
  672TIP3   OH2 1960   2.797   3.500   3.796
  672TIP3    H1 1961   2.850   3.457   3.729
  672TIP3    H2 1962   2.710   3.507   3.758
  673TIP3   OH2 1963   6.132   5.777   0.339
  673TIP3    H1 1964   6.104   5.687   0.356
  673TIP3    H2 1965   6.189   5.798   0.413
  674TIP3   OH2 1966   7.135   0.123   1.784
  674TIP3    H1 1967   7.152   0.123   1.690
  674TIP3    H2 1968   7.221   0.133   1.824
  675TIP3   OH2 1969   7.375   2.775   1.721
  675TIP3    H1 1970   7.444   2.760   1.786
  675TIP3    H2 1971   7.304   2.814   1.772
  676TIP3   OH2 1972   1.583   2.362   3.653
  676TIP3    H1 1973   1.660   2.385   3.601
  676TIP3    H2 1974   1.572   2.435   3.714
  677TIP3   OH2 1975   5.916   5.919   2.438
  677TIP3    H1 1976   5.936   6.002   2.394
  677TIP3    H2 1977   5.854   5.942   2.507
  678TIP3   OH2 1978   3.697   5.596   3.947
  678TIP3    H1 1979   3.674   5.508   3.918
  678TIP3    H2 1980   3.695   5.591   4.042
  679TIP3   OH2 1981   5.684   3.804   2.284
  679TIP3    H1 1982   5.729   3.883   2.252
  679TIP3    H2 1983   5.620   3.837   2.347
  680TIP3   OH2 1984   6.055   4.030   0.719
  680TIP3    H1 1985   6.143   4.007   0.688
  680TIP3    H2 1986   6.014   3.946   0.739
  681TIP3   OH2 1987   2.362   3.369   1.640
  681TIP3    H1 1988   2.383   3.384   1.732
  681TIP3    H2 1989   2.381   3.276   1.626
  682TIP3   OH2 1990   5.456   0.789   1.564
  682TIP3    H1 1991   5.390   0.784   1.496
  682TIP3    H2 1992   5.532   0.830   1.522
  683TIP3   OH2 1993   4.022   5.652   2.456
  683TIP3    H1 1994   4.039   5.681   2.366
  683TIP3    H2 1995   4.059   5.721   2.511
  684TIP3   OH2 1996   2.772   7.080   6.096
  684TIP3    H1 1997   2.754   6.987   6.080
  684TIP3    H2 1998   2.685   7.119   6.107
  685TIP3   OH2 1999   2.955   3.698   3.589
  685TIP3    H1 2000   2.910   3.619   3.560
  685TIP3    H2 2001   2.973   3.747   3.509
  686TIP3   OH2 2002   0.294   0.713   6.546
  686TIP3    H1 2003   0.366   0.773   6.568
  686TIP3    H2 2004   0.327   0.664   6.470
  687TIP3   OH2 2005   6.038   6.141   3.710
  687TIP3    H1 2006   6.130   6.129   3.685
  687TIP3    H2 2007   6.015   6.226   3.674
  688TIP3   OH2 2008   5.081   5.426   1.566
  688TIP3    H1 2009   5.076   5.391   1.478
  688TIP3    H2 2010   4.993   5.460   1.583
  689TIP3   OH2 2011   5.447   3.058   0.077
  689TIP3    H1 2012   5.416   2.996   0.011
  689TIP3    H2 2013   5.437   3.144   0.035
  690TIP3   OH2 2014   2.986   3.828   0.753
  690TIP3    H1 2015   3.064   3.883   0.744
  690TIP3    H2 2016   2.967   3.830   0.847
  691TIP3   OH2 2017   1.580   1.902   5.644
  691TIP3    H1 2018   1.531   1.863   5.716
  691TIP3    H2 2019   1.559   1.847   5.568
  692TIP3   OH2 2020   7.065   4.964   4.366
  692TIP3    H1 2021   7.037   5.003   4.284
  692TIP3    H2 2022   7.113   5.034   4.411
  693TIP3   OH2 2023   0.128   6.880   1.594
  693TIP3    H1 2024   0.185   6.832   1.534
  693TIP3    H2 2025   0.143   6.839   1.679
  694TIP3   OH2 2026   4.657   1.984   1.468
  694TIP3    H1 2027   4.621   1.906   1.426
  694TIP3    H2 2028   4.631   2.056   1.411
  695TIP3   OH2 2029   5.799   3.498   5.439
  695TIP3    H1 2030   5.745   3.571   5.470
  695TIP3    H2 2031   5.738   3.440   5.394
  696TIP3   OH2 2032   3.666   5.342   5.384
  696TIP3    H1 2033   3.590   5.310   5.433
  696TIP3    H2 2034   3.672   5.284   5.308
  697TIP3   OH2 2035   0.542   5.411   3.542
  697TIP3    H1 2036   0.545   5.341   3.476
  697TIP3    H2 2037   0.622   5.461   3.526
  698TIP3   OH2 2038   8.287   5.728   3.375
  698TIP3    H1 2039   8.308   5.721   3.282
  698TIP3    H2 2040   8.255   5.641   3.398
  699TIP3   OH2 2041   6.453   3.223   6.304
  699TIP3    H1 2042   6.509   3.248   6.230
  699TIP3    H2 2043   6.449   3.127   6.300
  700TIP3   OH2 2044   5.992   2.387   2.449
  700TIP3    H1 2045   6.009   2.459   2.389
  700TIP3    H2 2046   5.991   2.309   2.393
  701TIP3   OH2 2047   8.029   6.700   5.863
  701TIP3    H1 2048   7.969   6.655   5.803
  701TIP3    H2 2049   7.975   6.718   5.941
  702TIP3   OH2 2050   0.168   2.188   0.872
  702TIP3    H1 2051   0.208   2.215   0.954
  702TIP3    H2 2052   0.238   2.146   0.823
  703TIP3   OH2 2053   7.585   1.762   3.100
  703TIP3    H1 2054   7.529   1.816   3.156
  703TIP3    H2 2055   7.674   1.788   3.121
  704TIP3   OH2 2056   3.733   3.551   0.012
  704TIP3    H1 2057   3.818   3.588   0.037
  704TIP3    H2 2058   3.709   3.597  -0.068
  705TIP3   OH2 2059   7.068   4.647   5.652
  705TIP3    H1 2060   6.998   4.618   5.711
  705TIP3    H2 2061   7.049   4.604   5.569
  706TIP3   OH2 2062   4.896   0.877   4.479
  706TIP3    H1 2063   4.932   0.814   4.416
  706TIP3    H2 2064   4.895   0.960   4.432
  707TIP3   OH2 2065   4.548   4.359   5.567
  707TIP3    H1 2066   4.525   4.353   5.474
  707TIP3    H2 2067   4.643   4.347   5.569
  708TIP3   OH2 2068   7.175   2.505   5.779
  708TIP3    H1 2069   7.144   2.442   5.714
  708TIP3    H2 2070   7.271   2.499   5.775
  709TIP3   OH2 2071   7.947   4.305   2.063
  709TIP3    H1 2072   7.953   4.397   2.090
  709TIP3    H2 2073   7.873   4.271   2.114
  710TIP3   OH2 2074   6.445   5.025   2.712
  710TIP3    H1 2075   6.366   5.069   2.743
  710TIP3    H2 2076   6.516   5.067   2.761
  711TIP3   OH2 2077   7.114   7.183   3.733
  711TIP3    H1 2078   7.208   7.169   3.718
  711TIP3    H2 2079   7.106   7.278   3.742
  712TIP3   OH2 2080   0.650   3.329   5.105
  712TIP3    H1 2081   0.661   3.420   5.132
  712TIP3    H2 2082   0.731   3.286   5.134
  713TIP3   OH2 2083   7.033   2.477   2.217
  713TIP3    H1 2084   7.006   2.517   2.134
  713TIP3    H2 2085   6.952   2.470   2.268
  714TIP3   OH2 2086   5.791   6.524   4.003
  714TIP3    H1 2087   5.718   6.472   3.969
  714TIP3    H2 2088   5.791   6.505   4.097
  715TIP3   OH2 2089   0.968   6.407   5.384
  715TIP3    H1 2090   0.974   6.435   5.293
  715TIP3    H2 2091   1.047   6.355   5.398
  716TIP3   OH2 2092   1.166   1.643   2.235
  716TIP3    H1 2093   1.101   1.585   2.197
  716TIP3    H2 2094   1.250   1.606   2.207
  717TIP3   OH2 2095   2.996   7.708   3.384
  717TIP3    H1 2096   2.965   7.770   3.318
  717TIP3    H2 2097   2.933   7.715   3.456
  718TIP3   OH2 2098   2.847   6.475   4.117
  718TIP3    H1 2099   2.939   6.462   4.093
  718TIP3    H2 2100   2.842   6.567   4.142
  719TIP3   OH2 2101   5.174   3.810   3.059
  719TIP3    H1 2102   5.261   3.801   3.099
  719TIP3    H2 2103   5.137   3.722   3.063
  720TIP3   OH2 2104   0.939   4.459   4.598
  720TIP3    H1 2105   1.016   4.510   4.623
  720TIP3    H2 2106   0.909   4.499   4.516
  721TIP3   OH2 2107   5.634   6.734   0.919
  721TIP3    H1 2108   5.587   6.752   0.838
  721TIP3    H2 2109   5.644   6.638   0.920
  722TIP3   OH2 2110   1.563   1.866   2.461
  722TIP3    H1 2111   1.556   1.773   2.439
  722TIP3    H2 2112   1.633   1.870   2.526
  723TIP3   OH2 2113   4.864   5.096   0.753
  723TIP3    H1 2114   4.808   5.021   0.771
  723TIP3    H2 2115   4.945   5.077   0.799
  724TIP3   OH2 2116   7.466   3.313   4.235
  724TIP3    H1 2117   7.494   3.229   4.200
  724TIP3    H2 2118   7.506   3.378   4.176
  725TIP3   OH2 2119   5.491   1.515   1.240
  725TIP3    H1 2120   5.473   1.522   1.146
  725TIP3    H2 2121   5.534   1.430   1.250
  726TIP3   OH2 2122   7.395   6.627   0.677
  726TIP3    H1 2123   7.313   6.616   0.628
  726TIP3    H2 2124   7.430   6.539   0.684
  727TIP3   OH2 2125   0.561   4.359   2.553
  727TIP3    H1 2126   0.558   4.272   2.592
  727TIP3    H2 2127   0.640   4.358   2.499
  728TIP3   OH2 2128   2.333   7.400   0.726
  728TIP3    H1 2129   2.360   7.473   0.669
  728TIP3    H2 2130   2.414   7.350   0.739
  729TIP3   OH2 2131   3.506   3.280   6.649
  729TIP3    H1 2132   3.451   3.225   6.593
  729TIP3    H2 2133   3.522   3.226   6.727
  730TIP3   OH2 2134   2.800   7.331   1.724
  730TIP3    H1 2135   2.740   7.339   1.650
  730TIP3    H2 2136   2.841   7.245   1.712
  731TIP3   OH2 2137   7.815   7.615   3.000
  731TIP3    H1 2138   7.850   7.591   2.914
  731TIP3    H2 2139   7.855   7.700   3.019
  732TIP3   OH2 2140   6.340   0.933   2.791
  732TIP3    H1 2141   6.251   0.969   2.792
  732TIP3    H2 2142   6.379   0.969   2.711
  733TIP3   OH2 2143   5.330   4.059   3.989
  733TIP3    H1 2144   5.280   4.016   4.059
  733TIP3    H2 2145   5.266   4.117   3.946
  734TIP3   OH2 2146   5.518   4.649   3.025
  734TIP3    H1 2147   5.453   4.580   3.041
  734TIP3    H2 2148   5.524   4.656   2.930
  735TIP3   OH2 2149   0.532   2.734   4.952
  735TIP3    H1 2150   0.457   2.679   4.927
  735TIP3    H2 2151   0.494   2.822   4.963
  736TIP3   OH2 2152   1.295   5.944   1.319
  736TIP3    H1 2153   1.304   6.035   1.292
  736TIP3    H2 2154   1.325   5.893   1.243
  737TIP3   OH2 2155   2.457   7.157   2.949
  737TIP3    H1 2156   2.393   7.174   2.880
  737TIP3    H2 2157   2.538   7.139   2.903
  738TIP3   OH2 2158   8.200   3.116   5.441
  738TIP3    H1 2159   8.289   3.081   5.432
  738TIP3    H2 2160   8.192   3.137   5.534
  739TIP3   OH2 2161   0.677   6.859   0.718
  739TIP3    H1 2162   0.709   6.947   0.700
  739TIP3    H2 2163   0.696   6.845   0.811
  740TIP3   OH2 2164   4.424   3.069   6.151
  740TIP3    H1 2165   4.402   3.145   6.097
  740TIP3    H2 2166   4.469   3.105   6.227
  741TIP3   OH2 2167   7.186   2.241   6.447
  741TIP3    H1 2168   7.278   2.237   6.474
  741TIP3    H2 2169   7.179   2.322   6.398
  742TIP3   OH2 2170   8.041   5.571   0.079
  742TIP3    H1 2171   8.012   5.522   0.002
  742TIP3    H2 2172   8.050   5.505   0.147
  743TIP3   OH2 2173   6.112   4.120   4.078
  743TIP3    H1 2174   6.052   4.072   4.021
  743TIP3    H2 2175   6.169   4.168   4.018
  744TIP3   OH2 2176   6.971   1.765   3.307
  744TIP3    H1 2177   7.017   1.780   3.224
  744TIP3    H2 2178   7.018   1.818   3.370
  745TIP3   OH2 2179   7.572   4.272   6.601
  745TIP3    H1 2180   7.480   4.247   6.615
  745TIP3    H2 2181   7.618   4.190   6.586
  746TIP3   OH2 2182   1.568   5.971   4.903
  746TIP3    H1 2183   1.576   5.877   4.920
  746TIP3    H2 2184   1.657   6.000   4.883
  747TIP3   OH2 2185   1.933   2.416   5.015
  747TIP3    H1 2186   1.867   2.438   4.949
  747TIP3    H2 2187   1.964   2.501   5.047
  748TIP3   OH2 2188   0.924   1.880   0.344
  748TIP3    H1 2189   0.881   1.874   0.259
  748TIP3    H2 2190   0.884   1.956   0.387
  749TIP3   OH2 2191   2.257   1.994   0.146
  749TIP3    H1 2192   2.295   1.983   0.234
  749TIP3    H2 2193   2.329   1.970   0.087
  750TIP3   OH2 2194   3.063   5.556   5.559
  750TIP3    H1 2195   3.025   5.635   5.522
  750TIP3    H2 2196   3.143   5.542   5.507
  751TIP3   OH2 2197   0.682   6.536   5.326
  751TIP3    H1 2198   0.590   6.557   5.338
  751TIP3    H2 2199   0.688   6.442   5.343
  752TIP3   OH2 2200   5.246   2.290   2.695
  752TIP3    H1 2201   5.258   2.253   2.607
  752TIP3    H2 2202   5.322   2.348   2.707
  753TIP3   OH2 2203   2.859   1.172   3.530
  753TIP3    H1 2204   2.809   1.252   3.516
  753TIP3    H2 2205   2.823   1.135   3.611
  754TIP3   OH2 2206   1.299   7.284   4.963
  754TIP3    H1 2207   1.343   7.291   5.048
  754TIP3    H2 2208   1.206   7.273   4.985
  755TIP3   OH2 2209   7.499   0.291   2.721
  755TIP3    H1 2210   7.525   0.264   2.809
  755TIP3    H2 2211   7.460   0.378   2.733
  756TIP3   OH2 2212   1.207   7.146   4.412
  756TIP3    H1 2213   1.264   7.070   4.418
  756TIP3    H2 2214   1.125   7.118   4.452
  757TIP3   OH2 2215   7.408   4.540   1.710
  757TIP3    H1 2216   7.466   4.579   1.776
  757TIP3    H2 2217   7.465   4.479   1.662
  758TIP3   OH2 2218   6.601   1.539   2.584
  758TIP3    H1 2219   6.657   1.608   2.619
  758TIP3    H2 2220   6.574   1.488   2.660
  759TIP3   OH2 2221   4.769   0.232   0.693
  759TIP3    H1 2222   4.784   0.325   0.679
  759TIP3    H2 2223   4.810   0.189   0.618
  760TIP3   OH2 2224   7.224   7.521   6.366
  760TIP3    H1 2225   7.136   7.512   6.402
  760TIP3    H2 2226   7.236   7.616   6.354
  761TIP3   OH2 2227   2.549   6.953   3.679
  761TIP3    H1 2228   2.500   6.988   3.604
  761TIP3    H2 2229   2.640   6.951   3.648
  762TIP3   OH2 2230   6.052   2.764   3.819
  762TIP3    H1 2231   5.980   2.701   3.818
  762TIP3    H2 2232   6.082   2.764   3.910
  763TIP3   OH2 2233   1.062   1.063   2.510
  763TIP3    H1 2234   1.110   1.137   2.548
  763TIP3    H2 2235   1.124   1.024   2.448
  764TIP3   OH2 2236   8.121   5.393   1.012
  764TIP3    H1 2237   8.064   5.387   0.936
  764TIP3    H2 2238   8.094   5.320   1.068
  765TIP3   OH2 2239   0.457   1.451   4.167
  765TIP3    H1 2240   0.507   1.511   4.112
  765TIP3    H2 2241   0.450   1.372   4.115
  766TIP3   OH2 2242   0.137   2.933   5.565
  766TIP3    H1 2243   0.213   2.978   5.530
  766TIP3    H2 2244   0.096   2.996   5.624
  767TIP3   OH2 2245   0.674   7.012   6.707
  767TIP3    H1 2246   0.601   7.064   6.673
  767TIP3    H2 2247   0.732   7.076   6.747
  768TIP3   OH2 2248   2.252   4.394   3.092
  768TIP3    H1 2249   2.314   4.395   3.019
  768TIP3    H2 2250   2.253   4.303   3.122
  769TIP3   OH2 2251   4.228   5.807   0.779
  769TIP3    H1 2252   4.199   5.776   0.865
  769TIP3    H2 2253   4.191   5.896   0.772
  770TIP3   OH2 2254   5.631   1.940   3.812
  770TIP3    H1 2255   5.582   2.011   3.771
  770TIP3    H2 2256   5.654   1.974   3.898
  771TIP3   OH2 2257   3.035   0.257   2.167
  771TIP3    H1 2258   3.014   0.286   2.079
  771TIP3    H2 2259   3.123   0.220   2.161
  772TIP3   OH2 2260   1.120   1.328   4.826
  772TIP3    H1 2261   1.201   1.343   4.778
  772TIP3    H2 2262   1.112   1.404   4.884
  773TIP3   OH2 2263   2.300   5.307   6.527
  773TIP3    H1 2264   2.344   5.392   6.536
  773TIP3    H2 2265   2.322   5.260   6.607
  774TIP3   OH2 2266   1.319   7.422   1.339
  774TIP3    H1 2267   1.304   7.376   1.256
  774TIP3    H2 2268   1.407   7.459   1.330
  775TIP3   OH2 2269   7.315   0.399   6.014
  775TIP3    H1 2270   7.401   0.357   6.024
  775TIP3    H2 2271   7.269   0.344   5.951
  776TIP3   OH2 2272   8.074   3.792   6.551
  776TIP3    H1 2273   8.013   3.749   6.611
  776TIP3    H2 2274   8.158   3.750   6.568
  777TIP3   OH2 2275   2.626   0.954   3.970
  777TIP3    H1 2276   2.647   0.861   3.959
  777TIP3    H2 2277   2.588   0.960   4.057
  778TIP3   OH2 2278   1.561   5.544   1.087
  778TIP3    H1 2279   1.642   5.497   1.105
  778TIP3    H2 2280   1.498   5.476   1.064
  779TIP3   OH2 2281   0.173   5.765   1.279
  779TIP3    H1 2282   0.189   5.706   1.205
  779TIP3    H2 2283   0.083   5.795   1.267
  780TIP3   OH2 2284   3.765   0.130   1.127
  780TIP3    H1 2285   3.738   0.166   1.043
  780TIP3    H2 2286   3.851   0.092   1.111
  781TIP3   OH2 2287   0.594   0.515   4.273
  781TIP3    H1 2288   0.675   0.507   4.222
  781TIP3    H2 2289   0.528   0.469   4.221
  782TIP3   OH2 2290   0.298   7.290   1.049
  782TIP3    H1 2291   0.262   7.377   1.066
  782TIP3    H2 2292   0.367   7.305   0.984
  783TIP3   OH2 2293   4.929   1.552   1.567
  783TIP3    H1 2294   4.953   1.640   1.596
  783TIP3    H2 2295   4.867   1.521   1.633
  784TIP3   OH2 2296   5.699   4.624   4.575
  784TIP3    H1 2297   5.790   4.653   4.567
  784TIP3    H2 2298   5.688   4.562   4.503
  785TIP3   OH2 2299   0.257   2.235   2.323
  785TIP3    H1 2300   0.311   2.314   2.314
  785TIP3    H2 2301   0.170   2.263   2.293
  786TIP3   OH2 2302   6.043   1.066   1.291
  786TIP3    H1 2303   6.048   0.980   1.249
  786TIP3    H2 2304   6.006   1.123   1.225
  787TIP3   OH2 2305   6.183   6.826   3.329
  787TIP3    H1 2306   6.114   6.879   3.368
  787TIP3    H2 2307   6.264   6.875   3.347
  788TIP3   OH2 2308   3.059   2.369   3.498
  788TIP3    H1 2309   3.057   2.297   3.435
  788TIP3    H2 2310   3.094   2.329   3.578
  789TIP3   OH2 2311   7.004   1.384   2.895
  789TIP3    H1 2312   7.078   1.443   2.881
  789TIP3    H2 2313   6.978   1.356   2.807
  790TIP3   OH2 2314   5.362   5.310   4.276
  790TIP3    H1 2315   5.434   5.255   4.245
  790TIP3    H2 2316   5.335   5.270   4.358
  791TIP3   OH2 2317   1.576   6.984   1.000
  791TIP3    H1 2318   1.626   6.913   1.040
  791TIP3    H2 2319   1.641   7.051   0.980
  792TIP3   OH2 2320   3.714   2.173   6.472
  792TIP3    H1 2321   3.715   2.268   6.468
  792TIP3    H2 2322   3.805   2.147   6.456
  793TIP3   OH2 2323   2.901   7.674   1.111
  793TIP3    H1 2324   2.872   7.677   1.020
  793TIP3    H2 2325   2.996   7.684   1.106
  794TIP3   OH2 2326   7.775   6.192   5.167
  794TIP3    H1 2327   7.851   6.229   5.212
  794TIP3    H2 2328   7.798   6.199   5.074
  795TIP3   OH2 2329   4.461   2.859   2.726
  795TIP3    H1 2330   4.365   2.866   2.720
  795TIP3    H2 2331   4.488   2.942   2.765
  796TIP3   OH2 2332   1.245   3.480   2.129
  796TIP3    H1 2333   1.189   3.422   2.077
  796TIP3    H2 2334   1.283   3.540   2.064
  797TIP3   OH2 2335   3.573   4.009   4.833
  797TIP3    H1 2336   3.540   3.960   4.908
  797TIP3    H2 2337   3.502   4.005   4.769
  798TIP3   OH2 2338   1.044   2.349   5.353
  798TIP3    H1 2339   1.106   2.422   5.344
  798TIP3    H2 2340   0.961   2.391   5.375
  799TIP3   OH2 2341   3.985   5.189   1.403
  799TIP3    H1 2342   3.939   5.268   1.378
  799TIP3    H2 2343   3.969   5.128   1.331
  800TIP3   OH2 2344   1.163   1.067   0.101
  800TIP3    H1 2345   1.249   1.107   0.120
  800TIP3    H2 2346   1.113   1.137   0.061
  801TIP3   OH2 2347   6.231   4.298   6.784
  801TIP3    H1 2348   6.241   4.255   6.698
  801TIP3    H2 2349   6.261   4.232   6.847
  802TIP3   OH2 2350   5.814   5.216   6.066
  802TIP3    H1 2351   5.862   5.204   6.149
  802TIP3    H2 2352   5.734   5.164   6.077
  803TIP3   OH2 2353   1.156   5.700   0.902
  803TIP3    H1 2354   1.142   5.789   0.934
  803TIP3    H2 2355   1.069   5.662   0.897
  804TIP3   OH2 2356   1.561   7.513   0.210
  804TIP3    H1 2357   1.629   7.571   0.243
  804TIP3    H2 2358   1.578   7.429   0.254
  805TIP3   OH2 2359   1.823   4.154   0.136
  805TIP3    H1 2360   1.821   4.098   0.057
  805TIP3    H2 2361   1.916   4.173   0.148
  806TIP3   OH2 2362   6.273   0.948   6.339
  806TIP3    H1 2363   6.334   0.974   6.407
  806TIP3    H2 2364   6.200   0.909   6.386
  807TIP3   OH2 2365   3.448   4.995   2.212
  807TIP3    H1 2366   3.541   5.014   2.202
  807TIP3    H2 2367   3.428   4.937   2.138
  808TIP3   OH2 2368   8.091   3.721   2.146
  808TIP3    H1 2369   8.187   3.723   2.149
  808TIP3    H2 2370   8.064   3.811   2.162
  809TIP3   OH2 2371   4.323   5.027   2.203
  809TIP3    H1 2372   4.279   5.072   2.275
  809TIP3    H2 2373   4.259   5.027   2.132
  810TIP3   OH2 2374   5.586   5.501   2.908
  810TIP3    H1 2375   5.635   5.553   2.971
  810TIP3    H2 2376   5.653   5.460   2.854
  811TIP3   OH2 2377   6.079   0.435   3.662
  811TIP3    H1 2378   6.077   0.457   3.569
  811TIP3    H2 2379   6.144   0.365   3.668
  812TIP3   OH2 2380   6.493   1.526   0.270
  812TIP3    H1 2381   6.521   1.613   0.297
  812TIP3    H2 2382   6.487   1.476   0.351
  813TIP3   OH2 2383   2.115   3.067   2.052
  813TIP3    H1 2384   2.172   3.097   2.122
  813TIP3    H2 2385   2.141   2.977   2.036
  814TIP3   OH2 2386   3.382   5.289   1.924
  814TIP3    H1 2387   3.385   5.242   1.841
  814TIP3    H2 2388   3.445   5.360   1.915
  815TIP3   OH2 2389   0.611   0.909   5.890
  815TIP3    H1 2390   0.627   0.958   5.970
  815TIP3    H2 2391   0.629   0.972   5.820
  816TIP3   OH2 2392   6.126   2.922   2.913
  816TIP3    H1 2393   6.084   2.926   2.827
  816TIP3    H2 2394   6.115   2.832   2.942
  817TIP3   OH2 2395   2.774   6.840   6.441
  817TIP3    H1 2396   2.764   6.746   6.452
  817TIP3    H2 2397   2.789   6.873   6.530
  818TIP3   OH2 2398   6.189   5.636   1.648
  818TIP3    H1 2399   6.262   5.623   1.588
  818TIP3    H2 2400   6.230   5.659   1.731
  819TIP3   OH2 2401   5.079   4.111   0.921
  819TIP3    H1 2402   5.056   4.202   0.903
  819TIP3    H2 2403   5.015   4.059   0.872
  820TIP3   OH2 2404   6.939   5.592   3.699
  820TIP3    H1 2405   6.909   5.680   3.720
  820TIP3    H2 2406   6.889   5.535   3.757
  821TIP3   OH2 2407   1.619   7.225   1.203
  821TIP3    H1 2408   1.545   7.166   1.222
  821TIP3    H2 2409   1.677   7.216   1.279
  822TIP3   OH2 2410   5.286   7.380   0.726
  822TIP3    H1 2411   5.265   7.471   0.750
  822TIP3    H2 2412   5.317   7.341   0.808
  823TIP3   OH2 2413   1.412   0.426   4.767
  823TIP3    H1 2414   1.332   0.379   4.790
  823TIP3    H2 2415   1.469   0.415   4.844
  824TIP3   OH2 2416   2.840   0.808   3.658
  824TIP3    H1 2417   2.746   0.808   3.674
  824TIP3    H2 2418   2.866   0.717   3.669
  825TIP3   OH2 2419   6.500   1.976   6.655
  825TIP3    H1 2420   6.499   1.885   6.627
  825TIP3    H2 2421   6.418   1.987   6.702
  826TIP3   OH2 2422   6.802   2.473   2.404
  826TIP3    H1 2423   6.828   2.430   2.486
  826TIP3    H2 2424   6.763   2.556   2.431
  827TIP3   OH2 2425   4.473   6.274   1.986
  827TIP3    H1 2426   4.426   6.212   1.930
  827TIP3    H2 2427   4.403   6.322   2.032
  828TIP3   OH2 2428   6.616   0.719   6.590
  828TIP3    H1 2429   6.685   0.775   6.626
  828TIP3    H2 2430   6.636   0.714   6.496
  829TIP3   OH2 2431   4.966   3.293   4.349
  829TIP3    H1 2432   4.923   3.223   4.397
  829TIP3    H2 2433   4.903   3.319   4.282
  830TIP3   OH2 2434   7.077   4.032   6.265
  830TIP3    H1 2435   6.993   4.055   6.306
  830TIP3    H2 2436   7.070   3.938   6.249
  831TIP3   OH2 2437   6.205   7.625   6.345
  831TIP3    H1 2438   6.145   7.551   6.355
  831TIP3    H2 2439   6.159   7.685   6.286
  832TIP3   OH2 2440   2.270   1.047   2.500
  832TIP3    H1 2441   2.249   0.969   2.447
  832TIP3    H2 2442   2.213   1.115   2.464
  833TIP3   OH2 2443   2.869   5.162   0.123
  833TIP3    H1 2444   2.817   5.195   0.050
  833TIP3    H2 2445   2.911   5.240   0.160
  834TIP3   OH2 2446   3.472   4.276   0.455
  834TIP3    H1 2447   3.406   4.318   0.510
  834TIP3    H2 2448   3.496   4.343   0.391
  835TIP3   OH2 2449   7.089   0.268   4.884
  835TIP3    H1 2450   7.123   0.355   4.863
  835TIP3    H2 2451   7.149   0.208   4.839
  836TIP3   OH2 2452   7.544   2.226   3.987
  836TIP3    H1 2453   7.557   2.301   3.930
  836TIP3    H2 2454   7.565   2.257   4.075
  837TIP3   OH2 2455   0.702   3.008   0.105
  837TIP3    H1 2456   0.711   3.083   0.047
  837TIP3    H2 2457   0.737   2.935   0.054
  838TIP3   OH2 2458   7.820   0.988   1.654
  838TIP3    H1 2459   7.754   1.006   1.586
  838TIP3    H2 2460   7.878   0.923   1.614
  839TIP3   OH2 2461   1.973   0.485   5.138
  839TIP3    H1 2462   2.036   0.535   5.190
  839TIP3    H2 2463   1.922   0.435   5.202
  840TIP3   OH2 2464   7.463   2.078   4.853
  840TIP3    H1 2465   7.541   2.065   4.907
  840TIP3    H2 2466   7.497   2.106   4.768
  841TIP3   OH2 2467   6.736   1.907   3.468
  841TIP3    H1 2468   6.669   1.861   3.417
  841TIP3    H2 2469   6.799   1.938   3.402
  842TIP3   OH2 2470   4.691   5.292   0.613
  842TIP3    H1 2471   4.723   5.222   0.670
  842TIP3    H2 2472   4.608   5.319   0.652
  843TIP3   OH2 2473   6.652   7.579   1.254
  843TIP3    H1 2474   6.648   7.505   1.315
  843TIP3    H2 2475   6.701   7.646   1.302
  844TIP3   OH2 2476   8.303   7.338   2.692
  844TIP3    H1 2477   8.373   7.372   2.636
  844TIP3    H2 2478   8.234   7.404   2.688
  845TIP3   OH2 2479   5.663   1.260   0.497
  845TIP3    H1 2480   5.656   1.256   0.592
  845TIP3    H2 2481   5.757   1.249   0.479
  846TIP3   OH2 2482   0.581   4.805   2.830
  846TIP3    H1 2483   0.622   4.719   2.833
  846TIP3    H2 2484   0.524   4.808   2.906
  847TIP3   OH2 2485   1.277   5.425   2.556
  847TIP3    H1 2486   1.265   5.491   2.624
  847TIP3    H2 2487   1.290   5.343   2.604
  848TIP3   OH2 2488   2.404   7.630   4.916
  848TIP3    H1 2489   2.378   7.629   4.824
  848TIP3    H2 2490   2.322   7.629   4.964
  849TIP3   OH2 2491   2.322   2.387   5.020
  849TIP3    H1 2492   2.370   2.470   5.022
  849TIP3    H2 2493   2.303   2.368   5.112
  850TIP3   OH2 2494   2.966   5.665   0.225
  850TIP3    H1 2495   3.032   5.732   0.205
  850TIP3    H2 2496   2.976   5.649   0.319
  851TIP3   OH2 2497   6.246   3.654   1.326
  851TIP3    H1 2498   6.170   3.603   1.299
  851TIP3    H2 2499   6.221   3.691   1.410
  852TIP3   OH2 2500   3.075   6.473   1.041
  852TIP3    H1 2501   3.050   6.430   0.959
  852TIP3    H2 2502   3.048   6.564   1.029
  853TIP3   OH2 2503   0.020   4.754   0.685
  853TIP3    H1 2504   0.091   4.810   0.653
  853TIP3    H2 2505   0.033   4.752   0.780
  854TIP3   OH2 2506   6.626   3.156   0.339
  854TIP3    H1 2507   6.658   3.171   0.428
  854TIP3    H2 2508   6.550   3.214   0.331
  855TIP3   OH2 2509   6.669   4.639   6.157
  855TIP3    H1 2510   6.662   4.666   6.065
  855TIP3    H2 2511   6.717   4.556   6.154
  856TIP3   OH2 2512   8.213   3.507   4.500
  856TIP3    H1 2513   8.118   3.496   4.493
  856TIP3    H2 2514   8.249   3.435   4.448
  857TIP3   OH2 2515   0.542   2.408   3.724
  857TIP3    H1 2516   0.463   2.405   3.670
  857TIP3    H2 2517   0.574   2.318   3.725
  858TIP3   OH2 2518   6.486   2.571   0.718
  858TIP3    H1 2519   6.443   2.486   0.711
  858TIP3    H2 2520   6.490   2.589   0.812
  859TIP3   OH2 2521   1.148   0.875   3.003
  859TIP3    H1 2522   1.174   0.828   3.083
  859TIP3    H2 2523   1.231   0.902   2.963
  860TIP3   OH2 2524   6.677   7.062   2.143
  860TIP3    H1 2525   6.698   7.062   2.050
  860TIP3    H2 2526   6.583   7.079   2.147
  861TIP3   OH2 2527   4.769   0.308   2.090
  861TIP3    H1 2528   4.782   0.402   2.101
  861TIP3    H2 2529   4.675   0.294   2.104
  862TIP3   OH2 2530   5.316   3.310   0.971
  862TIP3    H1 2531   5.344   3.219   0.960
  862TIP3    H2 2532   5.317   3.347   0.883
  863TIP3   OH2 2533   0.637   6.493   6.408
  863TIP3    H1 2534   0.558   6.456   6.448
  863TIP3    H2 2535   0.606   6.536   6.329
  864TIP3   OH2 2536   4.122   0.810   6.172
  864TIP3    H1 2537   4.201   0.851   6.137
  864TIP3    H2 2538   4.050   0.861   6.135
  865TIP3   OH2 2539   5.313   0.439   5.837
  865TIP3    H1 2540   5.305   0.509   5.901
  865TIP3    H2 2541   5.260   0.467   5.763
  866TIP3   OH2 2542   5.265   6.676   4.635
  866TIP3    H1 2543   5.260   6.595   4.685
  866TIP3    H2 2544   5.358   6.698   4.634
  867TIP3   OH2 2545   7.130   0.999   2.416
  867TIP3    H1 2546   7.202   0.977   2.357
  867TIP3    H2 2547   7.076   1.059   2.365
  868TIP3   OH2 2548   0.298   1.188   6.726
  868TIP3    H1 2549   0.370   1.219   6.782
  868TIP3    H2 2550   0.223   1.184   6.785
  869TIP3   OH2 2551   7.603   0.370   5.307
  869TIP3    H1 2552   7.675   0.323   5.350
  869TIP3    H2 2553   7.550   0.301   5.267
  870TIP3   OH2 2554   5.335   7.609   1.580
  870TIP3    H1 2555   5.263   7.568   1.627
  870TIP3    H2 2556   5.323   7.583   1.488
  871TIP3   OH2 2557   3.725   0.423   3.367
  871TIP3    H1 2558   3.629   0.423   3.376
  871TIP3    H2 2559   3.755   0.484   3.435
  872TIP3   OH2 2560   5.055   0.238   3.808
  872TIP3    H1 2561   4.970   0.205   3.834
  872TIP3    H2 2562   5.063   0.323   3.852
  873TIP3   OH2 2563   7.615   3.650   1.393
  873TIP3    H1 2564   7.702   3.689   1.382
  873TIP3    H2 2565   7.632   3.566   1.437
  874TIP3   OH2 2566   1.276   6.749   6.364
  874TIP3    H1 2567   1.274   6.702   6.280
  874TIP3    H2 2568   1.306   6.683   6.427
  875TIP3   OH2 2569   3.527   3.793   3.801
  875TIP3    H1 2570   3.479   3.821   3.879
  875TIP3    H2 2571   3.502   3.701   3.790
  876TIP3   OH2 2572   7.560   1.226   1.840
  876TIP3    H1 2573   7.577   1.136   1.867
  876TIP3    H2 2574   7.646   1.260   1.813
  877TIP3   OH2 2575   0.940   2.074   4.718
  877TIP3    H1 2576   0.873   2.134   4.751
  877TIP3    H2 2577   0.981   2.038   4.796
  878TIP3   OH2 2578   5.063   2.168   4.396
  878TIP3    H1 2579   5.017   2.251   4.403
  878TIP3    H2 2580   5.146   2.189   4.354
  879TIP3   OH2 2581   0.130   5.468   4.305
  879TIP3    H1 2582   0.174   5.516   4.236
  879TIP3    H2 2583   0.064   5.415   4.260
  880TIP3   OH2 2584   4.089   3.144   1.846
  880TIP3    H1 2585   4.045   3.120   1.928
  880TIP3    H2 2586   4.114   3.235   1.858
  881TIP3   OH2 2587   1.280   7.768   2.126
  881TIP3    H1 2588   1.331   7.813   2.194
  881TIP3    H2 2589   1.232   7.700   2.174
  882TIP3   OH2 2590   7.634   0.478   3.555
  882TIP3    H1 2591   7.560   0.494   3.497
  882TIP3    H2 2592   7.600   0.418   3.622
  883TIP3   OH2 2593   2.715   1.989   2.071
  883TIP3    H1 2594   2.745   1.988   2.162
  883TIP3    H2 2595   2.728   2.080   2.043
  884TIP3   OH2 2596   6.616   6.772   4.641
  884TIP3    H1 2597   6.618   6.851   4.587
  884TIP3    H2 2598   6.701   6.771   4.685
  885TIP3   OH2 2599   2.390   4.547   5.513
  885TIP3    H1 2600   2.337   4.476   5.476
  885TIP3    H2 2601   2.338   4.581   5.586
  886TIP3   OH2 2602   5.807   6.545   4.991
  886TIP3    H1 2603   5.772   6.600   5.062
  886TIP3    H2 2604   5.811   6.604   4.915
  887TIP3   OH2 2605   3.832   6.385   4.564
  887TIP3    H1 2606   3.805   6.464   4.518
  887TIP3    H2 2607   3.751   6.336   4.578
  888TIP3   OH2 2608   5.864   2.120   1.942
  888TIP3    H1 2609   5.922   2.044   1.938
  888TIP3    H2 2610   5.914   2.191   1.902
  889TIP3   OH2 2611   4.738   1.611   2.363
  889TIP3    H1 2612   4.748   1.700   2.397
  889TIP3    H2 2613   4.732   1.623   2.268
  890TIP3   OH2 2614   7.870   3.116   1.446
  890TIP3    H1 2615   7.892   3.029   1.479
  890TIP3    H2 2616   7.935   3.174   1.488
  891TIP3   OH2 2617   3.966   3.674   6.118
  891TIP3    H1 2618   3.954   3.622   6.198
  891TIP3    H2 2619   3.920   3.757   6.137
  892TIP3   OH2 2620   7.144   7.391   5.443
  892TIP3    H1 2621   7.195   7.387   5.524
  892TIP3    H2 2622   7.085   7.315   5.449
  893TIP3   OH2 2623   0.860   3.329   1.971
  893TIP3    H1 2624   0.848   3.253   2.027
  893TIP3    H2 2625   0.770   3.354   1.946
  894TIP3   OH2 2626   2.579   2.091   0.601
  894TIP3    H1 2627   2.658   2.127   0.562
  894TIP3    H2 2628   2.552   2.156   0.665
  895TIP3   OH2 2629   8.216   1.501   3.163
  895TIP3    H1 2630   8.186   1.557   3.091
  895TIP3    H2 2631   8.278   1.555   3.211
  896TIP3   OH2 2632   6.677   0.668   6.323
  896TIP3    H1 2633   6.667   0.580   6.359
  896TIP3    H2 2634   6.649   0.660   6.232
  897TIP3   OH2 2635   0.697   4.126   6.406
  897TIP3    H1 2636   0.747   4.200   6.372
  897TIP3    H2 2637   0.606   4.148   6.387
  898TIP3   OH2 2638   3.800   4.530   0.935
  898TIP3    H1 2639   3.879   4.565   0.975
  898TIP3    H2 2640   3.772   4.598   0.873
  899TIP3   OH2 2641   3.162   3.824   0.081
  899TIP3    H1 2642   3.073   3.840   0.049
  899TIP3    H2 2643   3.150   3.764   0.155
  900TIP3   OH2 2644   0.411   2.475   0.380
  900TIP3    H1 2645   0.348   2.538   0.416
  900TIP3    H2 2646   0.359   2.421   0.321
  901TIP3   OH2 2647   1.904   5.600   5.476
  901TIP3    H1 2648   1.995   5.572   5.487
  901TIP3    H2 2649   1.905   5.693   5.496
  902TIP3   OH2 2650   3.047   4.200   1.366
  902TIP3    H1 2651   3.133   4.218   1.328
  902TIP3    H2 2652   2.998   4.281   1.355
  903TIP3   OH2 2653   1.617   5.691   3.537
  903TIP3    H1 2654   1.668   5.701   3.617
  903TIP3    H2 2655   1.658   5.618   3.491
  904TIP3   OH2 2656   0.592   4.276   4.269
  904TIP3    H1 2657   0.567   4.189   4.236
  904TIP3    H2 2658   0.686   4.282   4.251
  905TIP3   OH2 2659   0.918   7.141   3.761
  905TIP3    H1 2660   1.002   7.168   3.723
  905TIP3    H2 2661   0.869   7.104   3.687
  906TIP3   OH2 2662   3.763   4.241   5.883
  906TIP3    H1 2663   3.767   4.253   5.788
  906TIP3    H2 2664   3.809   4.317   5.919
  907TIP3   OH2 2665   1.134   1.703   0.685
  907TIP3    H1 2666   1.205   1.716   0.748
  907TIP3    H2 2667   1.054   1.717   0.735
  908TIP3   OH2 2668   1.138   2.804   4.863
  908TIP3    H1 2669   1.147   2.865   4.791
  908TIP3    H2 2670   1.208   2.740   4.850
  909TIP3   OH2 2671   3.196   4.395   0.447
  909TIP3    H1 2672   3.139   4.457   0.402
  909TIP3    H2 2673   3.202   4.319   0.388
  910TIP3   OH2 2674   3.334   1.601   2.876
  910TIP3    H1 2675   3.401   1.541   2.842
  910TIP3    H2 2676   3.343   1.680   2.823
  911TIP3   OH2 2677   6.222   0.523   2.511
  911TIP3    H1 2678   6.224   0.437   2.469
  911TIP3    H2 2679   6.309   0.560   2.494
  912TIP3   OH2 2680   5.097   1.425   5.946
  912TIP3    H1 2681   5.036   1.485   5.902
  912TIP3    H2 2682   5.081   1.439   6.039
  913TIP3   OH2 2683   8.230   7.835   4.610
  913TIP3    H1 2684   8.311   7.845   4.561
  913TIP3    H2 2685   8.168   7.797   4.546
  914TIP3   OH2 2686   7.378   5.749   2.474
  914TIP3    H1 2687   7.303   5.769   2.419
  914TIP3    H2 2688   7.343   5.694   2.544
  915TIP3   OH2 2689   7.575   7.556   1.002
  915TIP3    H1 2690   7.574   7.618   1.075
  915TIP3    H2 2691   7.592   7.471   1.042
  916TIP3   OH2 2692   6.779   6.490   0.806
  916TIP3    H1 2693   6.873   6.504   0.794
  916TIP3    H2 2694   6.773   6.403   0.845
  917TIP3   OH2 2695   6.170   7.788   3.482
  917TIP3    H1 2696   6.258   7.823   3.495
  917TIP3    H2 2697   6.124   7.856   3.432
  918TIP3   OH2 2698   3.983   7.518   0.424
  918TIP3    H1 2699   3.981   7.469   0.506
  918TIP3    H2 2700   3.935   7.599   0.444
  919TIP3   OH2 2701   7.552   2.146   1.282
  919TIP3    H1 2702   7.642   2.172   1.265
  919TIP3    H2 2703   7.558   2.054   1.307
  920TIP3   OH2 2704   0.979   2.167   5.117
  920TIP3    H1 2705   0.986   2.249   5.165
  920TIP3    H2 2706   0.918   2.114   5.169
  921TIP3   OH2 2707   5.251   1.424   0.864
  921TIP3    H1 2708   5.283   1.498   0.917
  921TIP3    H2 2709   5.224   1.464   0.781
  922TIP3   OH2 2710   5.155   3.935   4.172
  922TIP3    H1 2711   5.066   3.936   4.135
  922TIP3    H2 2712   5.163   3.848   4.211
  923TIP3   OH2 2713   5.006   4.425   3.848
  923TIP3    H1 2714   4.955   4.368   3.905
  923TIP3    H2 2715   5.031   4.499   3.905
  924TIP3   OH2 2716   5.998   3.786   2.399
  924TIP3    H1 2717   5.908   3.803   2.374
  924TIP3    H2 2718   6.029   3.870   2.434
  925TIP3   OH2 2719   5.117   6.038   2.302
  925TIP3    H1 2720   5.067   6.110   2.342
  925TIP3    H2 2721   5.163   5.998   2.376
  926TIP3   OH2 2722   2.879   1.705   5.340
  926TIP3    H1 2723   2.829   1.777   5.378
  926TIP3    H2 2724   2.888   1.728   5.247
  927TIP3   OH2 2725   5.922   6.404   1.881
  927TIP3    H1 2726   5.900   6.436   1.794
  927TIP3    H2 2727   5.878   6.319   1.888
  928TIP3   OH2 2728   3.175   6.763   5.091
  928TIP3    H1 2729   3.083   6.767   5.117
  928TIP3    H2 2730   3.185   6.837   5.031
  929TIP3   OH2 2731   4.595   4.585   3.236
  929TIP3    H1 2732   4.684   4.552   3.251
  929TIP3    H2 2733   4.544   4.550   3.309
  930TIP3   OH2 2734   2.876   5.079   2.079
  930TIP3    H1 2735   2.924   4.997   2.067
  930TIP3    H2 2736   2.923   5.142   2.024
  931TIP3   OH2 2737   6.508   4.044   5.539
  931TIP3    H1 2738   6.461   3.978   5.488
  931TIP3    H2 2739   6.452   4.121   5.538
  932TIP3   OH2 2740   8.267   6.101   1.666
  932TIP3    H1 2741   8.195   6.160   1.688
  932TIP3    H2 2742   8.342   6.158   1.650
  933TIP3   OH2 2743   7.929   5.285   1.552
  933TIP3    H1 2744   7.950   5.377   1.569
  933TIP3    H2 2745   7.882   5.256   1.631
  934TIP3   OH2 2746   0.770   0.331   3.167
  934TIP3    H1 2747   0.818   0.257   3.130
  934TIP3    H2 2748   0.694   0.342   3.110
  935TIP3   OH2 2749   6.907   0.120   0.241
  935TIP3    H1 2750   6.949   0.101   0.324
  935TIP3    H2 2751   6.880   0.212   0.248
  936TIP3   OH2 2752   1.655   6.983   1.498
  936TIP3    H1 2753   1.585   6.997   1.435
  936TIP3    H2 2754   1.733   7.022   1.458
  937TIP3   OH2 2755   7.476   1.776   0.090
  937TIP3    H1 2756   7.429   1.828   0.155
  937TIP3    H2 2757   7.417   1.772   0.015
  938TIP3   OH2 2758   6.773   1.712   0.354
  938TIP3    H1 2759   6.864   1.703   0.381
  938TIP3    H2 2760   6.776   1.771   0.278
  939TIP3   OH2 2761   2.887   4.460   0.265
  939TIP3    H1 2762   2.798   4.494   0.255
  939TIP3    H2 2763   2.915   4.439   0.175
  940TIP3   OH2 2764   3.830   6.354   2.785
  940TIP3    H1 2765   3.760   6.312   2.835
  940TIP3    H2 2766   3.805   6.446   2.782
  941TIP3   OH2 2767   5.562   3.235   3.136
  941TIP3    H1 2768   5.495   3.166   3.132
  941TIP3    H2 2769   5.590   3.236   3.228
  942TIP3   OH2 2770   6.261   3.440   5.211
  942TIP3    H1 2771   6.203   3.488   5.270
  942TIP3    H2 2772   6.264   3.495   5.132
  943TIP3   OH2 2773   0.873   0.618   5.197
  943TIP3    H1 2774   0.883   0.676   5.121
  943TIP3    H2 2775   0.789   0.643   5.235
  944TIP3   OH2 2776   4.451   1.185   1.014
  944TIP3    H1 2777   4.502   1.109   0.986
  944TIP3    H2 2778   4.482   1.257   0.958
  945TIP3   OH2 2779   5.870   2.550   6.430
  945TIP3    H1 2780   5.884   2.524   6.521
  945TIP3    H2 2781   5.841   2.470   6.386
  946TIP3   OH2 2782   5.476   2.110   4.320
  946TIP3    H1 2783   5.425   2.052   4.376
  946TIP3    H2 2784   5.567   2.093   4.344
  947TIP3   OH2 2785   6.074   1.575   3.687
  947TIP3    H1 2786   6.101   1.623   3.765
  947TIP3    H2 2787   6.086   1.483   3.711
  948TIP3   OH2 2788   4.035   0.288   2.119
  948TIP3    H1 2789   4.111   0.315   2.170
  948TIP3    H2 2790   4.066   0.284   2.029
  949TIP3   OH2 2791   7.971   2.652   4.101
  949TIP3    H1 2792   8.034   2.601   4.151
  949TIP3    H2 2793   7.890   2.600   4.104
  950TIP3   OH2 2794   7.358   5.265   2.932
  950TIP3    H1 2795   7.308   5.183   2.932
  950TIP3    H2 2796   7.339   5.304   2.846
  951TIP3   OH2 2797   5.318   5.544   1.982
  951TIP3    H1 2798   5.252   5.613   1.981
  951TIP3    H2 2799   5.398   5.587   1.951
  952TIP3   OH2 2800   4.736   6.656   3.076
  952TIP3    H1 2801   4.757   6.567   3.104
  952TIP3    H2 2802   4.757   6.710   3.153
  953TIP3   OH2 2803   5.142   6.399   5.198
  953TIP3    H1 2804   5.175   6.482   5.233
  953TIP3    H2 2805   5.066   6.378   5.253
  954TIP3   OH2 2806   4.388   4.064   3.076
  954TIP3    H1 2807   4.435   4.010   3.012
  954TIP3    H2 2808   4.297   4.065   3.045
  955TIP3   OH2 2809   1.758   4.398   6.106
  955TIP3    H1 2810   1.797   4.422   6.022
  955TIP3    H2 2811   1.671   4.365   6.084
  956TIP3   OH2 2812   3.236   5.745   4.001
  956TIP3    H1 2813   3.268   5.654   3.998
  956TIP3    H2 2814   3.292   5.788   4.066
  957TIP3   OH2 2815   2.161   0.637   0.931
  957TIP3    H1 2816   2.070   0.608   0.943
  957TIP3    H2 2817   2.155   0.708   0.867
  958TIP3   OH2 2818   7.887   2.110   3.603
  958TIP3    H1 2819   7.833   2.123   3.525
  958TIP3    H2 2820   7.976   2.128   3.574
  959TIP3   OH2 2821   7.893   2.993   5.158
  959TIP3    H1 2822   7.868   3.075   5.199
  959TIP3    H2 2823   7.954   2.952   5.219
  960TIP3   OH2 2824   6.277   3.368   3.168
  960TIP3    H1 2825   6.355   3.318   3.142
  960TIP3    H2 2826   6.236   3.394   3.086
  961TIP3   OH2 2827   6.880   4.028   2.643
  961TIP3    H1 2828   6.811   4.093   2.626
  961TIP3    H2 2829   6.959   4.080   2.655
  962TIP3   OH2 2830   7.677   1.303   3.520
  962TIP3    H1 2831   7.616   1.345   3.458
  962TIP3    H2 2832   7.722   1.377   3.561
  963TIP3   OH2 2833   6.198   7.708   3.749
  963TIP3    H1 2834   6.239   7.766   3.685
  963TIP3    H2 2835   6.149   7.645   3.697
  964TIP3   OH2 2836   1.565   4.597   2.838
  964TIP3    H1 2837   1.587   4.507   2.814
  964TIP3    H2 2838   1.525   4.590   2.925
  965TIP3   OH2 2839   6.333   5.357   0.976
  965TIP3    H1 2840   6.367   5.445   0.960
  965TIP3    H2 2841   6.270   5.367   1.047
  966TIP3   OH2 2842   4.998   1.867   0.482
  966TIP3    H1 2843   4.966   1.781   0.457
  966TIP3    H2 2844   5.061   1.890   0.413
  967TIP3   OH2 2845   6.224   5.930   6.310
  967TIP3    H1 2846   6.149   5.928   6.369
  967TIP3    H2 2847   6.253   6.021   6.312
  968TIP3   OH2 2848   3.597   4.702   1.890
  968TIP3    H1 2849   3.686   4.736   1.881
  968TIP3    H2 2850   3.601   4.614   1.851
  969TIP3   OH2 2851   7.389   6.681   6.723
  969TIP3    H1 2852   7.360   6.673   6.814
  969TIP3    H2 2853   7.485   6.678   6.728
  970TIP3   OH2 2854   4.502   1.666   0.668
  970TIP3    H1 2855   4.443   1.601   0.631
  970TIP3    H2 2856   4.522   1.725   0.595
  971TIP3   OH2 2857   1.257   3.841   3.672
  971TIP3    H1 2858   1.324   3.799   3.727
  971TIP3    H2 2859   1.303   3.913   3.630
  972TIP3   OH2 2860   5.883   5.187   0.449
  972TIP3    H1 2861   5.877   5.184   0.545
  972TIP3    H2 2862   5.848   5.103   0.420
  973TIP3   OH2 2863   4.918   2.502   6.058
  973TIP3    H1 2864   4.949   2.588   6.088
  973TIP3    H2 2865   4.998   2.456   6.034
  974TIP3   OH2 2866   5.645   7.200   5.813
  974TIP3    H1 2867   5.711   7.269   5.822
  974TIP3    H2 2868   5.576   7.223   5.875
  975TIP3   OH2 2869   5.845   0.319   0.668
  975TIP3    H1 2870   5.910   0.300   0.735
  975TIP3    H2 2871   5.833   0.235   0.622
  976TIP3   OH2 2872   5.281   5.416   4.606
  976TIP3    H1 2873   5.217   5.441   4.540
  976TIP3    H2 2874   5.236   5.430   4.690
  977TIP3   OH2 2875   1.258   3.087   0.199
  977TIP3    H1 2876   1.168   3.118   0.205
  977TIP3    H2 2877   1.282   3.064   0.289
  978TIP3   OH2 2878   7.049   4.960   1.222
  978TIP3    H1 2879   7.138   4.983   1.197
  978TIP3    H2 2880   6.996   4.980   1.145
  979TIP3   OH2 2881   8.256   4.379   0.419
  979TIP3    H1 2882   8.225   4.470   0.427
  979TIP3    H2 2883   8.178   4.330   0.390
  980TIP3   OH2 2884   2.000   4.321   3.498
  980TIP3    H1 2885   1.990   4.290   3.408
  980TIP3    H2 2886   2.094   4.312   3.516
  981TIP3   OH2 2887   0.211   3.404   2.062
  981TIP3    H1 2888   0.301   3.422   2.091
  981TIP3    H2 2889   0.173   3.351   2.132
  982TIP3   OH2 2890   4.292   2.728   6.583
  982TIP3    H1 2891   4.291   2.665   6.512
  982TIP3    H2 2892   4.385   2.740   6.604
  983TIP3   OH2 2893   6.922   1.535   6.530
  983TIP3    H1 2894   6.935   1.612   6.473
  983TIP3    H2 2895   6.964   1.560   6.612
  984TIP3   OH2 2896   1.731   7.809   5.324
  984TIP3    H1 2897   1.650   7.757   5.325
  984TIP3    H2 2898   1.753   7.818   5.232
  985TIP3   OH2 2899   8.121   6.055   5.936
  985TIP3    H1 2900   8.196   5.998   5.951
  985TIP3    H2 2901   8.053   5.996   5.902
  986TIP3   OH2 2902   0.942   6.116   0.930
  986TIP3    H1 2903   0.934   6.039   0.873
  986TIP3    H2 2904   0.856   6.123   0.971
  987TIP3   OH2 2905   7.179   6.369   1.188
  987TIP3    H1 2906   7.268   6.401   1.205
  987TIP3    H2 2907   7.125   6.448   1.191
  988TIP3   OH2 2908   6.156   4.384   6.035
  988TIP3    H1 2909   6.083   4.363   5.977
  988TIP3    H2 2910   6.202   4.300   6.047
  989TIP3   OH2 2911   5.385   1.194   2.071
  989TIP3    H1 2912   5.368   1.194   2.165
  989TIP3    H2 2913   5.361   1.282   2.042
  990TIP3   OH2 2914   2.166   5.006   6.515
  990TIP3    H1 2915   2.151   4.919   6.477
  990TIP3    H2 2916   2.085   5.054   6.497
  991TIP3   OH2 2917   0.611   5.289   6.194
  991TIP3    H1 2918   0.590   5.214   6.138
  991TIP3    H2 2919   0.529   5.337   6.202
  992TIP3   OH2 2920   8.108   5.711   2.210
  992TIP3    H1 2921   8.018   5.712   2.243
  992TIP3    H2 2922   8.155   5.774   2.264
  993TIP3   OH2 2923   0.302   0.886   0.711
  993TIP3    H1 2924   0.262   0.864   0.795
  993TIP3    H2 2925   0.296   0.805   0.660
  994TIP3   OH2 2926   0.668   7.694   2.660
  994TIP3    H1 2927   0.624   7.668   2.740
  994TIP3    H2 2928   0.662   7.616   2.604
  995TIP3   OH2 2929   4.209   0.288   4.198
  995TIP3    H1 2930   4.244   0.202   4.172
  995TIP3    H2 2931   4.141   0.306   4.133
  996TIP3   OH2 2932   5.299   6.456  -0.012
  996TIP3    H1 2933   5.235   6.440   0.058
  996TIP3    H2 2934   5.330   6.369  -0.036
  997TIP3   OH2 2935   0.084   1.588   0.546
  997TIP3    H1 2936   0.132   1.505   0.550
  997TIP3    H2 2937   0.086   1.622   0.636
  998TIP3   OH2 2938   5.038   2.026   6.008
  998TIP3    H1 2939   4.975   2.086   6.048
  998TIP3    H2 2940   4.985   1.972   5.949
  999TIP3   OH2 2941   1.386   7.773   1.660
  999TIP3    H1 2942   1.481   7.768   1.670
  999TIP3    H2 2943   1.369   7.864   1.636
 1000TIP3   OH2 2944   2.278   2.629   0.348
 1000TIP3    H1 2945   2.286   2.534   0.345
 1000TIP3    H2 2946   2.364   2.660   0.319
 1001TIP3   OH2 2947   7.039   6.134   2.626
 1001TIP3    H1 2948   7.017   6.200   2.693
 1001TIP3    H2 2949   7.132   6.117   2.639
 1002TIP3   OH2 2950   7.936   6.874   3.678
 1002TIP3    H1 2951   8.014   6.904   3.723
 1002TIP3    H2 2952   7.863   6.907   3.731
 1003TIP3   OH2 2953   7.380   6.751   6.190
 1003TIP3    H1 2954   7.418   6.832   6.155
 1003TIP3    H2 2955   7.453   6.706   6.232
 1004TIP3   OH2 2956   6.790   3.246   2.724
 1004TIP3    H1 2957   6.772   3.229   2.816
 1004TIP3    H2 2958   6.743   3.327   2.705
 1005TIP3   OH2 2959   6.005   1.400   6.038
 1005TIP3    H1 2960   6.064   1.458   6.087
 1005TIP3    H2 2961   6.035   1.407   5.947
 1006TIP3   OH2 2962   4.742   5.683   4.421
 1006TIP3    H1 2963   4.772   5.759   4.471
 1006TIP3    H2 2964   4.685   5.635   4.482
 1007TIP3   OH2 2965   4.067   5.310   4.067
 1007TIP3    H1 2966   4.114   5.259   4.133
 1007TIP3    H2 2967   4.112   5.395   4.066
 1008TIP3   OH2 2968   6.379   2.233   6.599
 1008TIP3    H1 2969   6.415   2.273   6.678
 1008TIP3    H2 2970   6.435   2.158   6.582
 1009TIP3   OH2 2971   6.570   1.091   3.645
 1009TIP3    H1 2972   6.655   1.115   3.682
 1009TIP3    H2 2973   6.543   1.015   3.696
 1010TIP3   OH2 2974   8.078   6.876   2.644
 1010TIP3    H1 2975   8.014   6.806   2.629
 1010TIP3    H2 2976   8.117   6.854   2.728
 1011TIP3   OH2 2977   6.737   3.750   2.826
 1011TIP3    H1 2978   6.683   3.732   2.904
 1011TIP3    H2 2979   6.683   3.808   2.773
 1012TIP3   OH2 2980   7.989   3.864   0.375
 1012TIP3    H1 2981   7.916   3.847   0.316
 1012TIP3    H2 2982   7.948   3.895   0.456
 1013TIP3   OH2 2983   5.585   0.340   5.719
 1013TIP3    H1 2984   5.537   0.296   5.649
 1013TIP3    H2 2985   5.677   0.315   5.705
 1014TIP3   OH2 2986   5.959   3.203   6.332
 1014TIP3    H1 2987   6.032   3.178   6.275
 1014TIP3    H2 2988   5.990   3.183   6.420
 1015TIP3   OH2 2989   2.010   4.827   5.780
 1015TIP3    H1 2990   1.998   4.875   5.697
 1015TIP3    H2 2991   2.085   4.869   5.821
 1016TIP3   OH2 2992   0.195   7.490   6.058
 1016TIP3    H1 2993   0.270   7.475   6.001
 1016TIP3    H2 2994   0.151   7.567   6.020
 1017TIP3   OH2 2995   3.115   6.260   1.184
 1017TIP3    H1 2996   3.075   6.304   1.259
 1017TIP3    H2 2997   3.114   6.326   1.114
 1018TIP3   OH2 2998   2.670   1.926   6.252
 1018TIP3    H1 2999   2.645   1.898   6.164
 1018TIP3    H2 3000   2.641   2.017   6.258
 1019TIP3   OH2 3001   5.024   6.226   1.216
 1019TIP3    H1 3002   4.954   6.236   1.280
 1019TIP3    H2 3003   5.011   6.299   1.155
 1020TIP3   OH2 3004   3.413   0.291   4.484
 1020TIP3    H1 3005   3.423   0.262   4.393
 1020TIP3    H2 3006   3.418   0.210   4.535
 1021TIP3   OH2 3007   4.207   3.060   4.279
 1021TIP3    H1 3008   4.212   2.964   4.286
 1021TIP3    H2 3009   4.178   3.088   4.366
 1022TIP3   OH2 3010   0.624   2.340   4.617
 1022TIP3    H1 3011   0.652   2.289   4.694
 1022TIP3    H2 3012   0.687   2.411   4.611
 1023TIP3   OH2 3013   0.199   0.142   0.089
 1023TIP3    H1 3014   0.221   0.052   0.113
 1023TIP3    H2 3015   0.105   0.150   0.108
 1024TIP3   OH2 3016   4.019   7.233   0.390
 1024TIP3    H1 3017   4.034   7.321   0.424
 1024TIP3    H2 3018   3.962   7.246   0.314
 1025TIP3   OH2 3019   7.936   1.494   4.491
 1025TIP3    H1 3020   7.988   1.555   4.439
 1025TIP3    H2 3021   7.967   1.407   4.465
 1026TIP3   OH2 3022   3.397   4.936   2.528
 1026TIP3    H1 3023   3.469   4.914   2.468
 1026TIP3    H2 3024   3.350   5.006   2.484
 1027TIP3   OH2 3025   6.431   1.140   1.160
 1027TIP3    H1 3026   6.413   1.069   1.221
 1027TIP3    H2 3027   6.521   1.125   1.131
 1028TIP3   OH2 3028   7.512   7.532   6.407
 1028TIP3    H1 3029   7.530   7.535   6.501
 1028TIP3    H2 3030   7.422   7.501   6.401
 1029TIP3   OH2 3031   5.345   3.572   2.571
 1029TIP3    H1 3032   5.290   3.606   2.501
 1029TIP3    H2 3033   5.405   3.512   2.527
 1030TIP3   OH2 3034   4.427   3.807   5.482
 1030TIP3    H1 3035   4.493   3.790   5.416
 1030TIP3    H2 3036   4.473   3.853   5.552
 1031TIP3   OH2 3037   7.821   5.599   5.686
 1031TIP3    H1 3038   7.912   5.615   5.660
 1031TIP3    H2 3039   7.774   5.590   5.603
 1032TIP3   OH2 3040   2.458   6.177   0.142
 1032TIP3    H1 3041   2.399   6.171   0.067
 1032TIP3    H2 3042   2.545   6.187   0.104
 1033TIP3   OH2 3043   5.604   1.870   1.838
 1033TIP3    H1 3044   5.681   1.814   1.828
 1033TIP3    H2 3045   5.632   1.955   1.802
 1034TIP3   OH2 3046   0.290   3.188   5.604
 1034TIP3    H1 3047   0.311   3.279   5.626
 1034TIP3    H2 3048   0.262   3.149   5.687
 1035TIP3   OH2 3049   6.338   2.459   6.395
 1035TIP3    H1 3050   6.280   2.413   6.456
 1035TIP3    H2 3051   6.281   2.523   6.351
 1036TIP3   OH2 3052   1.100   2.194   2.096
 1036TIP3    H1 3053   1.187   2.214   2.062
 1036TIP3    H2 3054   1.091   2.248   2.175
 1037TIP3   OH2 3055   1.380   5.334   5.155
 1037TIP3    H1 3056   1.369   5.247   5.118
 1037TIP3    H2 3057   1.434   5.320   5.234
 1038TIP3   OH2 3058   3.201   0.888   4.298
 1038TIP3    H1 3059   3.247   0.886   4.382
 1038TIP3    H2 3060   3.162   0.801   4.290
 1039TIP3   OH2 3061   5.750   4.664   6.661
 1039TIP3    H1 3062   5.842   4.692   6.653
 1039TIP3    H2 3063   5.712   4.681   6.575
 1040TIP3   OH2 3064   3.985   4.920   3.130
 1040TIP3    H1 3065   4.034   5.001   3.136
 1040TIP3    H2 3066   4.006   4.884   3.044
 1041TIP3   OH2 3067   5.620   3.662   5.614
 1041TIP3    H1 3068   5.635   3.584   5.667
 1041TIP3    H2 3069   5.531   3.690   5.639
 1042TIP3   OH2 3070   0.841   3.802   0.816
 1042TIP3    H1 3071   0.767   3.745   0.838
 1042TIP3    H2 3072   0.875   3.767   0.734
 1043TIP3   OH2 3073   0.306   5.118   1.184
 1043TIP3    H1 3074   0.374   5.058   1.153
 1043TIP3    H2 3075   0.255   5.065   1.246
 1044TIP3   OH2 3076   0.475   5.040   2.120
 1044TIP3    H1 3077   0.522   5.114   2.159
 1044TIP3    H2 3078   0.410   5.016   2.186
 1045TIP3   OH2 3079   2.678   0.292   2.670
 1045TIP3    H1 3080   2.664   0.337   2.587
 1045TIP3    H2 3081   2.639   0.205   2.657
 1046TIP3   OH2 3082   5.007   3.442   1.753
 1046TIP3    H1 3083   5.063   3.366   1.735
 1046TIP3    H2 3084   4.927   3.426   1.704
 1047TIP3   OH2 3085   2.761   5.096   3.578
 1047TIP3    H1 3086   2.778   5.180   3.536
 1047TIP3    H2 3087   2.800   5.031   3.519
 1048TIP3   OH2 3088   3.368   2.070   0.958
 1048TIP3    H1 3089   3.322   2.013   0.897
 1048TIP3    H2 3090   3.432   2.117   0.904
 1049TIP3   OH2 3091   4.119   0.961   4.320
 1049TIP3    H1 3092   4.058   0.895   4.354
 1049TIP3    H2 3093   4.199   0.912   4.301
 1050TIP3   OH2 3094   8.111   3.762   1.327
 1050TIP3    H1 3095   8.133   3.845   1.367
 1050TIP3    H2 3096   8.016   3.762   1.319
 1051TIP3   OH2 3097   4.126   4.763   4.265
 1051TIP3    H1 3098   4.056   4.795   4.208
 1051TIP3    H2 3099   4.139   4.672   4.238
 1052TIP3   OH2 3100   0.701   6.257   3.787
 1052TIP3    H1 3101   0.783   6.261   3.738
 1052TIP3    H2 3102   0.723   6.289   3.874
 1053TIP3   OH2 3103   1.507   5.542  -0.009
 1053TIP3    H1 3104   1.419   5.579   0.004
 1053TIP3    H2 3105   1.557   5.575   0.065
 1054TIP3   OH2 3106   7.615   2.806   5.648
 1054TIP3    H1 3107   7.551   2.778   5.582
 1054TIP3    H2 3108   7.565   2.862   5.708
 1055TIP3   OH2 3109   6.589   7.557   1.702
 1055TIP3    H1 3110   6.608   7.643   1.741
 1055TIP3    H2 3111   6.675   7.518   1.689
 1056TIP3   OH2 3112   3.803   5.261   4.170
 1056TIP3    H1 3113   3.872   5.309   4.124
 1056TIP3    H2 3114   3.751   5.222   4.099
 1057TIP3   OH2 3115   5.065   4.633   4.020
 1057TIP3    H1 3116   5.000   4.615   4.087
 1057TIP3    H2 3117   5.141   4.667   4.068
 1058TIP3   OH2 3118   0.493   5.620   0.298
 1058TIP3    H1 3119   0.420   5.678   0.279
 1058TIP3    H2 3120   0.456   5.552   0.355
 1059TIP3   OH2 3121   6.791   1.879   1.870
 1059TIP3    H1 3122   6.884   1.897   1.859
 1059TIP3    H2 3123   6.787   1.801   1.926
 1060TIP3   OH2 3124   0.675   3.629   5.154
 1060TIP3    H1 3125   0.653   3.637   5.061
 1060TIP3    H2 3126   0.661   3.717   5.189
 1061TIP3   OH2 3127   7.943   4.819   5.161
 1061TIP3    H1 3128   7.892   4.899   5.177
 1061TIP3    H2 3129   7.888   4.748   5.193
 1062TIP3   OH2 3130   0.141   0.875   2.893
 1062TIP3    H1 3131   0.225   0.831   2.904
 1062TIP3    H2 3132   0.076   0.812   2.924
 1063TIP3   OH2 3133   2.184   7.246   3.447
 1063TIP3    H1 3134   2.177   7.162   3.403
 1063TIP3    H2 3135   2.123   7.303   3.400
 1064TIP3   OH2 3136   6.169   2.003   4.639
 1064TIP3    H1 3137   6.206   1.927   4.685
 1064TIP3    H2 3138   6.189   1.986   4.547
 1065TIP3   OH2 3139   4.867   5.757   5.422
 1065TIP3    H1 3140   4.910   5.683   5.380
 1065TIP3    H2 3141   4.832   5.809   5.349
 1066TIP3   OH2 3142   8.045   3.824   2.829
 1066TIP3    H1 3143   8.130   3.861   2.854
 1066TIP3    H2 3144   8.032   3.751   2.889
 1067TIP3   OH2 3145   7.227  -0.005   2.637
 1067TIP3    H1 3146   7.193   0.049   2.708
 1067TIP3    H2 3147   7.291   0.050   2.593
 1068TIP3   OH2 3148   1.751   4.073   6.755
 1068TIP3    H1 3149   1.801   4.035   6.828
 1068TIP3    H2 3150   1.780   4.024   6.678
 1069TIP3   OH2 3151   2.090   1.449   3.677
 1069TIP3    H1 3152   2.036   1.468   3.601
 1069TIP3    H2 3153   2.084   1.354   3.688
 1070TIP3   OH2 3154   7.661   5.701   6.188
 1070TIP3    H1 3155   7.733   5.739   6.238
 1070TIP3    H2 3156   7.688   5.610   6.173
 1071TIP3   OH2 3157   1.260   7.593   1.039
 1071TIP3    H1 3158   1.167   7.576   1.027
 1071TIP3    H2 3159   1.303   7.512   1.013
 1072TIP3   OH2 3160   2.803   5.188   0.701
 1072TIP3    H1 3161   2.876   5.143   0.744
 1072TIP3    H2 3162   2.738   5.198   0.770
 1073TIP3   OH2 3163   5.675   3.461   4.635
 1073TIP3    H1 3164   5.708   3.497   4.552
 1073TIP3    H2 3165   5.732   3.500   4.702
 1074TIP3   OH2 3166   6.732   1.231   0.918
 1074TIP3    H1 3167   6.717   1.143   0.954
 1074TIP3    H2 3168   6.810   1.221   0.863
 1075TIP3   OH2 3169   7.667   3.030   2.567
 1075TIP3    H1 3170   7.691   2.965   2.632
 1075TIP3    H2 3171   7.638   3.106   2.617
 1076TIP3   OH2 3172   7.759   3.966   3.921
 1076TIP3    H1 3173   7.690   3.982   3.856
 1076TIP3    H2 3174   7.784   4.054   3.951
 1077TIP3   OH2 3175   4.102   0.510   3.757
 1077TIP3    H1 3176   4.071   0.587   3.709
 1077TIP3    H2 3177   4.118   0.444   3.689
 1078TIP3   OH2 3178   5.374   6.162   0.918
 1078TIP3    H1 3179   5.413   6.149   0.832
 1078TIP3    H2 3180   5.402   6.249   0.945
 1079TIP3   OH2 3181   6.098   7.069   0.235
 1079TIP3    H1 3182   6.135   7.006   0.297
 1079TIP3    H2 3183   6.081   7.147   0.287
 1080TIP3   OH2 3184   2.653   3.235   5.592
 1080TIP3    H1 3185   2.609   3.263   5.672
 1080TIP3    H2 3186   2.734   3.194   5.622
 1081TIP3   OH2 3187   2.111   6.150   2.079
 1081TIP3    H1 3188   2.163   6.194   2.011
 1081TIP3    H2 3189   2.098   6.216   2.146
 1082TIP3   OH2 3190   3.559   6.554   3.593
 1082TIP3    H1 3191   3.544   6.610   3.517
 1082TIP3    H2 3192   3.606   6.478   3.558
 1083TIP3   OH2 3193   3.471   4.780   5.868
 1083TIP3    H1 3194   3.393   4.753   5.819
 1083TIP3    H2 3195   3.518   4.838   5.808
 1084TIP3   OH2 3196   1.186   4.363   2.927
 1084TIP3    H1 3197   1.232   4.413   2.860
 1084TIP3    H2 3198   1.157   4.284   2.882
 1085TIP3   OH2 3199   5.651   3.520   5.841
 1085TIP3    H1 3200   5.659   3.440   5.893
 1085TIP3    H2 3201   5.557   3.528   5.824
 1086TIP3   OH2 3202   2.465   5.179   2.406
 1086TIP3    H1 3203   2.400   5.150   2.469
 1086TIP3    H2 3204   2.417   5.186   2.323
 1087TIP3   OH2 3205   3.897   7.285   1.990
 1087TIP3    H1 3206   3.840   7.328   1.927
 1087TIP3    H2 3207   3.886   7.335   2.071
 1088TIP3   OH2 3208   1.023   3.195   2.542
 1088TIP3    H1 3209   1.021   3.148   2.626
 1088TIP3    H2 3210   1.085   3.266   2.555
 1089TIP3   OH2 3211   7.108   4.568   3.257
 1089TIP3    H1 3212   7.058   4.641   3.294
 1089TIP3    H2 3213   7.068   4.490   3.297
 1090TIP3   OH2 3214   4.676   4.045   1.471
 1090TIP3    H1 3215   4.699   4.059   1.563
 1090TIP3    H2 3216   4.663   3.951   1.463
 1091TIP3   OH2 3217   6.839   0.853   2.620
 1091TIP3    H1 3218   6.888   0.777   2.652
 1091TIP3    H2 3219   6.838   0.914   2.693
 1092TIP3   OH2 3220   2.236   7.296   4.225
 1092TIP3    H1 3221   2.265   7.220   4.275
 1092TIP3    H2 3222   2.141   7.296   4.234
 1093TIP3   OH2 3223   0.574   6.238   4.884
 1093TIP3    H1 3224   0.534   6.300   4.823
 1093TIP3    H2 3225   0.648   6.201   4.836
 1094TIP3   OH2 3226   8.083   3.614   1.064
 1094TIP3    H1 3227   7.988   3.623   1.052
 1094TIP3    H2 3228   8.107   3.691   1.116
 1095TIP3   OH2 3229   8.009   6.419   6.188
 1095TIP3    H1 3230   7.961   6.438   6.269
 1095TIP3    H2 3231   8.016   6.324   6.185
 1096TIP3   OH2 3232   3.482   7.785   1.976
 1096TIP3    H1 3233   3.469   7.872   2.013
 1096TIP3    H2 3234   3.565   7.791   1.929
 1097TIP3   OH2 3235   5.263   7.119   2.491
 1097TIP3    H1 3236   5.218   7.195   2.527
 1097TIP3    H2 3237   5.194   7.069   2.447
 1098TIP3   OH2 3238   5.212   6.112   4.615
 1098TIP3    H1 3239   5.255   6.098   4.531
 1098TIP3    H2 3240   5.280   6.148   4.672
 1099TIP3   OH2 3241   8.060   0.635   1.149
 1099TIP3    H1 3242   8.114   0.589   1.085
 1099TIP3    H2 3243   8.116   0.644   1.226
 1100TIP3   OH2 3244   0.038   5.208   6.803
 1100TIP3    H1 3245   0.103   5.269   6.838
 1100TIP3    H2 3246   0.036   5.227   6.709
 1101TIP3   OH2 3247   5.360   2.425   2.305
 1101TIP3    H1 3248   5.347   2.398   2.214
 1101TIP3    H2 3249   5.281   2.474   2.327
 1102TIP3   OH2 3250   1.689   7.613   6.682
 1102TIP3    H1 3251   1.645   7.572   6.607
 1102TIP3    H2 3252   1.707   7.702   6.653
 1103TIP3   OH2 3253   4.352   2.316   5.219
 1103TIP3    H1 3254   4.330   2.397   5.171
 1103TIP3    H2 3255   4.282   2.307   5.283
 1104TIP3   OH2 3256   3.326   3.234   4.794
 1104TIP3    H1 3257   3.417   3.202   4.788
 1104TIP3    H2 3258   3.275   3.157   4.818
 1105TIP3   OH2 3259   1.943   2.989   5.238
 1105TIP3    H1 3260   1.918   2.990   5.145
 1105TIP3    H2 3261   1.903   2.909   5.272
 1106TIP3   OH2 3262   7.068   6.017   6.301
 1106TIP3    H1 3263   7.051   6.017   6.207
 1106TIP3    H2 3264   7.163   6.007   6.308
 1107TIP3   OH2 3265   1.832   2.859   0.507
 1107TIP3    H1 3266   1.925   2.871   0.526
 1107TIP3    H2 3267   1.823   2.882   0.414
 1108TIP3   OH2 3268   2.247   4.531   6.574
 1108TIP3    H1 3269   2.333   4.520   6.534
 1108TIP3    H2 3270   2.208   4.606   6.528
 1109TIP3   OH2 3271   1.417   2.630   0.855
 1109TIP3    H1 3272   1.456   2.706   0.813
 1109TIP3    H2 3273   1.466   2.620   0.937
 1110TIP3   OH2 3274   3.358   2.219   0.262
 1110TIP3    H1 3275   3.339   2.290   0.323
 1110TIP3    H2 3276   3.292   2.226   0.194
 1111TIP3   OH2 3277   3.247   3.320   2.263
 1111TIP3    H1 3278   3.257   3.318   2.359
 1111TIP3    H2 3279   3.324   3.368   2.232
 1112TIP3   OH2 3280   3.902   0.019   0.170
 1112TIP3    H1 3281   3.894   0.081   0.098
 1112TIP3    H2 3282   3.842  -0.052   0.147
 1113TIP3   OH2 3283   8.160   3.917   5.015
 1113TIP3    H1 3284   8.091   3.875   5.066
 1113TIP3    H2 3285   8.175   4.001   5.059
 1114TIP3   OH2 3286   4.294   2.225   2.528
 1114TIP3    H1 3287   4.385   2.218   2.498
 1114TIP3    H2 3288   4.271   2.136   2.556
 1115TIP3   OH2 3289   3.080   5.912   5.699
 1115TIP3    H1 3290   3.023   5.978   5.660
 1115TIP3    H2 3291   3.035   5.887   5.780
 1116TIP3   OH2 3292   5.213   7.343   3.811
 1116TIP3    H1 3293   5.252   7.336   3.898
 1116TIP3    H2 3294   5.124   7.311   3.822
 1117TIP3   OH2 3295   1.138   1.135   0.515
 1117TIP3    H1 3296   1.157   1.046   0.545
 1117TIP3    H2 3297   1.176   1.191   0.582
 1118TIP3   OH2 3298   1.552   5.948   6.122
 1118TIP3    H1 3299   1.483   5.991   6.072
 1118TIP3    H2 3300   1.553   5.994   6.206
 1119TIP3   OH2 3301   6.551   7.617   3.659
 1119TIP3    H1 3302   6.497   7.599   3.736
 1119TIP3    H2 3303   6.508   7.570   3.587
 1120TIP3   OH2 3304   7.134   6.770   3.843
 1120TIP3    H1 3305   7.149   6.838   3.908
 1120TIP3    H2 3306   7.047   6.734   3.865
 1121TIP3   OH2 3307   0.907   5.455   0.159
 1121TIP3    H1 3308   0.848   5.439   0.233
 1121TIP3    H2 3309   0.965   5.525   0.189
 1122TIP3   OH2 3310   0.294   1.462   2.752
 1122TIP3    H1 3311   0.231   1.517   2.798
 1122TIP3    H2 3312   0.308   1.387   2.809
 1123TIP3   OH2 3313   5.066   6.018   3.894
 1123TIP3    H1 3314   5.039   6.103   3.860
 1123TIP3    H2 3315   5.103   6.037   3.980
 1124TIP3   OH2 3316   7.056   0.834   0.377
 1124TIP3    H1 3317   7.034   0.819   0.284
 1124TIP3    H2 3318   7.093   0.922   0.379
 1125TIP3   OH2 3319   5.829   5.338   2.864
 1125TIP3    H1 3320   5.899   5.373   2.808
 1125TIP3    H2 3321   5.863   5.255   2.896
 1126TIP3   OH2 3322   3.472   3.949   2.435
 1126TIP3    H1 3323   3.464   3.981   2.345
 1126TIP3    H2 3324   3.396   3.986   2.479
 1127TIP3   OH2 3325   5.133   6.708   0.989
 1127TIP3    H1 3326   5.074   6.633   0.980
 1127TIP3    H2 3327   5.192   6.684   1.060
 1128TIP3   OH2 3328   6.435   5.177   3.986
 1128TIP3    H1 3329   6.448   5.084   4.003
 1128TIP3    H2 3330   6.381   5.209   4.059
 1129TIP3   OH2 3331   0.379   7.403   1.514
 1129TIP3    H1 3332   0.333   7.401   1.599
 1129TIP3    H2 3333   0.420   7.317   1.508
 1130TIP3   OH2 3334   6.426   6.587   0.561
 1130TIP3    H1 3335   6.348   6.545   0.527
 1130TIP3    H2 3336   6.439   6.547   0.647
 1131TIP3   OH2 3337   6.352   5.499   4.066
 1131TIP3    H1 3338   6.375   5.447   3.989
 1131TIP3    H2 3339   6.415   5.473   4.133
 1132TIP3   OH2 3340   8.053   1.613   6.563
 1132TIP3    H1 3341   7.961   1.627   6.585
 1132TIP3    H2 3342   8.051   1.545   6.495
 1133TIP3   OH2 3343   4.677   5.900   0.822
 1133TIP3    H1 3344   4.695   5.977   0.876
 1133TIP3    H2 3345   4.586   5.878   0.842
 1134TIP3   OH2 3346   1.594   5.027   6.333
 1134TIP3    H1 3347   1.660   5.058   6.271
 1134TIP3    H2 3348   1.523   5.091   6.327
 1135TIP3   OH2 3349   6.550   4.204   2.824
 1135TIP3    H1 3350   6.564   4.273   2.889
 1135TIP3    H2 3351   6.627   4.207   2.768
 1136TIP3   OH2 3352   8.048   2.126   6.346
 1136TIP3    H1 3353   7.965   2.140   6.392
 1136TIP3    H2 3354   8.078   2.040   6.377
 1137TIP3   OH2 3355   5.263   6.893   0.842
 1137TIP3    H1 3356   5.214   6.823   0.886
 1137TIP3    H2 3357   5.207   6.970   0.849
 1138TIP3   OH2 3358   1.162   1.282   5.321
 1138TIP3    H1 3359   1.108   1.231   5.261
 1138TIP3    H2 3360   1.142   1.247   5.408
 1139TIP3   OH2 3361   1.811   3.421   3.407
 1139TIP3    H1 3362   1.816   3.346   3.347
 1139TIP3    H2 3363   1.785   3.383   3.491
 1140TIP3   OH2 3364   0.159   2.056   3.714
 1140TIP3    H1 3365   0.139   2.022   3.801
 1140TIP3    H2 3366   0.085   2.113   3.693
 1141TIP3   OH2 3367   6.205   3.765   3.757
 1141TIP3    H1 3368   6.136   3.796   3.699
 1141TIP3    H2 3369   6.200   3.822   3.833
 1142TIP3   OH2 3370   0.740   5.851   0.007
 1142TIP3    H1 3371   0.690   5.918  -0.039
 1142TIP3    H2 3372   0.674   5.791   0.042
 1143TIP3   OH2 3373   3.039   6.456   5.166
 1143TIP3    H1 3374   3.123   6.498   5.145
 1143TIP3    H2 3375   3.028   6.470   5.260
 1144TIP3   OH2 3376   7.011   2.369   1.686
 1144TIP3    H1 3377   7.018   2.462   1.709
 1144TIP3    H2 3378   7.100   2.335   1.697
 1145TIP3   OH2 3379   4.981   5.885   4.314
 1145TIP3    H1 3380   5.053   5.829   4.284
 1145TIP3    H2 3381   4.959   5.852   4.401
 1146TIP3   OH2 3382   6.918   2.295   0.030
 1146TIP3    H1 3383   6.890   2.384   0.049
 1146TIP3    H2 3384   7.007   2.305  -0.005
 1147TIP3   OH2 3385   5.281   1.499   6.605
 1147TIP3    H1 3386   5.231   1.425   6.639
 1147TIP3    H2 3387   5.363   1.460   6.575
 1148TIP3   OH2 3388   3.218   4.207   4.197
 1148TIP3    H1 3389   3.144   4.172   4.247
 1148TIP3    H2 3390   3.183   4.286   4.156
 1149TIP3   OH2 3391   0.105   1.441   1.513
 1149TIP3    H1 3392   0.056   1.443   1.596
 1149TIP3    H2 3393   0.147   1.355   1.511
 1150TIP3   OH2 3394   1.499   6.339   3.040
 1150TIP3    H1 3395   1.486   6.352   2.947
 1150TIP3    H2 3396   1.566   6.271   3.046
 1151TIP3   OH2 3397   2.545   0.967   5.174
 1151TIP3    H1 3398   2.513   0.969   5.084
 1151TIP3    H2 3399   2.583   1.053   5.188
 1152TIP3   OH2 3400   3.306   7.575   1.682
 1152TIP3    H1 3401   3.332   7.560   1.773
 1152TIP3    H2 3402   3.259   7.495   1.657
 1153TIP3   OH2 3403   8.027   6.992   4.202
 1153TIP3    H1 3404   8.034   6.974   4.296
 1153TIP3    H2 3405   8.089   7.063   4.186
 1154TIP3   OH2 3406   6.191   0.517   5.594
 1154TIP3    H1 3407   6.162   0.431   5.565
 1154TIP3    H2 3408   6.241   0.500   5.674
 1155TIP3   OH2 3409   3.290   7.429   5.829
 1155TIP3    H1 3410   3.357   7.496   5.816
 1155TIP3    H2 3411   3.228   7.442   5.757
 1156TIP3   OH2 3412   7.181   0.838   2.844
 1156TIP3    H1 3413   7.260   0.812   2.891
 1156TIP3    H2 3414   7.114   0.846   2.911
 1157TIP3   OH2 3415  -0.009   3.826   1.844
 1157TIP3    H1 3416   0.048   3.750   1.836
 1157TIP3    H2 3417   0.041   3.888   1.898
 1158TIP3   OH2 3418   4.718   0.865   4.978
 1158TIP3    H1 3419   4.794   0.859   5.036
 1158TIP3    H2 3420   4.738   0.806   4.906
 1159TIP3   OH2 3421   3.454   1.526   1.254
 1159TIP3    H1 3422   3.492   1.455   1.305
 1159TIP3    H2 3423   3.451   1.492   1.165
 1160TIP3   OH2 3424   1.021   6.198   2.250
 1160TIP3    H1 3425   1.014   6.124   2.190
 1160TIP3    H2 3426   1.003   6.275   2.196
 1161TIP3   OH2 3427   1.229   2.107   1.366
 1161TIP3    H1 3428   1.304   2.161   1.343
 1161TIP3    H2 3429   1.237   2.029   1.312
 1162TIP3   OH2 3430   0.716   7.458   0.585
 1162TIP3    H1 3431   0.744   7.411   0.663
 1162TIP3    H2 3432   0.628   7.491   0.607
 1163TIP3   OH2 3433   1.391   2.376   0.098
 1163TIP3    H1 3434   1.436   2.448   0.142
 1163TIP3    H2 3435   1.308   2.414   0.068
 1164TIP3   OH2 3436   6.153   0.272   0.005
 1164TIP3    H1 3437   6.248   0.271   0.020
 1164TIP3    H2 3438   6.129   0.179   0.005
 1165TIP3   OH2 3439   2.178   2.604   4.528
 1165TIP3    H1 3440   2.266   2.639   4.543
 1165TIP3    H2 3441   2.148   2.578   4.615
 1166TIP3   OH2 3442   5.427   2.378   6.090
 1166TIP3    H1 3443   5.463   2.319   6.157
 1166TIP3    H2 3444   5.496   2.386   6.025
 1167TIP3   OH2 3445   2.343   6.198   2.837
 1167TIP3    H1 3446   2.271   6.197   2.774
 1167TIP3    H2 3447   2.420   6.171   2.786
 1168TIP3   OH2 3448   7.867   5.892   2.628
 1168TIP3    H1 3449   7.777   5.859   2.633
 1168TIP3    H2 3450   7.922   5.817   2.649
 1169TIP3   OH2 3451   3.954   6.485   1.024
 1169TIP3    H1 3452   4.007   6.553   0.983
 1169TIP3    H2 3453   3.875   6.529   1.053
 1170TIP3   OH2 3454   3.552   5.651   0.315
 1170TIP3    H1 3455   3.616   5.594   0.357
 1170TIP3    H2 3456   3.592   5.674   0.230
 1171TIP3   OH2 3457   0.491   2.401   4.998
 1171TIP3    H1 3458   0.481   2.321   4.947
 1171TIP3    H2 3459   0.402   2.427   5.020
 1172TIP3   OH2 3460   1.857   5.509   4.064
 1172TIP3    H1 3461   1.923   5.574   4.089
 1172TIP3    H2 3462   1.864   5.441   4.131
 1173TIP3   OH2 3463   5.390   3.082   6.176
 1173TIP3    H1 3464   5.334   3.087   6.254
 1173TIP3    H2 3465   5.447   3.006   6.192
 1174TIP3   OH2 3466   6.996   5.723   0.128
 1174TIP3    H1 3467   6.963   5.692   0.212
 1174TIP3    H2 3468   7.002   5.818   0.138
 1175TIP3   OH2 3469   5.603   5.777   1.361
 1175TIP3    H1 3470   5.515   5.754   1.331
 1175TIP3    H2 3471   5.629   5.704   1.416
 1176TIP3   OH2 3472   5.545   2.076   5.193
 1176TIP3    H1 3473   5.482   2.142   5.163
 1176TIP3    H2 3474   5.548   2.011   5.123
 1177TIP3   OH2 3475   5.588   3.523   2.008
 1177TIP3    H1 3476   5.580   3.430   2.030
 1177TIP3    H2 3477   5.583   3.569   2.091
 1178TIP3   OH2 3478   5.231   7.633   5.145
 1178TIP3    H1 3479   5.151   7.686   5.140
 1178TIP3    H2 3480   5.248   7.622   5.238
 1179TIP3   OH2 3481   5.248   1.599   0.356
 1179TIP3    H1 3482   5.184   1.529   0.369
 1179TIP3    H2 3483   5.333   1.555   0.364
 1180TIP3   OH2 3484   0.519   6.683   3.546
 1180TIP3    H1 3485   0.541   6.762   3.496
 1180TIP3    H2 3486   0.473   6.716   3.623
 1181TIP3   OH2 3487   5.706   7.355   6.728
 1181TIP3    H1 3488   5.648   7.416   6.683
 1181TIP3    H2 3489   5.649   7.282   6.752
 1182TIP3   OH2 3490   4.137   5.379   2.470
 1182TIP3    H1 3491   4.075   5.451   2.480
 1182TIP3    H2 3492   4.142   5.339   2.557
 1183TIP3   OH2 3493   7.928   0.411   0.224
 1183TIP3    H1 3494   7.965   0.498   0.232
 1183TIP3    H2 3495   7.866   0.417   0.151
 1184TIP3   OH2 3496   2.682   7.508   4.756
 1184TIP3    H1 3497   2.641   7.422   4.742
 1184TIP3    H2 3498   2.617   7.571   4.724
 1185TIP3   OH2 3499   4.415   3.113   5.802
 1185TIP3    H1 3500   4.326   3.080   5.785
 1185TIP3    H2 3501   4.400   3.194   5.852
 1186TIP3   OH2 3502   1.523   5.333   2.455
 1186TIP3    H1 3503   1.449   5.382   2.489
 1186TIP3    H2 3504   1.485   5.269   2.394
 1187TIP3   OH2 3505   3.812   7.726   2.572
 1187TIP3    H1 3506   3.898   7.716   2.612
 1187TIP3    H2 3507   3.773   7.801   2.617
 1188TIP3   OH2 3508   3.230   2.715   2.011
 1188TIP3    H1 3509   3.297   2.784   2.016
 1188TIP3    H2 3510   3.202   2.702   2.102
 1189TIP3   OH2 3511   6.006   1.271   5.456
 1189TIP3    H1 3512   6.072   1.290   5.390
 1189TIP3    H2 3513   5.997   1.176   5.454
 1190TIP3   OH2 3514   0.083   2.928   2.164
 1190TIP3    H1 3515   0.029   2.885   2.230
 1190TIP3    H2 3516   0.020   2.970   2.105
 1191TIP3   OH2 3517   7.041   6.609   1.208
 1191TIP3    H1 3518   6.954   6.648   1.219
 1191TIP3    H2 3519   7.098   6.683   1.187
 1192TIP3   OH2 3520   3.696   6.288   6.092
 1192TIP3    H1 3521   3.642   6.351   6.043
 1192TIP3    H2 3522   3.776   6.336   6.113
 1193TIP3   OH2 3523   4.544   4.728   5.800
 1193TIP3    H1 3524   4.613   4.769   5.749
 1193TIP3    H2 3525   4.589   4.669   5.860
 1194TIP3   OH2 3526   7.792   6.734   5.594
 1194TIP3    H1 3527   7.727   6.764   5.530
 1194TIP3    H2 3528   7.844   6.812   5.614
 1195TIP3   OH2 3529   7.231   7.605   2.860
 1195TIP3    H1 3530   7.255   7.554   2.782
 1195TIP3    H2 3531   7.289   7.571   2.929
 1196TIP3   OH2 3532   0.427   1.052   0.876
 1196TIP3    H1 3533   0.420   1.129   0.819
 1196TIP3    H2 3534   0.383   0.982   0.827
 1197TIP3   OH2 3535   7.260   5.377   3.497
 1197TIP3    H1 3536   7.216   5.360   3.413
 1197TIP3    H2 3537   7.330   5.312   3.501
 1198TIP3   OH2 3538   1.991   1.726   6.426
 1198TIP3    H1 3539   1.921   1.661   6.434
 1198TIP3    H2 3540   2.037   1.722   6.510
 1199TIP3   OH2 3541   4.551   2.726   1.275
 1199TIP3    H1 3542   4.608   2.658   1.239
 1199TIP3    H2 3543   4.525   2.779   1.200
 1200TIP3   OH2 3544   7.510   1.390   0.400
 1200TIP3    H1 3545   7.572   1.395   0.473
 1200TIP3    H2 3546   7.555   1.433   0.327
 1201TIP3   OH2 3547   0.758   7.601   1.047
 1201TIP3    H1 3548   0.757   7.682   0.996
 1201TIP3    H2 3549   0.727   7.627   1.134
 1202TIP3   OH2 3550   0.327   1.585   0.885
 1202TIP3    H1 3551   0.335   1.544   0.798
 1202TIP3    H2 3552   0.273   1.662   0.870
 1203TIP3   OH2 3553   2.391   7.295   3.924
 1203TIP3    H1 3554   2.367   7.252   3.842
 1203TIP3    H2 3555   2.343   7.378   3.923
 1204TIP3   OH2 3556   4.274   5.728   4.489
 1204TIP3    H1 3557   4.312   5.813   4.509
 1204TIP3    H2 3558   4.184   5.735   4.521
 1205TIP3   OH2 3559   5.097   5.703   6.328
 1205TIP3    H1 3560   5.128   5.720   6.417
 1205TIP3    H2 3561   5.176   5.681   6.279
 1206TIP3   OH2 3562   6.356   4.151   6.259
 1206TIP3    H1 3563   6.445   4.186   6.249
 1206TIP3    H2 3564   6.330   4.127   6.170
 1207TIP3   OH2 3565   4.053   5.640   6.730
 1207TIP3    H1 3566   4.003   5.634   6.811
 1207TIP3    H2 3567   4.126   5.579   6.743
 1208TIP3   OH2 3568   0.559   5.611   2.527
 1208TIP3    H1 3569   0.638   5.655   2.557
 1208TIP3    H2 3570   0.537   5.654   2.444
 1209TIP3   OH2 3571   0.691   2.385   0.149
 1209TIP3    H1 3572   0.782   2.354   0.148
 1209TIP3    H2 3573   0.642   2.314   0.191
 1210TIP3   OH2 3574   6.673   2.380   1.071
 1210TIP3    H1 3575   6.652   2.298   1.115
 1210TIP3    H2 3576   6.595   2.434   1.084
 1211TIP3   OH2 3577   7.389   5.817   1.649
 1211TIP3    H1 3578   7.352   5.885   1.705
 1211TIP3    H2 3579   7.434   5.865   1.579
 1212TIP3   OH2 3580   4.372   0.399   1.328
 1212TIP3    H1 3581   4.394   0.402   1.235
 1212TIP3    H2 3582   4.420   0.323   1.361
 1213TIP3   OH2 3583   1.846   2.160   1.859
 1213TIP3    H1 3584   1.876   2.132   1.773
 1213TIP3    H2 3585   1.820   2.252   1.846
 1214TIP3   OH2 3586   4.512   1.362   2.276
 1214TIP3    H1 3587   4.472   1.278   2.298
 1214TIP3    H2 3588   4.600   1.358   2.313
 1215TIP3   OH2 3589   5.618   5.599   2.589
 1215TIP3    H1 3590   5.566   5.520   2.605
 1215TIP3    H2 3591   5.662   5.616   2.673
 1216TIP3   OH2 3592   1.456   0.112   6.447
 1216TIP3    H1 3593   1.448   0.202   6.478
 1216TIP3    H2 3594   1.547   0.088   6.467
 1217TIP3   OH2 3595   5.761   0.991   3.184
 1217TIP3    H1 3596   5.700   0.923   3.211
 1217TIP3    H2 3597   5.847   0.956   3.205
 1218TIP3   OH2 3598   4.334   4.916   5.565
 1218TIP3    H1 3599   4.244   4.905   5.536
 1218TIP3    H2 3600   4.330   4.909   5.661
 1219TIP3   OH2 3601   6.194   3.540   6.267
 1219TIP3    H1 3602   6.100   3.552   6.281
 1219TIP3    H2 3603   6.228   3.629   6.256
 1220TIP3   OH2 3604   4.801   6.534   5.280
 1220TIP3    H1 3605   4.757   6.594   5.220
 1220TIP3    H2 3606   4.775   6.447   5.250
 1221TIP3   OH2 3607   8.290   6.455   0.606
 1221TIP3    H1 3608   8.332   6.477   0.522
 1221TIP3    H2 3609   8.254   6.367   0.591
 1222TIP3   OH2 3610   6.165   4.178   5.703
 1222TIP3    H1 3611   6.121   4.242   5.759
 1222TIP3    H2 3612   6.218   4.231   5.643
 1223TIP3   OH2 3613   2.783   7.655   4.006
 1223TIP3    H1 3614   2.827   7.739   3.994
 1223TIP3    H2 3615   2.779   7.642   4.101
 1224TIP3   OH2 3616   2.444   2.985   6.049
 1224TIP3    H1 3617   2.400   2.970   5.966
 1224TIP3    H2 3618   2.377   3.022   6.106
 1225TIP3   OH2 3619   1.387   3.286   0.808
 1225TIP3    H1 3620   1.427   3.226   0.745
 1225TIP3    H2 3621   1.414   3.373   0.778
 1226TIP3   OH2 3622   7.601   2.704   5.033
 1226TIP3    H1 3623   7.514   2.710   5.073
 1226TIP3    H2 3624   7.595   2.628   4.975
 1227TIP3   OH2 3625   6.878   7.371   5.654
 1227TIP3    H1 3626   6.835   7.313   5.592
 1227TIP3    H2 3627   6.924   7.313   5.714
 1228TIP3   OH2 3628   4.194   3.396   1.325
 1228TIP3    H1 3629   4.133   3.469   1.337
 1228TIP3    H2 3630   4.263   3.412   1.390
 1229TIP3   OH2 3631   7.452   6.463   1.443
 1229TIP3    H1 3632   7.421   6.549   1.473
 1229TIP3    H2 3633   7.527   6.444   1.499
 1230TIP3   OH2 3634   7.314   1.544   2.611
 1230TIP3    H1 3635   7.365   1.474   2.652
 1230TIP3    H2 3636   7.379   1.611   2.589
 1231TIP3   OH2 3637   6.260   5.185   0.440
 1231TIP3    H1 3638   6.206   5.152   0.512
 1231TIP3    H2 3639   6.226   5.142   0.362
 1232TIP3   OH2 3640   2.371   2.951   0.451
 1232TIP3    H1 3641   2.377   2.902   0.533
 1232TIP3    H2 3642   2.440   2.913   0.396
 1233TIP3   OH2 3643   4.986   4.103   5.344
 1233TIP3    H1 3644   5.038   4.123   5.266
 1233TIP3    H2 3645   5.026   4.023   5.379
 1234TIP3   OH2 3646   5.494   3.498   1.024
 1234TIP3    H1 3647   5.470   3.546   1.104
 1234TIP3    H2 3648   5.435   3.423   1.022
 1235TIP3   OH2 3649   3.246   3.755   4.919
 1235TIP3    H1 3650   3.203   3.774   5.002
 1235TIP3    H2 3651   3.234   3.660   4.906
 1236TIP3   OH2 3652   0.518   2.911   2.565
 1236TIP3    H1 3653   0.561   2.880   2.485
 1236TIP3    H2 3654   0.561   2.994   2.585
 1237TIP3   OH2 3655   6.411   5.323   4.849
 1237TIP3    H1 3656   6.367   5.396   4.805
 1237TIP3    H2 3657   6.455   5.276   4.778
 1238TIP3   OH2 3658   3.774   6.019   6.034
 1238TIP3    H1 3659   3.827   6.097   6.047
 1238TIP3    H2 3660   3.696   6.050   5.988
 1239TIP3   OH2 3661   4.308   1.763   2.155
 1239TIP3    H1 3662   4.329   1.672   2.132
 1239TIP3    H2 3663   4.338   1.772   2.245
 1240TIP3   OH2 3664   1.722   5.538   2.308
 1240TIP3    H1 3665   1.678   5.611   2.265
 1240TIP3    H2 3666   1.807   5.532   2.265
 1241TIP3   OH2 3667   7.879   6.699   4.258
 1241TIP3    H1 3668   7.817   6.761   4.295
 1241TIP3    H2 3669   7.834   6.614   4.264
 1242TIP3   OH2 3670   7.092   6.144   5.693
 1242TIP3    H1 3671   7.116   6.074   5.632
 1242TIP3    H2 3672   7.107   6.107   5.780
 1243TIP3   OH2 3673   2.317   5.107   6.740
 1243TIP3    H1 3674   2.259   5.086   6.813
 1243TIP3    H2 3675   2.290   5.048   6.670
 1244TIP3   OH2 3676   3.111   1.224   2.121
 1244TIP3    H1 3677   3.166   1.157   2.080
 1244TIP3    H2 3678   3.148   1.307   2.091
 1245TIP3   OH2 3679   7.680   2.802   1.785
 1245TIP3    H1 3680   7.656   2.710   1.776
 1245TIP3    H2 3681   7.776   2.802   1.783
 1246TIP3   OH2 3682   0.471   1.608   1.118
 1246TIP3    H1 3683   0.472   1.700   1.144
 1246TIP3    H2 3684   0.428   1.608   1.032
 1247TIP3   OH2 3685   7.154   1.262   4.546
 1247TIP3    H1 3686   7.064   1.244   4.572
 1247TIP3    H2 3687   7.150   1.276   4.452
 1248TIP3   OH2 3688   4.893   2.851   0.581
 1248TIP3    H1 3689   4.890   2.778   0.519
 1248TIP3    H2 3690   4.986   2.872   0.589
 1249TIP3   OH2 3691   6.585   1.473   4.846
 1249TIP3    H1 3692   6.652   1.527   4.804
 1249TIP3    H2 3693   6.556   1.525   4.921
 1250TIP3   OH2 3694   3.258   2.025   2.643
 1250TIP3    H1 3695   3.293   1.943   2.678
 1250TIP3    H2 3696   3.261   2.013   2.548
 1251TIP3   OH2 3697   8.241   2.104   6.594
 1251TIP3    H1 3698   8.304   2.128   6.526
 1251TIP3    H2 3699   8.211   2.016   6.568
 1252TIP3   OH2 3700   6.908   0.012   4.910
 1252TIP3    H1 3701   6.953   0.093   4.890
 1252TIP3    H2 3702   6.815   0.034   4.904
 1253TIP3   OH2 3703   3.660   0.717   1.755
 1253TIP3    H1 3704   3.667   0.680   1.843
 1253TIP3    H2 3705   3.747   0.754   1.737
 1254TIP3   OH2 3706   8.083   7.292   3.208
 1254TIP3    H1 3707   8.130   7.209   3.209
 1254TIP3    H2 3708   8.151   7.358   3.229
 1255TIP3   OH2 3709   7.612   3.458   1.997
 1255TIP3    H1 3710   7.553   3.487   2.066
 1255TIP3    H2 3711   7.574   3.491   1.916
 1256TIP3   OH2 3712   0.573   1.354   4.569
 1256TIP3    H1 3713   0.526   1.276   4.538
 1256TIP3    H2 3714   0.518   1.388   4.640
 1257TIP3   OH2 3715   7.637   0.968   6.682
 1257TIP3    H1 3716   7.585   0.888   6.691
 1257TIP3    H2 3717   7.611   1.022   6.756
 1258TIP3   OH2 3718   5.566   4.993   5.788
 1258TIP3    H1 3719   5.477   4.995   5.754
 1258TIP3    H2 3720   5.561   5.039   5.872
 1259TIP3   OH2 3721   2.329   5.558   5.911
 1259TIP3    H1 3722   2.275   5.523   5.840
 1259TIP3    H2 3723   2.268   5.612   5.962
 1260TIP3   OH2 3724   1.267   5.003   1.435
 1260TIP3    H1 3725   1.349   4.954   1.431
 1260TIP3    H2 3726   1.254   5.037   1.346
 1261TIP3   OH2 3727   6.823   7.590   3.596
 1261TIP3    H1 3728   6.740   7.625   3.629
 1261TIP3    H2 3729   6.818   7.600   3.501
 1262TIP3   OH2 3730   4.243   5.077   6.655
 1262TIP3    H1 3731   4.255   4.985   6.678
 1262TIP3    H2 3732   4.216   5.119   6.736
 1263TIP3   OH2 3733   0.577   0.023   3.202
 1263TIP3    H1 3734   0.490   0.008   3.166
 1263TIP3    H2 3735   0.634  -0.033   3.150
 1264TIP3   OH2 3736   0.861   2.142   2.406
 1264TIP3    H1 3737   0.944   2.190   2.417
 1264TIP3    H2 3738   0.835   2.160   2.316
 1265TIP3   OH2 3739   3.289   5.263   0.058
 1265TIP3    H1 3740   3.316   5.205   0.129
 1265TIP3    H2 3741   3.363   5.323   0.047
 1266TIP3   OH2 3742   2.193   4.662   4.639
 1266TIP3    H1 3743   2.213   4.668   4.546
 1266TIP3    H2 3744   2.270   4.698   4.683
 1267TIP3   OH2 3745   4.634   1.523   3.310
 1267TIP3    H1 3746   4.648   1.458   3.241
 1267TIP3    H2 3747   4.660   1.606   3.269
 1268TIP3   OH2 3748   1.337   2.453   6.206
 1268TIP3    H1 3749   1.393   2.403   6.265
 1268TIP3    H2 3750   1.340   2.404   6.123
 1269TIP3   OH2 3751   8.114   1.856   0.641
 1269TIP3    H1 3752   8.200   1.827   0.672
 1269TIP3    H2 3753   8.098   1.938   0.687
 1270TIP3   OH2 3754   0.538   4.882   1.770
 1270TIP3    H1 3755   0.526   4.798   1.815
 1270TIP3    H2 3756   0.622   4.914   1.801
 1271TIP3   OH2 3757   5.724   3.297   0.905
 1271TIP3    H1 3758   5.738   3.334   0.818
 1271TIP3    H2 3759   5.689   3.370   0.956
 1272TIP3   OH2 3760   1.325   5.850   1.957
 1272TIP3    H1 3761   1.315   5.912   2.029
 1272TIP3    H2 3762   1.391   5.890   1.900
 1273TIP3   OH2 3763   2.483   0.564   3.000
 1273TIP3    H1 3764   2.538   0.550   2.922
 1273TIP3    H2 3765   2.437   0.481   3.011
 1274TIP3   OH2 3766   5.646   4.433   6.168
 1274TIP3    H1 3767   5.553   4.447   6.151
 1274TIP3    H2 3768   5.652   4.340   6.192
 1275TIP3   OH2 3769   2.230   3.059   3.665
 1275TIP3    H1 3770   2.179   2.979   3.675
 1275TIP3    H2 3771   2.319   3.029   3.646
 1276TIP3   OH2 3772   5.396   3.260   3.505
 1276TIP3    H1 3773   5.380   3.311   3.426
 1276TIP3    H2 3774   5.435   3.179   3.474
 1277TIP3   OH2 3775   5.135   5.231   3.858
 1277TIP3    H1 3776   5.140   5.321   3.890
 1277TIP3    H2 3777   5.224   5.197   3.867
 1278TIP3   OH2 3778   6.358   2.043   3.449
 1278TIP3    H1 3779   6.327   1.985   3.517
 1278TIP3    H2 3780   6.355   1.990   3.369
 1279TIP3   OH2 3781   5.182   7.772   4.024
 1279TIP3    H1 3782   5.271   7.792   3.995
 1279TIP3    H2 3783   5.127   7.828   3.971
 1280TIP3   OH2 3784   1.410   1.183   0.153
 1280TIP3    H1 3785   1.424   1.275   0.171
 1280TIP3    H2 3786   1.437   1.138   0.233
 1281TIP3   OH2 3787   5.632   6.354   6.323
 1281TIP3    H1 3788   5.695   6.308   6.267
 1281TIP3    H2 3789   5.597   6.287   6.381
 1282TIP3   OH2 3790   7.954   3.066   4.618
 1282TIP3    H1 3791   7.931   3.068   4.711
 1282TIP3    H2 3792   7.875   3.093   4.572
 1283TIP3   OH2 3793   5.413   3.616   1.281
 1283TIP3    H1 3794   5.377   3.678   1.345
 1283TIP3    H2 3795   5.400   3.530   1.321
 1284TIP3   OH2 3796   7.143   1.625   1.782
 1284TIP3    H1 3797   7.227   1.667   1.799
 1284TIP3    H2 3798   7.119   1.583   1.865
 1285TIP3   OH2 3799   2.871   1.525   6.519
 1285TIP3    H1 3800   2.808   1.588   6.484
 1285TIP3    H2 3801   2.873   1.454   6.455
 1286TIP3   OH2 3802   3.234   3.065   2.162
 1286TIP3    H1 3803   3.158   3.056   2.105
 1286TIP3    H2 3804   3.224   3.151   2.203
 1287TIP3   OH2 3805   3.258   7.630   2.668
 1287TIP3    H1 3806   3.169   7.618   2.634
 1287TIP3    H2 3807   3.257   7.717   2.707
 1288TIP3   OH2 3808   7.322   1.654   6.672
 1288TIP3    H1 3809   7.235   1.691   6.685
 1288TIP3    H2 3810   7.320   1.617   6.584
 1289TIP3   OH2 3811   7.403   3.529  -0.019
 1289TIP3    H1 3812   7.341   3.598  -0.045
 1289TIP3    H2 3813   7.349   3.466   0.029
 1290TIP3   OH2 3814   5.307   3.407   0.338
 1290TIP3    H1 3815   5.214   3.413   0.318
 1290TIP3    H2 3816   5.348   3.471   0.279
 1291TIP3   OH2 3817   5.372   7.774   2.773
 1291TIP3    H1 3818   5.449   7.772   2.716
 1291TIP3    H2 3819   5.406   7.754   2.860
 1292TIP3   OH2 3820   5.429   4.008   2.882
 1292TIP3    H1 3821   5.499   3.958   2.924
 1292TIP3    H2 3822   5.379   3.943   2.833
 1293TIP3   OH2 3823   6.990   3.417   1.175
 1293TIP3    H1 3824   6.983   3.403   1.081
 1293TIP3    H2 3825   6.899   3.415   1.206
 1294TIP3   OH2 3826   3.587   3.856   5.635
 1294TIP3    H1 3827   3.538   3.922   5.685
 1294TIP3    H2 3828   3.663   3.836   5.689
 1295TIP3   OH2 3829   0.111   0.216   6.187
 1295TIP3    H1 3830   0.102   0.129   6.225
 1295TIP3    H2 3831   0.135   0.201   6.096
 1296TIP3   OH2 3832   3.665   3.189   1.608
 1296TIP3    H1 3833   3.730   3.130   1.569
 1296TIP3    H2 3834   3.705   3.217   1.691
 1297TIP3   OH2 3835   6.195   5.081   6.232
 1297TIP3    H1 3836   6.230   5.033   6.157
 1297TIP3    H2 3837   6.152   5.015   6.286
 1298TIP3   OH2 3838   1.367   6.823   1.692
 1298TIP3    H1 3839   1.350   6.805   1.600
 1298TIP3    H2 3840   1.284   6.857   1.726
 1299TIP3   OH2 3841   6.109   4.067   2.324
 1299TIP3    H1 3842   6.103   4.136   2.390
 1299TIP3    H2 3843   6.159   4.106   2.252
 1300TIP3   OH2 3844   6.061   0.042   1.047
 1300TIP3    H1 3845   6.146   0.079   1.070
 1300TIP3    H2 3846   6.007   0.057   1.125
 1301TIP3   OH2 3847   1.544   7.062   2.795
 1301TIP3    H1 3848   1.566   7.083   2.886
 1301TIP3    H2 3849   1.455   7.093   2.784
 1302TIP3   OH2 3850   3.626   0.932   3.584
 1302TIP3    H1 3851   3.556   0.997   3.577
 1302TIP3    H2 3852   3.706   0.980   3.562
 1303TIP3   OH2 3853   3.791   1.412   2.454
 1303TIP3    H1 3854   3.819   1.478   2.390
 1303TIP3    H2 3855   3.866   1.403   2.512
 1304TIP3   OH2 3856   7.830   7.494   3.391
 1304TIP3    H1 3857   7.762   7.458   3.333
 1304TIP3    H2 3858   7.898   7.525   3.332
 1305TIP3   OH2 3859   7.604   2.544   1.804
 1305TIP3    H1 3860   7.649   2.460   1.805
 1305TIP3    H2 3861   7.556   2.547   1.887
 1306TIP3   OH2 3862   6.020   2.568   5.349
 1306TIP3    H1 3863   6.012   2.641   5.411
 1306TIP3    H2 3864   6.052   2.610   5.269
 1307TIP3   OH2 3865   2.960   3.954   1.307
 1307TIP3    H1 3866   2.870   3.967   1.337
 1307TIP3    H2 3867   3.012   4.015   1.360
 1308TIP3   OH2 3868   5.177   6.711   6.158
 1308TIP3    H1 3869   5.161   6.699   6.064
 1308TIP3    H2 3870   5.140   6.633   6.199
 1309TIP3   OH2 3871   5.259   7.450   4.833
 1309TIP3    H1 3872   5.298   7.362   4.835
 1309TIP3    H2 3873   5.227   7.464   4.922
 1310TIP3   OH2 3874   6.281   2.827   5.853
 1310TIP3    H1 3875   6.351   2.762   5.851
 1310TIP3    H2 3876   6.287   2.871   5.768
 1311TIP3   OH2 3877   1.938   6.803   1.877
 1311TIP3    H1 3878   1.871   6.778   1.814
 1311TIP3    H2 3879   1.921   6.896   1.894
 1312TIP3   OH2 3880   7.863   7.138   1.965
 1312TIP3    H1 3881   7.770   7.160   1.964
 1312TIP3    H2 3882   7.905   7.213   2.008
 1313TIP3   OH2 3883   5.512   7.094   6.160
 1313TIP3    H1 3884   5.429   7.118   6.200
 1313TIP3    H2 3885   5.507   6.999   6.148
 1314TIP3   OH2 3886   4.344   4.066   4.982
 1314TIP3    H1 3887   4.303   3.984   5.008
 1314TIP3    H2 3888   4.438   4.052   4.999
 1315TIP3   OH2 3889   4.705   0.966   6.781
 1315TIP3    H1 3890   4.690   1.060   6.787
 1315TIP3    H2 3891   4.694   0.946   6.688
 1316TIP3   OH2 3892   1.881   1.858   0.574
 1316TIP3    H1 3893   1.796   1.900   0.581
 1316TIP3    H2 3894   1.923   1.874   0.658
 1317TIP3   OH2 3895   5.765   6.401   5.898
 1317TIP3    H1 3896   5.851   6.416   5.937
 1317TIP3    H2 3897   5.738   6.316   5.933
 1318TIP3   OH2 3898   2.913   4.439   0.710
 1318TIP3    H1 3899   2.949   4.369   0.764
 1318TIP3    H2 3900   2.865   4.394   0.640
 1319TIP3   OH2 3901   7.504   4.998   4.986
 1319TIP3    H1 3902   7.580   4.958   5.028
 1319TIP3    H2 3903   7.463   4.927   4.937
 1320TIP3   OH2 3904   5.532   4.994   1.025
 1320TIP3    H1 3905   5.495   5.074   1.063
 1320TIP3    H2 3906   5.462   4.930   1.032
 1321TIP3   OH2 3907   7.863   0.672   5.772
 1321TIP3    H1 3908   7.778   0.707   5.744
 1321TIP3    H2 3909   7.840   0.597   5.826
 1322TIP3   OH2 3910   5.275   7.507   4.268
 1322TIP3    H1 3911   5.353   7.454   4.285
 1322TIP3    H2 3912   5.308   7.586   4.225
 1323TIP3   OH2 3913   7.982   1.963   1.598
 1323TIP3    H1 3914   7.944   2.043   1.560
 1323TIP3    H2 3915   8.074   1.985   1.612
 1324TIP3   OH2 3916   5.773   2.928   4.409
 1324TIP3    H1 3917   5.743   2.903   4.497
 1324TIP3    H2 3918   5.726   3.009   4.390
 1325TIP3   OH2 3919   1.279   4.909   0.443
 1325TIP3    H1 3920   1.268   4.973   0.372
 1325TIP3    H2 3921   1.305   4.828   0.399
 1326TIP3   OH2 3922   7.062   1.351   2.611
 1326TIP3    H1 3923   7.085   1.416   2.544
 1326TIP3    H2 3924   7.002   1.291   2.566
 1327TIP3   OH2 3925   7.164   6.735   5.634
 1327TIP3    H1 3926   7.251   6.751   5.597
 1327TIP3    H2 3927   7.179   6.670   5.703
 1328TIP3   OH2 3928  -0.029   5.663   1.572
 1328TIP3    H1 3929  -0.047   5.595   1.637
 1328TIP3    H2 3930   0.063   5.651   1.549
 1329TIP3   OH2 3931   2.421   5.368   4.567
 1329TIP3    H1 3932   2.511   5.364   4.534
 1329TIP3    H2 3933   2.390   5.455   4.543
 1330TIP3   OH2 3934   2.565   1.572   3.609
 1330TIP3    H1 3935   2.595   1.649   3.658
 1330TIP3    H2 3936   2.470   1.581   3.608
 1331TIP3   OH2 3937   3.025   5.497   2.829
 1331TIP3    H1 3938   3.041   5.410   2.865
 1331TIP3    H2 3939   2.974   5.541   2.897
 1332TIP3   OH2 3940   0.355   1.644   1.868
 1332TIP3    H1 3941   0.354   1.604   1.782
 1332TIP3    H2 3942   0.363   1.738   1.851
 1333TIP3   OH2 3943   7.206   4.803   3.054
 1333TIP3    H1 3944   7.161   4.735   3.104
 1333TIP3    H2 3945   7.218   4.765   2.967
 1334TIP3   OH2 3946   5.322   2.214   4.726
 1334TIP3    H1 3947   5.321   2.172   4.640
 1334TIP3    H2 3948   5.269   2.157   4.781
 1335TIP3   OH2 3949   1.939   3.239   0.501
 1335TIP3    H1 3950   1.993   3.163   0.525
 1335TIP3    H2 3951   1.984   3.278   0.427
 1336TIP3   OH2 3952   5.037   4.765   5.259
 1336TIP3    H1 3953   5.072   4.680   5.286
 1336TIP3    H2 3954   5.056   4.823   5.333
 1337TIP3   OH2 3955   6.664   5.083   1.247
 1337TIP3    H1 3956   6.631   5.166   1.215
 1337TIP3    H2 3957   6.642   5.083   1.340
 1338TIP3   OH2 3958   3.260   5.933   1.176
 1338TIP3    H1 3959   3.268   5.890   1.261
 1338TIP3    H2 3960   3.274   5.863   1.112
 1339TIP3   OH2 3961   6.393   2.894   6.344
 1339TIP3    H1 3962   6.345   2.896   6.427
 1339TIP3    H2 3963   6.329   2.922   6.278
 1340TIP3   OH2 3964   3.313   3.935   5.417
 1340TIP3    H1 3965   3.370   3.859   5.426
 1340TIP3    H2 3966   3.226   3.899   5.402
 1341TIP3   OH2 3967   2.513   5.411   5.138
 1341TIP3    H1 3968   2.477   5.323   5.128
 1341TIP3    H2 3969   2.445   5.460   5.184
 1342TIP3   OH2 3970   3.369   4.081   2.187
 1342TIP3    H1 3971   3.341   4.161   2.231
 1342TIP3    H2 3972   3.427   4.111   2.118
 1343TIP3   OH2 3973   3.906   5.510   6.521
 1343TIP3    H1 3974   3.940   5.425   6.551
 1343TIP3    H2 3975   3.971   5.573   6.550
 1344TIP3   OH2 3976   2.348   5.646   0.392
 1344TIP3    H1 3977   2.299   5.574   0.351
 1344TIP3    H2 3978   2.285   5.685   0.453
 1345TIP3   OH2 3979   1.183   4.442   3.940
 1345TIP3    H1 3980   1.150   4.367   3.990
 1345TIP3    H2 3981   1.135   4.517   3.975
 1346TIP3   OH2 3982   6.793   5.235   3.815
 1346TIP3    H1 3983   6.750   5.254   3.899
 1346TIP3    H2 3984   6.885   5.257   3.830
 1347TIP3   OH2 3985   5.170   1.968   5.156
 1347TIP3    H1 3986   5.101   1.948   5.220
 1347TIP3    H2 3987   5.231   1.895   5.164
 1348TIP3   OH2 3988   2.071   3.871   6.546
 1348TIP3    H1 3989   2.062   3.827   6.462
 1348TIP3    H2 3990   2.166   3.872   6.562
 1349TIP3   OH2 3991   4.724   7.799   3.395
 1349TIP3    H1 3992   4.638   7.801   3.353
 1349TIP3    H2 3993   4.779   7.856   3.342
 1350TIP3   OH2 3994   7.433   1.475   4.170
 1350TIP3    H1 3995   7.470   1.476   4.082
 1350TIP3    H2 3996   7.496   1.426   4.222
 1351TIP3   OH2 3997   8.057   0.901   1.396
 1351TIP3    H1 3998   8.120   0.973   1.390
 1351TIP3    H2 3999   8.079   0.856   1.477
 1352TIP3   OH2 4000   2.067   1.174   1.709
 1352TIP3    H1 4001   2.024   1.095   1.677
 1352TIP3    H2 4002   2.125   1.144   1.779
 1353TIP3   OH2 4003   4.932   5.715   1.457
 1353TIP3    H1 4004   4.927   5.695   1.551
 1353TIP3    H2 4005   5.018   5.683   1.431
 1354TIP3   OH2 4006   6.310   6.406   6.470
 1354TIP3    H1 4007   6.368   6.462   6.420
 1354TIP3    H2 4008   6.229   6.456   6.479
 1355TIP3   OH2 4009   5.717   3.850   5.415
 1355TIP3    H1 4010   5.676   3.792   5.478
 1355TIP3    H2 4011   5.799   3.878   5.456
 1356TIP3   OH2 4012   4.451   3.915   4.219
 1356TIP3    H1 4013   4.419   4.001   4.245
 1356TIP3    H2 4014   4.458   3.920   4.123
 1357TIP3   OH2 4015   5.490   2.560   3.959
 1357TIP3    H1 4016   5.585   2.572   3.966
 1357TIP3    H2 4017   5.478   2.466   3.945
 1358TIP3   OH2 4018   7.509   0.771   2.655
 1358TIP3    H1 4019   7.427   0.741   2.616
 1358TIP3    H2 4020   7.525   0.856   2.614
 1359TIP3   OH2 4021  -0.004   5.686   3.103
 1359TIP3    H1 4022   0.018   5.771   3.065
 1359TIP3    H2 4023   0.045   5.622   3.051
 1360TIP3   OH2 4024   1.309   7.117   5.380
 1360TIP3    H1 4025   1.361   7.184   5.336
 1360TIP3    H2 4026   1.272   7.065   5.308
 1361TIP3   OH2 4027   5.952   5.804   6.409
 1361TIP3    H1 4028   5.900   5.840   6.337
 1361TIP3    H2 4029   6.011   5.742   6.367
 1362TIP3   OH2 4030   5.411   3.496   5.354
 1362TIP3    H1 4031   5.409   3.592   5.353
 1362TIP3    H2 4032   5.339   3.471   5.411
 1363TIP3   OH2 4033   0.574   3.474   2.877
 1363TIP3    H1 4034   0.561   3.558   2.921
 1363TIP3    H2 4035   0.612   3.497   2.792
 1364TIP3   OH2 4036   3.501   6.954   5.205
 1364TIP3    H1 4037   3.534   6.984   5.290
 1364TIP3    H2 4038   3.509   6.859   5.208
 1365TIP3   OH2 4039   0.214   3.216   3.432
 1365TIP3    H1 4040   0.166   3.158   3.373
 1365TIP3    H2 4041   0.298   3.231   3.388
 1366TIP3   OH2 4042   0.291   7.439   1.770
 1366TIP3    H1 4043   0.202   7.474   1.774
 1366TIP3    H2 4044   0.346   7.508   1.808
 1367TIP3   OH2 4045   1.477   6.046   2.683
 1367TIP3    H1 4046   1.459   6.135   2.715
 1367TIP3    H2 4047   1.422   6.037   2.605
 1368TIP3   OH2 4048   6.074   6.806   2.650
 1368TIP3    H1 4049   6.022   6.829   2.573
 1368TIP3    H2 4050   6.091   6.890   2.693
 1369TIP3   OH2 4051   2.600   4.321   4.423
 1369TIP3    H1 4052   2.537   4.335   4.352
 1369TIP3    H2 4053   2.618   4.409   4.456
 1370TIP3   OH2 4054   1.804   6.846   2.858
 1370TIP3    H1 4055   1.827   6.773   2.800
 1370TIP3    H2 4056   1.727   6.815   2.905
 1371TIP3   OH2 4057   4.337   5.260   6.327
 1371TIP3    H1 4058   4.364   5.351   6.316
 1371TIP3    H2 4059   4.378   5.233   6.410
 1372TIP3   OH2 4060   3.106   1.841   6.359
 1372TIP3    H1 4061   3.120   1.918   6.304
 1372TIP3    H2 4062   3.026   1.862   6.408
 1373TIP3   OH2 4063   4.236   2.610   6.340
 1373TIP3    H1 4064   4.304   2.548   6.314
 1373TIP3    H2 4065   4.228   2.669   6.265
 1374TIP3   OH2 4066   4.537   3.552   1.332
 1374TIP3    H1 4067   4.478   3.540   1.407
 1374TIP3    H2 4068   4.594   3.476   1.333
 1375TIP3   OH2 4069   6.636   2.750   2.436
 1375TIP3    H1 4070   6.702   2.740   2.367
 1375TIP3    H2 4071   6.648   2.839   2.468
 1376TIP3   OH2 4072   2.826   0.951   2.594
 1376TIP3    H1 4073   2.774   0.930   2.516
 1376TIP3    H2 4074   2.761   0.957   2.665
 1377TIP3   OH2 4075   6.736   2.792   0.325
 1377TIP3    H1 4076   6.697   2.727   0.267
 1377TIP3    H2 4077   6.781   2.853   0.267
 1378TIP3   OH2 4078   2.428   6.451   2.397
 1378TIP3    H1 4079   2.358   6.483   2.339
 1378TIP3    H2 4080   2.439   6.521   2.461
 1379TIP3   OH2 4081   3.194   5.774   2.664
 1379TIP3    H1 4082   3.154   5.691   2.639
 1379TIP3    H2 4083   3.141   5.841   2.619
 1380TIP3   OH2 4084   2.430   6.290   6.050
 1380TIP3    H1 4085   2.482   6.216   6.020
 1380TIP3    H2 4086   2.339   6.259   6.047
 1381TIP3   OH2 4087   7.665   4.759   5.168
 1381TIP3    H1 4088   7.638   4.669   5.153
 1381TIP3    H2 4089   7.613   4.788   5.242
 1382TIP3   OH2 4090   8.308   4.774   5.112
 1382TIP3    H1 4091   8.243   4.705   5.126
 1382TIP3    H2 4092   8.342   4.793   5.199
 1383TIP3   OH2 4093   7.965   4.625   6.766
 1383TIP3    H1 4094   7.896   4.687   6.742
 1383TIP3    H2 4095   7.935   4.541   6.729
 1384TIP3   OH2 4096   4.138   4.035   1.072
 1384TIP3    H1 4097   4.209   4.001   1.018
 1384TIP3    H2 4098   4.168   4.025   1.162
 1385TIP3   OH2 4099   0.115   1.647   2.009
 1385TIP3    H1 4100   0.204   1.637   1.977
 1385TIP3    H2 4101   0.123   1.707   2.084
 1386TIP3   OH2 4102   6.304   7.517   5.317
 1386TIP3    H1 4103   6.300   7.596   5.372
 1386TIP3    H2 4104   6.386   7.526   5.269
 1387TIP3   OH2 4105   3.505   3.543   4.681
 1387TIP3    H1 4106   3.500   3.544   4.776
 1387TIP3    H2 4107   3.593   3.512   4.661
 1388TIP3   OH2 4108   2.319   4.893   2.109
 1388TIP3    H1 4109   2.347   4.924   2.022
 1388TIP3    H2 4110   2.261   4.962   2.141
 1389TIP3   OH2 4111   5.034   0.364   5.349
 1389TIP3    H1 4112   5.000   0.305   5.282
 1389TIP3    H2 4113   5.036   0.450   5.307
 1390TIP3   OH2 4114   1.146   3.008   2.727
 1390TIP3    H1 4115   1.193   3.086   2.757
 1390TIP3    H2 4116   1.174   2.939   2.787
 1391TIP3   OH2 4117   2.692   5.921   0.255
 1391TIP3    H1 4118   2.653   5.835   0.237
 1391TIP3    H2 4119   2.766   5.902   0.314
 1392TIP3   OH2 4120   7.631   3.706   3.974
 1392TIP3    H1 4121   7.668   3.664   3.897
 1392TIP3    H2 4122   7.675   3.791   3.980
 1393TIP3   OH2 4123   8.220   4.473   1.006
 1393TIP3    H1 4124   8.160   4.508   0.940
 1393TIP3    H2 4125   8.199   4.521   1.086
 1394TIP3   OH2 4126   1.311   3.195   3.682
 1394TIP3    H1 4127   1.390   3.145   3.661
 1394TIP3    H2 4128   1.305   3.191   3.777
 1395TIP3   OH2 4129   0.490   4.441   4.455
 1395TIP3    H1 4130   0.527   4.377   4.394
 1395TIP3    H2 4131   0.409   4.399   4.485
 1396TIP3   OH2 4132   5.959   1.587   6.628
 1396TIP3    H1 4133   5.910   1.607   6.549
 1396TIP3    H2 4134   5.977   1.493   6.624
 1397TIP3   OH2 4135   5.987   0.696   0.792
 1397TIP3    H1 4136   5.986   0.699   0.697
 1397TIP3    H2 4137   6.033   0.614   0.813
 1398TIP3   OH2 4138   2.825   2.648   6.678
 1398TIP3    H1 4139   2.749   2.596   6.706
 1398TIP3    H2 4140   2.812   2.733   6.721
 1399TIP3   OH2 4141   6.480   5.583   2.421
 1399TIP3    H1 4142   6.407   5.523   2.437
 1399TIP3    H2 4143   6.444   5.647   2.358
 1400TIP3   OH2 4144   5.554   1.087   4.006
 1400TIP3    H1 4145   5.623   1.080   3.940
 1400TIP3    H2 4146   5.472   1.088   3.955
 1401TIP3   OH2 4147   0.168   2.301   0.513
 1401TIP3    H1 4148   0.120   2.384   0.519
 1401TIP3    H2 4149   0.183   2.289   0.420
 1402TIP3   OH2 4150   7.303   0.453   3.744
 1402TIP3    H1 4151   7.296   0.541   3.707
 1402TIP3    H2 4152   7.241   0.452   3.817
 1403TIP3   OH2 4153   7.515   1.929   2.408
 1403TIP3    H1 4154   7.558   2.014   2.416
 1403TIP3    H2 4155   7.518   1.909   2.315
 1404TIP3   OH2 4156   1.274   4.824   5.342
 1404TIP3    H1 4157   1.257   4.877   5.420
 1404TIP3    H2 4158   1.203   4.847   5.281
 1405TIP3   OH2 4159   6.250   3.613   5.782
 1405TIP3    H1 4160   6.207   3.569   5.708
 1405TIP3    H2 4161   6.270   3.543   5.843
 1406TIP3   OH2 4162   5.557   0.009   1.455
 1406TIP3    H1 4163   5.505   0.067   1.511
 1406TIP3    H2 4164   5.522   0.022   1.367
 1407TIP3   OH2 4165   4.101   6.295   0.399
 1407TIP3    H1 4166   4.093   6.219   0.457
 1407TIP3    H2 4167   4.014   6.306   0.361
 1408TIP3   OH2 4168   6.134   0.730   3.405
 1408TIP3    H1 4169   6.207   0.740   3.465
 1408TIP3    H2 4170   6.158   0.783   3.328
 1409TIP3   OH2 4171   0.190   1.578   1.317
 1409TIP3    H1 4172   0.163   1.529   1.394
 1409TIP3    H2 4173   0.123   1.559   1.251
 1410TIP3   OH2 4174   3.405   1.898   5.143
 1410TIP3    H1 4175   3.486   1.880   5.191
 1410TIP3    H2 4176   3.341   1.916   5.211
 1411TIP3   OH2 4177   7.228   1.941   3.852
 1411TIP3    H1 4178   7.158   2.005   3.866
 1411TIP3    H2 4179   7.242   1.901   3.938
 1412TIP3   OH2 4180   0.735   3.945   6.070
 1412TIP3    H1 4181   0.755   3.986   5.986
 1412TIP3    H2 4182   0.781   3.998   6.135
 1413TIP3   OH2 4183   3.447   5.239   1.603
 1413TIP3    H1 4184   3.466   5.238   1.509
 1413TIP3    H2 4185   3.391   5.164   1.617
 1414TIP3   OH2 4186   7.057   3.020   3.700
 1414TIP3    H1 4187   7.135   2.969   3.679
 1414TIP3    H2 4188   7.058   3.092   3.637
 1415TIP3   OH2 4189   6.737   3.954   2.201
 1415TIP3    H1 4190   6.657   4.005   2.216
 1415TIP3    H2 4191   6.709   3.877   2.153
 1416TIP3   OH2 4192   5.149   3.953   2.074
 1416TIP3    H1 4193   5.226   3.922   2.026
 1416TIP3    H2 4194   5.082   3.886   2.060
 1417TIP3   OH2 4195   7.563   7.006   6.517
 1417TIP3    H1 4196   7.549   7.088   6.469
 1417TIP3    H2 4197   7.499   7.008   6.588
 1418TIP3   OH2 4198   5.816   4.780   1.665
 1418TIP3    H1 4199   5.734   4.741   1.636
 1418TIP3    H2 4200   5.820   4.865   1.621
 1419TIP3   OH2 4201   4.659   1.477   0.526
 1419TIP3    H1 4202   4.613   1.542   0.579
 1419TIP3    H2 4203   4.752   1.493   0.545
 1420TIP3   OH2 4204   3.477   2.040   1.214
 1420TIP3    H1 4205   3.540   2.112   1.208
 1420TIP3    H2 4206   3.440   2.034   1.126
 1421TIP3   OH2 4207   0.871   6.243   6.717
 1421TIP3    H1 4208   0.939   6.290   6.669
 1421TIP3    H2 4209   0.849   6.169   6.660
 1422TIP3   OH2 4210   1.493   2.943   4.921
 1422TIP3    H1 4211   1.503   3.026   4.874
 1422TIP3    H2 4212   1.513   2.876   4.855
 1423TIP3   OH2 4213   3.555   5.203   5.115
 1423TIP3    H1 4214   3.520   5.123   5.153
 1423TIP3    H2 4215   3.634   5.175   5.069
 1424TIP3   OH2 4216   1.350   5.808   0.266
 1424TIP3    H1 4217   1.444   5.810   0.287
 1424TIP3    H2 4218   1.307   5.790   0.349
 1425TIP3   OH2 4219   5.371   4.226   0.284
 1425TIP3    H1 4220   5.319   4.212   0.205
 1425TIP3    H2 4221   5.444   4.164   0.276
 1426TIP3   OH2 4222   6.625   0.431   6.440
 1426TIP3    H1 4223   6.553   0.418   6.502
 1426TIP3    H2 4224   6.703   0.439   6.494
 1427TIP3   OH2 4225   3.503   7.345   2.497
 1427TIP3    H1 4226   3.460   7.260   2.495
 1427TIP3    H2 4227   3.556   7.346   2.417
 1428TIP3   OH2 4228   4.737   3.152   3.156
 1428TIP3    H1 4229   4.705   3.142   3.245
 1428TIP3    H2 4230   4.783   3.070   3.138
 1429TIP3   OH2 4231   4.038   0.730   2.187
 1429TIP3    H1 4232   4.109   0.668   2.171
 1429TIP3    H2 4233   4.025   0.775   2.104
 1430TIP3   OH2 4234   8.273   5.254   3.816
 1430TIP3    H1 4235   8.253   5.216   3.730
 1430TIP3    H2 4236   8.205   5.219   3.874
 1431TIP3   OH2 4237   0.498   2.280   6.736
 1431TIP3    H1 4238   0.521   2.191   6.710
 1431TIP3    H2 4239   0.429   2.305   6.674
 1432TIP3   OH2 4240   7.014   2.828   3.385
 1432TIP3    H1 4241   7.051   2.774   3.455
 1432TIP3    H2 4242   7.076   2.900   3.374
 1433TIP3   OH2 4243   2.108   1.994   2.291
 1433TIP3    H1 4244   2.073   2.053   2.358
 1433TIP3    H2 4245   2.035   1.981   2.230
 1434TIP3   OH2 4246   2.299   1.678   4.975
 1434TIP3    H1 4247   2.270   1.723   5.054
 1434TIP3    H2 4248   2.367   1.735   4.939
 1435TIP3   OH2 4249   5.560   7.296   5.569
 1435TIP3    H1 4250   5.573   7.269   5.660
 1435TIP3    H2 4251   5.527   7.386   5.575
 1436TIP3   OH2 4252   6.171   4.692   3.625
 1436TIP3    H1 4253   6.127   4.609   3.639
 1436TIP3    H2 4254   6.138   4.723   3.541
 1437TIP3   OH2 4255   2.592   7.413   3.768
 1437TIP3    H1 4256   2.582   7.500   3.804
 1437TIP3    H2 4257   2.519   7.363   3.804
 1438TIP3   OH2 4258   5.086   3.316   3.312
 1438TIP3    H1 4259   5.108   3.241   3.256
 1438TIP3    H2 4260   5.085   3.281   3.401
 1439TIP3   OH2 4261   4.881   3.848   4.253
 1439TIP3    H1 4262   4.912   3.829   4.342
 1439TIP3    H2 4263   4.872   3.762   4.212
 1440TIP3   OH2 4264   1.656   2.885   2.220
 1440TIP3    H1 4265   1.658   2.861   2.312
 1440TIP3    H2 4266   1.734   2.938   2.207
 1441TIP3   OH2 4267   5.768   0.508   4.837
 1441TIP3    H1 4268   5.739   0.589   4.796
 1441TIP3    H2 4269   5.777   0.446   4.765
 1442TIP3   OH2 4270   6.874   1.139   3.165
 1442TIP3    H1 4271   6.815   1.074   3.204
 1442TIP3    H2 4272   6.815   1.203   3.124
 1443TIP3   OH2 4273   7.185   4.385   0.176
 1443TIP3    H1 4274   7.247   4.336   0.230
 1443TIP3    H2 4275   7.100   4.370   0.218
 1444TIP3   OH2 4276   2.101   0.546   0.174
 1444TIP3    H1 4277   2.153   0.575   0.248
 1444TIP3    H2 4278   2.164   0.499   0.118
 1445TIP3   OH2 4279   3.736   1.236   1.798
 1445TIP3    H1 4280   3.793   1.170   1.837
 1445TIP3    H2 4281   3.790   1.278   1.731
 1446TIP3   OH2 4282   0.670   3.507   1.877
 1446TIP3    H1 4283   0.741   3.562   1.845
 1446TIP3    H2 4284   0.628   3.559   1.946
 1447TIP3   OH2 4285   7.290   1.033   2.157
 1447TIP3    H1 4286   7.386   1.040   2.151
 1447TIP3    H2 4287   7.261   1.122   2.176
 1448TIP3   OH2 4288   5.038   7.326   1.920
 1448TIP3    H1 4289   4.944   7.327   1.902
 1448TIP3    H2 4290   5.044   7.331   2.015
 1449TIP3   OH2 4291   0.959   1.206   0.804
 1449TIP3    H1 4292   0.895   1.209   0.876
 1449TIP3    H2 4293   0.958   1.115   0.775
 1450TIP3   OH2 4294   4.942   1.217   6.430
 1450TIP3    H1 4295   5.006   1.210   6.359
 1450TIP3    H2 4296   4.986   1.178   6.506
 1451TIP3   OH2 4297   5.445   2.184   1.294
 1451TIP3    H1 4298   5.477   2.096   1.271
 1451TIP3    H2 4299   5.524   2.237   1.302
 1452TIP3   OH2 4300   5.354   7.619   5.399
 1452TIP3    H1 4301   5.439   7.620   5.355
 1452TIP3    H2 4302   5.366   7.675   5.475
 1453TIP3   OH2 4303   4.293   3.841   0.544
 1453TIP3    H1 4304   4.307   3.772   0.609
 1453TIP3    H2 4305   4.242   3.907   0.592
 1454TIP3   OH2 4306   6.041   1.350   3.061
 1454TIP3    H1 4307   6.064   1.310   2.977
 1454TIP3    H2 4308   6.025   1.275   3.119
 1455TIP3   OH2 4309   3.817   3.841   1.969
 1455TIP3    H1 4310   3.768   3.812   2.047
 1455TIP3    H2 4311   3.819   3.764   1.913
 1456TIP3   OH2 4312   1.346   6.986   0.481
 1456TIP3    H1 4313   1.407   6.986   0.555
 1456TIP3    H2 4314   1.337   7.079   0.458
 1457TIP3   OH2 4315   1.076   2.821   3.381
 1457TIP3    H1 4316   1.140   2.882   3.419
 1457TIP3    H2 4317   1.113   2.798   3.296
 1458TIP3   OH2 4318   4.741   6.359   4.271
 1458TIP3    H1 4319   4.729   6.264   4.265
 1458TIP3    H2 4320   4.759   6.375   4.363
 1459TIP3   OH2 4321   7.535   6.730   4.582
 1459TIP3    H1 4322   7.567   6.666   4.645
 1459TIP3    H2 4323   7.512   6.807   4.635
 1460TIP3   OH2 4324   4.472   4.773   2.795
 1460TIP3    H1 4325   4.532   4.835   2.836
 1460TIP3    H2 4326   4.453   4.709   2.863
 1461TIP3   OH2 4327   7.269   3.294   2.972
 1461TIP3    H1 4328   7.176   3.313   2.982
 1461TIP3    H2 4329   7.311   3.381   2.970
 1462TIP3   OH2 4330   1.478   3.383   4.439
 1462TIP3    H1 4331   1.395   3.402   4.394
 1462TIP3    H2 4332   1.452   3.335   4.517
 1463TIP3   OH2 4333   7.981   4.055   0.864
 1463TIP3    H1 4334   8.015   4.139   0.836
 1463TIP3    H2 4335   8.014   4.043   0.952
 1464TIP3   OH2 4336   3.008   5.801   4.378
 1464TIP3    H1 4337   3.015   5.769   4.288
 1464TIP3    H2 4338   3.095   5.786   4.416
 1465TIP3   OH2 4339   7.560   1.206   6.354
 1465TIP3    H1 4340   7.511   1.287   6.368
 1465TIP3    H2 4341   7.492   1.139   6.342
 1466TIP3   OH2 4342   3.346   0.603   0.790
 1466TIP3    H1 4343   3.301   0.682   0.821
 1466TIP3    H2 4344   3.336   0.540   0.862
 1467TIP3   OH2 4345   1.426   0.790   1.169
 1467TIP3    H1 4346   1.472   0.817   1.248
 1467TIP3    H2 4347   1.365   0.723   1.199
 1468TIP3   OH2 4348   3.076   0.503   0.347
 1468TIP3    H1 4349   3.138   0.518   0.275
 1468TIP3    H2 4350   3.117   0.543   0.423
 1469TIP3   OH2 4351   2.274   5.306   4.821
 1469TIP3    H1 4352   2.197   5.308   4.763
 1469TIP3    H2 4353   2.348   5.322   4.763
 1470TIP3   OH2 4354   3.021   6.702   3.760
 1470TIP3    H1 4355   3.080   6.696   3.685
 1470TIP3    H2 4356   3.038   6.622   3.809
 1471TIP3   OH2 4357   6.633   7.654   2.682
 1471TIP3    H1 4358   6.607   7.609   2.602
 1471TIP3    H2 4359   6.729   7.655   2.678
 1472TIP3   OH2 4360   3.664   3.002   3.372
 1472TIP3    H1 4361   3.689   2.910   3.377
 1472TIP3    H2 4362   3.639   3.025   3.462
 1473TIP3   OH2 4363   0.388   6.559   1.058
 1473TIP3    H1 4364   0.483   6.566   1.053
 1473TIP3    H2 4365   0.372   6.501   1.132
 1474TIP3   OH2 4366   8.005   0.892   1.010
 1474TIP3    H1 4367   7.954   0.929   1.082
 1474TIP3    H2 4368   8.053   0.819   1.051
 1475TIP3   OH2 4369   0.988   2.504   4.714
 1475TIP3    H1 4370   0.989   2.487   4.620
 1475TIP3    H2 4371   0.918   2.567   4.727
 1476TIP3   OH2 4372   0.415   7.737   5.915
 1476TIP3    H1 4373   0.427   7.645   5.892
 1476TIP3    H2 4374   0.320   7.751   5.911
 1477TIP3   OH2 4375   6.921   2.122   1.608
 1477TIP3    H1 4376   6.947   2.210   1.634
 1477TIP3    H2 4377   6.989   2.095   1.546
 1478TIP3   OH2 4378   3.502   6.880   0.959
 1478TIP3    H1 4379   3.581   6.842   0.919
 1478TIP3    H2 4380   3.431   6.851   0.902
 1479TIP3   OH2 4381   5.784   1.399   4.268
 1479TIP3    H1 4382   5.702   1.367   4.230
 1479TIP3    H2 4383   5.778   1.494   4.263
 1480TIP3   OH2 4384   4.594   2.452   5.829
 1480TIP3    H1 4385   4.661   2.489   5.772
 1480TIP3    H2 4386   4.636   2.376   5.869
 1481TIP3   OH2 4387   4.903   0.904   2.389
 1481TIP3    H1 4388   4.982   0.878   2.436
 1481TIP3    H2 4389   4.835   0.912   2.456
 1482TIP3   OH2 4390   4.018   7.756   1.897
 1482TIP3    H1 4391   3.946   7.796   1.946
 1482TIP3    H2 4392   3.978   7.680   1.854
 1483TIP3   OH2 4393   4.483   3.866   2.034
 1483TIP3    H1 4394   4.533   3.931   1.985
 1483TIP3    H2 4395   4.499   3.889   2.126
 1484TIP3   OH2 4396   1.717   3.737   4.914
 1484TIP3    H1 4397   1.691   3.656   4.958
 1484TIP3    H2 4398   1.810   3.746   4.932
 1485TIP3   OH2 4399   6.329   6.462   5.250
 1485TIP3    H1 4400   6.399   6.518   5.217
 1485TIP3    H2 4401   6.249   6.509   5.228
 1486TIP3   OH2 4402   6.450   6.951   6.739
 1486TIP3    H1 4403   6.505   6.957   6.817
 1486TIP3    H2 4404   6.443   7.041   6.707
 1487TIP3   OH2 4405   2.985   4.888   5.293
 1487TIP3    H1 4406   2.967   4.949   5.222
 1487TIP3    H2 4407   2.909   4.895   5.351
 1488TIP3   OH2 4408   7.610   4.409   0.464
 1488TIP3    H1 4409   7.607   4.479   0.399
 1488TIP3    H2 4410   7.702   4.402   0.488
 1489TIP3   OH2 4411   7.719   4.960   0.692
 1489TIP3    H1 4412   7.641   4.905   0.704
 1489TIP3    H2 4413   7.757   4.965   0.779
 1490TIP3   OH2 4414   5.043   2.959   5.998
 1490TIP3    H1 4415   5.084   3.045   5.991
 1490TIP3    H2 4416   4.953   2.977   6.023
 1491TIP3   OH2 4417   3.153   0.515   1.499
 1491TIP3    H1 4418   3.129   0.514   1.406
 1491TIP3    H2 4419   3.242   0.480   1.502
 1492TIP3   OH2 4420   6.154   3.022   1.543
 1492TIP3    H1 4421   6.177   2.953   1.481
 1492TIP3    H2 4422   6.083   3.070   1.500
 1493TIP3   OH2 4423   2.215   4.075   3.004
 1493TIP3    H1 4424   2.136   4.065   2.951
 1493TIP3    H2 4425   2.283   4.099   2.941
 1494TIP3   OH2 4426   6.155   7.139   1.340
 1494TIP3    H1 4427   6.067   7.113   1.314
 1494TIP3    H2 4428   6.144   7.223   1.385
 1495TIP3   OH2 4429   2.426   1.800   5.211
 1495TIP3    H1 4430   2.456   1.735   5.147
 1495TIP3    H2 4431   2.414   1.750   5.292
 1496TIP3   OH2 4432   6.512   2.850   3.765
 1496TIP3    H1 4433   6.516   2.758   3.737
 1496TIP3    H2 4434   6.429   2.882   3.731
 1497TIP3   OH2 4435   1.458   0.894   2.632
 1497TIP3    H1 4436   1.419   0.910   2.546
 1497TIP3    H2 4437   1.396   0.835   2.675
 1498TIP3   OH2 4438   5.196   1.877   0.285
 1498TIP3    H1 4439   5.286   1.908   0.274
 1498TIP3    H2 4440   5.206   1.786   0.313
 1499TIP3   OH2 4441   2.976   5.135   4.439
 1499TIP3    H1 4442   3.033   5.061   4.417
 1499TIP3    H2 4443   2.954   5.174   4.355
 1500TIP3   OH2 4444   1.606   3.683   1.234
 1500TIP3    H1 4445   1.541   3.737   1.279
 1500TIP3    H2 4446   1.628   3.614   1.297
 1501TIP3   OH2 4447   3.435   7.770   4.028
 1501TIP3    H1 4448   3.461   7.739   3.941
 1501TIP3    H2 4449   3.344   7.744   4.037
 1502TIP3   OH2 4450   4.775   3.345   1.368
 1502TIP3    H1 4451   4.866   3.322   1.350
 1502TIP3    H2 4452   4.767   3.338   1.463
 1503TIP3   OH2 4453   2.674   2.371   1.698
 1503TIP3    H1 4454   2.585   2.361   1.733
 1503TIP3    H2 4455   2.730   2.372   1.776
 1504TIP3   OH2 4456   6.001   0.344   4.408
 1504TIP3    H1 4457   6.024   0.267   4.355
 1504TIP3    H2 4458   5.955   0.308   4.483
 1505TIP3   OH2 4459   2.130   4.854   5.018
 1505TIP3    H1 4460   2.182   4.894   4.949
 1505TIP3    H2 4461   2.189   4.849   5.093
 1506TIP3   OH2 4462   3.949   6.371   3.328
 1506TIP3    H1 4463   3.955   6.332   3.241
 1506TIP3    H2 4464   3.888   6.444   3.317
 1507TIP3   OH2 4465   3.320   3.281   1.665
 1507TIP3    H1 4466   3.282   3.368   1.658
 1507TIP3    H2 4467   3.322   3.248   1.575
 1508TIP3   OH2 4468   8.181   6.712   2.318
 1508TIP3    H1 4469   8.135   6.699   2.401
 1508TIP3    H2 4470   8.132   6.659   2.255
 1509TIP3   OH2 4471   7.598   2.741   0.732
 1509TIP3    H1 4472   7.669   2.798   0.704
 1509TIP3    H2 4473   7.562   2.705   0.651
 1510TIP3   OH2 4474   1.264   5.410   1.331
 1510TIP3    H1 4475   1.255   5.478   1.264
 1510TIP3    H2 4476   1.181   5.410   1.377
 1511TIP3   OH2 4477   3.315   3.162   2.841
 1511TIP3    H1 4478   3.220   3.149   2.832
 1511TIP3    H2 4479   3.323   3.230   2.909
 1512TIP3   OH2 4480   0.328   1.017   3.073
 1512TIP3    H1 4481   0.419   0.999   3.096
 1512TIP3    H2 4482   0.290   0.930   3.054
 1513TIP3   OH2 4483   6.850   3.098   0.016
 1513TIP3    H1 4484   6.771   3.059   0.053
 1513TIP3    H2 4485   6.818   3.167  -0.042
 1514TIP3   OH2 4486   0.614   5.451   3.203
 1514TIP3    H1 4487   0.575   5.409   3.280
 1514TIP3    H2 4488   0.703   5.417   3.199
 1515TIP3   OH2 4489   7.555   5.512   3.007
 1515TIP3    H1 4490   7.561   5.448   2.936
 1515TIP3    H2 4491   7.461   5.520   3.024
 1516TIP3   OH2 4492   3.780   0.567   0.011
 1516TIP3    H1 4493   3.776   0.491  -0.048
 1516TIP3    H2 4494   3.760   0.531   0.097
 1517TIP3   OH2 4495   3.674   7.287   3.204
 1517TIP3    H1 4496   3.580   7.308   3.206
 1517TIP3    H2 4497   3.715   7.355   3.256
 1518TIP3   OH2 4498   8.143   0.652   4.431
 1518TIP3    H1 4499   8.168   0.612   4.347
 1518TIP3    H2 4500   8.176   0.742   4.424
 1519TIP3   OH2 4501   1.616   3.659   2.183
 1519TIP3    H1 4502   1.558   3.624   2.250
 1519TIP3    H2 4503   1.685   3.594   2.174
 1520TIP3   OH2 4504   1.037   2.880   1.239
 1520TIP3    H1 4505   0.972   2.940   1.274
 1520TIP3    H2 4506   1.051   2.908   1.149
 1521TIP3   OH2 4507   0.887   5.047   3.747
 1521TIP3    H1 4508   0.818   5.068   3.684
 1521TIP3    H2 4509   0.950   4.996   3.696
 1522TIP3   OH2 4510   4.321   3.401   2.417
 1522TIP3    H1 4511   4.348   3.330   2.476
 1522TIP3    H2 4512   4.238   3.432   2.454
 1523TIP3   OH2 4513   3.290   3.559   2.927
 1523TIP3    H1 4514   3.231   3.520   2.992
 1523TIP3    H2 4515   3.334   3.630   2.975
 1524TIP3   OH2 4516   1.031   3.772   5.011
 1524TIP3    H1 4517   0.940   3.768   4.984
 1524TIP3    H2 4518   1.033   3.727   5.096
 1525TIP3   OH2 4519   2.639   3.852   3.758
 1525TIP3    H1 4520   2.731   3.869   3.780
 1525TIP3    H2 4521   2.633   3.868   3.664
 1526TIP3   OH2 4522   7.648   5.647   5.096
 1526TIP3    H1 4523   7.647   5.727   5.044
 1526TIP3    H2 4524   7.739   5.619   5.095
 1527TIP3   OH2 4525   3.728   5.090   4.898
 1527TIP3    H1 4526   3.781   5.087   4.818
 1527TIP3    H2 4527   3.785   5.055   4.966
 1528TIP3   OH2 4528   4.613   0.197   0.422
 1528TIP3    H1 4529   4.648   0.140   0.353
 1528TIP3    H2 4530   4.521   0.210   0.399
 1529TIP3   OH2 4531   7.903   3.590   2.911
 1529TIP3    H1 4532   7.870   3.648   2.979
 1529TIP3    H2 4533   7.844   3.514   2.913
 1530TIP3   OH2 4534   3.902   3.182   2.068
 1530TIP3    H1 4535   3.924   3.243   2.139
 1530TIP3    H2 4536   3.846   3.117   2.109
 1531TIP3   OH2 4537   7.270   1.346   1.402
 1531TIP3    H1 4538   7.239   1.271   1.351
 1531TIP3    H2 4539   7.299   1.409   1.336
 1532TIP3   OH2 4540   0.309   7.530   0.028
 1532TIP3    H1 4541   0.328   7.624   0.033
 1532TIP3    H2 4542   0.256   7.512   0.106
 1533TIP3   OH2 4543   4.317   7.604   3.514
 1533TIP3    H1 4544   4.271   7.523   3.493
 1533TIP3    H2 4545   4.316   7.609   3.609
 1534TIP3   OH2 4546   0.299   7.258   3.539
 1534TIP3    H1 4547   0.371   7.210   3.498
 1534TIP3    H2 4548   0.232   7.264   3.471
 1535TIP3   OH2 4549   0.176   2.374   1.309
 1535TIP3    H1 4550   0.226   2.377   1.390
 1535TIP3    H2 4551   0.184   2.462   1.272
 1536TIP3   OH2 4552   5.639   6.646   2.494
 1536TIP3    H1 4553   5.682   6.578   2.546
 1536TIP3    H2 4554   5.572   6.682   2.551
 1537TIP3   OH2 4555   4.426   3.176   2.043
 1537TIP3    H1 4556   4.377   3.127   1.976
 1537TIP3    H2 4557   4.439   3.113   2.114
 1538TIP3   OH2 4558   3.297   6.198   5.657
 1538TIP3    H1 4559   3.275   6.165   5.570
 1538TIP3    H2 4560   3.392   6.189   5.662
 1539TIP3   OH2 4561   1.084   5.439   5.182
 1539TIP3    H1 4562   1.051   5.521   5.145
 1539TIP3    H2 4563   1.175   5.434   5.152
 1540TIP3   OH2 4564   7.071   2.010   2.307
 1540TIP3    H1 4565   7.077   1.915   2.320
 1540TIP3    H2 4566   6.984   2.034   2.340
 1541TIP3   OH2 4567   1.204   6.212   0.043
 1541TIP3    H1 4568   1.242   6.126   0.060
 1541TIP3    H2 4569   1.249   6.242  -0.037
 1542TIP3   OH2 4570   2.884   2.266   6.430
 1542TIP3    H1 4571   2.918   2.285   6.343
 1542TIP3    H2 4572   2.807   2.324   6.438
 1543TIP3   OH2 4573   2.142   1.769   3.102
 1543TIP3    H1 4574   2.143   1.674   3.112
 1543TIP3    H2 4575   2.073   1.799   3.162
 1544TIP3   OH2 4576   5.853   5.651   5.156
 1544TIP3    H1 4577   5.857   5.698   5.073
 1544TIP3    H2 4578   5.907   5.573   5.142
 1545TIP3   OH2 4579   0.154   3.897   1.538
 1545TIP3    H1 4580   0.141   3.810   1.576
 1545TIP3    H2 4581   0.133   3.886   1.445
 1546TIP3   OH2 4582   7.212   4.981   5.946
 1546TIP3    H1 4583   7.246   4.910   5.891
 1546TIP3    H2 4584   7.276   4.989   6.017
 1547TIP3   OH2 4585   2.658   4.669   6.263
 1547TIP3    H1 4586   2.698   4.754   6.248
 1547TIP3    H2 4587   2.732   4.610   6.278
 1548TIP3   OH2 4588   0.933   5.657   5.316
 1548TIP3    H1 4589   0.940   5.598   5.391
 1548TIP3    H2 4590   0.860   5.622   5.265
 1549TIP3   OH2 4591   4.723   7.450   3.979
 1549TIP3    H1 4592   4.775   7.530   3.979
 1549TIP3    H2 4593   4.784   7.382   4.009
 1550TIP3   OH2 4594   0.873   0.541   4.210
 1550TIP3    H1 4595   0.890   0.494   4.291
 1550TIP3    H2 4596   0.939   0.610   4.206
 1551TIP3   OH2 4597   2.484   5.869   1.545
 1551TIP3    H1 4598   2.576   5.844   1.547
 1551TIP3    H2 4599   2.455   5.862   1.636
 1552TIP3   OH2 4600   4.219   0.317   6.235
 1552TIP3    H1 4601   4.154   0.311   6.305
 1552TIP3    H2 4602   4.264   0.232   6.237
 1553TIP3   OH2 4603   0.426   2.528   3.293
 1553TIP3    H1 4604   0.351   2.508   3.349
 1553TIP3    H2 4605   0.455   2.614   3.321
 1554TIP3   OH2 4606   4.632   6.107   4.285
 1554TIP3    H1 4607   4.619   6.069   4.372
 1554TIP3    H2 4608   4.550   6.153   4.266
 1555TIP3   OH2 4609   5.887   7.726   5.318
 1555TIP3    H1 4610   5.966   7.738   5.371
 1555TIP3    H2 4611   5.920   7.715   5.229
 1556TIP3   OH2 4612   5.904   5.451   0.493
 1556TIP3    H1 4613   5.977   5.482   0.440
 1556TIP3    H2 4614   5.898   5.358   0.473
 1557TIP3   OH2 4615   5.182   5.170   6.344
 1557TIP3    H1 4616   5.251   5.106   6.329
 1557TIP3    H2 4617   5.196   5.237   6.277
 1558TIP3   OH2 4618   0.403   0.063   4.323
 1558TIP3    H1 4619   0.360   0.019   4.396
 1558TIP3    H2 4620   0.479   0.107   4.362
 1559TIP3   OH2 4621   7.192   1.514   3.882
 1559TIP3    H1 4622   7.275   1.559   3.895
 1559TIP3    H2 4623   7.216   1.431   3.842
 1560TIP3   OH2 4624   0.116   4.793   4.777
 1560TIP3    H1 4625   0.108   4.792   4.682
 1560TIP3    H2 4626   0.035   4.833   4.808
 1561TIP3   OH2 4627   0.185   3.284   2.685
 1561TIP3    H1 4628   0.169   3.282   2.591
 1561TIP3    H2 4629   0.097   3.291   2.724
 1562TIP3   OH2 4630   6.537   7.523   2.456
 1562TIP3    H1 4631   6.472   7.480   2.400
 1562TIP3    H2 4632   6.599   7.454   2.479
 1563TIP3   OH2 4633   2.461   4.269   2.288
 1563TIP3    H1 4634   2.488   4.317   2.209
 1563TIP3    H2 4635   2.386   4.319   2.321
 1564TIP3   OH2 4636   2.343   4.285   3.930
 1564TIP3    H1 4637   2.372   4.197   3.954
 1564TIP3    H2 4638   2.354   4.289   3.835
 1565TIP3   OH2 4639   5.760   5.222   5.332
 1565TIP3    H1 4640   5.798   5.137   5.308
 1565TIP3    H2 4641   5.823   5.260   5.394
 1566TIP3   OH2 4642   6.854   6.552   1.944
 1566TIP3    H1 4643   6.812   6.638   1.948
 1566TIP3    H2 4644   6.841   6.515   2.031
 1567TIP3   OH2 4645   4.943   2.210   0.748
 1567TIP3    H1 4646   5.006   2.265   0.795
 1567TIP3    H2 4647   4.890   2.273   0.699
 1568TIP3   OH2 4648   3.684   5.468   0.433
 1568TIP3    H1 4649   3.606   5.414   0.445
 1568TIP3    H2 4650   3.757   5.408   0.448
 1569TIP3   OH2 4651   6.276   0.200   1.068
 1569TIP3    H1 4652   6.291   0.252   1.147
 1569TIP3    H2 4653   6.324   0.247   1.000
 1570TIP3   OH2 4654   1.506   4.874   1.428
 1570TIP3    H1 4655   1.490   4.798   1.484
 1570TIP3    H2 4656   1.533   4.837   1.344
 1571TIP3   OH2 4657   2.885   4.713   0.714
 1571TIP3    H1 4658   2.873   4.732   0.621
 1571TIP3    H2 4659   2.880   4.617   0.720
 1572TIP3   OH2 4660   0.667   2.843   6.109
 1572TIP3    H1 4661   0.708   2.783   6.172
 1572TIP3    H2 4662   0.643   2.787   6.035
 1573TIP3   OH2 4663   6.467   2.556   2.567
 1573TIP3    H1 4664   6.391   2.613   2.563
 1573TIP3    H2 4665   6.532   2.597   2.510
 1574TIP3   OH2 4666   6.704   0.556   3.842
 1574TIP3    H1 4667   6.689   0.545   3.936
 1574TIP3    H2 4668   6.759   0.634   3.835
 1575TIP3   OH2 4669   7.558   3.914   1.428
 1575TIP3    H1 4670   7.539   3.828   1.391
 1575TIP3    H2 4671   7.652   3.914   1.445
 1576TIP3   OH2 4672   5.165   1.732   6.040
 1576TIP3    H1 4673   5.238   1.671   6.042
 1576TIP3    H2 4674   5.165   1.767   5.951
 1577TIP3   OH2 4675   6.580   3.287   4.089
 1577TIP3    H1 4676   6.599   3.201   4.052
 1577TIP3    H2 4677   6.564   3.270   4.182
 1578TIP3   OH2 4678   0.719   3.602   2.678
 1578TIP3    H1 4679   0.688   3.630   2.592
 1578TIP3    H2 4680   0.813   3.587   2.666
 1579TIP3   OH2 4681   3.044   5.329   3.061
 1579TIP3    H1 4682   2.974   5.335   3.125
 1579TIP3    H2 4683   3.070   5.237   3.061
 1580TIP3   OH2 4684   2.668   6.452   2.655
 1580TIP3    H1 4685   2.698   6.367   2.689
 1580TIP3    H2 4686   2.747   6.494   2.622
 1581TIP3   OH2 4687   2.960   6.214   5.015
 1581TIP3    H1 4688   3.016   6.286   5.045
 1581TIP3    H2 4689   2.987   6.198   4.925
 1582TIP3   OH2 4690   7.517   5.762   0.350
 1582TIP3    H1 4691   7.547   5.699   0.285
 1582TIP3    H2 4692   7.437   5.799   0.312
 1583TIP3   OH2 4693   6.786   5.508   2.058
 1583TIP3    H1 4694   6.811   5.595   2.090
 1583TIP3    H2 4695   6.758   5.522   1.968
 1584TIP3   OH2 4696   5.120   1.590   4.078
 1584TIP3    H1 4697   5.052   1.591   4.145
 1584TIP3    H2 4698   5.141   1.498   4.065
 1585TIP3   OH2 4699   0.809   4.195   1.797
 1585TIP3    H1 4700   0.801   4.177   1.890
 1585TIP3    H2 4701   0.756   4.127   1.754
 1586TIP3   OH2 4702   7.366   1.927   6.542
 1586TIP3    H1 4703   7.312   1.982   6.599
 1586TIP3    H2 4704   7.384   1.982   6.466
 1587TIP3   OH2 4705   0.605   3.780   0.042
 1587TIP3    H1 4706   0.655   3.793  -0.039
 1587TIP3    H2 4707   0.585   3.686   0.043
 1588TIP3   OH2 4708   7.910   5.960   4.790
 1588TIP3    H1 4709   7.866   5.875   4.788
 1588TIP3    H2 4710   8.000   5.942   4.763
 1589TIP3   OH2 4711   6.010   4.351   3.819
 1589TIP3    H1 4712   6.053   4.267   3.836
 1589TIP3    H2 4713   6.039   4.407   3.892
 1590TIP3   OH2 4714   1.639   6.108   4.224
 1590TIP3    H1 4715   1.569   6.153   4.177
 1590TIP3    H2 4716   1.712   6.170   4.223
 1591TIP3   OH2 4717   7.637   3.824   6.700
 1591TIP3    H1 4718   7.553   3.806   6.658
 1591TIP3    H2 4719   7.613   3.855   6.788
 1592TIP3   OH2 4720   4.066   1.623   1.509
 1592TIP3    H1 4721   4.090   1.706   1.469
 1592TIP3    H2 4722   3.971   1.621   1.508
 1593TIP3   OH2 4723   1.521   3.104   3.180
 1593TIP3    H1 4724   1.504   3.041   3.110
 1593TIP3    H2 4725   1.434   3.123   3.216
 1594TIP3   OH2 4726   4.863   7.568   4.226
 1594TIP3    H1 4727   4.891   7.553   4.316
 1594TIP3    H2 4728   4.770   7.545   4.225
 1595TIP3   OH2 4729   2.576   5.484   6.289
 1595TIP3    H1 4730   2.641   5.414   6.289
 1595TIP3    H2 4731   2.551   5.494   6.198
 1596TIP3   OH2 4732   0.436   3.638   6.366
 1596TIP3    H1 4733   0.519   3.668   6.404
 1596TIP3    H2 4734   0.445   3.659   6.273
 1597TIP3   OH2 4735   3.919   7.815   5.705
 1597TIP3    H1 4736   3.966   7.812   5.621
 1597TIP3    H2 4737   3.987   7.834   5.770
 1598TIP3   OH2 4738   5.823   4.388   0.438
 1598TIP3    H1 4739   5.802   4.299   0.468
 1598TIP3    H2 4740   5.839   4.437   0.518
 1599TIP3   OH2 4741   0.185   4.969   1.364
 1599TIP3    H1 4742   0.147   5.010   1.442
 1599TIP3    H2 4743   0.251   4.909   1.399
 1600TIP3   OH2 4744   2.081   4.067   5.736
 1600TIP3    H1 4745   2.123   4.056   5.651
 1600TIP3    H2 4746   2.049   3.979   5.759
 1601TIP3   OH2 4747   2.853   7.379   6.260
 1601TIP3    H1 4748   2.766   7.348   6.233
 1601TIP3    H2 4749   2.906   7.300   6.267
 1602TIP3   OH2 4750   5.491   0.143   4.858
 1602TIP3    H1 4751   5.530   0.061   4.888
 1602TIP3    H2 4752   5.401   0.140   4.893
 1603TIP3   OH2 4753   6.897   6.584   5.487
 1603TIP3    H1 4754   6.809   6.599   5.522
 1603TIP3    H2 4755   6.939   6.526   5.550
 1604TIP3   OH2 4756   7.944   0.053   0.879
 1604TIP3    H1 4757   7.850   0.071   0.880
 1604TIP3    H2 4758   7.966   0.034   0.971
 1605TIP3   OH2 4759   6.056   0.675   2.803
 1605TIP3    H1 4760   6.071   0.623   2.724
 1605TIP3    H2 4761   6.134   0.661   2.857
 1606TIP3   OH2 4762   0.561   5.651   0.030
 1606TIP3    H1 4763   0.505   5.602  -0.029
 1606TIP3    H2 4764   0.543   5.613   0.117
 1607TIP3   OH2 4765   0.215   0.344   2.676
 1607TIP3    H1 4766   0.248   0.294   2.601
 1607TIP3    H2 4767   0.134   0.384   2.643
 1608TIP3   OH2 4768   0.508   2.949   2.070
 1608TIP3    H1 4769   0.467   2.943   2.156
 1608TIP3    H2 4770   0.474   2.873   2.022
 1609TIP3   OH2 4771   5.879   5.144   0.074
 1609TIP3    H1 4772   5.819   5.079   0.039
 1609TIP3    H2 4773   5.964   5.099   0.076
 1610TIP3   OH2 4774   1.874   2.031   2.115
 1610TIP3    H1 4775   1.786   1.993   2.117
 1610TIP3    H2 4776   1.897   2.033   2.022
 1611TIP3   OH2 4777   1.154   4.035   3.140
 1611TIP3    H1 4778   1.098   4.027   3.217
 1611TIP3    H2 4779   1.140   3.954   3.091
 1612TIP3   OH2 4780   1.712   3.094   6.057
 1612TIP3    H1 4781   1.765   3.014   6.060
 1612TIP3    H2 4782   1.748   3.149   6.127
 1613TIP3   OH2 4783   6.180   0.838   5.987
 1613TIP3    H1 4784   6.236   0.774   6.031
 1613TIP3    H2 4785   6.233   0.869   5.913
 1614TIP3   OH2 4786   6.473   3.300   6.014
 1614TIP3    H1 4787   6.382   3.326   6.000
 1614TIP3    H2 4788   6.523   3.362   5.961
 1615TIP3   OH2 4789   2.099   6.979   1.320
 1615TIP3    H1 4790   2.186   7.018   1.328
 1615TIP3    H2 4791   2.087   6.964   1.227
 1616TIP3   OH2 4792   5.630   5.041   1.865
 1616TIP3    H1 4793   5.710   4.993   1.845
 1616TIP3    H2 4794   5.628   5.112   1.800
 1617TIP3   OH2 4795   2.568   1.104   3.428
 1617TIP3    H1 4796   2.598   1.085   3.516
 1617TIP3    H2 4797   2.523   1.188   3.435
 1618TIP3   OH2 4798   6.140   0.664   5.273
 1618TIP3    H1 4799   6.055   0.643   5.235
 1618TIP3    H2 4800   6.135   0.631   5.363
 1619TIP3   OH2 4801   7.425   2.709   3.804
 1619TIP3    H1 4802   7.479   2.788   3.811
 1619TIP3    H2 4803   7.350   2.725   3.862
 1620TIP3   OH2 4804   3.436   7.235   1.472
 1620TIP3    H1 4805   3.349   7.263   1.499
 1620TIP3    H2 4806   3.431   7.233   1.376
 1621TIP3   OH2 4807   5.502   2.259   3.883
 1621TIP3    H1 4808   5.564   2.241   3.813
 1621TIP3    H2 4809   5.552   2.246   3.964
 1622TIP3   OH2 4810   5.099   1.429   2.820
 1622TIP3    H1 4811   5.005   1.430   2.805
 1622TIP3    H2 4812   5.123   1.336   2.816
 1623TIP3   OH2 4813   1.369   3.763   2.989
 1623TIP3    H1 4814   1.363   3.802   3.077
 1623TIP3    H2 4815   1.422   3.825   2.939
 1624TIP3   OH2 4816   0.384   0.696   1.327
 1624TIP3    H1 4817   0.291   0.708   1.345
 1624TIP3    H2 4818   0.428   0.718   1.409
 1625TIP3   OH2 4819   2.755   3.283   1.931
 1625TIP3    H1 4820   2.834   3.251   1.887
 1625TIP3    H2 4821   2.718   3.205   1.974
 1626TIP3   OH2 4822   6.755   7.204   3.081
 1626TIP3    H1 4823   6.780   7.297   3.080
 1626TIP3    H2 4824   6.837   7.157   3.071
 1627TIP3   OH2 4825   0.772   7.015   1.005
 1627TIP3    H1 4826   0.685   7.051   1.023
 1627TIP3    H2 4827   0.817   7.084   0.956
 1628TIP3   OH2 4828   7.781   3.608   0.685
 1628TIP3    H1 4829   7.828   3.688   0.661
 1628TIP3    H2 4830   7.770   3.561   0.602
 1629TIP3   OH2 4831   1.061   7.036   4.925
 1629TIP3    H1 4832   1.000   6.976   4.967
 1629TIP3    H2 4833   1.120   6.980   4.875
 1630TIP3   OH2 4834   1.969   7.604   4.609
 1630TIP3    H1 4835   2.059   7.637   4.607
 1630TIP3    H2 4836   1.976   7.516   4.645
 1631TIP3   OH2 4837   1.276   6.872   3.487
 1631TIP3    H1 4838   1.316   6.958   3.489
 1631TIP3    H2 4839   1.349   6.811   3.488
 1632TIP3   OH2 4840   5.220   2.385   3.759
 1632TIP3    H1 4841   5.259   2.299   3.778
 1632TIP3    H2 4842   5.178   2.411   3.841
 1633TIP3   OH2 4843   7.053   5.407   2.074
 1633TIP3    H1 4844   6.979   5.384   2.017
 1633TIP3    H2 4845   7.123   5.348   2.048
 1634TIP3   OH2 4846   5.506   6.058   3.638
 1634TIP3    H1 4847   5.598   6.074   3.621
 1634TIP3    H2 4848   5.461   6.094   3.561
 1635TIP3   OH2 4849   3.079   1.118   5.832
 1635TIP3    H1 4850   3.142   1.054   5.800
 1635TIP3    H2 4851   3.042   1.158   5.754
 1636TIP3   OH2 4852   5.097   6.112   4.195
 1636TIP3    H1 4853   5.154   6.138   4.267
 1636TIP3    H2 4854   5.026   6.064   4.237
 1637TIP3   OH2 4855   6.286   3.942   5.785
 1637TIP3    H1 4856   6.241   4.024   5.767
 1637TIP3    H2 4857   6.274   3.890   5.705
 1638TIP3   OH2 4858   0.664   3.751   2.437
 1638TIP3    H1 4859   0.593   3.798   2.393
 1638TIP3    H2 4860   0.706   3.701   2.367
 1639TIP3   OH2 4861   4.471   4.887   1.390
 1639TIP3    H1 4862   4.449   4.806   1.436
 1639TIP3    H2 4863   4.565   4.883   1.376
 1640TIP3   OH2 4864   4.052   5.392   2.194
 1640TIP3    H1 4865   4.088   5.380   2.282
 1640TIP3    H2 4866   4.128   5.392   2.137
 1641TIP3   OH2 4867   4.806   4.029   1.734
 1641TIP3    H1 4868   4.891   4.027   1.691
 1641TIP3    H2 4869   4.826   4.056   1.824
 1642TIP3   OH2 4870   5.197   1.686   3.079
 1642TIP3    H1 4871   5.262   1.716   3.143
 1642TIP3    H2 4872   5.247   1.634   3.016
 1643TIP3   OH2 4873   1.533   0.342   4.998
 1643TIP3    H1 4874   1.444   0.337   5.033
 1643TIP3    H2 4875   1.581   0.273   5.044
 1644TIP3   OH2 4876   7.513   1.205   0.137
 1644TIP3    H1 4877   7.449   1.266   0.174
 1644TIP3    H2 4878   7.584   1.203   0.201
 1645TIP3   OH2 4879   7.049   1.413   4.792
 1645TIP3    H1 4880   6.954   1.415   4.775
 1645TIP3    H2 4881   7.087   1.388   4.709
 1646TIP3   OH2 4882   0.469   4.863   5.450
 1646TIP3    H1 4883   0.382   4.832   5.426
 1646TIP3    H2 4884   0.499   4.801   5.517
 1647TIP3   OH2 4885   4.974   1.956   3.650
 1647TIP3    H1 4886   4.969   2.015   3.574
 1647TIP3    H2 4887   4.886   1.917   3.655
 1648TIP3   OH2 4888   2.799   1.410   5.054
 1648TIP3    H1 4889   2.802   1.414   4.958
 1648TIP3    H2 4890   2.799   1.316   5.074
 1649TIP3   OH2 4891   8.224   2.679   1.362
 1649TIP3    H1 4892   8.226   2.739   1.287
 1649TIP3    H2 4893   8.220   2.592   1.323
 1650TIP3   OH2 4894   6.869   4.644   1.648
 1650TIP3    H1 4895   6.957   4.666   1.679
 1650TIP3    H2 4896   6.838   4.577   1.709
 1651TIP3   OH2 4897   3.206   0.794   3.583
 1651TIP3    H1 4898   3.296   0.761   3.592
 1651TIP3    H2 4899   3.187   0.834   3.668
 1652TIP3   OH2 4900   4.054   1.053   4.747
 1652TIP3    H1 4901   4.068   1.001   4.826
 1652TIP3    H2 4902   4.139   1.055   4.703
 1653TIP3   OH2 4903   0.840   4.932   4.882
 1653TIP3    H1 4904   0.910   4.983   4.924
 1653TIP3    H2 4905   0.760   4.964   4.923
 1654TIP3   OH2 4906   5.810   6.686   4.725
 1654TIP3    H1 4907   5.845   6.748   4.788
 1654TIP3    H2 4908   5.872   6.687   4.652
 1655TIP3   OH2 4909   5.938   3.481   3.238
 1655TIP3    H1 4910   5.999   3.552   3.258
 1655TIP3    H2 4911   5.852   3.522   3.238
 1656TIP3   OH2 4912   1.612   2.537   5.137
 1656TIP3    H1 4913   1.616   2.531   5.042
 1656TIP3    H2 4914   1.692   2.494   5.167
 1657TIP3   OH2 4915   0.820   4.507   0.572
 1657TIP3    H1 4916   0.777   4.528   0.490
 1657TIP3    H2 4917   0.903   4.466   0.547
 1658TIP3   OH2 4918   7.092   7.362   4.199
 1658TIP3    H1 4919   7.056   7.326   4.279
 1658TIP3    H2 4920   7.126   7.287   4.151
 1659TIP3   OH2 4921   7.417   0.059   3.651
 1659TIP3    H1 4922   7.353   0.117   3.608
 1659TIP3    H2 4923   7.482   0.042   3.583
 1660TIP3   OH2 4924   7.930   5.939   0.700
 1660TIP3    H1 4925   7.870   5.944   0.626
 1660TIP3    H2 4926   8.010   5.982   0.670
 1661TIP3   OH2 4927   0.244   1.764   3.937
 1661TIP3    H1 4928   0.194   1.846   3.939
 1661TIP3    H2 4929   0.321   1.781   3.991
 1662TIP3   OH2 4930   1.066   5.136   3.949
 1662TIP3    H1 4931   1.129   5.064   3.955
 1662TIP3    H2 4932   1.034   5.132   3.859
 1663TIP3   OH2 4933   2.193   6.203   5.134
 1663TIP3    H1 4934   2.100   6.199   5.111
 1663TIP3    H2 4935   2.222   6.289   5.105
 1664TIP3   OH2 4936   5.404   0.435   0.548
 1664TIP3    H1 4937   5.368   0.523   0.539
 1664TIP3    H2 4938   5.443   0.416   0.463
 1665TIP3   OH2 4939   6.214   1.893   3.645
 1665TIP3    H1 4940   6.259   1.914   3.727
 1665TIP3    H2 4941   6.121   1.904   3.665
 1666TIP3   OH2 4942   3.024   3.218   0.443
 1666TIP3    H1 4943   3.100   3.272   0.421
 1666TIP3    H2 4944   2.993   3.253   0.526
 1667TIP3   OH2 4945   1.370   3.567   5.538
 1667TIP3    H1 4946   1.354   3.587   5.446
 1667TIP3    H2 4947   1.314   3.492   5.556
 1668TIP3   OH2 4948   8.017   6.163   6.163
 1668TIP3    H1 4949   7.927   6.129   6.160
 1668TIP3    H2 4950   8.057   6.129   6.083
 1669TIP3   OH2 4951   2.364   0.107   0.909
 1669TIP3    H1 4952   2.337   0.027   0.954
 1669TIP3    H2 4953   2.342   0.178   0.971
 1670TIP3   OH2 4954   3.964   5.209   5.300
 1670TIP3    H1 4955   3.992   5.295   5.269
 1670TIP3    H2 4956   3.872   5.221   5.323
 1671TIP3   OH2 4957   7.021   6.485   2.585
 1671TIP3    H1 4958   7.031   6.438   2.502
 1671TIP3    H2 4959   6.933   6.522   2.581
 1672TIP3   OH2 4960   2.644   4.761   2.659
 1672TIP3    H1 4961   2.620   4.833   2.716
 1672TIP3    H2 4962   2.650   4.800   2.572
 1673TIP3   OH2 4963   0.117   2.064   1.398
 1673TIP3    H1 4964   0.155   1.985   1.362
 1673TIP3    H2 4965   0.189   2.127   1.400
 1674TIP3   OH2 4966   7.859   2.564   2.025
 1674TIP3    H1 4967   7.855   2.486   1.969
 1674TIP3    H2 4968   7.768   2.591   2.035
 1675TIP3   OH2 4969   2.437   0.703   4.392
 1675TIP3    H1 4970   2.441   0.665   4.304
 1675TIP3    H2 4971   2.343   0.718   4.407
 1676TIP3   OH2 4972   5.416   1.247   4.601
 1676TIP3    H1 4973   5.456   1.324   4.642
 1676TIP3    H2 4974   5.490   1.187   4.586
 1677TIP3   OH2 4975   6.975   5.000   1.863
 1677TIP3    H1 4976   7.010   4.985   1.951
 1677TIP3    H2 4977   7.006   4.926   1.811
 1678TIP3   OH2 4978   1.145   7.638   4.037
 1678TIP3    H1 4979   1.145   7.542   4.037
 1678TIP3    H2 4980   1.219   7.662   3.981
 1679TIP3   OH2 4981   4.783   1.232   3.687
 1679TIP3    H1 4982   4.768   1.274   3.603
 1679TIP3    H2 4983   4.785   1.305   3.750
 1680TIP3   OH2 4984   4.616   7.439   1.594
 1680TIP3    H1 4985   4.616   7.526   1.635
 1680TIP3    H2 4986   4.708   7.412   1.596
 1681TIP3   OH2 4987   7.543   6.607   3.773
 1681TIP3    H1 4988   7.635   6.633   3.786
 1681TIP3    H2 4989   7.545   6.512   3.776
 1682TIP3   OH2 4990   8.226   2.451   0.483
 1682TIP3    H1 4991   8.150   2.433   0.428
 1682TIP3    H2 4992   8.228   2.547   0.490
 1683TIP3   OH2 4993   0.101   6.514   2.630
 1683TIP3    H1 4994   0.162   6.585   2.647
 1683TIP3    H2 4995   0.017   6.546   2.664
 1684TIP3   OH2 4996   7.191   2.248   2.800
 1684TIP3    H1 4997   7.154   2.193   2.730
 1684TIP3    H2 4998   7.230   2.185   2.861
 1685TIP3   OH2 4999   1.300   0.279   2.300
 1685TIP3    H1 5000   1.218   0.282   2.251
 1685TIP3    H2 5001   1.329   0.188   2.293
 1686TIP3   OH2 5002   6.409   7.226   6.620
 1686TIP3    H1 5003   6.434   7.317   6.634
 1686TIP3    H2 5004   6.314   7.229   6.607
 1687TIP3   OH2 5005   2.671   1.765   0.246
 1687TIP3    H1 5006   2.683   1.857   0.271
 1687TIP3    H2 5007   2.599   1.767   0.183
 1688TIP3   OH2 5008   3.261   4.687   2.249
 1688TIP3    H1 5009   3.191   4.647   2.197
 1688TIP3    H2 5010   3.305   4.747   2.188
 1689TIP3   OH2 5011   4.019   3.127   1.579
 1689TIP3    H1 5012   4.033   3.121   1.673
 1689TIP3    H2 5013   3.962   3.054   1.558
 1690TIP3   OH2 5014   3.686   7.144   2.082
 1690TIP3    H1 5015   3.628   7.112   2.012
 1690TIP3    H2 5016   3.774   7.123   2.052
 1691TIP3   OH2 5017   7.754   2.280   1.855
 1691TIP3    H1 5018   7.744   2.222   1.931
 1691TIP3    H2 5019   7.765   2.220   1.781
 1692TIP3   OH2 5020   1.589   0.778   1.391
 1692TIP3    H1 5021   1.501   0.755   1.419
 1692TIP3    H2 5022   1.640   0.782   1.472
 1693TIP3   OH2 5023   6.090   3.675   3.320
 1693TIP3    H1 5024   6.034   3.734   3.370
 1693TIP3    H2 5025   6.143   3.631   3.386
 1694TIP3   OH2 5026   6.439   6.265   5.839
 1694TIP3    H1 5027   6.406   6.244   5.926
 1694TIP3    H2 5028   6.394   6.204   5.780
 1695TIP3   OH2 5029   5.065   5.891   2.730
 1695TIP3    H1 5030   5.092   5.799   2.740
 1695TIP3    H2 5031   5.094   5.932   2.812
 1696TIP3   OH2 5032   3.170   6.225   2.819
 1696TIP3    H1 5033   3.234   6.172   2.867
 1696TIP3    H2 5034   3.117   6.162   2.771
 1697TIP3   OH2 5035   2.513   2.451   2.269
 1697TIP3    H1 5036   2.444   2.388   2.290
 1697TIP3    H2 5037   2.475   2.506   2.200
 1698TIP3   OH2 5038   1.280   2.450   4.069
 1698TIP3    H1 5039   1.329   2.375   4.101
 1698TIP3    H2 5040   1.250   2.423   3.982
 1699TIP3   OH2 5041   2.392   5.087   3.891
 1699TIP3    H1 5042   2.457   5.043   3.837
 1699TIP3    H2 5043   2.443   5.142   3.950
 1700TIP3   OH2 5044   7.029   0.712   1.320
 1700TIP3    H1 5045   6.986   0.700   1.236
 1700TIP3    H2 5046   7.021   0.628   1.364
 1701TIP3   OH2 5047   5.490   6.873   0.209
 1701TIP3    H1 5048   5.580   6.847   0.187
 1701TIP3    H2 5049   5.455   6.798   0.257
 1702TIP3   OH2 5050   5.955   6.403   3.660
 1702TIP3    H1 5051   5.983   6.469   3.596
 1702TIP3    H2 5052   5.894   6.450   3.717
 1703TIP3   OH2 5053   7.791   6.795   0.370
 1703TIP3    H1 5054   7.697   6.782   0.378
 1703TIP3    H2 5055   7.822   6.811   0.459
 1704TIP3   OH2 5056   7.879   6.320   3.700
 1704TIP3    H1 5057   7.800   6.336   3.751
 1704TIP3    H2 5058   7.907   6.407   3.671
 1705TIP3   OH2 5059   7.848   5.564   0.462
 1705TIP3    H1 5060   7.939   5.543   0.439
 1705TIP3    H2 5061   7.800   5.558   0.379
 1706TIP3   OH2 5062   2.099   6.135   2.654
 1706TIP3    H1 5063   2.089   6.067   2.721
 1706TIP3    H2 5064   2.102   6.086   2.572
 1707TIP3   OH2 5065   4.347   2.339   3.000
 1707TIP3    H1 5066   4.438   2.338   2.971
 1707TIP3    H2 5067   4.304   2.402   2.942
 1708TIP3   OH2 5068   4.721   1.913   2.203
 1708TIP3    H1 5069   4.628   1.907   2.224
 1708TIP3    H2 5070   4.738   1.835   2.150
 1709TIP3   OH2 5071   7.503   1.513   5.676
 1709TIP3    H1 5072   7.419   1.524   5.720
 1709TIP3    H2 5073   7.549   1.596   5.692
 1710TIP3   OH2 5074   0.662   0.162   4.091
 1710TIP3    H1 5075   0.699   0.211   4.164
 1710TIP3    H2 5076   0.651   0.073   4.124
 1711TIP3   OH2 5077   1.427   1.298   4.202
 1711TIP3    H1 5078   1.398   1.389   4.216
 1711TIP3    H2 5079   1.505   1.290   4.257
 1712TIP3   OH2 5080   1.540   2.591   3.862
 1712TIP3    H1 5081   1.559   2.639   3.781
 1712TIP3    H2 5082   1.446   2.576   3.860
 1713TIP3   OH2 5083   1.506   4.573   6.710
 1713TIP3    H1 5084   1.560   4.495   6.701
 1713TIP3    H2 5085   1.504   4.611   6.622
 1714TIP3   OH2 5086   5.898   2.150   6.597
 1714TIP3    H1 5087   5.983   2.180   6.563
 1714TIP3    H2 5088   5.920   2.080   6.658
 1715TIP3   OH2 5089   0.950   3.287   1.093
 1715TIP3    H1 5090   0.911   3.221   1.150
 1715TIP3    H2 5091   1.014   3.239   1.041
 1716TIP3   OH2 5092   0.345   3.827   2.628
 1716TIP3    H1 5093   0.324   3.751   2.682
 1716TIP3    H2 5094   0.428   3.859   2.663
 1717TIP3   OH2 5095   2.514   5.458   2.804
 1717TIP3    H1 5096   2.589   5.429   2.855
 1717TIP3    H2 5097   2.450   5.387   2.812
 1718TIP3   OH2 5098   4.500   4.463   2.464
 1718TIP3    H1 5099   4.456   4.548   2.470
 1718TIP3    H2 5100   4.585   4.477   2.505
 1719TIP3   OH2 5101   2.519   3.294   6.622
 1719TIP3    H1 5102   2.515   3.365   6.686
 1719TIP3    H2 5103   2.477   3.329   6.544
 1720TIP3   OH2 5104   1.078   5.792   4.195
 1720TIP3    H1 5105   1.018   5.867   4.199
 1720TIP3    H2 5106   1.127   5.805   4.114
 1721TIP3   OH2 5107   7.263   2.970   1.232
 1721TIP3    H1 5108   7.225   3.038   1.287
 1721TIP3    H2 5109   7.276   2.896   1.291
 1722TIP3   OH2 5110   0.748   7.211   5.516
 1722TIP3    H1 5111   0.682   7.279   5.499
 1722TIP3    H2 5112   0.699   7.139   5.555
 1723TIP3   OH2 5113   2.551   2.318   4.887
 1723TIP3    H1 5114   2.464   2.353   4.908
 1723TIP3    H2 5115   2.552   2.232   4.929
 1724TIP3   OH2 5116   0.779   2.661   4.346
 1724TIP3    H1 5117   0.803   2.677   4.255
 1724TIP3    H2 5118   0.694   2.703   4.356
 1725TIP3   OH2 5119   0.988   3.941   4.107
 1725TIP3    H1 5120   0.898   3.932   4.140
 1725TIP3    H2 5121   0.978   3.961   4.014
 1726TIP3   OH2 5122   0.997   5.401   3.785
 1726TIP3    H1 5123   1.056   5.441   3.849
 1726TIP3    H2 5124   1.049   5.331   3.744
 1727TIP3   OH2 5125   6.896   4.559   2.786
 1727TIP3    H1 5126   6.890   4.536   2.693
 1727TIP3    H2 5127   6.987   4.587   2.797
 1728TIP3   OH2 5128   0.381   3.905   3.356
 1728TIP3    H1 5129   0.439   3.958   3.301
 1728TIP3    H2 5130   0.429   3.896   3.438
 1729TIP3   OH2 5131   7.113   3.205   6.255
 1729TIP3    H1 5132   7.168   3.227   6.179
 1729TIP3    H2 5133   7.147   3.260   6.326
 1730TIP3   OH2 5134   1.600   7.610   3.845
 1730TIP3    H1 5135   1.509   7.612   3.815
 1730TIP3    H2 5136   1.636   7.694   3.817
 1731TIP3   OH2 5137   6.030   4.968   3.982
 1731TIP3    H1 5138   6.051   5.004   4.068
 1731TIP3    H2 5139   6.076   5.025   3.920
 1732TIP3   OH2 5140   0.933   4.342   3.474
 1732TIP3    H1 5141   0.975   4.279   3.532
 1732TIP3    H2 5142   0.898   4.410   3.532
 1733TIP3   OH2 5143   3.726   4.406   0.059
 1733TIP3    H1 5144   3.742   4.325   0.107
 1733TIP3    H2 5145   3.809   4.452   0.060
 1734TIP3   OH2 5146   2.036   5.001   3.200
 1734TIP3    H1 5147   2.026   5.053   3.280
 1734TIP3    H2 5148   1.983   4.923   3.216
 1735TIP3   OH2 5149   0.662   3.512   4.205
 1735TIP3    H1 5150   0.600   3.538   4.273
 1735TIP3    H2 5151   0.747   3.543   4.238
 1736TIP3   OH2 5152   4.091   5.673   6.045
 1736TIP3    H1 5153   4.185   5.684   6.034
 1736TIP3    H2 5154   4.053   5.696   5.960
 1737TIP3   OH2 5155   6.764   3.007   5.478
 1737TIP3    H1 5156   6.812   2.979   5.556
 1737TIP3    H2 5157   6.673   2.983   5.495
 1738TIP3   OH2 5158   3.951   7.056   0.930
 1738TIP3    H1 5159   3.938   7.078   0.838
 1738TIP3    H2 5160   3.907   7.127   0.977
 1739TIP3   OH2 5161   8.025   0.554   4.669
 1739TIP3    H1 5162   8.040   0.588   4.581
 1739TIP3    H2 5163   7.998   0.463   4.656
 1740TIP3   OH2 5164   2.862   3.246   3.157
 1740TIP3    H1 5165   2.909   3.200   3.226
 1740TIP3    H2 5166   2.820   3.177   3.107
 1741TIP3   OH2 5167   1.478   3.407   1.924
 1741TIP3    H1 5168   1.433   3.490   1.937
 1741TIP3    H2 5169   1.408   3.344   1.907
 1742TIP3   OH2 5170   1.865   2.025   2.925
 1742TIP3    H1 5171   1.889   2.026   3.018
 1742TIP3    H2 5172   1.923   2.090   2.885
 1743TIP3   OH2 5173   0.498   6.434   5.115
 1743TIP3    H1 5174   0.420   6.400   5.159
 1743TIP3    H2 5175   0.540   6.356   5.077
 1744TIP3   OH2 5176   5.823   6.216   1.474
 1744TIP3    H1 5177   5.879   6.141   1.493
 1744TIP3    H2 5178   5.827   6.226   1.379
 1745TIP3   OH2 5179   2.021   1.792   5.922
 1745TIP3    H1 5180   2.050   1.785   6.013
 1745TIP3    H2 5181   1.950   1.856   5.925
 1746TIP3   OH2 5182   0.168   0.806   6.203
 1746TIP3    H1 5183   0.126   0.751   6.137
 1746TIP3    H2 5184   0.231   0.749   6.246
 1747TIP3   OH2 5185   6.165   2.007   0.463
 1747TIP3    H1 5186   6.212   2.071   0.409
 1747TIP3    H2 5187   6.106   1.963   0.403
 1748TIP3   OH2 5188   5.661   0.689   3.692
 1748TIP3    H1 5189   5.756   0.687   3.700
 1748TIP3    H2 5190   5.641   0.775   3.657
 1749TIP3   OH2 5191   7.340   1.138   3.898
 1749TIP3    H1 5192   7.405   1.187   3.948
 1749TIP3    H2 5193   7.310   1.069   3.957
 1750TIP3   OH2 5194   4.539   7.806   4.974
 1750TIP3    H1 5195   4.598   7.753   5.028
 1750TIP3    H2 5196   4.454   7.799   5.019
 1751TIP3   OH2 5197   6.011   2.464   3.262
 1751TIP3    H1 5198   5.979   2.436   3.176
 1751TIP3    H2 5199   5.976   2.552   3.274
 1752TIP3   OH2 5200   2.936   0.006   0.826
 1752TIP3    H1 5201   2.986   0.071   0.875
 1752TIP3    H2 5202   2.848   0.043   0.819
 1753TIP3   OH2 5203   7.150   6.312   1.721
 1753TIP3    H1 5204   7.110   6.396   1.744
 1753TIP3    H2 5205   7.164   6.317   1.627
 1754TIP3   OH2 5206   6.202   7.687   1.047
 1754TIP3    H1 5207   6.288   7.670   1.087
 1754TIP3    H2 5208   6.197   7.783   1.043
 1755TIP3   OH2 5209   1.554   7.193   6.151
 1755TIP3    H1 5210   1.571   7.101   6.170
 1755TIP3    H2 5211   1.618   7.216   6.083
 1756TIP3   OH2 5212   4.857   4.171   3.849
 1756TIP3    H1 5213   4.817   4.217   3.775
 1756TIP3    H2 5214   4.784   4.129   3.894
 1757TIP3   OH2 5215   5.333   6.474   4.267
 1757TIP3    H1 5216   5.272   6.457   4.338
 1757TIP3    H2 5217   5.345   6.389   4.225
 1758TIP3   OH2 5218   4.654   1.172   6.125
 1758TIP3    H1 5219   4.745   1.177   6.096
 1758TIP3    H2 5220   4.659   1.140   6.215
 1759TIP3   OH2 5221   6.757   3.987   1.141
 1759TIP3    H1 5222   6.745   4.007   1.233
 1759TIP3    H2 5223   6.850   3.968   1.132
 1760TIP3   OH2 5224   1.740   0.465   1.936
 1760TIP3    H1 5225   1.758   0.403   2.006
 1760TIP3    H2 5226   1.734   0.411   1.857
 1761TIP3   OH2 5227   4.748   3.527   1.936
 1761TIP3    H1 5228   4.691   3.603   1.928
 1761TIP3    H2 5229   4.785   3.516   1.848
 1762TIP3   OH2 5230   2.583   5.079   4.503
 1762TIP3    H1 5231   2.567   5.146   4.437
 1762TIP3    H2 5232   2.532   5.004   4.473
 1763TIP3   OH2 5233   2.908   7.562   2.995
 1763TIP3    H1 5234   2.990   7.599   3.027
 1763TIP3    H2 5235   2.848   7.636   2.990
 1764TIP3   OH2 5236   7.458   2.428   1.617
 1764TIP3    H1 5237   7.540   2.410   1.571
 1764TIP3    H2 5238   7.485   2.478   1.694
 1765TIP3   OH2 5239   2.430   3.932   3.956
 1765TIP3    H1 5240   2.338   3.951   3.940
 1765TIP3    H2 5241   2.460   3.888   3.877
 1766TIP3   OH2 5242   5.938   1.924   4.936
 1766TIP3    H1 5243   5.938   1.889   4.846
 1766TIP3    H2 5244   5.848   1.913   4.966
 1767TIP3   OH2 5245   7.453   7.025   3.199
 1767TIP3    H1 5246   7.506   6.957   3.156
 1767TIP3    H2 5247   7.430   6.987   3.284
 1768TIP3   OH2 5248   8.265   7.487   0.594
 1768TIP3    H1 5249   8.260   7.484   0.689
 1768TIP3    H2 5250   8.174   7.499   0.566
 1769TIP3   OH2 5251   3.398   0.125   6.355
 1769TIP3    H1 5252   3.327   0.187   6.372
 1769TIP3    H2 5253   3.384   0.097   6.264
 1770TIP3   OH2 5254   6.003   3.527   0.961
 1770TIP3    H1 5255   5.936   3.545   0.896
 1770TIP3    H2 5256   6.072   3.590   0.943
 1771TIP3   OH2 5257   5.879   3.649   2.135
 1771TIP3    H1 5258   5.875   3.716   2.067
 1771TIP3    H2 5259   5.815   3.677   2.201
 1772TIP3   OH2 5260   1.337   0.698   6.363
 1772TIP3    H1 5261   1.431   0.720   6.362
 1772TIP3    H2 5262   1.320   0.670   6.453
 1773TIP3   OH2 5263   6.798   5.050   6.740
 1773TIP3    H1 5264   6.796   5.142   6.713
 1773TIP3    H2 5265   6.851   5.049   6.820
 1774TIP3   OH2 5266   0.027   6.610   1.096
 1774TIP3    H1 5267  -0.025   6.537   1.129
 1774TIP3    H2 5268   0.089   6.570   1.035
 1775TIP3   OH2 5269   1.232   6.421   2.647
 1775TIP3    H1 5270   1.263   6.506   2.617
 1775TIP3    H2 5271   1.157   6.441   2.703
 1776TIP3   OH2 5272   6.400   4.439   1.550
 1776TIP3    H1 5273   6.482   4.390   1.560
 1776TIP3    H2 5274   6.333   4.381   1.586
 1777TIP3   OH2 5275   5.094   0.345   2.338
 1777TIP3    H1 5276   5.060   0.431   2.364
 1777TIP3    H2 5277   5.024   0.284   2.361
 1778TIP3   OH2 5278   2.308   6.616   5.833
 1778TIP3    H1 5279   2.371   6.545   5.827
 1778TIP3    H2 5280   2.226   6.574   5.859
 1779TIP3   OH2 5281   7.263   6.865   4.077
 1779TIP3    H1 5282   7.277   6.772   4.059
 1779TIP3    H2 5283   7.233   6.868   4.168
 1780TIP3   OH2 5284   2.098   0.072   5.127
 1780TIP3    H1 5285   2.011   0.065   5.088
 1780TIP3    H2 5286   2.152   0.110   5.057
 1781TIP3   OH2 5287   3.056   5.435   4.149
 1781TIP3    H1 5288   3.145   5.469   4.163
 1781TIP3    H2 5289   3.069   5.358   4.094
 1782TIP3   OH2 5290   2.763   7.799   0.217
 1782TIP3    H1 5291   2.778   7.845   0.135
 1782TIP3    H2 5292   2.840   7.743   0.227
 1783TIP3   OH2 5293   3.619   6.191   4.522
 1783TIP3    H1 5294   3.540   6.232   4.485
 1783TIP3    H2 5295   3.586   6.117   4.573
 1784TIP3   OH2 5296   2.321   4.244   4.877
 1784TIP3    H1 5297   2.261   4.171   4.896
 1784TIP3    H2 5298   2.363   4.220   4.794
 1785TIP3   OH2 5299   4.751   2.792   0.830
 1785TIP3    H1 5300   4.745   2.819   0.738
 1785TIP3    H2 5301   4.734   2.698   0.828
 1786TIP3   OH2 5302   0.252   3.765   0.021
 1786TIP3    H1 5303   0.216   3.723  -0.058
 1786TIP3    H2 5304   0.225   3.708   0.093
 1787TIP3   OH2 5305   5.942   4.758   4.430
 1787TIP3    H1 5306   6.031   4.732   4.451
 1787TIP3    H2 5307   5.927   4.837   4.482
 1788TIP3   OH2 5308   7.254   5.064   3.656
 1788TIP3    H1 5309   7.304   5.071   3.574
 1788TIP3    H2 5310   7.296   5.128   3.715
 1789TIP3   OH2 5311   6.145   2.946   5.210
 1789TIP3    H1 5312   6.099   2.971   5.290
 1789TIP3    H2 5313   6.212   3.014   5.199
 1790TIP3   OH2 5314   5.493   3.622   2.253
 1790TIP3    H1 5315   5.550   3.694   2.227
 1790TIP3    H2 5316   5.548   3.568   2.310
 1791TIP3   OH2 5317   2.585   5.673   3.081
 1791TIP3    H1 5318   2.625   5.754   3.112
 1791TIP3    H2 5319   2.659   5.616   3.060
 1792TIP3   OH2 5320   3.022   3.501   5.490
 1792TIP3    H1 5321   2.948   3.471   5.543
 1792TIP3    H2 5322   3.006   3.460   5.404
 1793TIP3   OH2 5323   2.907   3.252   0.176
 1793TIP3    H1 5324   2.928   3.249   0.269
 1793TIP3    H2 5325   2.839   3.319   0.169
 1794TIP3   OH2 5326   4.852   0.176   2.341
 1794TIP3    H1 5327   4.820   0.219   2.262
 1794TIP3    H2 5328   4.813   0.226   2.413
 1795TIP3   OH2 5329   8.132   6.900   0.594
 1795TIP3    H1 5330   8.051   6.905   0.645
 1795TIP3    H2 5331   8.194   6.856   0.653
 1796TIP3   OH2 5332   5.292   6.598   5.317
 1796TIP3    H1 5333   5.267   6.528   5.377
 1796TIP3    H2 5334   5.388   6.599   5.321
 1797TIP3   OH2 5335   1.854   0.991   1.682
 1797TIP3    H1 5336   1.852   0.895   1.679
 1797TIP3    H2 5337   1.786   1.018   1.620
 1798TIP3   OH2 5338   2.728   1.736   2.800
 1798TIP3    H1 5339   2.733   1.790   2.721
 1798TIP3    H2 5340   2.696   1.651   2.769
 1799TIP3   OH2 5341   6.619   1.800   4.792
 1799TIP3    H1 5342   6.711   1.822   4.779
 1799TIP3    H2 5343   6.589   1.766   4.708
 1800TIP3   OH2 5344   4.542   6.575   2.040
 1800TIP3    H1 5345   4.453   6.559   2.070
 1800TIP3    H2 5346   4.545   6.539   1.951
 1801TIP3   OH2 5347   3.678   1.856   6.397
 1801TIP3    H1 5348   3.722   1.806   6.466
 1801TIP3    H2 5349   3.585   1.850   6.418
 1802TIP3   OH2 5350   8.240   7.031   1.374
 1802TIP3    H1 5351   8.322   7.001   1.336
 1802TIP3    H2 5352   8.235   6.986   1.459
 1803TIP3   OH2 5353   4.511   0.092   3.914
 1803TIP3    H1 5354   4.533   0.026   3.849
 1803TIP3    H2 5355   4.465   0.160   3.866
 1804TIP3   OH2 5356   3.282   4.375   1.984
 1804TIP3    H1 5357   3.328   4.420   2.055
 1804TIP3    H2 5358   3.323   4.288   1.980
 1805TIP3   OH2 5359   4.361   0.512   4.241
 1805TIP3    H1 5360   4.299   0.445   4.213
 1805TIP3    H2 5361   4.307   0.587   4.264
 1806TIP3   OH2 5362   7.808   3.821   5.053
 1806TIP3    H1 5363   7.741   3.791   4.992
 1806TIP3    H2 5364   7.878   3.757   5.046
 1807TIP3   OH2 5365   6.264   5.001   6.521
 1807TIP3    H1 5366   6.339   5.054   6.493
 1807TIP3    H2 5367   6.302   4.936   6.580
 1808TIP3   OH2 5368   8.263   5.620   5.892
 1808TIP3    H1 5369   8.265   5.716   5.896
 1808TIP3    H2 5370   8.334   5.597   5.832
 1809TIP3   OH2 5371   8.082   0.111   4.241
 1809TIP3    H1 5372   8.083   0.075   4.152
 1809TIP3    H2 5373   7.990   0.130   4.258
 1810TIP3   OH2 5374   7.223   3.968   6.477
 1810TIP3    H1 5375   7.150   4.013   6.434
 1810TIP3    H2 5376   7.296   3.977   6.416
 1811TIP3   OH2 5377   3.716   4.129   5.263
 1811TIP3    H1 5378   3.685   4.089   5.344
 1811TIP3    H2 5379   3.637   4.161   5.220
 1812TIP3   OH2 5380   3.174   2.763   2.999
 1812TIP3    H1 5381   3.183   2.674   3.035
 1812TIP3    H2 5382   3.105   2.803   3.052
 1813TIP3   OH2 5383   8.222   2.047   4.866
 1813TIP3    H1 5384   8.197   2.138   4.851
 1813TIP3    H2 5385   8.286   2.027   4.797
 1814TIP3   OH2 5386   6.046   4.142   6.309
 1814TIP3    H1 5387   6.136   4.144   6.277
 1814TIP3    H2 5388   6.013   4.230   6.293
 1815TIP3   OH2 5389   5.685   6.922   5.816
 1815TIP3    H1 5390   5.603   6.900   5.771
 1815TIP3    H2 5391   5.694   7.017   5.804
 1816TIP3   OH2 5392   8.188   3.441   2.195
 1816TIP3    H1 5393   8.187   3.537   2.197
 1816TIP3    H2 5394   8.213   3.420   2.105
 1817TIP3   OH2 5395   3.471   0.312   3.459
 1817TIP3    H1 5396   3.396   0.321   3.401
 1817TIP3    H2 5397   3.437   0.337   3.546
 1818TIP3   OH2 5398   7.002   7.568   4.625
 1818TIP3    H1 5399   7.049   7.487   4.606
 1818TIP3    H2 5400   6.962   7.593   4.542
 1819TIP3   OH2 5401   7.887   7.798   4.292
 1819TIP3    H1 5402   7.983   7.793   4.285
 1819TIP3    H2 5403   7.859   7.706   4.287
 1820TIP3   OH2 5404   0.572   5.012   4.398
 1820TIP3    H1 5405   0.634   5.085   4.396
 1820TIP3    H2 5406   0.620   4.941   4.439
 1821TIP3   OH2 5407   7.575   1.740   3.448
 1821TIP3    H1 5408   7.490   1.746   3.403
 1821TIP3    H2 5409   7.553   1.748   3.541
 1822TIP3   OH2 5410   4.106   2.699   0.051
 1822TIP3    H1 5411   4.110   2.783   0.005
 1822TIP3    H2 5412   4.027   2.705   0.105
 1823TIP3   OH2 5413   4.857   0.557   4.924
 1823TIP3    H1 5414   4.896   0.504   4.855
 1823TIP3    H2 5415   4.796   0.499   4.968
 1824TIP3   OH2 5416   5.382   7.567   2.029
 1824TIP3    H1 5417   5.301   7.605   2.064
 1824TIP3    H2 5418   5.380   7.476   2.056
 1825TIP3   OH2 5419   0.032   7.010   3.993
 1825TIP3    H1 5420   0.078   6.943   4.043
 1825TIP3    H2 5421  -0.001   7.072   4.058
 1826TIP3   OH2 5422   0.532   0.687   1.611
 1826TIP3    H1 5423   0.551   0.688   1.705
 1826TIP3    H2 5424   0.607   0.644   1.571
 1827TIP3   OH2 5425   4.708   6.422   5.885
 1827TIP3    H1 5426   4.712   6.329   5.864
 1827TIP3    H2 5427   4.615   6.444   5.879
 1828TIP3   OH2 5428   6.158   6.557   3.415
 1828TIP3    H1 5429   6.178   6.644   3.381
 1828TIP3    H2 5430   6.064   6.547   3.403
 1829TIP3   OH2 5431   5.560   6.428   0.488
 1829TIP3    H1 5432   5.648   6.413   0.524
 1829TIP3    H2 5433   5.518   6.343   0.492
 1830TIP3   OH2 5434   0.686   0.066   5.888
 1830TIP3    H1 5435   0.775   0.064   5.922
 1830TIP3    H2 5436   0.696   0.055   5.793
 1831TIP3   OH2 5437   7.369   7.346   3.964
 1831TIP3    H1 5438   7.384   7.340   4.058
 1831TIP3    H2 5439   7.294   7.405   3.955
 1832TIP3   OH2 5440   4.765   4.593   1.407
 1832TIP3    H1 5441   4.756   4.636   1.492
 1832TIP3    H2 5442   4.818   4.654   1.355
 1833TIP3   OH2 5443   0.417   1.507   2.090
 1833TIP3    H1 5444   0.404   1.534   2.000
 1833TIP3    H2 5445   0.346   1.549   2.139
 1834TIP3   OH2 5446   1.594   1.986   1.893
 1834TIP3    H1 5447   1.515   2.003   1.841
 1834TIP3    H2 5448   1.649   2.063   1.879
 1835TIP3   OH2 5449   8.108   3.272   0.441
 1835TIP3    H1 5450   8.192   3.297   0.479
 1835TIP3    H2 5451   8.043   3.323   0.489
 1836TIP3   OH2 5452   6.089   5.018   1.189
 1836TIP3    H1 5453   6.067   4.928   1.210
 1836TIP3    H2 5454   6.006   5.057   1.162
 1837TIP3   OH2 5455   7.910   6.133   3.480
 1837TIP3    H1 5456   7.884   6.186   3.555
 1837TIP3    H2 5457   7.986   6.178   3.444
 1838TIP3   OH2 5458   5.844   4.287   4.154
 1838TIP3    H1 5459   5.887   4.364   4.117
 1838TIP3    H2 5460   5.750   4.306   4.144
 1839TIP3   OH2 5461   2.408   2.301   1.476
 1839TIP3    H1 5462   2.399   2.262   1.563
 1839TIP3    H2 5463   2.481   2.254   1.436
 1840TIP3   OH2 5464   0.989   5.899   1.303
 1840TIP3    H1 5465   0.958   5.842   1.373
 1840TIP3    H2 5466   1.073   5.932   1.334
 1841TIP3   OH2 5467   7.434   3.467   0.759
 1841TIP3    H1 5468   7.426   3.480   0.854
 1841TIP3    H2 5469   7.459   3.375   0.749
 1842TIP3   OH2 5470   8.141   4.587   4.862
 1842TIP3    H1 5471   8.168   4.569   4.772
 1842TIP3    H2 5472   8.105   4.503   4.892
 1843TIP3   OH2 5473   4.229   4.615   2.281
 1843TIP3    H1 5474   4.323   4.625   2.293
 1843TIP3    H2 5475   4.190   4.686   2.331
 1844TIP3   OH2 5476   0.260   4.789   2.838
 1844TIP3    H1 5477   0.256   4.726   2.910
 1844TIP3    H2 5478   0.310   4.863   2.874
 1845TIP3   OH2 5479   0.536   1.130   0.016
 1845TIP3    H1 5480   0.612   1.179   0.047
 1845TIP3    H2 5481   0.573   1.048  -0.018
 1846TIP3   OH2 5482   0.276   2.634   4.873
 1846TIP3    H1 5483   0.240   2.602   4.956
 1846TIP3    H2 5484   0.243   2.572   4.808
 1847TIP3   OH2 5485   5.085   4.326   2.095
 1847TIP3    H1 5486   5.159   4.379   2.125
 1847TIP3    H2 5487   5.125   4.253   2.047
 1848TIP3   OH2 5488   3.737   0.684   6.377
 1848TIP3    H1 5489   3.705   0.617   6.317
 1848TIP3    H2 5490   3.657   0.723   6.414
 1849TIP3   OH2 5491   3.852   6.426   5.431
 1849TIP3    H1 5492   3.834   6.343   5.476
 1849TIP3    H2 5493   3.789   6.487   5.469
 1850TIP3   OH2 5494   6.962   1.424   4.386
 1850TIP3    H1 5495   7.033   1.437   4.322
 1850TIP3    H2 5496   6.893   1.380   4.336
 1851TIP3   OH2 5497   0.910   4.157   2.127
 1851TIP3    H1 5498   0.920   4.252   2.125
 1851TIP3    H2 5499   1.000   4.123   2.131
 1852TIP3   OH2 5500   2.787   4.081   1.499
 1852TIP3    H1 5501   2.861   4.140   1.485
 1852TIP3    H2 5502   2.718   4.116   1.442
 1853TIP3   OH2 5503   6.074   6.152   3.303
 1853TIP3    H1 5504   6.142   6.105   3.253
 1853TIP3    H2 5505   6.054   6.094   3.377
 1854TIP3   OH2 5506   1.380   3.333   2.653
 1854TIP3    H1 5507   1.420   3.407   2.699
 1854TIP3    H2 5508   1.324   3.373   2.587
 1855TIP3   OH2 5509   1.704   3.405   0.693
 1855TIP3    H1 5510   1.675   3.376   0.606
 1855TIP3    H2 5511   1.798   3.417   0.684
 1856TIP3   OH2 5512   0.967   4.507   1.416
 1856TIP3    H1 5513   0.983   4.462   1.499
 1856TIP3    H2 5514   0.873   4.525   1.417
 1857TIP3   OH2 5515   2.205   3.380   0.335
 1857TIP3    H1 5516   2.252   3.459   0.363
 1857TIP3    H2 5517   2.154   3.408   0.259
 1858TIP3   OH2 5518   6.608   7.204   1.018
 1858TIP3    H1 5519   6.650   7.139   0.962
 1858TIP3    H2 5520   6.648   7.287   0.994
 1859TIP3   OH2 5521   1.958   0.509   6.153
 1859TIP3    H1 5522   1.892   0.440   6.157
 1859TIP3    H2 5523   1.971   0.525   6.059
 1860TIP3   OH2 5524   2.086   1.993   0.431
 1860TIP3    H1 5525   2.121   1.921   0.380
 1860TIP3    H2 5526   1.991   1.978   0.432
 1861TIP3   OH2 5527   5.142   2.984   4.917
 1861TIP3    H1 5528   5.048   2.983   4.895
 1861TIP3    H2 5529   5.183   2.930   4.849
 1862TIP3   OH2 5530   0.356   6.588   6.067
 1862TIP3    H1 5531   0.372   6.627   5.981
 1862TIP3    H2 5532   0.353   6.494   6.050
 1863TIP3   OH2 5533   5.530   6.729   0.672
 1863TIP3    H1 5534   5.453   6.673   0.685
 1863TIP3    H2 5535   5.534   6.744   0.578
 1864TIP3   OH2 5536   6.020   5.425   2.685
 1864TIP3    H1 5537   6.004   5.462   2.598
 1864TIP3    H2 5538   6.081   5.486   2.726
 1865TIP3   OH2 5539   3.178   5.908   1.859
 1865TIP3    H1 5540   3.111   5.858   1.906
 1865TIP3    H2 5541   3.163   5.887   1.767
 1866TIP3   OH2 5542   3.613   5.809   1.293
 1866TIP3    H1 5543   3.598   5.734   1.236
 1866TIP3    H2 5544   3.625   5.883   1.233
 1867TIP3   OH2 5545   2.526   7.646   3.891
 1867TIP3    H1 5546   2.596   7.650   3.957
 1867TIP3    H2 5547   2.506   7.738   3.872
 1868TIP3   OH2 5548   7.226   5.740   4.500
 1868TIP3    H1 5549   7.277   5.788   4.565
 1868TIP3    H2 5550   7.238   5.648   4.524
 1869TIP3   OH2 5551   5.533   3.782   6.005
 1869TIP3    H1 5552   5.473   3.724   5.959
 1869TIP3    H2 5553   5.494   3.792   6.092
 1870TIP3   OH2 5554   5.312   7.666   3.149
 1870TIP3    H1 5555   5.381   7.711   3.100
 1870TIP3    H2 5556   5.350   7.651   3.236
 1871TIP3   OH2 5557   2.413   2.504   5.906
 1871TIP3    H1 5558   2.492   2.552   5.931
 1871TIP3    H2 5559   2.442   2.447   5.835
 1872TIP3   OH2 5560   7.098   6.011   1.163
 1872TIP3    H1 5561   7.132   5.974   1.244
 1872TIP3    H2 5562   7.025   6.066   1.191
 1873TIP3   OH2 5563   2.438   5.514   1.349
 1873TIP3    H1 5564   2.384   5.558   1.415
 1873TIP3    H2 5565   2.397   5.538   1.265
 1874TIP3   OH2 5566   5.367   1.090   0.716
 1874TIP3    H1 5567   5.283   1.064   0.679
 1874TIP3    H2 5568   5.364   1.060   0.807
 1875TIP3   OH2 5569   3.415   2.202   5.345
 1875TIP3    H1 5570   3.370   2.286   5.340
 1875TIP3    H2 5571   3.348   2.139   5.370
 1876TIP3   OH2 5572   1.370   5.433   0.664
 1876TIP3    H1 5573   1.413   5.497   0.721
 1876TIP3    H2 5574   1.293   5.405   0.713
 1877TIP3   OH2 5575  -0.004   0.714   0.715
 1877TIP3    H1 5576  -0.056   0.791   0.693
 1877TIP3    H2 5577   0.050   0.700   0.637
 1878TIP3   OH2 5578   6.390   0.706   2.187
 1878TIP3    H1 5579   6.433   0.688   2.103
 1878TIP3    H2 5580   6.328   0.776   2.167
 1879TIP3   OH2 5581   6.674   4.268   5.787
 1879TIP3    H1 5582   6.730   4.190   5.790
 1879TIP3    H2 5583   6.601   4.247   5.844
 1880TIP3   OH2 5584   4.597   6.300   3.809
 1880TIP3    H1 5585   4.621   6.207   3.814
 1880TIP3    H2 5586   4.509   6.304   3.846
 1881TIP3   OH2 5587   4.209   4.030   1.681
 1881TIP3    H1 5588   4.276   4.071   1.625
 1881TIP3    H2 5589   4.218   4.074   1.765
 1882TIP3   OH2 5590   3.783   1.999   5.289
 1882TIP3    H1 5591   3.824   1.962   5.367
 1882TIP3    H2 5592   3.809   1.940   5.218
 1883TIP3   OH2 5593   1.812   7.673   2.032
 1883TIP3    H1 5594   1.784   7.751   2.081
 1883TIP3    H2 5595   1.908   7.675   2.037
 1884TIP3   OH2 5596   3.503   7.198   2.791
 1884TIP3    H1 5597   3.449   7.246   2.729
 1884TIP3    H2 5598   3.473   7.108   2.784
 1885TIP3   OH2 5599   3.396   1.829   6.468
 1885TIP3    H1 5600   3.423   1.916   6.497
 1885TIP3    H2 5601   3.301   1.833   6.465
 1886TIP3   OH2 5602   6.572   2.072   4.692
 1886TIP3    H1 5603   6.514   2.093   4.765
 1886TIP3    H2 5604   6.582   1.977   4.695
 1887TIP3   OH2 5605   1.243   1.840   3.463
 1887TIP3    H1 5606   1.244   1.747   3.486
 1887TIP3    H2 5607   1.306   1.880   3.523
 1888TIP3   OH2 5608   3.258   7.363   3.029
 1888TIP3    H1 5609   3.167   7.371   3.003
 1888TIP3    H2 5610   3.295   7.451   3.016
 1889TIP3   OH2 5611   4.652   5.930   6.444
 1889TIP3    H1 5612   4.572   5.953   6.491
 1889TIP3    H2 5613   4.712   5.899   6.511
 1890TIP3   OH2 5614   1.560   4.606   5.539
 1890TIP3    H1 5615   1.559   4.513   5.562
 1890TIP3    H2 5616   1.508   4.649   5.607
 1891TIP3   OH2 5617   4.015   4.590   2.698
 1891TIP3    H1 5618   4.056   4.524   2.642
 1891TIP3    H2 5619   3.925   4.595   2.667
 1892TIP3   OH2 5620   0.551   7.530   6.647
 1892TIP3    H1 5621   0.578   7.476   6.721
 1892TIP3    H2 5622   0.613   7.507   6.577
 1893TIP3   OH2 5623   6.601   5.552   6.721
 1893TIP3    H1 5624   6.522   5.509   6.689
 1893TIP3    H2 5625   6.636   5.597   6.645
 1894TIP3   OH2 5626   6.013   1.926   2.057
 1894TIP3    H1 5627   6.106   1.913   2.039
 1894TIP3    H2 5628   6.004   1.909   2.151
 1895TIP3   OH2 5629   0.511   1.122   6.505
 1895TIP3    H1 5630   0.574   1.195   6.502
 1895TIP3    H2 5631   0.442   1.152   6.564
 1896TIP3   OH2 5632   8.094   1.801   1.396
 1896TIP3    H1 5633   8.026   1.826   1.458
 1896TIP3    H2 5634   8.171   1.785   1.450
 1897TIP3   OH2 5635   1.975   7.480   1.245
 1897TIP3    H1 5636   1.995   7.572   1.228
 1897TIP3    H2 5637   1.882   7.472   1.224
 1898TIP3   OH2 5638   3.231   5.640   1.953
 1898TIP3    H1 5639   3.247   5.569   2.015
 1898TIP3    H2 5640   3.143   5.671   1.975
 1899TIP3   OH2 5641   7.048   6.061   2.341
 1899TIP3    H1 5642   7.085   5.975   2.324
 1899TIP3    H2 5643   7.073   6.081   2.431
 1900TIP3   OH2 5644   1.280   4.101   1.924
 1900TIP3    H1 5645   1.368   4.095   1.885
 1900TIP3    H2 5646   1.222   4.064   1.857
 1901TIP3   OH2 5647   7.625   4.403   5.541
 1901TIP3    H1 5648   7.561   4.332   5.531
 1901TIP3    H2 5649   7.593   4.472   5.483
 1902TIP3   OH2 5650   5.825   0.900   4.470
 1902TIP3    H1 5651   5.830   0.854   4.386
 1902TIP3    H2 5652   5.916   0.924   4.490
 1903TIP3   OH2 5653   7.755   5.726   1.781
 1903TIP3    H1 5654   7.789   5.800   1.830
 1903TIP3    H2 5655   7.773   5.747   1.689
 1904TIP3   OH2 5656   5.375   1.669   0.950
 1904TIP3    H1 5657   5.363   1.761   0.971
 1904TIP3    H2 5658   5.465   1.650   0.975
 1905TIP3   OH2 5659   8.176   4.270   3.136
 1905TIP3    H1 5660   8.110   4.339   3.133
 1905TIP3    H2 5661   8.188   4.245   3.044
 1906TIP3   OH2 5662   1.790   2.276   0.062
 1906TIP3    H1 5663   1.867   2.227   0.090
 1906TIP3    H2 5664   1.783   2.259  -0.031
 1907TIP3   OH2 5665   4.006   3.247   4.035
 1907TIP3    H1 5666   3.954   3.299   4.096
 1907TIP3    H2 5667   4.097   3.273   4.052
 1908TIP3   OH2 5668   0.732   3.841   4.143
 1908TIP3    H1 5669   0.658   3.898   4.121
 1908TIP3    H2 5670   0.692   3.766   4.187
 1909TIP3   OH2 5671   3.333   7.220   3.745
 1909TIP3    H1 5672   3.241   7.197   3.747
 1909TIP3    H2 5673   3.377   7.152   3.796
 1910TIP3   OH2 5674   6.515   3.706   0.595
 1910TIP3    H1 5675   6.566   3.689   0.516
 1910TIP3    H2 5676   6.548   3.789   0.628
 1911TIP3   OH2 5677   3.795   1.059   3.837
 1911TIP3    H1 5678   3.807   0.969   3.806
 1911TIP3    H2 5679   3.854   1.067   3.911
 1912TIP3   OH2 5680   3.397   4.271   3.106
 1912TIP3    H1 5681   3.455   4.253   3.032
 1912TIP3    H2 5682   3.455   4.275   3.182
 1913TIP3   OH2 5683   1.140   6.645   2.814
 1913TIP3    H1 5684   1.081   6.719   2.830
 1913TIP3    H2 5685   1.210   6.681   2.761
 1914TIP3   OH2 5686   4.832   2.636   3.253
 1914TIP3    H1 5687   4.880   2.580   3.193
 1914TIP3    H2 5688   4.852   2.602   3.340
 1915TIP3   OH2 5689   7.835   5.168   1.788
 1915TIP3    H1 5690   7.797   5.098   1.735
 1915TIP3    H2 5691   7.861   5.125   1.870
 1916TIP3   OH2 5692   6.768   6.082   1.197
 1916TIP3    H1 5693   6.803   6.144   1.262
 1916TIP3    H2 5694   6.720   6.018   1.249
 1917TIP3   OH2 5695   2.278   3.334   5.678
 1917TIP3    H1 5696   2.292   3.331   5.772
 1917TIP3    H2 5697   2.235   3.251   5.657
 1918TIP3   OH2 5698   7.389   4.142   6.348
 1918TIP3    H1 5699   7.330   4.210   6.381
 1918TIP3    H2 5700   7.468   4.151   6.402
 1919TIP3   OH2 5701   7.482   2.885   5.873
 1919TIP3    H1 5702   7.457   2.843   5.956
 1919TIP3    H2 5703   7.403   2.930   5.844
 1920TIP3   OH2 5704   1.897   6.343   0.106
 1920TIP3    H1 5705   1.869   6.434   0.103
 1920TIP3    H2 5706   1.985   6.344   0.068
 1921TIP3   OH2 5707   7.981   5.359   5.283
 1921TIP3    H1 5708   7.987   5.385   5.375
 1921TIP3    H2 5709   7.912   5.293   5.282
 1922TIP3   OH2 5710   6.715   6.455   6.433
 1922TIP3    H1 5711   6.742   6.547   6.429
 1922TIP3    H2 5712   6.669   6.447   6.516
 1923TIP3   OH2 5713   4.641   3.740   6.775
 1923TIP3    H1 5714   4.653   3.835   6.779
 1923TIP3    H2 5715   4.660   3.717   6.684
 1924TIP3   OH2 5716   4.539   5.261   0.101
 1924TIP3    H1 5717   4.545   5.226   0.013
 1924TIP3    H2 5718   4.543   5.184   0.158
 1925TIP3   OH2 5719   3.393   1.340   0.998
 1925TIP3    H1 5720   3.313   1.292   0.975
 1925TIP3    H2 5721   3.462   1.274   0.997
 1926TIP3   OH2 5722   1.327   0.552   4.278
 1926TIP3    H1 5723   1.335   0.565   4.372
 1926TIP3    H2 5724   1.239   0.584   4.256
 1927TIP3   OH2 5725   7.738   1.792   0.196
 1927TIP3    H1 5726   7.714   1.783   0.288
 1927TIP3    H2 5727   7.656   1.777   0.148
 1928TIP3   OH2 5728   5.514   7.293   4.880
 1928TIP3    H1 5729   5.475   7.207   4.895
 1928TIP3    H2 5730   5.507   7.337   4.964
 1929TIP3   OH2 5731   3.159   1.298   6.313
 1929TIP3    H1 5732   3.124   1.386   6.322
 1929TIP3    H2 5733   3.101   1.254   6.251
 1930TIP3   OH2 5734   7.702   1.977   5.050
 1930TIP3    H1 5735   7.668   1.954   5.137
 1930TIP3    H2 5736   7.767   1.909   5.032
 1931TIP3   OH2 5737   0.823   7.386   5.229
 1931TIP3    H1 5738   0.851   7.296   5.246
 1931TIP3    H2 5739   0.833   7.431   5.313
 1932TIP3   OH2 5740   2.858   6.214   0.905
 1932TIP3    H1 5741   2.886   6.282   0.844
 1932TIP3    H2 5742   2.768   6.193   0.879
 1933TIP3   OH2 5743   6.555   3.989   1.347
 1933TIP3    H1 5744   6.531   3.983   1.254
 1933TIP3    H2 5745   6.497   4.057   1.382
 1934TIP3   OH2 5746   6.073   5.558   4.037
 1934TIP3    H1 5747   6.167   5.546   4.052
 1934TIP3    H2 5748   6.056   5.513   3.955
 1935TIP3   OH2 5749   3.867   6.778   0.366
 1935TIP3    H1 5750   3.792   6.789   0.425
 1935TIP3    H2 5751   3.911   6.699   0.397
 1936TIP3   OH2 5752   1.143   3.433   2.483
 1936TIP3    H1 5753   1.175   3.522   2.468
 1936TIP3    H2 5754   1.086   3.416   2.408
 1937TIP3   OH2 5755   7.490   3.886   1.914
 1937TIP3    H1 5756   7.446   3.874   1.998
 1937TIP3    H2 5757   7.581   3.906   1.937
 1938TIP3   OH2 5758   6.969   5.518   4.120
 1938TIP3    H1 5759   6.921   5.556   4.194
 1938TIP3    H2 5760   7.061   5.523   4.146
 1939TIP3   OH2 5761   5.081   1.886   6.292
 1939TIP3    H1 5762   5.114   1.807   6.336
 1939TIP3    H2 5763   5.103   1.873   6.200
 1940TIP3   OH2 5764   4.364   7.233   0.317
 1940TIP3    H1 5765   4.279   7.245   0.274
 1940TIP3    H2 5766   4.380   7.138   0.313
 1941TIP3   OH2 5767   7.215   7.560   0.139
 1941TIP3    H1 5768   7.141   7.520   0.093
 1941TIP3    H2 5769   7.260   7.611   0.072
 1942TIP3   OH2 5770   6.223   0.273   2.917
 1942TIP3    H1 5771   6.300   0.298   2.865
 1942TIP3    H2 5772   6.149   0.293   2.860
 1943TIP3   OH2 5773   4.569   3.330   6.123
 1943TIP3    H1 5774   4.661   3.323   6.147
 1943TIP3    H2 5775   4.522   3.329   6.207
 1944TIP3   OH2 5776   2.988   0.688   3.151
 1944TIP3    H1 5777   2.971   0.669   3.243
 1944TIP3    H2 5778   3.083   0.681   3.143
 1945TIP3   OH2 5779   3.606   2.851   4.552
 1945TIP3    H1 5780   3.693   2.890   4.544
 1945TIP3    H2 5781   3.549   2.905   4.498
 1946TIP3   OH2 5782   3.550   3.967   6.068
 1946TIP3    H1 5783   3.578   4.058   6.081
 1946TIP3    H2 5784   3.545   3.957   5.973
 1947TIP3   OH2 5785   1.501   5.348   1.425
 1947TIP3    H1 5786   1.568   5.399   1.380
 1947TIP3    H2 5787   1.418   5.388   1.399
 1948TIP3   OH2 5788   5.095   2.280   1.838
 1948TIP3    H1 5789   5.003   2.305   1.843
 1948TIP3    H2 5790   5.118   2.291   1.746
 1949TIP3   OH2 5791   1.002   5.982   6.404
 1949TIP3    H1 5792   0.999   5.912   6.339
 1949TIP3    H2 5793   0.921   6.031   6.391
 1950TIP3   OH2 5794   3.954   2.862   5.379
 1950TIP3    H1 5795   3.868   2.861   5.421
 1950TIP3    H2 5796   3.946   2.928   5.310
 1951TIP3   OH2 5797   0.479   1.206   0.616
 1951TIP3    H1 5798   0.566   1.244   0.602
 1951TIP3    H2 5799   0.446   1.188   0.528
 1952TIP3   OH2 5800   1.554   6.120   5.754
 1952TIP3    H1 5801   1.532   6.213   5.762
 1952TIP3    H2 5802   1.530   6.082   5.838
 1953TIP3   OH2 5803   4.737   0.475   6.444
 1953TIP3    H1 5804   4.643   0.470   6.463
 1953TIP3    H2 5805   4.765   0.558   6.483
 1954TIP3   OH2 5806   1.092   3.981   0.250
 1954TIP3    H1 5807   1.075   3.902   0.198
 1954TIP3    H2 5808   1.187   3.991   0.247
 1955TIP3   OH2 5809   2.884   2.727   4.595
 1955TIP3    H1 5810   2.949   2.687   4.653
 1955TIP3    H2 5811   2.851   2.653   4.544
 1956TIP3   OH2 5812   7.898   1.857   1.835
 1956TIP3    H1 5813   7.930   1.876   1.747
 1956TIP3    H2 5814   7.956   1.906   1.893
 1957TIP3   OH2 5815   7.638   6.653   0.132
 1957TIP3    H1 5816   7.613   6.745   0.142
 1957TIP3    H2 5817   7.734   6.654   0.129
 1958TIP3   OH2 5818   0.838   6.318   2.626
 1958TIP3    H1 5819   0.827   6.364   2.709
 1958TIP3    H2 5820   0.871   6.384   2.566
 1959TIP3   OH2 5821   5.960   3.292   1.620
 1959TIP3    H1 5822   6.036   3.331   1.578
 1959TIP3    H2 5823   5.991   3.267   1.708
 1960TIP3   OH2 5824   8.018   7.610   6.717
 1960TIP3    H1 5825   8.020   7.514   6.723
 1960TIP3    H2 5826   7.938   7.629   6.669
 1961TIP3   OH2 5827   6.818   2.982   1.025
 1961TIP3    H1 5828   6.903   3.019   1.001
 1961TIP3    H2 5829   6.755   3.030   0.972
 1962TIP3   OH2 5830   6.675   3.858   0.919
 1962TIP3    H1 5831   6.744   3.910   0.877
 1962TIP3    H2 5832   6.659   3.902   1.002
 1963TIP3   OH2 5833   6.822   4.174   1.379
 1963TIP3    H1 5834   6.908   4.137   1.358
 1963TIP3    H2 5835   6.835   4.269   1.375
 1964TIP3   OH2 5836   3.363   5.654   1.711
 1964TIP3    H1 5837   3.324   5.669   1.797
 1964TIP3    H2 5838   3.288   5.636   1.654
 1965TIP3   OH2 5839   0.642   0.983   1.024
 1965TIP3    H1 5840   0.595   0.900   1.023
 1965TIP3    H2 5841   0.593   1.040   0.965
 1966TIP3   OH2 5842   6.301   3.927   0.610
 1966TIP3    H1 5843   6.357   3.986   0.561
 1966TIP3    H2 5844   6.346   3.843   0.609
 1967TIP3   OH2 5845   1.047   6.168   4.870
 1967TIP3    H1 5846   1.142   6.159   4.878
 1967TIP3    H2 5847   1.035   6.256   4.835
 1968TIP3   OH2 5848   7.630   3.460   3.257
 1968TIP3    H1 5849   7.664   3.526   3.317
 1968TIP3    H2 5850   7.598   3.510   3.182
 1969TIP3   OH2 5851   7.185   3.162   2.457
 1969TIP3    H1 5852   7.118   3.213   2.504
 1969TIP3    H2 5853   7.266   3.181   2.504
 1970TIP3   OH2 5854   4.680   6.742   1.450
 1970TIP3    H1 5855   4.746   6.791   1.401
 1970TIP3    H2 5856   4.681   6.781   1.537
 1971TIP3   OH2 5857   3.327   4.651   6.329
 1971TIP3    H1 5858   3.386   4.608   6.268
 1971TIP3    H2 5859   3.358   4.742   6.332
 1972TIP3   OH2 5860   6.677   2.016   1.530
 1972TIP3    H1 5861   6.607   2.076   1.555
 1972TIP3    H2 5862   6.753   2.045   1.581
 1973TIP3   OH2 5863   4.741   6.225   1.221
 1973TIP3    H1 5864   4.690   6.171   1.282
 1973TIP3    H2 5865   4.676   6.273   1.171
 1974TIP3   OH2 5866   0.232   7.728   6.312
 1974TIP3    H1 5867   0.216   7.652   6.256
 1974TIP3    H2 5868   0.312   7.706   6.359
 1975TIP3   OH2 5869   2.003   2.596   6.559
 1975TIP3    H1 5870   1.924   2.569   6.513
 1975TIP3    H2 5871   1.972   2.655   6.628
 1976TIP3   OH2 5872   5.864   3.554   4.802
 1976TIP3    H1 5873   5.835   3.627   4.856
 1976TIP3    H2 5874   5.901   3.491   4.864
 1977TIP3   OH2 5875   3.968   1.801   0.614
 1977TIP3    H1 5876   3.983   1.890   0.580
 1977TIP3    H2 5877   3.879   1.803   0.648
 1978TIP3   OH2 5878   7.837   1.771   0.669
 1978TIP3    H1 5879   7.845   1.730   0.755
 1978TIP3    H2 5880   7.927   1.794   0.645
 1979TIP3   OH2 5881   5.253   0.902   6.251
 1979TIP3    H1 5882   5.331   0.925   6.301
 1979TIP3    H2 5883   5.214   0.829   6.300
 1980TIP3   OH2 5884   3.179   3.315   5.330
 1980TIP3    H1 5885   3.175   3.303   5.425
 1980TIP3    H2 5886   3.156   3.229   5.294
 1981TIP3   OH2 5887   2.414   1.364   6.727
 1981TIP3    H1 5888   2.328   1.393   6.698
 1981TIP3    H2 5889   2.476   1.411   6.670
 1982TIP3   OH2 5890   3.637   6.977   5.446
 1982TIP3    H1 5891   3.650   7.068   5.473
 1982TIP3    H2 5892   3.711   6.930   5.482
 1983TIP3   OH2 5893   0.988   5.196   1.821
 1983TIP3    H1 5894   1.031   5.146   1.752
 1983TIP3    H2 5895   1.010   5.149   1.902
 1984TIP3   OH2 5896   4.805   0.766   5.283
 1984TIP3    H1 5897   4.734   0.704   5.300
 1984TIP3    H2 5898   4.879   0.711   5.257
 1985TIP3   OH2 5899   4.378   1.645   4.121
 1985TIP3    H1 5900   4.330   1.713   4.167
 1985TIP3    H2 5901   4.468   1.651   4.155
 1986TIP3   OH2 5902   6.978   0.207   6.631
 1986TIP3    H1 5903   7.043   0.137   6.642
 1986TIP3    H2 5904   6.929   0.181   6.553
 1987TIP3   OH2 5905   5.778   0.463   2.783
 1987TIP3    H1 5906   5.858   0.436   2.738
 1987TIP3    H2 5907   5.719   0.389   2.774
 1988TIP3   OH2 5908   7.173   7.684   5.412
 1988TIP3    H1 5909   7.152   7.594   5.436
 1988TIP3    H2 5910   7.145   7.737   5.487
 1989TIP3   OH2 5911   6.513   3.048   5.872
 1989TIP3    H1 5912   6.468   3.129   5.897
 1989TIP3    H2 5913   6.598   3.077   5.838
 1990TIP3   OH2 5914   3.265   2.919   4.925
 1990TIP3    H1 5915   3.339   2.918   4.864
 1990TIP3    H2 5916   3.293   2.979   4.994
 1991TIP3   OH2 5917   1.940   4.575   0.503
 1991TIP3    H1 5918   2.010   4.638   0.486
 1991TIP3    H2 5919   1.982   4.505   0.553
 1992TIP3   OH2 5920   3.115   7.812   2.004
 1992TIP3    H1 5921   3.122   7.732   1.952
 1992TIP3    H2 5922   3.169   7.795   2.081
 1993TIP3   OH2 5923   7.388   3.365   2.229
 1993TIP3    H1 5924   7.443   3.443   2.226
 1993TIP3    H2 5925   7.306   3.391   2.188
 1994TIP3   OH2 5926   1.368   4.910   1.801
 1994TIP3    H1 5927   1.338   4.997   1.826
 1994TIP3    H2 5928   1.298   4.875   1.746
 1995TIP3   OH2 5929   3.590   2.263   1.840
 1995TIP3    H1 5930   3.508   2.238   1.882
 1995TIP3    H2 5931   3.577   2.244   1.747
 1996TIP3   OH2 5932   5.912   7.762   1.923
 1996TIP3    H1 5933   5.935   7.681   1.969
 1996TIP3    H2 5934   5.960   7.758   1.841
 1997TIP3   OH2 5935   1.727   7.200   2.632
 1997TIP3    H1 5936   1.653   7.138   2.636
 1997TIP3    H2 5937   1.802   7.148   2.659
 1998TIP3   OH2 5938   4.597   0.582   6.772
 1998TIP3    H1 5939   4.522   0.568   6.830
 1998TIP3    H2 5940   4.570   0.547   6.687
 1999TIP3   OH2 5941   6.726   3.374   2.962
 1999TIP3    H1 5942   6.668   3.424   2.904
 1999TIP3    H2 5943   6.707   3.408   3.049
 2000TIP3   OH2 5944   6.863   7.150   0.577
 2000TIP3    H1 5945   6.813   7.226   0.546
 2000TIP3    H2 5946   6.805   7.076   0.564
 2001TIP3   OH2 5947   4.797   7.576   2.866
 2001TIP3    H1 5948   4.723   7.574   2.805
 2001TIP3    H2 5949   4.852   7.648   2.835
 2002TIP3   OH2 5950   1.585   5.892   1.390
 2002TIP3    H1 5951   1.564   5.862   1.301
 2002TIP3    H2 5952   1.553   5.982   1.393
 2003TIP3   OH2 5953   5.453   6.676   2.713
 2003TIP3    H1 5954   5.472   6.688   2.806
 2003TIP3    H2 5955   5.383   6.739   2.695
 2004TIP3   OH2 5956   7.723   4.801   0.085
 2004TIP3    H1 5957   7.638   4.817   0.043
 2004TIP3    H2 5958   7.722   4.856   0.164
 2005TIP3   OH2 5959   2.814   1.088   3.096
 2005TIP3    H1 5960   2.755   1.039   3.153
 2005TIP3    H2 5961   2.856   1.151   3.154
 2006TIP3   OH2 5962   4.108   4.575   0.728
 2006TIP3    H1 5963   4.202   4.579   0.709
 2006TIP3    H2 5964   4.101   4.510   0.798
 2007TIP3   OH2 5965   7.714   5.113   3.851
 2007TIP3    H1 5966   7.716   5.164   3.769
 2007TIP3    H2 5967   7.634   5.061   3.844
 2008TIP3   OH2 5968   2.883   6.123   2.373
 2008TIP3    H1 5969   2.826   6.195   2.399
 2008TIP3    H2 5970   2.836   6.078   2.303
 2009TIP3   OH2 5971   1.960   6.978   6.636
 2009TIP3    H1 5972   1.952   6.883   6.643
 2009TIP3    H2 5973   2.007   6.992   6.553
 2010TIP3   OH2 5974   7.896   5.675   3.482
 2010TIP3    H1 5975   7.898   5.724   3.564
 2010TIP3    H2 5976   7.903   5.742   3.414
 2011TIP3   OH2 5977   3.550   2.302   6.222
 2011TIP3    H1 5978   3.638   2.327   6.251
 2011TIP3    H2 5979   3.510   2.264   6.300
 2012TIP3   OH2 5980   4.524   3.664   4.251
 2012TIP3    H1 5981   4.583   3.660   4.327
 2012TIP3    H2 5982   4.516   3.757   4.232
 2013TIP3   OH2 5983   8.142   3.391   6.045
 2013TIP3    H1 5984   8.157   3.426   6.133
 2013TIP3    H2 5985   8.181   3.456   5.986
 2014TIP3   OH2 5986   3.619   1.620   4.539
 2014TIP3    H1 5987   3.597   1.542   4.487
 2014TIP3    H2 5988   3.602   1.693   4.479
 2015TIP3   OH2 5989   8.189   1.645   5.112
 2015TIP3    H1 5990   8.173   1.669   5.204
 2015TIP3    H2 5991   8.284   1.651   5.102
 2016TIP3   OH2 5992   2.341   4.594   1.474
 2016TIP3    H1 5993   2.300   4.563   1.393
 2016TIP3    H2 5994   2.404   4.526   1.497
 2017TIP3   OH2 5995   1.723   2.991   0.956
 2017TIP3    H1 5996   1.769   3.028   1.032
 2017TIP3    H2 5997   1.707   3.065   0.899
 2018TIP3   OH2 5998   5.708   6.446   2.692
 2018TIP3    H1 5999   5.775   6.413   2.751
 2018TIP3    H2 6000   5.651   6.370   2.677
 2019TIP3   OH2 6001   3.637   4.896   4.023
 2019TIP3    H1 6002   3.671   4.859   3.942
 2019TIP3    H2 6003   3.654   4.829   4.089
 2020TIP3   OH2 6004   4.029   7.764   6.723
 2020TIP3    H1 6005   4.017   7.787   6.630
 2020TIP3    H2 6006   4.047   7.847   6.766
 2021TIP3   OH2 6007   1.352   6.191   2.455
 2021TIP3    H1 6008   1.399   6.271   2.428
 2021TIP3    H2 6009   1.264   6.222   2.478
 2022TIP3   OH2 6010   4.041   0.677   3.535
 2022TIP3    H1 6011   4.107   0.740   3.564
 2022TIP3    H2 6012   4.081   0.633   3.460
 2023TIP3   OH2 6013   2.698   6.734   1.627
 2023TIP3    H1 6014   2.752   6.780   1.692
 2023TIP3    H2 6015   2.733   6.763   1.543
 2024TIP3   OH2 6016   7.088   2.863   2.484
 2024TIP3    H1 6017   7.142   2.932   2.445
 2024TIP3    H2 6018   7.032   2.910   2.547
 2025TIP3   OH2 6019   5.309   1.361   3.261
 2025TIP3    H1 6020   5.335   1.373   3.352
 2025TIP3    H2 6021   5.227   1.409   3.253
 2026TIP3   OH2 6022   2.340   6.345   4.502
 2026TIP3    H1 6023   2.382   6.345   4.416
 2026TIP3    H2 6024   2.349   6.435   4.533
 2027TIP3   OH2 6025   2.381   7.157   4.750
 2027TIP3    H1 6026   2.400   7.228   4.811
 2027TIP3    H2 6027   2.299   7.119   4.782
 2028TIP3   OH2 6028   5.025   4.625   5.619
 2028TIP3    H1 6029   5.030   4.530   5.610
 2028TIP3    H2 6030   4.988   4.638   5.706
 2029TIP3   OH2 6031   2.476   6.640   2.689
 2029TIP3    H1 6032   2.528   6.720   2.698
 2029TIP3    H2 6033   2.541   6.571   2.674
 2030TIP3   OH2 6034   6.347   0.418   3.487
 2030TIP3    H1 6035   6.342   0.511   3.508
 2030TIP3    H2 6036   6.332   0.374   3.570
 2031TIP3   OH2 6037   0.358   1.617   6.243
 2031TIP3    H1 6038   0.375   1.525   6.262
 2031TIP3    H2 6039   0.291   1.643   6.307
 2032TIP3   OH2 6040   1.007   2.128   3.140
 2032TIP3    H1 6041   1.008   2.213   3.096
 2032TIP3    H2 6042   0.930   2.084   3.104
 2033TIP3   OH2 6043   3.265   5.757   0.468
 2033TIP3    H1 6044   3.269   5.772   0.373
 2033TIP3    H2 6045   3.194   5.813   0.498
 2034TIP3   OH2 6046   7.238   6.135   3.714
 2034TIP3    H1 6047   7.246   6.184   3.632
 2034TIP3    H2 6048   7.173   6.067   3.695
 2035TIP3   OH2 6049   2.078   5.457   3.512
 2035TIP3    H1 6050   2.066   5.515   3.587
 2035TIP3    H2 6051   2.173   5.446   3.505
 2036TIP3   OH2 6052   5.341   3.201   5.341
 2036TIP3    H1 6053   5.264   3.151   5.313
 2036TIP3    H2 6054   5.381   3.147   5.409
 2037TIP3   OH2 6055   5.064   7.368   2.204
 2037TIP3    H1 6056   4.995   7.330   2.259
 2037TIP3    H2 6057   5.085   7.451   2.247
 2038TIP3   OH2 6058   2.978   3.985   1.039
 2038TIP3    H1 6059   2.966   3.997   1.133
 2038TIP3    H2 6060   3.049   3.921   1.032
 2039TIP3   OH2 6061   5.165   1.080   3.945
 2039TIP3    H1 6062   5.083   1.045   3.911
 2039TIP3    H2 6063   5.203   1.008   3.995
 2040TIP3   OH2 6064   4.127   2.740   3.172
 2040TIP3    H1 6065   4.040   2.723   3.137
 2040TIP3    H2 6066   4.160   2.813   3.120
 2041TIP3   OH2 6067   7.679   2.546   0.901
 2041TIP3    H1 6068   7.649   2.573   0.814
 2041TIP3    H2 6069   7.719   2.625   0.939
 2042TIP3   OH2 6070   4.513   2.153   1.301
 2042TIP3    H1 6071   4.435   2.105   1.274
 2042TIP3    H2 6072   4.481   2.241   1.323
 2043TIP3   OH2 6073   1.489   4.291   4.592
 2043TIP3    H1 6074   1.538   4.284   4.674
 2043TIP3    H2 6075   1.406   4.333   4.617
 2044TIP3   OH2 6076   5.634   1.019   2.507
 2044TIP3    H1 6077   5.636   1.027   2.602
 2044TIP3    H2 6078   5.584   1.095   2.477
 2045TIP3   OH2 6079   1.025   1.747   0.924
 2045TIP3    H1 6080   1.108   1.699   0.933
 2045TIP3    H2 6081   0.966   1.705   0.987
 2046TIP3   OH2 6082   3.941   0.850   2.498
 2046TIP3    H1 6083   3.895   0.767   2.488
 2046TIP3    H2 6084   4.032   0.825   2.514
 2047TIP3   OH2 6085   8.047   5.749   5.653
 2047TIP3    H1 6086   8.019   5.762   5.743
 2047TIP3    H2 6087   8.022   5.830   5.609
 2048TIP3   OH2 6088   0.317   6.801   5.870
 2048TIP3    H1 6089   0.385   6.791   5.804
 2048TIP3    H2 6090   0.332   6.888   5.907
 2049TIP3   OH2 6091   1.565   0.149   5.202
 2049TIP3    H1 6092   1.501   0.140   5.272
 2049TIP3    H2 6093   1.648   0.125   5.242
 2050TIP3   OH2 6094   1.074   6.849   6.202
 2050TIP3    H1 6095   1.100   6.793   6.275
 2050TIP3    H2 6096   0.989   6.815   6.174
 2051TIP3   OH2 6097   6.773   2.190   3.532
 2051TIP3    H1 6098   6.684   2.184   3.567
 2051TIP3    H2 6099   6.767   2.255   3.461
 2052TIP3   OH2 6100   4.096   4.553   6.127
 2052TIP3    H1 6101   4.082   4.548   6.221
 2052TIP3    H2 6102   4.124   4.643   6.111
 2053TIP3   OH2 6103   2.627   0.374   4.365
 2053TIP3    H1 6104   2.689   0.385   4.438
 2053TIP3    H2 6105   2.660   0.297   4.318
 2054TIP3   OH2 6106   5.441   4.859   4.398
 2054TIP3    H1 6107   5.501   4.818   4.336
 2054TIP3    H2 6108   5.374   4.901   4.344
 2055TIP3   OH2 6109   7.351   5.058   2.176
 2055TIP3    H1 6110   7.400   5.011   2.108
 2055TIP3    H2 6111   7.300   5.123   2.127
 2056TIP3   OH2 6112   3.413   5.837   6.118
 2056TIP3    H1 6113   3.478   5.852   6.186
 2056TIP3    H2 6114   3.409   5.918   6.069
 2057TIP3   OH2 6115   3.728   7.215   6.252
 2057TIP3    H1 6116   3.731   7.181   6.342
 2057TIP3    H2 6117   3.743   7.309   6.262
 2058TIP3   OH2 6118   3.454   1.676   6.250
 2058TIP3    H1 6119   3.472   1.734   6.176
 2058TIP3    H2 6120   3.434   1.734   6.322
 2059TIP3   OH2 6121   8.272   5.494   4.045
 2059TIP3    H1 6122   8.201   5.502   4.108
 2059TIP3    H2 6123   8.230   5.503   3.959
 2060TIP3   OH2 6124   3.259   7.082   4.725
 2060TIP3    H1 6125   3.308   7.072   4.643
 2060TIP3    H2 6126   3.308   7.029   4.788
 2061TIP3   OH2 6127   7.899   2.226   5.047
 2061TIP3    H1 6128   7.867   2.138   5.029
 2061TIP3    H2 6129   7.959   2.216   5.121
 2062TIP3   OH2 6130   5.011   6.864   1.867
 2062TIP3    H1 6131   5.063   6.788   1.840
 2062TIP3    H2 6132   5.019   6.865   1.963
 2063TIP3   OH2 6133   7.426   2.841   2.943
 2063TIP3    H1 6134   7.344   2.856   2.990
 2063TIP3    H2 6135   7.400   2.799   2.862
 2064TIP3   OH2 6136   0.942   0.279   6.096
 2064TIP3    H1 6137   0.957   0.203   6.040
 2064TIP3    H2 6138   0.929   0.242   6.183
 2065TIP3   OH2 6139   2.048   7.736   1.197
 2065TIP3    H1 6140   2.113   7.802   1.176
 2065TIP3    H2 6141   1.964   7.779   1.182
 2066TIP3   OH2 6142   5.429   0.737   5.575
 2066TIP3    H1 6143   5.431   0.731   5.479
 2066TIP3    H2 6144   5.491   0.807   5.596
 2067TIP3   OH2 6145   2.641   0.505   4.770
 2067TIP3    H1 6146   2.705   0.499   4.699
 2067TIP3    H2 6147   2.655   0.426   4.822
 2068TIP3   OH2 6148   3.451   6.564   3.285
 2068TIP3    H1 6149   3.458   6.545   3.192
 2068TIP3    H2 6150   3.471   6.657   3.292
 2069TIP3   OH2 6151   2.299   3.966   5.522
 2069TIP3    H1 6152   2.283   3.961   5.427
 2069TIP3    H2 6153   2.390   3.940   5.533
 2070TIP3   OH2 6154   0.450   2.002   4.161
 2070TIP3    H1 6155   0.514   1.936   4.187
 2070TIP3    H2 6156   0.491   2.049   4.088
 2071TIP3   OH2 6157   0.840   3.133   0.365
 2071TIP3    H1 6158   0.933   3.140   0.344
 2071TIP3    H2 6159   0.800   3.096   0.287
 2072TIP3   OH2 6160   1.523   1.258   2.520
 2072TIP3    H1 6161   1.434   1.268   2.486
 2072TIP3    H2 6162   1.517   1.185   2.581
 2073TIP3   OH2 6163   2.915   0.776   0.145
 2073TIP3    H1 6164   2.996   0.752   0.191
 2073TIP3    H2 6165   2.940   0.778   0.053
 2074TIP3   OH2 6166   1.437   3.730   3.874
 2074TIP3    H1 6167   1.420   3.798   3.938
 2074TIP3    H2 6168   1.427   3.648   3.922
 2075TIP3   OH2 6169   6.287   5.551   4.683
 2075TIP3    H1 6170   6.220   5.512   4.740
 2075TIP3    H2 6171   6.324   5.623   4.735
 2076TIP3   OH2 6172   5.307   0.199   2.255
 2076TIP3    H1 6173   5.352   0.180   2.338
 2076TIP3    H2 6174   5.227   0.245   2.281
 2077TIP3   OH2 6175   5.717   5.644   3.116
 2077TIP3    H1 6176   5.740   5.726   3.161
 2077TIP3    H2 6177   5.798   5.593   3.115
 2078TIP3   OH2 6178   8.292   1.987   0.868
 2078TIP3    H1 6179   8.367   2.047   0.873
 2078TIP3    H2 6180   8.240   2.008   0.945
 2079TIP3   OH2 6181   5.170   4.636   0.698
 2079TIP3    H1 6182   5.232   4.692   0.651
 2079TIP3    H2 6183   5.226   4.583   0.755
 2080TIP3   OH2 6184   6.606   5.978   5.234
 2080TIP3    H1 6185   6.532   6.012   5.283
 2080TIP3    H2 6186   6.676   6.041   5.249
 2081TIP3   OH2 6187   5.811   2.379   5.098
 2081TIP3    H1 6188   5.780   2.468   5.114
 2081TIP3    H2 6189   5.741   2.338   5.046
 2082TIP3   OH2 6190   7.303   3.061   1.620
 2082TIP3    H1 6191   7.342   2.996   1.561
 2082TIP3    H2 6192   7.209   3.042   1.618
 2083TIP3   OH2 6193   1.602   2.993   3.813
 2083TIP3    H1 6194   1.590   3.030   3.900
 2083TIP3    H2 6195   1.532   2.929   3.804
 2084TIP3   OH2 6196   4.996   4.288   2.357
 2084TIP3    H1 6197   5.044   4.331   2.285
 2084TIP3    H2 6198   5.065   4.247   2.409
 2085TIP3   OH2 6199   2.139   3.307   4.673
 2085TIP3    H1 6200   2.083   3.309   4.595
 2085TIP3    H2 6201   2.088   3.262   4.739
 2086TIP3   OH2 6202   4.595   2.220   2.037
 2086TIP3    H1 6203   4.560   2.136   2.067
 2086TIP3    H2 6204   4.540   2.244   1.963
 2087TIP3   OH2 6205   3.669   0.074   5.724
 2087TIP3    H1 6206   3.674   0.153   5.777
 2087TIP3    H2 6207   3.582   0.037   5.744
 2088TIP3   OH2 6208   6.258   3.220   5.035
 2088TIP3    H1 6209   6.229   3.233   4.945
 2088TIP3    H2 6210   6.224   3.296   5.082
 2089TIP3   OH2 6211   4.396   2.623   3.220
 2089TIP3    H1 6212   4.396   2.545   3.165
 2089TIP3    H2 6213   4.310   2.663   3.205
 2090TIP3   OH2 6214   1.792   4.406   5.343
 2090TIP3    H1 6215   1.785   4.365   5.429
 2090TIP3    H2 6216   1.710   4.383   5.299
 2091TIP3   OH2 6217   3.959   3.805   5.008
 2091TIP3    H1 6218   3.877   3.830   5.051
 2091TIP3    H2 6219   3.947   3.829   4.916
 2092TIP3   OH2 6220   4.427   7.268   1.324
 2092TIP3    H1 6221   4.458   7.349   1.283
 2092TIP3    H2 6222   4.493   7.203   1.301
 2093TIP3   OH2 6223   4.836   5.795   3.353
 2093TIP3    H1 6224   4.883   5.878   3.364
 2093TIP3    H2 6225   4.752   5.809   3.397
 2094TIP3   OH2 6226   1.147   5.611   5.997
 2094TIP3    H1 6227   1.230   5.607   5.950
 2094TIP3    H2 6228   1.125   5.519   6.015
 2095TIP3   OH2 6229   1.910   3.205   3.985
 2095TIP3    H1 6230   2.005   3.200   3.993
 2095TIP3    H2 6231   1.890   3.299   3.991
 2096TIP3   OH2 6232   5.015   0.839   6.436
 2096TIP3    H1 6233   5.080   0.770   6.425
 2096TIP3    H2 6234   4.969   0.843   6.352
 2097TIP3   OH2 6235   3.526   3.259   1.050
 2097TIP3    H1 6236   3.552   3.315   0.977
 2097TIP3    H2 6237   3.434   3.281   1.066
 2098TIP3   OH2 6238   7.863   4.592   5.358
 2098TIP3    H1 6239   7.792   4.550   5.309
 2098TIP3    H2 6240   7.821   4.629   5.435
 2099TIP3   OH2 6241   1.212   4.901   2.815
 2099TIP3    H1 6242   1.192   4.808   2.831
 2099TIP3    H2 6243   1.287   4.898   2.755
 2100TIP3   OH2 6244   4.756   1.158   2.705
 2100TIP3    H1 6245   4.845   1.124   2.717
 2100TIP3    H2 6246   4.715   1.149   2.791
 2101TIP3   OH2 6247   3.173   5.510   4.860
 2101TIP3    H1 6248   3.133   5.434   4.901
 2101TIP3    H2 6249   3.267   5.494   4.867
 2102TIP3   OH2 6250   6.901   6.522   1.470
 2102TIP3    H1 6251   6.858   6.555   1.391
 2102TIP3    H2 6252   6.844   6.550   1.542
 2103TIP3   OH2 6253   7.994   2.777   2.153
 2103TIP3    H1 6254   7.965   2.866   2.174
 2103TIP3    H2 6255   7.922   2.740   2.102
 2104TIP3   OH2 6256   6.266   0.299   2.364
 2104TIP3    H1 6257   6.306   0.213   2.354
 2104TIP3    H2 6258   6.245   0.326   2.274
 2105TIP3   OH2 6259   4.240   2.452   2.687
 2105TIP3    H1 6260   4.252   2.369   2.641
 2105TIP3    H2 6261   4.232   2.517   2.618
 2106TIP3   OH2 6262   3.357   5.571   6.156
 2106TIP3    H1 6263   3.313   5.565   6.241
 2106TIP3    H2 6264   3.381   5.664   6.149
 2107TIP3   OH2 6265   3.009   2.991   2.342
 2107TIP3    H1 6266   3.012   3.020   2.251
 2107TIP3    H2 6267   3.001   3.072   2.393
 2108TIP3   OH2 6268   7.385   2.957   0.864
 2108TIP3    H1 6269   7.363   2.877   0.912
 2108TIP3    H2 6270   7.401   2.929   0.774
 2109TIP3   OH2 6271   1.948   3.044   1.155
 2109TIP3    H1 6272   1.931   3.138   1.161
 2109TIP3    H2 6273   2.041   3.035   1.175
 2110TIP3   OH2 6274   2.795   4.661   6.741
 2110TIP3    H1 6275   2.710   4.624   6.766
 2110TIP3    H2 6276   2.793   4.750   6.775
 2111TIP3   OH2 6277   3.844   4.093   3.461
 2111TIP3    H1 6278   3.762   4.083   3.508
 2111TIP3    H2 6279   3.892   4.160   3.508
 2112TIP3   OH2 6280   4.432   5.124   4.355
 2112TIP3    H1 6281   4.453   5.161   4.441
 2112TIP3    H2 6282   4.454   5.194   4.293
 2113TIP3   OH2 6283   5.412   1.090   0.068
 2113TIP3    H1 6284   5.493   1.141   0.069
 2113TIP3    H2 6285   5.388   1.084  -0.024
 2114TIP3   OH2 6286   7.999   6.473   5.658
 2114TIP3    H1 6287   8.035   6.503   5.575
 2114TIP3    H2 6288   8.027   6.381   5.665
 2115TIP3   OH2 6289   8.118   6.204   0.347
 2115TIP3    H1 6290   8.031   6.245   0.340
 2115TIP3    H2 6291   8.151   6.203   0.258
 2116TIP3   OH2 6292   8.053   6.119   4.548
 2116TIP3    H1 6293   8.110   6.130   4.473
 2116TIP3    H2 6294   8.014   6.033   4.538
 2117TIP3   OH2 6295   7.818   0.554   6.683
 2117TIP3    H1 6296   7.906   0.517   6.688
 2117TIP3    H2 6297   7.824   0.622   6.615
 2118TIP3   OH2 6298   5.598   0.863   0.294
 2118TIP3    H1 6299   5.522   0.865   0.237
 2118TIP3    H2 6300   5.576   0.798   0.361
 2119TIP3   OH2 6301   1.753   1.633   0.718
 2119TIP3    H1 6302   1.792   1.686   0.648
 2119TIP3    H2 6303   1.820   1.631   0.786
 2120TIP3   OH2 6304   4.224   6.420   1.423
 2120TIP3    H1 6305   4.231   6.328   1.398
 2120TIP3    H2 6306   4.228   6.467   1.340
 2121TIP3   OH2 6307   6.701   5.578   1.812
 2121TIP3    H1 6308   6.646   5.543   1.742
 2121TIP3    H2 6309   6.729   5.664   1.781
 2122TIP3   OH2 6310   1.577   7.058   4.692
 2122TIP3    H1 6311   1.510   7.121   4.666
 2122TIP3    H2 6312   1.537   7.010   4.765
 2123TIP3   OH2 6313   4.408   5.998   6.594
 2123TIP3    H1 6314   4.411   6.002   6.690
 2123TIP3    H2 6315   4.340   5.933   6.575
 2124TIP3   OH2 6316   0.925   4.082   6.213
 2124TIP3    H1 6317   0.901   4.174   6.199
 2124TIP3    H2 6318   0.989   4.063   6.144
 2125TIP3   OH2 6319   3.994   5.689   0.273
 2125TIP3    H1 6320   3.990   5.663   0.181
 2125TIP3    H2 6321   4.084   5.672   0.299
 2126TIP3   OH2 6322   5.256   6.413   3.149
 2126TIP3    H1 6323   5.194   6.367   3.206
 2126TIP3    H2 6324   5.230   6.505   3.155
 2127TIP3   OH2 6325   7.420   5.011   4.445
 2127TIP3    H1 6326   7.503   5.029   4.402
 2127TIP3    H2 6327   7.416   5.075   4.516
 2128TIP3   OH2 6328   5.168   3.802   4.509
 2128TIP3    H1 6329   5.150   3.879   4.455
 2128TIP3    H2 6330   5.085   3.755   4.513
 2129TIP3   OH2 6331   7.903   7.362   5.660
 2129TIP3    H1 6332   7.830   7.302   5.674
 2129TIP3    H2 6333   7.866   7.433   5.607
 2130TIP3   OH2 6334   0.144   5.545   2.053
 2130TIP3    H1 6335   0.207   5.606   2.016
 2130TIP3    H2 6336   0.082   5.527   1.981
 2131TIP3   OH2 6337   5.809   4.530   3.317
 2131TIP3    H1 6338   5.734   4.538   3.375
 2131TIP3    H2 6339   5.779   4.475   3.245
 2132TIP3   OH2 6340   8.240   4.176   4.497
 2132TIP3    H1 6341   8.224   4.129   4.579
 2132TIP3    H2 6342   8.176   4.139   4.436
 2133TIP3   OH2 6343   4.657   3.764   1.508
 2133TIP3    H1 6344   4.599   3.756   1.584
 2133TIP3    H2 6345   4.686   3.674   1.491
 2134TIP3   OH2 6346   1.534   4.256   6.010
 2134TIP3    H1 6347   1.444   4.246   5.979
 2134TIP3    H2 6348   1.539   4.197   6.086
 2135TIP3   OH2 6349   7.637   5.851   2.319
 2135TIP3    H1 6350   7.565   5.792   2.297
 2135TIP3    H2 6351   7.597   5.918   2.374
 2136TIP3   OH2 6352   7.492   5.118   2.413
 2136TIP3    H1 6353   7.549   5.046   2.386
 2136TIP3    H2 6354   7.414   5.109   2.357
 2137TIP3   OH2 6355   4.169   3.913   2.960
 2137TIP3    H1 6356   4.164   3.859   2.881
 2137TIP3    H2 6357   4.114   3.989   2.940
 2138TIP3   OH2 6358   2.063   1.111   2.770
 2138TIP3    H1 6359   2.103   1.167   2.837
 2138TIP3    H2 6360   2.109   1.027   2.778
 2139TIP3   OH2 6361   1.823   5.453   4.850
 2139TIP3    H1 6362   1.867   5.524   4.803
 2139TIP3    H2 6363   1.766   5.412   4.785
 2140TIP3   OH2 6364   4.625   6.874   0.187
 2140TIP3    H1 6365   4.612   6.851   0.279
 2140TIP3    H2 6366   4.670   6.958   0.189
 2141TIP3   OH2 6367   1.781   6.288   1.449
 2141TIP3    H1 6368   1.767   6.319   1.539
 2141TIP3    H2 6369   1.769   6.193   1.454
 2142TIP3   OH2 6370   7.368   2.774   5.486
 2142TIP3    H1 6371   7.300   2.816   5.539
 2142TIP3    H2 6372   7.325   2.755   5.403
 2143TIP3   OH2 6373   0.694   3.579   3.686
 2143TIP3    H1 6374   0.599   3.569   3.698
 2143TIP3    H2 6375   0.718   3.649   3.746
 2144TIP3   OH2 6376   3.927   7.602   3.854
 2144TIP3    H1 6377   3.886   7.656   3.922
 2144TIP3    H2 6378   3.993   7.551   3.900
 2145TIP3   OH2 6379   0.839   4.855   5.834
 2145TIP3    H1 6380   0.854   4.767   5.800
 2145TIP3    H2 6381   0.922   4.900   5.818
 2146TIP3   OH2 6382   1.419   0.227   5.427
 2146TIP3    H1 6383   1.346   0.168   5.448
 2146TIP3    H2 6384   1.378   0.311   5.410
 2147TIP3   OH2 6385   0.400   0.249   0.875
 2147TIP3    H1 6386   0.452   0.202   0.810
 2147TIP3    H2 6387   0.362   0.323   0.826
 2148TIP3   OH2 6388   4.645   1.663   4.181
 2148TIP3    H1 6389   4.704   1.721   4.229
 2148TIP3    H2 6390   4.691   1.646   4.098
 2149TIP3   OH2 6391   2.130   3.491   3.723
 2149TIP3    H1 6392   2.073   3.567   3.723
 2149TIP3    H2 6393   2.109   3.445   3.641
 2150TIP3   OH2 6394   7.689   0.363   1.141
 2150TIP3    H1 6395   7.781   0.335   1.141
 2150TIP3    H2 6396   7.693   0.458   1.128
 2151TIP3   OH2 6397   7.256   4.441   2.100
 2151TIP3    H1 6398   7.180   4.396   2.136
 2151TIP3    H2 6399   7.246   4.431   2.005
 2152TIP3   OH2 6400   5.312   4.518   0.902
 2152TIP3    H1 6401   5.276   4.478   0.981
 2152TIP3    H2 6402   5.365   4.449   0.862
 2153TIP3   OH2 6403   7.568   1.542   0.150
 2153TIP3    H1 6404   7.553   1.484   0.075
 2153TIP3    H2 6405   7.533   1.627   0.123
 2154TIP3   OH2 6406   3.201   4.035   4.963
 2154TIP3    H1 6407   3.197   3.942   4.942
 2154TIP3    H2 6408   3.124   4.051   5.018
 2155TIP3   OH2 6409   4.249   6.201   1.699
 2155TIP3    H1 6410   4.170   6.178   1.748
 2155TIP3    H2 6411   4.262   6.294   1.716
 2156TIP3   OH2 6412   6.450   2.513   1.162
 2156TIP3    H1 6413   6.492   2.551   1.240
 2156TIP3    H2 6414   6.358   2.505   1.186
 2157TIP3   OH2 6415   2.278   1.642   3.640
 2157TIP3    H1 6416   2.217   1.569   3.638
 2157TIP3    H2 6417   2.230   1.712   3.684
 2158TIP3   OH2 6418   3.130   4.295   6.506
 2158TIP3    H1 6419   3.158   4.236   6.437
 2158TIP3    H2 6420   3.136   4.243   6.586
 2159TIP3   OH2 6421   7.385   6.319   5.594
 2159TIP3    H1 6422   7.471   6.359   5.584
 2159TIP3    H2 6423   7.390   6.239   5.542
 2160TIP3   OH2 6424   6.028   7.580   5.569
 2160TIP3    H1 6425   5.992   7.531   5.495
 2160TIP3    H2 6426   6.076   7.653   5.528
 2161TIP3   OH2 6427   0.589   7.653   4.770
 2161TIP3    H1 6428   0.684   7.653   4.782
 2161TIP3    H2 6429   0.576   7.673   4.677
 2162TIP3   OH2 6430   3.609   2.712   2.969
 2162TIP3    H1 6431   3.551   2.785   2.949
 2162TIP3    H2 6432   3.571   2.637   2.923
 2163TIP3   OH2 6433   0.200   4.058   6.409
 2163TIP3    H1 6434   0.180   3.967   6.434
 2163TIP3    H2 6435   0.205   4.105   6.493
 2164TIP3   OH2 6436   3.064   2.385   2.190
 2164TIP3    H1 6437   3.107   2.445   2.130
 2164TIP3    H2 6438   2.970   2.402   2.179
 2165TIP3   OH2 6439   0.304   4.718   5.636
 2165TIP3    H1 6440   0.342   4.640   5.594
 2165TIP3    H2 6441   0.239   4.749   5.573
 2166TIP3   OH2 6442   3.674   6.720   3.952
 2166TIP3    H1 6443   3.578   6.722   3.949
 2166TIP3    H2 6444   3.697   6.627   3.955
 2167TIP3   OH2 6445   2.785   4.277   0.550
 2167TIP3    H1 6446   2.815   4.283   0.460
 2167TIP3    H2 6447   2.767   4.184   0.564
 2168TIP3   OH2 6448   0.557   3.740   0.915
 2168TIP3    H1 6449   0.559   3.684   0.837
 2168TIP3    H2 6450   0.465   3.743   0.941
 2169TIP3   OH2 6451   1.629   4.970   1.696
 2169TIP3    H1 6452   1.646   4.931   1.611
 2169TIP3    H2 6453   1.540   4.940   1.718
 2170TIP3   OH2 6454   2.698   3.484   6.011
 2170TIP3    H1 6455   2.678   3.526   6.094
 2170TIP3    H2 6456   2.657   3.540   5.945
 2171TIP3   OH2 6457   2.052   2.165   5.243
 2171TIP3    H1 6458   1.981   2.149   5.181
 2171TIP3    H2 6459   2.010   2.159   5.329
 2172TIP3   OH2 6460   7.101   5.213   1.098
 2172TIP3    H1 6461   7.137   5.298   1.070
 2172TIP3    H2 6462   7.008   5.218   1.074
 2173TIP3   OH2 6463   4.150   5.323   4.475
 2173TIP3    H1 6464   4.056   5.336   4.488
 2173TIP3    H2 6465   4.187   5.330   4.563
 2174TIP3   OH2 6466   1.722   7.345   3.834
 2174TIP3    H1 6467   1.793   7.390   3.880
 2174TIP3    H2 6468   1.694   7.408   3.767
 2175TIP3   OH2 6469   2.720   1.346   0.511
 2175TIP3    H1 6470   2.656   1.400   0.466
 2175TIP3    H2 6471   2.719   1.379   0.602
 2176TIP3   OH2 6472   8.137   6.672   6.161
 2176TIP3    H1 6473   8.134   6.595   6.218
 2176TIP3    H2 6474   8.228   6.678   6.133
 2177TIP3   OH2 6475   4.194   5.117   3.179
 2177TIP3    H1 6476   4.247   5.196   3.186
 2177TIP3    H2 6477   4.246   5.057   3.125
 2178TIP3   OH2 6478   2.357   7.704   2.684
 2178TIP3    H1 6479   2.349   7.711   2.779
 2178TIP3    H2 6480   2.267   7.713   2.652
 2179TIP3   OH2 6481   6.027   0.493   4.976
 2179TIP3    H1 6482   5.987   0.514   4.891
 2179TIP3    H2 6483   6.023   0.398   4.981
 2180TIP3   OH2 6484   0.047   1.597   4.108
 2180TIP3    H1 6485   0.115   1.655   4.141
 2180TIP3    H2 6486   0.090   1.546   4.040
 2181TIP3   OH2 6487   3.983   1.918   2.111
 2181TIP3    H1 6488   4.050   1.932   2.178
 2181TIP3    H2 6489   3.950   2.006   2.091
 2182TIP3   OH2 6490   6.791   5.444   1.465
 2182TIP3    H1 6491   6.731   5.463   1.537
 2182TIP3    H2 6492   6.865   5.503   1.480
 2183TIP3   OH2 6493   5.286   7.859   6.609
 2183TIP3    H1 6494   5.242   7.809   6.677
 2183TIP3    H2 6495   5.277   7.805   6.530
 2184TIP3   OH2 6496   2.689   5.222   1.390
 2184TIP3    H1 6497   2.777   5.245   1.361
 2184TIP3    H2 6498   2.700   5.197   1.482
 2185TIP3   OH2 6499   3.141   4.622   3.127
 2185TIP3    H1 6500   3.233   4.648   3.132
 2185TIP3    H2 6501   3.112   4.654   3.041
 2186TIP3   OH2 6502   0.411   3.176   0.053
 2186TIP3    H1 6503   0.506   3.182   0.055
 2186TIP3    H2 6504   0.393   3.097   0.002
 2187TIP3   OH2 6505   2.340   2.053   5.247
 2187TIP3    H1 6506   2.348   1.957   5.240
 2187TIP3    H2 6507   2.262   2.074   5.196
 2188TIP3   OH2 6508   1.889   5.882   3.593
 2188TIP3    H1 6509   1.825   5.895   3.663
 2188TIP3    H2 6510   1.974   5.888   3.637
 2189TIP3   OH2 6511   3.244   7.048   6.525
 2189TIP3    H1 6512   3.175   6.982   6.536
 2189TIP3    H2 6513   3.211   7.105   6.456
 2190TIP3   OH2 6514   6.897   4.783   6.379
 2190TIP3    H1 6515   6.935   4.847   6.319
 2190TIP3    H2 6516   6.832   4.833   6.429
 2191TIP3   OH2 6517   2.352   3.910   1.443
 2191TIP3    H1 6518   2.382   3.992   1.483
 2191TIP3    H2 6519   2.398   3.906   1.359
 2192TIP3   OH2 6520   5.092   6.710   4.395
 2192TIP3    H1 6521   5.148   6.685   4.468
 2192TIP3    H2 6522   5.033   6.635   4.383
 2193TIP3   OH2 6523   4.809   6.969   4.670
 2193TIP3    H1 6524   4.771   6.946   4.755
 2193TIP3    H2 6525   4.897   7.002   4.691
 2194TIP3   OH2 6526   3.441   4.901   6.136
 2194TIP3    H1 6527   3.471   4.862   6.054
 2194TIP3    H2 6528   3.345   4.891   6.133
 2195TIP3   OH2 6529   5.192   7.080   5.370
 2195TIP3    H1 6530   5.155   7.003   5.414
 2195TIP3    H2 6531   5.287   7.070   5.379
 2196TIP3   OH2 6532   5.000   1.397   3.183
 2196TIP3    H1 6533   4.991   1.482   3.140
 2196TIP3    H2 6534   4.940   1.402   3.258
 2197TIP3   OH2 6535   8.034   5.077   2.298
 2197TIP3    H1 6536   7.987   5.036   2.370
 2197TIP3    H2 6537   8.050   5.167   2.328
 2198TIP3   OH2 6538   6.262   6.156   4.603
 2198TIP3    H1 6539   6.282   6.066   4.577
 2198TIP3    H2 6540   6.196   6.146   4.672
 2199TIP3   OH2 6541   0.190   1.121   6.490
 2199TIP3    H1 6542   0.098   1.105   6.506
 2199TIP3    H2 6543   0.230   1.124   6.577
 2200TIP3   OH2 6544   1.065   5.082   4.772
 2200TIP3    H1 6545   1.120   5.100   4.695
 2200TIP3    H2 6546   0.979   5.061   4.736
 2201TIP3   OH2 6547   1.358   2.804   5.852
 2201TIP3    H1 6548   1.290   2.738   5.837
 2201TIP3    H2 6549   1.439   2.754   5.857
 2202TIP3   OH2 6550   5.133   3.370   6.318
 2202TIP3    H1 6551   5.173   3.353   6.404
 2202TIP3    H2 6552   5.080   3.292   6.302
 2203TIP3   OH2 6553   5.925   2.908   3.112
 2203TIP3    H1 6554   6.018   2.908   3.088
 2203TIP3    H2 6555   5.914   2.987   3.164
 2204TIP3   OH2 6556   0.488   1.080   5.103
 2204TIP3    H1 6557   0.539   1.145   5.151
 2204TIP3    H2 6558   0.498   1.104   5.011
 2205TIP3   OH2 6559   3.531   4.228   1.461
 2205TIP3    H1 6560   3.611   4.236   1.409
 2205TIP3    H2 6561   3.460   4.250   1.400
 2206TIP3   OH2 6562   1.312   4.617   6.107
 2206TIP3    H1 6563   1.312   4.574   6.022
 2206TIP3    H2 6564   1.322   4.710   6.087
 2207TIP3   OH2 6565   3.152   2.706   5.381
 2207TIP3    H1 6566   3.095   2.773   5.418
 2207TIP3    H2 6567   3.158   2.728   5.288
 2208TIP3   OH2 6568   2.608   6.040   4.569
 2208TIP3    H1 6569   2.537   6.007   4.624
 2208TIP3    H2 6570   2.571   6.041   4.481
 2209TIP3   OH2 6571   1.655   0.815   3.276
 2209TIP3    H1 6572   1.634   0.905   3.301
 2209TIP3    H2 6573   1.633   0.810   3.183
 2210TIP3   OH2 6574   1.702   4.792   5.810
 2210TIP3    H1 6575   1.774   4.729   5.801
 2210TIP3    H2 6576   1.704   4.842   5.729
 2211TIP3   OH2 6577   5.152   7.599   2.691
 2211TIP3    H1 6578   5.072   7.642   2.722
 2211TIP3    H2 6579   5.222   7.637   2.744
 2212TIP3   OH2 6580   3.671   0.849   3.033
 2212TIP3    H1 6581   3.595   0.822   2.983
 2212TIP3    H2 6582   3.649   0.829   3.124
 2213TIP3   OH2 6583   0.542   0.706   2.183
 2213TIP3    H1 6584   0.617   0.649   2.166
 2213TIP3    H2 6585   0.578   0.777   2.236
 2214TIP3   OH2 6586   7.544   4.409   1.377
 2214TIP3    H1 6587   7.523   4.335   1.434
 2214TIP3    H2 6588   7.513   4.383   1.290
 2215TIP3   OH2 6589   2.720   6.804   6.039
 2215TIP3    H1 6590   2.725   6.730   6.100
 2215TIP3    H2 6591   2.723   6.764   5.952
 2216TIP3   OH2 6592   5.218   3.350   2.705
 2216TIP3    H1 6593   5.277   3.278   2.727
 2216TIP3    H2 6594   5.269   3.404   2.644
 2217TIP3   OH2 6595   5.843   7.743   4.533
 2217TIP3    H1 6596   5.871   7.687   4.606
 2217TIP3    H2 6597   5.748   7.749   4.542
 2218TIP3   OH2 6598   8.115   1.293   4.337
 2218TIP3    H1 6599   8.183   1.329   4.280
 2218TIP3    H2 6600   8.063   1.236   4.280
 2219TIP3   OH2 6601   4.974   4.955   5.667
 2219TIP3    H1 6602   5.006   4.998   5.746
 2219TIP3    H2 6603   5.047   4.899   5.639
 2220TIP3   OH2 6604   2.310   2.096   1.676
 2220TIP3    H1 6605   2.372   2.074   1.745
 2220TIP3    H2 6606   2.289   2.012   1.635
 2221TIP3   OH2 6607   7.685   7.780   2.166
 2221TIP3    H1 6608   7.735   7.744   2.240
 2221TIP3    H2 6609   7.700   7.874   2.171
 2222TIP3   OH2 6610   4.488   5.227   6.543
 2222TIP3    H1 6611   4.509   5.310   6.585
 2222TIP3    H2 6612   4.424   5.187   6.603
 2223TIP3   OH2 6613   2.707   4.127   1.759
 2223TIP3    H1 6614   2.780   4.073   1.788
 2223TIP3    H2 6615   2.723   4.141   1.666
 2224TIP3   OH2 6616   2.320   3.212   6.221
 2224TIP3    H1 6617   2.244   3.164   6.256
 2224TIP3    H2 6618   2.284   3.298   6.197
 2225TIP3   OH2 6619   0.413   4.538   5.488
 2225TIP3    H1 6620   0.457   4.542   5.403
 2225TIP3    H2 6621   0.416   4.446   5.513
 2226TIP3   OH2 6622   6.817   4.243   4.054
 2226TIP3    H1 6623   6.811   4.151   4.082
 2226TIP3    H2 6624   6.818   4.293   4.136
 2227TIP3   OH2 6625   5.219   6.655   1.804
 2227TIP3    H1 6626   5.274   6.584   1.770
 2227TIP3    H2 6627   5.253   6.734   1.762
 2228TIP3   OH2 6628   0.572   0.172   0.255
 2228TIP3    H1 6629   0.644   0.134   0.206
 2228TIP3    H2 6630   0.499   0.176   0.193
 2229TIP3   OH2 6631   8.011   2.434   4.563
 2229TIP3    H1 6632   7.918   2.417   4.552
 2229TIP3    H2 6633   8.015   2.522   4.600
 2230TIP3   OH2 6634   4.615   2.070   0.263
 2230TIP3    H1 6635   4.620   2.045   0.170
 2230TIP3    H2 6636   4.706   2.073   0.292
 2231TIP3   OH2 6637   3.617   1.122   5.003
 2231TIP3    H1 6638   3.660   1.194   5.049
 2231TIP3    H2 6639   3.669   1.109   4.924
 2232TIP3   OH2 6640   0.659   7.267   4.112
 2232TIP3    H1 6641   0.700   7.220   4.184
 2232TIP3    H2 6642   0.586   7.210   4.085
 2233TIP3   OH2 6643   6.540   3.726   1.405
 2233TIP3    H1 6644   6.556   3.819   1.390
 2233TIP3    H2 6645   6.512   3.693   1.319
 2234TIP3   OH2 6646   3.393   0.696   4.625
 2234TIP3    H1 6647   3.316   0.689   4.681
 2234TIP3    H2 6648   3.453   0.753   4.673
 2235TIP3   OH2 6649   2.467   6.504   4.027
 2235TIP3    H1 6650   2.421   6.548   4.099
 2235TIP3    H2 6651   2.404   6.506   3.955
 2236TIP3   OH2 6652   0.291   1.430   4.658
 2236TIP3    H1 6653   0.220   1.407   4.598
 2236TIP3    H2 6654   0.285   1.366   4.728
 2237TIP3   OH2 6655   5.907   6.194   0.314
 2237TIP3    H1 6656   5.888   6.288   0.311
 2237TIP3    H2 6657   5.985   6.188   0.369
 2238TIP3   OH2 6658   8.097   0.963   5.655
 2238TIP3    H1 6659   8.010   0.958   5.616
 2238TIP3    H2 6660   8.105   1.054   5.684
 2239TIP3   OH2 6661   7.353   2.729   4.398
 2239TIP3    H1 6662   7.370   2.673   4.474
 2239TIP3    H2 6663   7.265   2.705   4.370
 2240TIP3   OH2 6664   2.415   7.575   3.447
 2240TIP3    H1 6665   2.384   7.666   3.438
 2240TIP3    H2 6666   2.365   7.541   3.522
 2241TIP3   OH2 6667   6.847   6.124   2.174
 2241TIP3    H1 6668   6.934   6.111   2.136
 2241TIP3    H2 6669   6.861   6.114   2.269
 2242TIP3   OH2 6670   8.269   7.710   3.694
 2242TIP3    H1 6671   8.313   7.768   3.757
 2242TIP3    H2 6672   8.239   7.636   3.747
 2243TIP3   OH2 6673   0.281   6.528   4.973
 2243TIP3    H1 6674   0.288   6.435   4.948
 2243TIP3    H2 6675   0.371   6.560   4.970
 2244TIP3   OH2 6676   7.052   7.265   3.120
 2244TIP3    H1 6677   7.129   7.252   3.065
 2244TIP3    H2 6678   7.062   7.199   3.190
 2245TIP3   OH2 6679   6.593   2.285   5.407
 2245TIP3    H1 6680   6.579   2.225   5.480
 2245TIP3    H2 6681   6.581   2.231   5.329
 2246TIP3   OH2 6682   7.018   0.872   1.795
 2246TIP3    H1 6683   7.108   0.877   1.764
 2246TIP3    H2 6684   7.010   0.945   1.857
 2247TIP3   OH2 6685   2.815   6.085   0.082
 2247TIP3    H1 6686   2.789   6.068  -0.009
 2247TIP3    H2 6687   2.761   6.025   0.133
 2248TIP3   OH2 6688   7.368   2.422   2.510
 2248TIP3    H1 6689   7.288   2.474   2.522
 2248TIP3    H2 6690   7.337   2.336   2.483
 2249TIP3   OH2 6691   3.402   3.664   1.570
 2249TIP3    H1 6692   3.374   3.677   1.660
 2249TIP3    H2 6693   3.479   3.608   1.576
 2250TIP3   OH2 6694   4.310   7.696   6.249
 2250TIP3    H1 6695   4.320   7.657   6.335
 2250TIP3    H2 6696   4.388   7.669   6.200
 2251TIP3   OH2 6697   5.865   4.069   5.853
 2251TIP3    H1 6698   5.858   4.041   5.944
 2251TIP3    H2 6699   5.816   4.003   5.804
 2252TIP3   OH2 6700   6.474   0.597   2.412
 2252TIP3    H1 6701   6.517   0.674   2.449
 2252TIP3    H2 6702   6.426   0.630   2.336
 2253TIP3   OH2 6703   0.768   5.568   3.496
 2253TIP3    H1 6704   0.800   5.620   3.570
 2253TIP3    H2 6705   0.822   5.596   3.422
 2254TIP3   OH2 6706   7.918   2.644   1.260
 2254TIP3    H1 6707   8.001   2.671   1.301
 2254TIP3    H2 6708   7.938   2.559   1.220
 2255TIP3   OH2 6709   4.617   0.508   6.167
 2255TIP3    H1 6710   4.666   0.572   6.220
 2255TIP3    H2 6711   4.640   0.423   6.206
 2256TIP3   OH2 6712   4.039   3.253   6.105
 2256TIP3    H1 6713   4.019   3.170   6.061
 2256TIP3    H2 6714   4.037   3.232   6.198
 2257TIP3   OH2 6715   2.630   3.448   5.407
 2257TIP3    H1 6716   2.648   3.364   5.450
 2257TIP3    H2 6717   2.569   3.492   5.467
 2258TIP3   OH2 6718   3.801   0.047   1.654
 2258TIP3    H1 6719   3.775   0.064   1.563
 2258TIP3    H2 6720   3.756   0.115   1.705
 2259TIP3   OH2 6721   2.973   2.361   2.960
 2259TIP3    H1 6722   3.033   2.288   2.977
 2259TIP3    H2 6723   2.953   2.354   2.867
 2260TIP3   OH2 6724   4.625   5.057   1.133
 2260TIP3    H1 6725   4.531   5.054   1.149
 2260TIP3    H2 6726   4.648   5.149   1.140
 2261TIP3   OH2 6727   1.228   4.921   4.285
 2261TIP3    H1 6728   1.244   4.961   4.371
 2261TIP3    H2 6729   1.134   4.933   4.271
 2262TIP3   OH2 6730   5.538   0.365   4.981
 2262TIP3    H1 6731   5.534   0.289   4.923
 2262TIP3    H2 6732   5.597   0.426   4.936
 2263TIP3   OH2 6733   3.478   1.374   4.142
 2263TIP3    H1 6734   3.490   1.456   4.094
 2263TIP3    H2 6735   3.509   1.306   4.083
 2264TIP3   OH2 6736   7.096   3.439   1.429
 2264TIP3    H1 6737   7.186   3.468   1.418
 2264TIP3    H2 6738   7.059   3.442   1.341
 2265TIP3   OH2 6739   7.755   6.341   5.543
 2265TIP3    H1 6740   7.706   6.263   5.568
 2265TIP3    H2 6741   7.771   6.387   5.626
 2266TIP3   OH2 6742   1.187   3.428   6.471
 2266TIP3    H1 6743   1.123   3.461   6.534
 2266TIP3    H2 6744   1.135   3.402   6.395
 2267TIP3   OH2 6745   4.845   5.246   6.023
 2267TIP3    H1 6746   4.811   5.258   5.934
 2267TIP3    H2 6747   4.770   5.217   6.074
 2268TIP3   OH2 6748   6.468   2.909   0.946
 2268TIP3    H1 6749   6.526   2.976   0.908
 2268TIP3    H2 6750   6.380   2.936   0.919
 2269TIP3   OH2 6751   6.299   0.572  -0.011
 2269TIP3    H1 6752   6.235   0.595   0.056
 2269TIP3    H2 6753   6.248   0.529  -0.079
 2270TIP3   OH2 6754   4.269   4.667   3.309
 2270TIP3    H1 6755   4.217   4.661   3.390
 2270TIP3    H2 6756   4.206   4.650   3.239
 2271TIP3   OH2 6757   6.810   3.676   1.492
 2271TIP3    H1 6758   6.824   3.761   1.535
 2271TIP3    H2 6759   6.716   3.674   1.473
 2272TIP3   OH2 6760   7.544   7.352   0.469
 2272TIP3    H1 6761   7.453   7.382   0.472
 2272TIP3    H2 6762   7.546   7.288   0.398
 2273TIP3   OH2 6763   1.750   5.381   6.493
 2273TIP3    H1 6764   1.792   5.297   6.512
 2273TIP3    H2 6765   1.781   5.405   6.406
 2274TIP3   OH2 6766   0.992   4.040   0.509
 2274TIP3    H1 6767   1.029   3.999   0.431
 2274TIP3    H2 6768   0.906   4.072   0.481
 2275TIP3   OH2 6769   4.805   0.040   1.734
 2275TIP3    H1 6770   4.884   0.045   1.681
 2275TIP3    H2 6771   4.823  -0.029   1.798
 2276TIP3   OH2 6772   3.878   4.815   5.314
 2276TIP3    H1 6773   3.876   4.720   5.300
 2276TIP3    H2 6774   3.935   4.848   5.244
 2277TIP3   OH2 6775   3.972   1.370   2.058
 2277TIP3    H1 6776   4.061   1.388   2.088
 2277TIP3    H2 6777   3.961   1.426   1.981
 2278TIP3   OH2 6778   4.692   3.344   1.644
 2278TIP3    H1 6779   4.614   3.331   1.698
 2278TIP3    H2 6780   4.719   3.256   1.618
 2279TIP3   OH2 6781   3.900   6.040   1.461
 2279TIP3    H1 6782   3.939   6.031   1.374
 2279TIP3    H2 6783   3.908   6.133   1.481
 2280TIP3   OH2 6784   4.865   4.177   0.375
 2280TIP3    H1 6785   4.805   4.124   0.427
 2280TIP3    H2 6786   4.940   4.121   0.359
 2281TIP3   OH2 6787   0.852   2.589   0.293
 2281TIP3    H1 6788   0.839   2.517   0.231
 2281TIP3    H2 6789   0.767   2.633   0.297
 2282TIP3   OH2 6790   6.329   5.348   1.501
 2282TIP3    H1 6791   6.276   5.269   1.497
 2282TIP3    H2 6792   6.315   5.392   1.417
 2283TIP3   OH2 6793   1.381   7.237   4.704
 2283TIP3    H1 6794   1.359   7.273   4.789
 2283TIP3    H2 6795   1.305   7.256   4.649
 2284TIP3   OH2 6796   7.613   0.957   1.864
 2284TIP3    H1 6797   7.551   0.909   1.810
 2284TIP3    H2 6798   7.697   0.948   1.819
 2285TIP3   OH2 6799   1.961   6.059   1.691
 2285TIP3    H1 6800   1.900   6.070   1.618
 2285TIP3    H2 6801   2.007   6.143   1.697
 2286TIP3   OH2 6802   1.181   0.051   6.374
 2286TIP3    H1 6803   1.254   0.104   6.407
 2286TIP3    H2 6804   1.122   0.041   6.449
 2287TIP3   OH2 6805   6.139   7.668   2.677
 2287TIP3    H1 6806   6.048   7.639   2.682
 2287TIP3    H2 6807   6.170   7.636   2.593
 2288TIP3   OH2 6808   7.696   0.688   5.127
 2288TIP3    H1 6809   7.634   0.760   5.117
 2288TIP3    H2 6810   7.712   0.658   5.037
 2289TIP3   OH2 6811   4.880   7.276   3.744
 2289TIP3    H1 6812   4.804   7.333   3.732
 2289TIP3    H2 6813   4.882   7.257   3.838
 2290TIP3   OH2 6814   7.990   6.418   1.579
 2290TIP3    H1 6815   7.924   6.484   1.596
 2290TIP3    H2 6816   8.033   6.447   1.499
 2291TIP3   OH2 6817   7.518   6.575   5.354
 2291TIP3    H1 6818   7.423   6.573   5.364
 2291TIP3    H2 6819   7.540   6.491   5.314
 2292TIP3   OH2 6820   5.312   3.662   3.864
 2292TIP3    H1 6821   5.264   3.698   3.939
 2292TIP3    H2 6822   5.262   3.585   3.837
 2293TIP3   OH2 6823   0.061   3.669   3.494
 2293TIP3    H1 6824   0.145   3.645   3.533
 2293TIP3    H2 6825   0.046   3.760   3.521
 2294TIP3   OH2 6826   3.773   2.389   3.072
 2294TIP3    H1 6827   3.783   2.399   3.167
 2294TIP3    H2 6828   3.771   2.479   3.039
 2295TIP3   OH2 6829   2.401   0.442   5.165
 2295TIP3    H1 6830   2.382   0.439   5.071
 2295TIP3    H2 6831   2.326   0.488   5.203
 2296TIP3   OH2 6832   0.210   7.474   4.596
 2296TIP3    H1 6833   0.226   7.568   4.602
 2296TIP3    H2 6834   0.258   7.447   4.517
 2297TIP3   OH2 6835   4.167   2.834   4.903
 2297TIP3    H1 6836   4.072   2.836   4.918
 2297TIP3    H2 6837   4.178   2.788   4.820
 2298TIP3   OH2 6838   3.621   2.342   0.532
 2298TIP3    H1 6839   3.689   2.397   0.494
 2298TIP3    H2 6840   3.606   2.273   0.468
 2299TIP3   OH2 6841   3.750   4.796   3.196
 2299TIP3    H1 6842   3.837   4.834   3.206
 2299TIP3    H2 6843   3.717   4.832   3.113
 2300TIP3   OH2 6844   0.703   4.499   1.346
 2300TIP3    H1 6845   0.623   4.551   1.356
 2300TIP3    H2 6846   0.680   4.413   1.381
 2301TIP3   OH2 6847   1.668   3.914   3.358
 2301TIP3    H1 6848   1.750   3.952   3.389
 2301TIP3    H2 6849   1.691   3.824   3.333
 2302TIP3   OH2 6850   7.540   3.801   5.245
 2302TIP3    H1 6851   7.547   3.897   5.247
 2302TIP3    H2 6852   7.474   3.783   5.179
 2303TIP3   OH2 6853   4.375   4.761   1.972
 2303TIP3    H1 6854   4.340   4.684   1.927
 2303TIP3    H2 6855   4.402   4.728   2.058
 2304TIP3   OH2 6856   0.966   5.077   2.071
 2304TIP3    H1 6857   0.903   5.083   2.143
 2304TIP3    H2 6858   1.042   5.033   2.109
 2305TIP3   OH2 6859   1.032   5.053   6.402
 2305TIP3    H1 6860   1.035   4.969   6.448
 2305TIP3    H2 6861   1.003   5.116   6.467
 2306TIP3   OH2 6862   7.038   2.360   6.092
 2306TIP3    H1 6863   7.030   2.299   6.165
 2306TIP3    H2 6864   7.014   2.445   6.130
 2307TIP3   OH2 6865   4.220   1.017   0.981
 2307TIP3    H1 6866   4.274   1.083   1.026
 2307TIP3    H2 6867   4.142   1.065   0.954
 2308TIP3   OH2 6868   5.792   5.353   1.230
 2308TIP3    H1 6869   5.726   5.397   1.176
 2308TIP3    H2 6870   5.781   5.260   1.212
 2309TIP3   OH2 6871   4.062   4.795   2.875
 2309TIP3    H1 6872   4.107   4.861   2.823
 2309TIP3    H2 6873   4.061   4.717   2.819
 2310TIP3   OH2 6874   1.864   3.690   4.263
 2310TIP3    H1 6875   1.770   3.708   4.261
 2310TIP3    H2 6876   1.891   3.715   4.351
 2311TIP3   OH2 6877   4.060   0.183   4.823
 2311TIP3    H1 6878   4.048   0.261   4.769
 2311TIP3    H2 6879   4.090   0.216   4.907
 2312TIP3   OH2 6880   5.884   3.597   2.845
 2312TIP3    H1 6881   5.919   3.620   2.931
 2312TIP3    H2 6882   5.958   3.605   2.785
 2313TIP3   OH2 6883   6.005   6.606   1.199
 2313TIP3    H1 6884   5.923   6.618   1.247
 2313TIP3    H2 6885   5.978   6.599   1.107
 2314TIP3   OH2 6886   4.401   4.824   4.303
 2314TIP3    H1 6887   4.404   4.920   4.308
 2314TIP3    H2 6888   4.307   4.803   4.303
 2315TIP3   OH2 6889   6.763   1.708   0.959
 2315TIP3    H1 6890   6.849   1.749   0.963
 2315TIP3    H2 6891   6.774   1.635   0.898
 2316TIP3   OH2 6892   3.416   0.097   4.247
 2316TIP3    H1 6893   3.461   0.108   4.163
 2316TIP3    H2 6894   3.485   0.107   4.313
 2317TIP3   OH2 6895   2.751   1.369   0.777
 2317TIP3    H1 6896   2.704   1.440   0.820
 2317TIP3    H2 6897   2.736   1.293   0.833
 2318TIP3   OH2 6898   0.072   0.867   0.230
 2318TIP3    H1 6899   0.055   0.929   0.159
 2318TIP3    H2 6900   0.112   0.920   0.299
 2319TIP3   OH2 6901   3.709   7.674   0.709
 2319TIP3    H1 6902   3.682   7.582   0.704
 2319TIP3    H2 6903   3.696   7.697   0.800
 2320TIP3   OH2 6904   8.054   6.863   3.089
 2320TIP3    H1 6905   8.019   6.924   3.154
 2320TIP3    H2 6906   8.142   6.895   3.071
 2321TIP3   OH2 6907   4.753   3.699   6.521
 2321TIP3    H1 6908   4.842   3.668   6.539
 2321TIP3    H2 6909   4.763   3.757   6.445
 2322TIP3   OH2 6910   0.487   3.207   4.892
 2322TIP3    H1 6911   0.538   3.245   4.963
 2322TIP3    H2 6912   0.450   3.282   4.846
 2323TIP3   OH2 6913   3.931   7.548   1.752
 2323TIP3    H1 6914   3.957   7.462   1.719
 2323TIP3    H2 6915   3.856   7.531   1.809
 2324TIP3   OH2 6916   7.569   5.667   4.563
 2324TIP3    H1 6917   7.613   5.670   4.648
 2324TIP3    H2 6918   7.556   5.573   4.546
 2325TIP3   OH2 6919   1.375   7.326   0.311
 2325TIP3    H1 6920   1.359   7.409   0.357
 2325TIP3    H2 6921   1.316   7.331   0.235
 2326TIP3   OH2 6922   0.943   4.189   4.987
 2326TIP3    H1 6923   0.914   4.257   4.927
 2326TIP3    H2 6924   0.894   4.206   5.068
 2327TIP3   OH2 6925   5.526   0.883   6.361
 2327TIP3    H1 6926   5.523   0.794   6.325
 2327TIP3    H2 6927   5.530   0.871   6.456
 2328TIP3   OH2 6928   0.809   3.176   5.835
 2328TIP3    H1 6929   0.883   3.122   5.809
 2328TIP3    H2 6930   0.845   3.236   5.901
 2329TIP3   OH2 6931   2.686   6.027   5.238
 2329TIP3    H1 6932   2.632   6.079   5.178
 2329TIP3    H2 6933   2.730   5.964   5.181
 2330TIP3   OH2 6934   6.284   3.878   1.575
 2330TIP3    H1 6935   6.209   3.821   1.592
 2330TIP3    H2 6936   6.357   3.818   1.560
 2331TIP3   OH2 6937   7.796   0.498   3.251
 2331TIP3    H1 6938   7.743   0.577   3.256
 2331TIP3    H2 6939   7.735   0.427   3.273
 2332TIP3   OH2 6940   6.408   1.535   3.910
 2332TIP3    H1 6941   6.428   1.454   3.862
 2332TIP3    H2 6942   6.404   1.508   4.002
 2333TIP3   OH2 6943   0.755   6.801   5.472
 2333TIP3    H1 6944   0.820   6.754   5.524
 2333TIP3    H2 6945   0.701   6.732   5.433
 2334TIP3   OH2 6946   0.764   2.293   4.296
 2334TIP3    H1 6947   0.670   2.314   4.296
 2334TIP3    H2 6948   0.767   2.198   4.280
 2335TIP3   OH2 6949   0.183   2.454   4.706
 2335TIP3    H1 6950   0.101   2.406   4.719
 2335TIP3    H2 6951   0.187   2.466   4.611
 2336TIP3   OH2 6952   1.322  -0.030   1.661
 2336TIP3    H1 6953   1.302   0.064   1.665
 2336TIP3    H2 6954   1.415  -0.034   1.641
 2337TIP3   OH2 6955   2.264   0.036   5.954
 2337TIP3    H1 6956   2.342   0.019   6.005
 2337TIP3    H2 6957   2.196   0.054   6.019
 2338TIP3   OH2 6958   1.057   4.826   3.369
 2338TIP3    H1 6959   0.986   4.775   3.331
 2338TIP3    H2 6960   1.114   4.846   3.295
 2339TIP3   OH2 6961   3.776   5.186   6.751
 2339TIP3    H1 6962   3.700   5.191   6.693
 2339TIP3    H2 6963   3.831   5.261   6.725
 2340TIP3   OH2 6964   2.314   3.685   1.159
 2340TIP3    H1 6965   2.249   3.689   1.089
 2340TIP3    H2 6966   2.290   3.606   1.209
 2341TIP3   OH2 6967   3.918   1.976   3.010
 2341TIP3    H1 6968   3.833   1.946   3.041
 2341TIP3    H2 6969   3.946   2.041   3.074
 2342TIP3   OH2 6970   1.487   5.080   2.050
 2342TIP3    H1 6971   1.578   5.082   2.018
 2342TIP3    H2 6972   1.440   5.139   1.991
 2343TIP3   OH2 6973   5.936   4.168   0.920
 2343TIP3    H1 6974   6.004   4.135   0.862
 2343TIP3    H2 6975   5.854   4.157   0.870
 2344TIP3   OH2 6976   6.984   7.335   4.824
 2344TIP3    H1 6977   6.933   7.292   4.755
 2344TIP3    H2 6978   7.075   7.324   4.798
 2345TIP3   OH2 6979   7.862   6.328   6.707
 2345TIP3    H1 6980   7.816   6.252   6.742
 2345TIP3    H2 6981   7.877   6.307   6.615
 2346TIP3   OH2 6982   5.362   2.074   4.085
 2346TIP3    H1 6983   5.445   2.068   4.038
 2346TIP3    H2 6984   5.387   2.094   4.175
 2347TIP3   OH2 6985   8.134   1.255   6.164
 2347TIP3    H1 6986   8.069   1.231   6.098
 2347TIP3    H2 6987   8.164   1.171   6.199
 2348TIP3   OH2 6988   6.296   4.296   0.414
 2348TIP3    H1 6989   6.293   4.303   0.510
 2348TIP3    H2 6990   6.373   4.348   0.389
 2349TIP3   OH2 6991   4.771   4.789   5.135
 2349TIP3    H1 6992   4.862   4.800   5.163
 2349TIP3    H2 6993   4.762   4.845   5.058
 2350TIP3   OH2 6994   6.343   5.933   2.079
 2350TIP3    H1 6995   6.388   6.017   2.082
 2350TIP3    H2 6996   6.391   5.882   2.015
 2351TIP3   OH2 6997   1.399   0.289   1.961
 2351TIP3    H1 6998   1.370   0.370   2.004
 2351TIP3    H2 6999   1.375   0.301   1.869
 2352TIP3   OH2 7000   1.864   2.049   4.289
 2352TIP3    H1 7001   1.944   2.100   4.278
 2352TIP3    H2 7002   1.807   2.105   4.343
 2353TIP3   OH2 7003   1.863   1.068   4.686
 2353TIP3    H1 7004   1.909   1.148   4.713
 2353TIP3    H2 7005   1.932   1.012   4.651
 2354TIP3   OH2 7006   6.504   7.809   3.871
 2354TIP3    H1 7007   6.436   7.807   3.804
 2354TIP3    H2 7008   6.586   7.819   3.822
 2355TIP3   OH2 7009   7.222   3.783   6.077
 2355TIP3    H1 7010   7.158   3.769   6.147
 2355TIP3    H2 7011   7.176   3.759   5.997
 2356TIP3   OH2 7012   1.150   7.491   6.109
 2356TIP3    H1 7013   1.147   7.397   6.126
 2356TIP3    H2 7014   1.241   7.516   6.127
 2357TIP3   OH2 7015   0.438   7.088   1.682
 2357TIP3    H1 7016   0.438   6.994   1.663
 2357TIP3    H2 7017   0.353   7.118   1.650
 2358TIP3   OH2 7018   2.637   7.532   5.904
 2358TIP3    H1 7019   2.632   7.444   5.867
 2358TIP3    H2 7020   2.647   7.590   5.828
 2359TIP3   OH2 7021   0.187   4.536   3.039
 2359TIP3    H1 7022   0.175   4.473   3.110
 2359TIP3    H2 7023   0.120   4.603   3.054
 2360TIP3   OH2 7024   6.885   1.829   4.737
 2360TIP3    H1 7025   6.888   1.924   4.728
 2360TIP3    H2 7026   6.969   1.798   4.705
 2361TIP3   OH2 7027   2.729   1.112   1.808
 2361TIP3    H1 7028   2.705   1.084   1.897
 2361TIP3    H2 7029   2.645   1.123   1.764
 2362TIP3   OH2 7030   3.302   1.774   1.191
 2362TIP3    H1 7031   3.347   1.689   1.189
 2362TIP3    H2 7032   3.361   1.832   1.239
 2363TIP3   OH2 7033   2.092   7.640   2.518
 2363TIP3    H1 7034   2.001   7.667   2.511
 2363TIP3    H2 7035   2.088   7.546   2.533
 2364TIP3   OH2 7036   2.853   1.996   1.423
 2364TIP3    H1 7037   2.852   1.955   1.510
 2364TIP3    H2 7038   2.903   1.935   1.368
 2365TIP3   OH2 7039   5.381   1.034   3.713
 2365TIP3    H1 7040   5.308   1.095   3.713
 2365TIP3    H2 7041   5.342   0.950   3.738
 2366TIP3   OH2 7042   0.425   4.683   4.227
 2366TIP3    H1 7043   0.463   4.603   4.190
 2366TIP3    H2 7044   0.430   4.747   4.157
 2367TIP3   OH2 7045   6.920   5.596   5.165
 2367TIP3    H1 7046   6.850   5.655   5.192
 2367TIP3    H2 7047   6.891   5.509   5.194
 2368TIP3   OH2 7048   7.696   7.741   1.894
 2368TIP3    H1 7049   7.702   7.756   1.988
 2368TIP3    H2 7050   7.609   7.772   1.870
 2369TIP3   OH2 7051   2.885   1.491   4.405
 2369TIP3    H1 7052   2.890   1.464   4.314
 2369TIP3    H2 7053   2.966   1.459   4.445
 2370TIP3   OH2 7054   5.185   4.214   3.830
 2370TIP3    H1 7055   5.132   4.151   3.781
 2370TIP3    H2 7056   5.132   4.294   3.834
 2371TIP3   OH2 7057   8.128   7.512   0.175
 2371TIP3    H1 7058   8.075   7.434   0.192
 2371TIP3    H2 7059   8.083   7.582   0.222
 2372TIP3   OH2 7060   3.246   3.898   0.699
 2372TIP3    H1 7061   3.300   3.869   0.773
 2372TIP3    H2 7062   3.275   3.844   0.625
 2373TIP3   OH2 7063   0.201   4.119   3.389
 2373TIP3    H1 7064   0.246   4.040   3.417
 2373TIP3    H2 7065   0.264   4.190   3.404
 2374TIP3   OH2 7066   5.665   2.173   6.733
 2374TIP3    H1 7067   5.753   2.170   6.696
 2374TIP3    H2 7068   5.627   2.088   6.711
 2375TIP3   OH2 7069   4.153   2.154   4.929
 2375TIP3    H1 7070   4.149   2.242   4.892
 2375TIP3    H2 7071   4.184   2.099   4.857
 2376TIP3   OH2 7072   2.403   1.864   2.210
 2376TIP3    H1 7073   2.450   1.929   2.261
 2376TIP3    H2 7074   2.317   1.902   2.196
 2377TIP3   OH2 7075   3.073   6.079   2.588
 2377TIP3    H1 7076   3.137   6.093   2.519
 2377TIP3    H2 7077   2.996   6.044   2.543
 2378TIP3   OH2 7078   3.292   7.333   2.685
 2378TIP3    H1 7079   3.225   7.312   2.750
 2378TIP3    H2 7080   3.277   7.425   2.664
 2379TIP3   OH2 7081   0.842   4.731   0.744
 2379TIP3    H1 7082   0.821   4.655   0.690
 2379TIP3    H2 7083   0.817   4.705   0.833
 2380TIP3   OH2 7084   1.995   6.561   0.559
 2380TIP3    H1 7085   1.985   6.501   0.633
 2380TIP3    H2 7086   1.905   6.577   0.529
 2381TIP3   OH2 7087   3.843   6.173   2.181
 2381TIP3    H1 7088   3.805   6.256   2.152
 2381TIP3    H2 7089   3.918   6.160   2.122
 2382TIP3   OH2 7090   4.291   1.060   3.427
 2382TIP3    H1 7091   4.310   1.065   3.520
 2382TIP3    H2 7092   4.376   1.073   3.384
 2383TIP3   OH2 7093   4.607   4.518   0.613
 2383TIP3    H1 7094   4.681   4.556   0.564
 2383TIP3    H2 7095   4.644   4.441   0.656
 2384TIP3   OH2 7096   0.060   3.019   6.732
 2384TIP3    H1 7097   0.093   2.931   6.749
 2384TIP3    H2 7098  -0.035   3.009   6.724
 2385TIP3   OH2 7099   6.825   0.292   5.261
 2385TIP3    H1 7100   6.760   0.236   5.218
 2385TIP3    H2 7101   6.904   0.282   5.208
 2386TIP3   OH2 7102   5.788   2.730   2.558
 2386TIP3    H1 7103   5.725   2.801   2.568
 2386TIP3    H2 7104   5.841   2.756   2.483
 2387TIP3   OH2 7105   3.831   6.734   3.660
 2387TIP3    H1 7106   3.853   6.725   3.567
 2387TIP3    H2 7107   3.813   6.645   3.690
 2388TIP3   OH2 7108   7.914   3.355   2.213
 2388TIP3    H1 7109   8.004   3.376   2.190
 2388TIP3    H2 7110   7.875   3.439   2.235
 2389TIP3   OH2 7111   6.056   4.621   5.779
 2389TIP3    H1 7112   5.996   4.644   5.849
 2389TIP3    H2 7113   6.049   4.692   5.716
 2390TIP3   OH2 7114   3.605   4.070   4.241
 2390TIP3    H1 7115   3.509   4.067   4.241
 2390TIP3    H2 7116   3.631   4.021   4.319
 2391TIP3   OH2 7117   7.921   5.993   0.167
 2391TIP3    H1 7118   7.896   5.906   0.138
 2391TIP3    H2 7119   7.893   6.051   0.097
 2392TIP3   OH2 7120   7.586   3.121   6.392
 2392TIP3    H1 7121   7.501   3.078   6.385
 2392TIP3    H2 7122   7.612   3.108   6.483
 2393TIP3   OH2 7123   0.730   4.619   5.366
 2393TIP3    H1 7124   0.804   4.678   5.379
 2393TIP3    H2 7125   0.674   4.634   5.441
 2394TIP3   OH2 7126   3.968   1.400   4.602
 2394TIP3    H1 7127   4.015   1.450   4.670
 2394TIP3    H2 7128   4.038   1.359   4.551
 2395TIP3   OH2 7129   6.445   0.133   4.217
 2395TIP3    H1 7130   6.351   0.150   4.212
 2395TIP3    H2 7131   6.451   0.044   4.250
 2396TIP3   OH2 7132   6.709   2.043   0.839
 2396TIP3    H1 7133   6.779   1.977   0.830
 2396TIP3    H2 7134   6.747   2.111   0.895
 2397TIP3   OH2 7135   4.824   3.478   5.277
 2397TIP3    H1 7136   4.775   3.399   5.256
 2397TIP3    H2 7137   4.767   3.550   5.253
 2398TIP3   OH2 7138   2.052   7.516   1.661
 2398TIP3    H1 7139   2.046   7.560   1.746
 2398TIP3    H2 7140   2.146   7.515   1.641
 2399TIP3   OH2 7141   6.136   2.505   5.959
 2399TIP3    H1 7142   6.069   2.436   5.958
 2399TIP3    H2 7143   6.135   2.537   6.050
 2400TIP3   OH2 7144   1.127   5.055   2.448
 2400TIP3    H1 7145   1.113   5.090   2.536
 2400TIP3    H2 7146   1.043   5.016   2.423
 2401TIP3   OH2 7147   6.948   0.536   4.569
 2401TIP3    H1 7148   6.963   0.571   4.657
 2401TIP3    H2 7149   6.960   0.441   4.579
 2402TIP3   OH2 7150   0.953   0.452   4.532
 2402TIP3    H1 7151   1.018   0.519   4.510
 2402TIP3    H2 7152   0.998   0.393   4.592
 2403TIP3   OH2 7153   7.116   0.576   0.828
 2403TIP3    H1 7154   7.193   0.631   0.816
 2403TIP3    H2 7155   7.139   0.493   0.787
 2404TIP3   OH2 7156   1.711   5.488   2.877
 2404TIP3    H1 7157   1.649   5.546   2.832
 2404TIP3    H2 7158   1.751   5.543   2.944
 2405TIP3   OH2 7159   8.044   4.748   6.251
 2405TIP3    H1 7160   8.003   4.666   6.223
 2405TIP3    H2 7161   8.122   4.755   6.196
 2406TIP3   OH2 7162   2.574   5.501   6.002
 2406TIP3    H1 7163   2.630   5.564   5.957
 2406TIP3    H2 7164   2.485   5.536   5.990
 2407TIP3   OH2 7165   1.679   2.652   0.579
 2407TIP3    H1 7166   1.729   2.732   0.561
 2407TIP3    H2 7167   1.739   2.581   0.556
 2408TIP3   OH2 7168   3.062   1.920   3.391
 2408TIP3    H1 7169   3.038   1.873   3.471
 2408TIP3    H2 7170   3.103   1.855   3.335
 2409TIP3   OH2 7171   1.761   5.680   3.769
 2409TIP3    H1 7172   1.720   5.609   3.820
 2409TIP3    H2 7173   1.779   5.748   3.834
 2410TIP3   OH2 7174   1.841   4.971   0.245
 2410TIP3    H1 7175   1.844   4.879   0.216
 2410TIP3    H2 7176   1.789   4.969   0.325
 2411TIP3   OH2 7177   4.372   6.708   3.163
 2411TIP3    H1 7178   4.409   6.764   3.232
 2411TIP3    H2 7179   4.442   6.704   3.097
 2412TIP3   OH2 7180   1.841   1.076   1.961
 2412TIP3    H1 7181   1.839   1.049   1.869
 2412TIP3    H2 7182   1.750   1.065   1.991
 2413TIP3   OH2 7183   7.824   4.807   4.644
 2413TIP3    H1 7184   7.874   4.784   4.722
 2413TIP3    H2 7185   7.891   4.836   4.581
 2414TIP3   OH2 7186   5.725   0.691   0.811
 2414TIP3    H1 7187   5.816   0.705   0.786
 2414TIP3    H2 7188   5.684   0.654   0.733
 2415TIP3   OH2 7189   4.894   2.092   2.350
 2415TIP3    H1 7190   4.912   2.121   2.261
 2415TIP3    H2 7191   4.836   2.016   2.340
 2416TIP3   OH2 7192   0.318   0.481   0.803
 2416TIP3    H1 7193   0.399   0.512   0.762
 2416TIP3    H2 7194   0.307   0.537   0.880
 2417TIP3   OH2 7195   7.761   1.121   5.717
 2417TIP3    H1 7196   7.735   1.201   5.670
 2417TIP3    H2 7197   7.808   1.070   5.652
 2418TIP3   OH2 7198   0.517   0.344   0.635
 2418TIP3    H1 7199   0.499   0.252   0.613
 2418TIP3    H2 7200   0.604   0.361   0.599
 2419TIP3   OH2 7201   4.097   7.254   5.719
 2419TIP3    H1 7202   4.039   7.178   5.725
 2419TIP3    H2 7203   4.131   7.266   5.807
 2420TIP3   OH2 7204   5.296   2.501   3.168
 2420TIP3    H1 7205   5.380   2.501   3.214
 2420TIP3    H2 7206   5.312   2.450   3.089
 2421TIP3   OH2 7207   3.180   5.628   6.400
 2421TIP3    H1 7208   3.216   5.699   6.453
 2421TIP3    H2 7209   3.126   5.577   6.461
 2422TIP3   OH2 7210   3.336   5.781   3.169
 2422TIP3    H1 7211   3.369   5.772   3.080
 2422TIP3    H2 7212   3.386   5.716   3.220
 2423TIP3   OH2 7213   6.682   3.462   0.039
 2423TIP3    H1 7214   6.774   3.444   0.053
 2423TIP3    H2 7215   6.639   3.436   0.120
 2424TIP3   OH2 7216   0.519   1.681   0.517
 2424TIP3    H1 7217   0.534   1.757   0.574
 2424TIP3    H2 7218   0.606   1.650   0.495
 2425TIP3   OH2 7219   1.592   0.057   0.857
 2425TIP3    H1 7220   1.589   0.029   0.765
 2425TIP3    H2 7221   1.534   0.133   0.860
 2426TIP3   OH2 7222   8.038   4.157   4.300
 2426TIP3    H1 7223   7.987   4.079   4.281
 2426TIP3    H2 7224   8.090   4.173   4.221
 2427TIP3   OH2 7225   0.219   7.018   6.160
 2427TIP3    H1 7226   0.224   7.099   6.211
 2427TIP3    H2 7227   0.291   6.964   6.193
 2428TIP3   OH2 7228   6.058   4.371   1.579
 2428TIP3    H1 7229   6.094   4.459   1.575
 2428TIP3    H2 7230   6.098   4.332   1.657
 2429TIP3   OH2 7231   5.000   4.986   6.545
 2429TIP3    H1 7232   4.950   5.061   6.579
 2429TIP3    H2 7233   5.067   5.026   6.489
 2430TIP3   OH2 7234   4.379   1.434   3.004
 2430TIP3    H1 7235   4.314   1.429   3.074
 2430TIP3    H2 7236   4.344   1.499   2.943
 2431TIP3   OH2 7237   0.442   0.155   3.766
 2431TIP3    H1 7238   0.522   0.108   3.745
 2431TIP3    H2 7239   0.395   0.160   3.682
 2432TIP3   OH2 7240   0.975   4.438   0.972
 2432TIP3    H1 7241   0.905   4.390   0.927
 2432TIP3    H2 7242   1.039   4.457   0.903
 2433TIP3   OH2 7243   7.185   1.100   0.737
 2433TIP3    H1 7244   7.276   1.099   0.769
 2433TIP3    H2 7245   7.170   1.010   0.707
 2434TIP3   OH2 7246   0.272   6.711   3.960
 2434TIP3    H1 7247   0.212   6.755   4.019
 2434TIP3    H2 7248   0.274   6.620   3.990
 2435TIP3   OH2 7249   2.961   5.279   1.278
 2435TIP3    H1 7250   3.052   5.256   1.258
 2435TIP3    H2 7251   2.968   5.341   1.351
 2436TIP3   OH2 7252   6.132   2.734   4.491
 2436TIP3    H1 7253   6.080   2.772   4.420
 2436TIP3    H2 7254   6.067   2.692   4.548
 2437TIP3   OH2 7255   1.658   0.796   3.825
 2437TIP3    H1 7256   1.634   0.757   3.741
 2437TIP3    H2 7257   1.600   0.871   3.834
 2438TIP3   OH2 7258   6.836   6.289   0.285
 2438TIP3    H1 7259   6.895   6.291   0.210
 2438TIP3    H2 7260   6.882   6.236   0.350
 2439TIP3   OH2 7261   7.259   2.973   6.448
 2439TIP3    H1 7262   7.192   3.022   6.401
 2439TIP3    H2 7263   7.238   2.988   6.541
 2440TIP3   OH2 7264   1.925   4.265   0.409
 2440TIP3    H1 7265   1.887   4.255   0.497
 2440TIP3    H2 7266   1.866   4.326   0.364
 2441TIP3   OH2 7267   5.308   0.338   4.238
 2441TIP3    H1 7268   5.360   0.388   4.174
 2441TIP3    H2 7269   5.239   0.399   4.264
 2442TIP3   OH2 7270   5.454   6.186   0.507
 2442TIP3    H1 7271   5.387   6.126   0.540
 2442TIP3    H2 7272   5.535   6.135   0.508
 2443TIP3   OH2 7273   1.741   3.348   5.934
 2443TIP3    H1 7274   1.669   3.397   5.974
 2443TIP3    H2 7275   1.738   3.262   5.976
 2444TIP3   OH2 7276   5.274   7.388   0.044
 2444TIP3    H1 7277   5.352   7.429   0.080
 2444TIP3    H2 7278   5.210   7.459   0.037
 2445TIP3   OH2 7279   0.785   4.965   2.700
 2445TIP3    H1 7280   0.697   4.930   2.712
 2445TIP3    H2 7281   0.796   5.028   2.772
 2446TIP3   OH2 7282   4.521   1.439   0.900
 2446TIP3    H1 7283   4.524   1.515   0.842
 2446TIP3    H2 7284   4.570   1.466   0.977
 2447TIP3   OH2 7285   0.268   4.161   6.653
 2447TIP3    H1 7286   0.269   4.257   6.645
 2447TIP3    H2 7287   0.349   4.141   6.700
 2448TIP3   OH2 7288   6.221   3.458   0.114
 2448TIP3    H1 7289   6.294   3.410   0.076
 2448TIP3    H2 7290   6.147   3.397   0.108
 2449TIP3   OH2 7291   4.922   5.859   2.115
 2449TIP3    H1 7292   4.979   5.817   2.050
 2449TIP3    H2 7293   4.982   5.904   2.175
 2450TIP3   OH2 7294   3.746   1.126   0.576
 2450TIP3    H1 7295   3.774   1.043   0.614
 2450TIP3    H2 7296   3.817   1.187   0.594
 2451TIP3   OH2 7297   6.251   3.561   3.505
 2451TIP3    H1 7298   6.254   3.529   3.595
 2451TIP3    H2 7299   6.334   3.531   3.467
 2452TIP3   OH2 7300   2.272   4.687   5.729
 2452TIP3    H1 7301   2.309   4.709   5.814
 2452TIP3    H2 7302   2.178   4.701   5.739
 2453TIP3   OH2 7303   0.387   4.235   1.986
 2453TIP3    H1 7304   0.429   4.217   1.901
 2453TIP3    H2 7305   0.299   4.197   1.977
 2454TIP3   OH2 7306   3.742   4.602   4.933
 2454TIP3    H1 7307   3.704   4.555   4.858
 2454TIP3    H2 7308   3.812   4.655   4.894
 2455TIP3   OH2 7309   0.941   1.176   4.189
 2455TIP3    H1 7310   0.998   1.125   4.246
 2455TIP3    H2 7311   0.988   1.258   4.174
 2456TIP3   OH2 7312   5.507   4.747   6.489
 2456TIP3    H1 7313   5.569   4.803   6.443
 2456TIP3    H2 7314   5.474   4.801   6.561
 2457TIP3   OH2 7315   4.296   0.534   4.587
 2457TIP3    H1 7316   4.207   0.557   4.560
 2457TIP3    H2 7317   4.302   0.440   4.571
 2458TIP3   OH2 7318   7.742   6.648   1.502
 2458TIP3    H1 7319   7.833   6.679   1.498
 2458TIP3    H2 7320   7.701   6.686   1.424
 2459TIP3   OH2 7321   7.440   6.953   2.624
 2459TIP3    H1 7322   7.366   6.936   2.565
 2459TIP3    H2 7323   7.515   6.967   2.565
 2460TIP3   OH2 7324   3.483   7.600   5.783
 2460TIP3    H1 7325   3.455   7.692   5.792
 2460TIP3    H2 7326   3.573   7.599   5.815
 2461TIP3   OH2 7327   5.321   3.025   2.354
 2461TIP3    H1 7328   5.311   3.022   2.449
 2461TIP3    H2 7329   5.232   3.015   2.320
 2462TIP3   OH2 7330   5.287   4.715   3.600
 2462TIP3    H1 7331   5.381   4.720   3.581
 2462TIP3    H2 7332   5.274   4.769   3.677
 2463TIP3   OH2 7333   0.882   2.903   1.852
 2463TIP3    H1 7334   0.789   2.916   1.839
 2463TIP3    H2 7335   0.909   2.846   1.780
 2464TIP3   OH2 7336   4.650   7.207   5.399
 2464TIP3    H1 7337   4.702   7.283   5.373
 2464TIP3    H2 7338   4.703   7.132   5.372
 2465TIP3   OH2 7339   6.148   6.701   2.295
 2465TIP3    H1 7340   6.142   6.796   2.280
 2465TIP3    H2 7341   6.059   6.669   2.281
 2466TIP3   OH2 7342   6.698   1.255   3.407
 2466TIP3    H1 7343   6.625   1.218   3.457
 2466TIP3    H2 7344   6.678   1.349   3.403
 2467TIP3   OH2 7345   5.445   5.328   6.503
 2467TIP3    H1 7346   5.481   5.274   6.433
 2467TIP3    H2 7347   5.521   5.375   6.538
 2468TIP3   OH2 7348   6.275   7.295   0.652
 2468TIP3    H1 7349   6.358   7.306   0.606
 2468TIP3    H2 7350   6.244   7.384   0.669
 2469TIP3   OH2 7351   5.827   2.938   1.160
 2469TIP3    H1 7352   5.859   2.915   1.073
 2469TIP3    H2 7353   5.790   2.857   1.194
 2470TIP3   OH2 7354   1.825   3.440   4.149
 2470TIP3    H1 7355   1.853   3.521   4.192
 2470TIP3    H2 7356   1.793   3.385   4.221
 2471TIP3   OH2 7357   3.543   1.592   5.785
 2471TIP3    H1 7358   3.523   1.525   5.718
 2471TIP3    H2 7359   3.605   1.650   5.742
 2472TIP3   OH2 7360   1.508   2.158   0.743
 2472TIP3    H1 7361   1.473   2.240   0.709
 2472TIP3    H2 7362   1.520   2.175   0.837
 2473TIP3   OH2 7363   1.863   1.622   0.963
 2473TIP3    H1 7364   1.959   1.630   0.965
 2473TIP3    H2 7365   1.846   1.532   0.990
 2474TIP3   OH2 7366   3.848   4.719   1.270
 2474TIP3    H1 7367   3.915   4.651   1.266
 2474TIP3    H2 7368   3.834   4.734   1.364
 2475TIP3   OH2 7369   7.446   6.296   0.075
 2475TIP3    H1 7370   7.415   6.386   0.085
 2475TIP3    H2 7371   7.534   6.297   0.111
 2476TIP3   OH2 7372   4.582   7.538   6.466
 2476TIP3    H1 7373   4.602   7.471   6.400
 2476TIP3    H2 7374   4.488   7.530   6.481
 2477TIP3   OH2 7375   0.786   3.477   0.898
 2477TIP3    H1 7376   0.795   3.508   0.808
 2477TIP3    H2 7377   0.691   3.475   0.913
 2478TIP3   OH2 7378   3.066   5.363   3.452
 2478TIP3    H1 7379   3.160   5.374   3.446
 2478TIP3    H2 7380   3.051   5.336   3.543
 2479TIP3   OH2 7381   4.914   6.326   4.990
 2479TIP3    H1 7382   4.856   6.250   4.993
 2479TIP3    H2 7383   4.910   6.363   5.078
 2480TIP3   OH2 7384   1.126   0.680   4.514
 2480TIP3    H1 7385   1.108   0.765   4.475
 2480TIP3    H2 7386   1.222   0.677   4.522
 2481TIP3   OH2 7387   3.469   1.252   2.999
 2481TIP3    H1 7388   3.454   1.238   3.092
 2481TIP3    H2 7389   3.517   1.174   2.970
 2482TIP3   OH2 7390   1.479   6.179   1.344
 2482TIP3    H1 7391   1.462   6.166   1.437
 2482TIP3    H2 7392   1.463   6.272   1.330
 2483TIP3   OH2 7393   5.265   0.397   3.328
 2483TIP3    H1 7394   5.341   0.448   3.356
 2483TIP3    H2 7395   5.246   0.340   3.403
 2484TIP3   OH2 7396   0.205   7.759   4.529
 2484TIP3    H1 7397   0.197   7.746   4.434
 2484TIP3    H2 7398   0.275   7.824   4.538
 2485TIP3   OH2 7399   8.115   4.765   5.412
 2485TIP3    H1 7400   8.202   4.791   5.382
 2485TIP3    H2 7401   8.066   4.847   5.420
 2486TIP3   OH2 7402   0.035   5.853   6.261
 2486TIP3    H1 7403  -0.012   5.774   6.286
 2486TIP3    H2 7404  -0.016   5.925   6.298
 2487TIP3   OH2 7405   4.622   3.523   2.277
 2487TIP3    H1 7406   4.538   3.508   2.234
 2487TIP3    H2 7407   4.648   3.611   2.250
 2488TIP3   OH2 7408   6.448   7.108   4.131
 2488TIP3    H1 7409   6.373   7.077   4.080
 2488TIP3    H2 7410   6.411   7.136   4.214
 2489TIP3   OH2 7411   6.744   5.061   0.427
 2489TIP3    H1 7412   6.722   5.018   0.344
 2489TIP3    H2 7413   6.810   5.005   0.466
 2490TIP3   OH2 7414   4.902   6.453   1.806
 2490TIP3    H1 7415   4.888   6.472   1.714
 2490TIP3    H2 7416   4.829   6.397   1.831
 2491TIP3   OH2 7417   6.322   6.367   4.835
 2491TIP3    H1 7418   6.406   6.359   4.790
 2491TIP3    H2 7419   6.298   6.277   4.857
 2492TIP3   OH2 7420   3.395   6.499   6.296
 2492TIP3    H1 7421   3.341   6.425   6.267
 2492TIP3    H2 7422   3.354   6.576   6.257
 2493TIP3   OH2 7423   7.965   3.490   4.303
 2493TIP3    H1 7424   7.980   3.584   4.297
 2493TIP3    H2 7425   7.907   3.470   4.229
 2494TIP3   OH2 7426   4.169   4.337   5.504
 2494TIP3    H1 7427   4.212   4.256   5.532
 2494TIP3    H2 7428   4.184   4.398   5.576
 2495TIP3   OH2 7429   7.783   2.350   2.849
 2495TIP3    H1 7430   7.707   2.363   2.793
 2495TIP3    H2 7431   7.761   2.394   2.931
 2496TIP3   OH2 7432   3.439   4.612   2.427
 2496TIP3    H1 7433   3.369   4.640   2.368
 2496TIP3    H2 7434   3.393   4.579   2.504
 2497TIP3   OH2 7435   8.007   5.024   0.537
 2497TIP3    H1 7436   8.005   5.119   0.545
 2497TIP3    H2 7437   7.917   4.999   0.516
 2498TIP3   OH2 7438   1.378   0.612   3.824
 2498TIP3    H1 7439   1.387   0.539   3.763
 2498TIP3    H2 7440   1.347   0.685   3.770
 2499TIP3   OH2 7441   7.228   5.514   4.155
 2499TIP3    H1 7442   7.263   5.602   4.168
 2499TIP3    H2 7443   7.297   5.456   4.190
 2500TIP3   OH2 7444   6.412   4.957   1.598
 2500TIP3    H1 7445   6.503   4.988   1.598
 2500TIP3    H2 7446   6.391   4.946   1.505
 2501TIP3   OH2 7447   6.588   7.166   6.430
 2501TIP3    H1 7448   6.665   7.214   6.461
 2501TIP3    H2 7449   6.516   7.197   6.485
 2502TIP3   OH2 7450   1.979   7.418   6.514
 2502TIP3    H1 7451   1.929   7.438   6.435
 2502TIP3    H2 7452   1.917   7.430   6.586
 2503TIP3   OH2 7453   6.808   2.582   3.519
 2503TIP3    H1 7454   6.774   2.514   3.461
 2503TIP3    H2 7455   6.900   2.559   3.532
 2504TIP3   OH2 7456   0.231   6.445   6.703
 2504TIP3    H1 7457   0.191   6.429   6.788
 2504TIP3    H2 7458   0.311   6.493   6.723
 2505TIP3   OH2 7459   2.217   0.729   5.958
 2505TIP3    H1 7460   2.215   0.759   5.868
 2505TIP3    H2 7461   2.125   0.732   5.986
 2506TIP3   OH2 7462   1.118   4.017   6.022
 2506TIP3    H1 7463   1.120   3.922   6.032
 2506TIP3    H2 7464   1.139   4.031   5.929
 2507TIP3   OH2 7465   1.253   2.052   0.716
 2507TIP3    H1 7466   1.186   2.074   0.652
 2507TIP3    H2 7467   1.330   2.101   0.690
 2508TIP3   OH2 7468   7.630   1.444   6.108
 2508TIP3    H1 7469   7.700   1.477   6.164
 2508TIP3    H2 7470   7.632   1.349   6.121
 2509TIP3   OH2 7471   6.969   5.394   0.688
 2509TIP3    H1 7472   6.978   5.399   0.593
 2509TIP3    H2 7473   6.937   5.306   0.705
 2510TIP3   OH2 7474   3.671   5.188   5.885
 2510TIP3    H1 7475   3.737   5.159   5.948
 2510TIP3    H2 7476   3.613   5.245   5.935
 2511TIP3   OH2 7477   2.470   3.503   6.451
 2511TIP3    H1 7478   2.445   3.564   6.521
 2511TIP3    H2 7479   2.488   3.559   6.376
 2512TIP3   OH2 7480   5.288   4.454   3.496
 2512TIP3    H1 7481   5.227   4.447   3.423
 2512TIP3    H2 7482   5.268   4.539   3.536
 2513TIP3   OH2 7483   6.145   2.953   4.007
 2513TIP3    H1 7484   6.229   2.952   3.961
 2513TIP3    H2 7485   6.100   3.031   3.974
 2514TIP3   OH2 7486   5.375   4.243   5.024
 2514TIP3    H1 7487   5.468   4.225   5.017
 2514TIP3    H2 7488   5.352   4.287   4.942
 2515TIP3   OH2 7489   5.757   1.651   5.173
 2515TIP3    H1 7490   5.723   1.679   5.258
 2515TIP3    H2 7491   5.727   1.718   5.111
 2516TIP3   OH2 7492   6.699   3.724   5.589
 2516TIP3    H1 7493   6.753   3.664   5.537
 2516TIP3    H2 7494   6.613   3.719   5.548
 2517TIP3   OH2 7495   3.281   5.439   1.295
 2517TIP3    H1 7496   3.375   5.459   1.305
 2517TIP3    H2 7497   3.239   5.487   1.366
 2518TIP3   OH2 7498   0.764   4.939   1.900
 2518TIP3    H1 7499   0.850   4.960   1.938
 2518TIP3    H2 7500   0.713   4.906   1.974
 2519TIP3   OH2 7501   0.177   5.039   3.884
 2519TIP3    H1 7502   0.095   5.046   3.835
 2519TIP3    H2 7503   0.245   5.057   3.819
 2520TIP3   OH2 7504   6.064   4.234   4.349
 2520TIP3    H1 7505   6.124   4.305   4.326
 2520TIP3    H2 7506   6.063   4.178   4.271
 2521TIP3   OH2 7507   1.536   6.705   3.448
 2521TIP3    H1 7508   1.594   6.768   3.490
 2521TIP3    H2 7509   1.530   6.632   3.509
 2522TIP3   OH2 7510   7.031   0.980   2.048
 2522TIP3    H1 7511   7.029   0.886   2.063
 2522TIP3    H2 7512   7.092   1.014   2.114
 2523TIP3   OH2 7513   7.952   6.972   5.101
 2523TIP3    H1 7514   7.976   7.012   5.185
 2523TIP3    H2 7515   7.989   6.884   5.105
 2524TIP3   OH2 7516   2.236   0.440   6.657
 2524TIP3    H1 7517   2.181   0.420   6.732
 2524TIP3    H2 7518   2.231   0.536   6.648
 2525TIP3   OH2 7519   6.877   0.193   1.865
 2525TIP3    H1 7520   6.849   0.101   1.860
 2525TIP3    H2 7521   6.965   0.193   1.828
 2526TIP3   OH2 7522   2.477   3.115   0.176
 2526TIP3    H1 7523   2.522   3.030   0.165
 2526TIP3    H2 7524   2.390   3.092   0.208
 2527TIP3   OH2 7525   6.446   2.873   1.239
 2527TIP3    H1 7526   6.531   2.840   1.271
 2527TIP3    H2 7527   6.463   2.894   1.147
 2528TIP3   OH2 7528   4.289   6.163   1.358
 2528TIP3    H1 7529   4.379   6.143   1.383
 2528TIP3    H2 7530   4.251   6.077   1.335
 2529TIP3   OH2 7531   2.458   1.835   0.554
 2529TIP3    H1 7532   2.527   1.770   0.569
 2529TIP3    H2 7533   2.500   1.919   0.572
 2530TIP3   OH2 7534   2.161   5.969   2.437
 2530TIP3    H1 7535   2.230   5.936   2.494
 2530TIP3    H2 7536   2.204   5.978   2.351
 2531TIP3   OH2 7537   1.173   4.070   5.745
 2531TIP3    H1 7538   1.178   3.993   5.688
 2531TIP3    H2 7539   1.189   4.144   5.687
 2532TIP3   OH2 7540   1.321   4.284   6.340
 2532TIP3    H1 7541   1.342   4.270   6.432
 2532TIP3    H2 7542   1.401   4.262   6.293
 2533TIP3   OH2 7543   7.373   0.867   5.680
 2533TIP3    H1 7544   7.322   0.948   5.679
 2533TIP3    H2 7545   7.410   0.862   5.591
 2534TIP3   OH2 7546   5.112   1.908   6.597
 2534TIP3    H1 7547   5.131   1.833   6.540
 2534TIP3    H2 7548   5.111   1.871   6.685
 2535TIP3   OH2 7549   0.839   5.582   0.611
 2535TIP3    H1 7550   0.879   5.561   0.696
 2535TIP3    H2 7551   0.798   5.668   0.625
 2536TIP3   OH2 7552   0.694   4.296   5.745
 2536TIP3    H1 7553   0.743   4.259   5.818
 2536TIP3    H2 7554   0.760   4.326   5.684
 2537TIP3   OH2 7555   7.021   4.400   3.694
 2537TIP3    H1 7556   7.030   4.486   3.736
 2537TIP3    H2 7557   7.088   4.399   3.626
 2538TIP3   OH2 7558   0.347   3.597   3.546
 2538TIP3    H1 7559   0.410   3.537   3.588
 2538TIP3    H2 7560   0.370   3.683   3.581
 2539TIP3   OH2 7561   2.699   5.604   1.379
 2539TIP3    H1 7562   2.607   5.582   1.373
 2539TIP3    H2 7563   2.733   5.593   1.290
 2540TIP3   OH2 7564   7.334   3.590   1.514
 2540TIP3    H1 7565   7.301   3.657   1.454
 2540TIP3    H2 7566   7.408   3.632   1.558
 2541TIP3   OH2 7567   7.614   7.490   2.126
 2541TIP3    H1 7568   7.537   7.485   2.181
 2541TIP3    H2 7569   7.643   7.581   2.134
 2542TIP3   OH2 7570   7.419   0.022   4.402
 2542TIP3    H1 7571   7.439   0.033   4.309
 2542TIP3    H2 7572   7.445   0.105   4.442
 2543TIP3   OH2 7573   5.458   0.562   3.429
 2543TIP3    H1 7574   5.524   0.584   3.364
 2543TIP3    H2 7575   5.504   0.508   3.493
 2544TIP3   OH2 7576   1.894   6.593   5.266
 2544TIP3    H1 7577   1.802   6.604   5.242
 2544TIP3    H2 7578   1.894   6.528   5.336
 2545TIP3   OH2 7579   4.774   0.273   2.587
 2545TIP3    H1 7580   4.816   0.228   2.661
 2545TIP3    H2 7581   4.762   0.363   2.618
 2546TIP3   OH2 7582   5.919   0.712   0.518
 2546TIP3    H1 7583   5.898   0.781   0.455
 2546TIP3    H2 7584   5.952   0.640   0.464
 2547TIP3   OH2 7585   4.826   5.520   0.704
 2547TIP3    H1 7586   4.915   5.487   0.695
 2547TIP3    H2 7587   4.771   5.445   0.680
 2548TIP3   OH2 7588   2.372   1.841   1.058
 2548TIP3    H1 7589   2.383   1.786   1.136
 2548TIP3    H2 7590   2.413   1.791   0.988
 2549TIP3   OH2 7591   3.083   4.666   4.558
 2549TIP3    H1 7592   3.099   4.596   4.494
 2549TIP3    H2 7593   2.988   4.679   4.556
 2550TIP3   OH2 7594   1.029   1.852   4.333
 2550TIP3    H1 7595   1.045   1.865   4.239
 2550TIP3    H2 7596   0.989   1.765   4.337
 2551TIP3   OH2 7597   4.312   4.911   3.031
 2551TIP3    H1 7598   4.267   4.859   2.964
 2551TIP3    H2 7599   4.399   4.927   2.994
 2552TIP3   OH2 7600   4.485   0.675   0.577
 2552TIP3    H1 7601   4.462   0.765   0.602
 2552TIP3    H2 7602   4.483   0.675   0.481
 2553TIP3   OH2 7603   4.812   1.084   3.442
 2553TIP3    H1 7604   4.830   1.108   3.351
 2553TIP3    H2 7605   4.881   1.127   3.492
 2554TIP3   OH2 7606   3.566   2.193   1.548
 2554TIP3    H1 7607   3.508   2.249   1.496
 2554TIP3    H2 7608   3.514   2.114   1.566
 2555TIP3   OH2 7609   1.588   7.673   5.075
 2555TIP3    H1 7610   1.666   7.619   5.086
 2555TIP3    H2 7611   1.541   7.664   5.157
 2556TIP3   OH2 7612   6.219   4.875   0.831
 2556TIP3    H1 7613   6.291   4.817   0.805
 2556TIP3    H2 7614   6.141   4.820   0.827
 2557TIP3   OH2 7615   4.066   0.143   1.501
 2557TIP3    H1 7616   4.049   0.226   1.457
 2557TIP3    H2 7617   4.006   0.081   1.460
 2558TIP3   OH2 7618   3.181   6.252   0.371
 2558TIP3    H1 7619   3.152   6.198   0.298
 2558TIP3    H2 7620   3.149   6.340   0.351
 2559TIP3   OH2 7621   6.053   3.836   4.274
 2559TIP3    H1 7622   6.144   3.857   4.255
 2559TIP3    H2 7623   6.007   3.920   4.268
 2560TIP3   OH2 7624   0.401   5.194   6.375
 2560TIP3    H1 7625   0.427   5.125   6.313
 2560TIP3    H2 7626   0.485   5.230   6.405
 2561TIP3   OH2 7627   4.341   4.896   5.845
 2561TIP3    H1 7628   4.414   4.836   5.834
 2561TIP3    H2 7629   4.288   4.857   5.914
 2562TIP3   OH2 7630   6.755   3.071   5.090
 2562TIP3    H1 7631   6.662   3.056   5.110
 2562TIP3    H2 7632   6.758   3.068   4.994
 2563TIP3   OH2 7633   0.190   2.551   4.453
 2563TIP3    H1 7634   0.167   2.643   4.445
 2563TIP3    H2 7635   0.248   2.534   4.379
 2564TIP3   OH2 7636   3.630   5.543   5.716
 2564TIP3    H1 7637   3.652   5.591   5.796
 2564TIP3    H2 7638   3.702   5.481   5.705
 2565TIP3   OH2 7639   2.039   5.888   1.308
 2565TIP3    H1 7640   2.114   5.854   1.357
 2565TIP3    H2 7641   2.069   5.971   1.271
 2566TIP3   OH2 7642   3.018   3.350   0.707
 2566TIP3    H1 7643   3.084   3.284   0.727
 2566TIP3    H2 7644   3.056   3.433   0.737
 2567TIP3   OH2 7645   7.084   7.453   3.470
 2567TIP3    H1 7646   7.015   7.388   3.464
 2567TIP3    H2 7647   7.165   7.404   3.456
 2568TIP3   OH2 7648   4.162   2.822   2.268
 2568TIP3    H1 7649   4.113   2.747   2.235
 2568TIP3    H2 7650   4.096   2.877   2.310
 2569TIP3   OH2 7651   5.341   3.720   0.561
 2569TIP3    H1 7652   5.304   3.755   0.642
 2569TIP3    H2 7653   5.265   3.702   0.506
 2570TIP3   OH2 7654   7.541   0.585   4.402
 2570TIP3    H1 7655   7.576   0.673   4.417
 2570TIP3    H2 7656   7.597   0.528   4.453
 2571TIP3   OH2 7657   0.742   4.415   4.911
 2571TIP3    H1 7658   0.781   4.499   4.887
 2571TIP3    H2 7659   0.699   4.384   4.832
 2572TIP3   OH2 7660   8.282   5.281   6.546
 2572TIP3    H1 7661   8.286   5.365   6.499
 2572TIP3    H2 7662   8.329   5.220   6.489
 2573TIP3   OH2 7663   0.570   3.191   2.596
 2573TIP3    H1 7664   0.511   3.201   2.670
 2573TIP3    H2 7665   0.560   3.272   2.546
 2574TIP3   OH2 7666   1.412   2.748   6.150
 2574TIP3    H1 7667   1.408   2.785   6.062
 2574TIP3    H2 7668   1.441   2.657   6.137
 2575TIP3   OH2 7669   2.007   5.171   6.041
 2575TIP3    H1 7670   2.090   5.124   6.040
 2575TIP3    H2 7671   1.968   5.154   5.956
 2576TIP3   OH2 7672   1.847   5.622   0.647
 2576TIP3    H1 7673   1.933   5.595   0.680
 2576TIP3    H2 7674   1.795   5.541   0.648
 2577TIP3   OH2 7675   2.685   5.675   4.301
 2577TIP3    H1 7676   2.771   5.659   4.342
 2577TIP3    H2 7677   2.670   5.600   4.244
 2578TIP3   OH2 7678   5.560   4.564   2.107
 2578TIP3    H1 7679   5.618   4.580   2.181
 2578TIP3    H2 7680   5.618   4.544   2.034
 2579TIP3   OH2 7681   7.008   2.635   1.746
 2579TIP3    H1 7682   6.990   2.693   1.820
 2579TIP3    H2 7683   7.093   2.665   1.712
 2580TIP3   OH2 7684   3.473   1.635   0.983
 2580TIP3    H1 7685   3.396   1.688   0.963
 2580TIP3    H2 7686   3.448   1.546   0.960
 2581TIP3   OH2 7687   5.768   4.158   4.690
 2581TIP3    H1 7688   5.820   4.233   4.661
 2581TIP3    H2 7689   5.803   4.084   4.639
 2582TIP3   OH2 7690   0.845   5.253   0.850
 2582TIP3    H1 7691   0.769   5.235   0.905
 2582TIP3    H2 7692   0.886   5.167   0.836
 2583TIP3   OH2 7693   4.775   5.309   0.332
 2583TIP3    H1 7694   4.729   5.366   0.270
 2583TIP3    H2 7695   4.745   5.338   0.418
 2584TIP3   OH2 7696   1.752   4.127   5.637
 2584TIP3    H1 7697   1.739   4.038   5.605
 2584TIP3    H2 7698   1.814   4.166   5.575
 2585TIP3   OH2 7699   3.808   5.857   1.650
 2585TIP3    H1 7700   3.795   5.936   1.598
 2585TIP3    H2 7701   3.728   5.806   1.636
 2586TIP3   OH2 7702   3.488   0.114   2.869
 2586TIP3    H1 7703   3.573   0.137   2.832
 2586TIP3    H2 7704   3.472   0.025   2.837
 2587TIP3   OH2 7705   6.777   3.520   2.692
 2587TIP3    H1 7706   6.751   3.551   2.606
 2587TIP3    H2 7707   6.793   3.600   2.743
 2588TIP3   OH2 7708   4.086   5.033   0.945
 2588TIP3    H1 7709   4.044   4.963   0.894
 2588TIP3    H2 7710   4.035   5.112   0.924
 2589TIP3   OH2 7711   5.069   3.095   0.791
 2589TIP3    H1 7712   5.117   3.052   0.862
 2589TIP3    H2 7713   5.137   3.125   0.730
 2590TIP3   OH2 7714   2.073   6.184   4.195
 2590TIP3    H1 7715   2.149   6.198   4.138
 2590TIP3    H2 7716   2.110   6.154   4.278
 2591TIP3   OH2 7717   2.880   3.829   1.535
 2591TIP3    H1 7718   2.832   3.787   1.605
 2591TIP3    H2 7719   2.841   3.916   1.528
 2592TIP3   OH2 7720   3.059   3.641   2.567
 2592TIP3    H1 7721   3.130   3.685   2.613
 2592TIP3    H2 7722   3.053   3.555   2.609
 2593TIP3   OH2 7723   2.954   4.229   3.426
 2593TIP3    H1 7724   2.914   4.316   3.438
 2593TIP3    H2 7725   2.907   4.173   3.488
 2594TIP3   OH2 7726   7.630   4.441   3.429
 2594TIP3    H1 7727   7.578   4.517   3.457
 2594TIP3    H2 7728   7.657   4.401   3.511
 2595TIP3   OH2 7729   6.453   2.755   0.180
 2595TIP3    H1 7730   6.446   2.712   0.265
 2595TIP3    H2 7731   6.363   2.774   0.154
 2596TIP3   OH2 7732   5.073   4.035   6.587
 2596TIP3    H1 7733   5.168   4.022   6.586
 2596TIP3    H2 7734   5.046   4.005   6.674
 2597TIP3   OH2 7735   7.012   7.029   0.363
 2597TIP3    H1 7736   7.103   7.001   0.367
 2597TIP3    H2 7737   6.980   7.019   0.453
 2598TIP3   OH2 7738   7.393   2.814   4.671
 2598TIP3    H1 7739   7.416   2.722   4.659
 2598TIP3    H2 7740   7.307   2.822   4.630
 2599TIP3   OH2 7741   5.509   6.049   3.951
 2599TIP3    H1 7742   5.534   6.052   3.859
 2599TIP3    H2 7743   5.450   5.974   3.957
 2600TIP3   OH2 7744   1.872   2.480   0.973
 2600TIP3    H1 7745   1.921   2.548   1.019
 2600TIP3    H2 7746   1.930   2.455   0.900
 2601TIP3   OH2 7747   4.515   1.305   4.454
 2601TIP3    H1 7748   4.529   1.300   4.549
 2601TIP3    H2 7749   4.594   1.346   4.421
 2602TIP3   OH2 7750   6.672   2.691   4.302
 2602TIP3    H1 7751   6.618   2.646   4.237
 2602TIP3    H2 7752   6.724   2.753   4.251
 2603TIP3   OH2 7753   5.133   5.606   2.730
 2603TIP3    H1 7754   5.076   5.534   2.757
 2603TIP3    H2 7755   5.205   5.605   2.793
 2604TIP3   OH2 7756   6.637   1.473   1.824
 2604TIP3    H1 7757   6.715   1.452   1.876
 2604TIP3    H2 7758   6.647   1.422   1.744
 2605TIP3   OH2 7759   6.972   4.988   4.698
 2605TIP3    H1 7760   7.038   5.027   4.755
 2605TIP3    H2 7761   6.926   5.064   4.660
 2606TIP3   OH2 7762   3.093   6.846   4.807
 2606TIP3    H1 7763   3.131   6.920   4.759
 2606TIP3    H2 7764   3.037   6.802   4.742
 2607TIP3   OH2 7765   7.035   3.370   2.599
 2607TIP3    H1 7766   7.086   3.439   2.642
 2607TIP3    H2 7767   6.984   3.331   2.670
 2608TIP3   OH2 7768   4.575   1.355   6.513
 2608TIP3    H1 7769   4.601   1.271   6.475
 2608TIP3    H2 7770   4.548   1.408   6.439
 2609TIP3   OH2 7771   5.511   7.044   0.772
 2609TIP3    H1 7772   5.528   7.047   0.678
 2609TIP3    H2 7773   5.443   6.977   0.782
 2610TIP3   OH2 7774   1.535   1.320   6.425
 2610TIP3    H1 7775   1.597   1.288   6.359
 2610TIP3    H2 7776   1.498   1.241   6.463
 2611TIP3   OH2 7777   3.674   7.549   0.030
 2611TIP3    H1 7778   3.732   7.584   0.097
 2611TIP3    H2 7779   3.595   7.603   0.036
 2612TIP3   OH2 7780   4.450   3.408   4.231
 2612TIP3    H1 7781   4.451   3.503   4.236
 2612TIP3    H2 7782   4.529   3.380   4.277
 2613TIP3   OH2 7783   1.943   7.029   2.424
 2613TIP3    H1 7784   1.955   7.012   2.517
 2613TIP3    H2 7785   2.031   7.021   2.386
 2614TIP3   OH2 7786   4.609   0.005   5.065
 2614TIP3    H1 7787   4.577   0.036   4.980
 2614TIP3    H2 7788   4.703  -0.004   5.054
 2615TIP3   OH2 7789   1.945   6.294   3.723
 2615TIP3    H1 7790   1.891   6.311   3.646
 2615TIP3    H2 7791   1.961   6.381   3.761
 2616TIP3   OH2 7792   2.915   2.357   6.149
 2616TIP3    H1 7793   2.832   2.337   6.105
 2616TIP3    H2 7794   2.979   2.301   6.105
 2617TIP3   OH2 7795   3.976   4.335   3.552
 2617TIP3    H1 7796   3.929   4.413   3.580
 2617TIP3    H2 7797   4.009   4.356   3.465
 2618TIP3   OH2 7798   3.431   7.601   2.423
 2618TIP3    H1 7799   3.380   7.637   2.496
 2618TIP3    H2 7800   3.447   7.510   2.448
 2619TIP3   OH2 7801   0.817   6.756   0.977
 2619TIP3    H1 7802   0.831   6.851   0.970
 2619TIP3    H2 7803   0.905   6.720   0.984
 2620TIP3   OH2 7804   6.830   5.260   0.229
 2620TIP3    H1 7805   6.850   5.230   0.141
 2620TIP3    H2 7806   6.836   5.182   0.283
 2621TIP3   OH2 7807   1.137   7.370   5.670
 2621TIP3    H1 7808   1.088   7.396   5.748
 2621TIP3    H2 7809   1.223   7.345   5.705
 2622TIP3   OH2 7810   0.751   4.616   1.769
 2622TIP3    H1 7811   0.666   4.577   1.787
 2622TIP3    H2 7812   0.801   4.546   1.725
 2623TIP3   OH2 7813   1.894   1.624   4.619
 2623TIP3    H1 7814   1.965   1.604   4.680
 2623TIP3    H2 7815   1.818   1.637   4.675
 2624TIP3   OH2 7816   0.173   4.873   6.538
 2624TIP3    H1 7817   0.087   4.863   6.580
 2624TIP3    H2 7818   0.172   4.962   6.502
 2625TIP3   OH2 7819   3.348   5.306   3.747
 2625TIP3    H1 7820   3.404   5.233   3.718
 2625TIP3    H2 7821   3.261   5.284   3.714
 2626TIP3   OH2 7822   6.625   4.579   5.115
 2626TIP3    H1 7823   6.681   4.650   5.147
 2626TIP3    H2 7824   6.584   4.543   5.194
 2627TIP3   OH2 7825   1.165   2.918   6.218
 2627TIP3    H1 7826   1.185   3.006   6.250
 2627TIP3    H2 7827   1.248   2.884   6.186
 2628TIP3   OH2 7828   6.838   3.844   2.461
 2628TIP3    H1 7829   6.877   3.908   2.521
 2628TIP3    H2 7830   6.809   3.895   2.386
 2629TIP3   OH2 7831   6.718  -0.007   0.874
 2629TIP3    H1 7832   6.642  -0.061   0.897
 2629TIP3    H2 7833   6.688   0.083   0.888
 2630TIP3   OH2 7834   4.386   4.603   5.620
 2630TIP3    H1 7835   4.435   4.646   5.690
 2630TIP3    H2 7836   4.436   4.524   5.601
 2631TIP3   OH2 7837   3.824   4.833   1.867
 2631TIP3    H1 7838   3.900   4.783   1.897
 2631TIP3    H2 7839   3.856   4.881   1.790
 2632TIP3   OH2 7840   5.373   0.721   0.194
 2632TIP3    H1 7841   5.317   0.729   0.271
 2632TIP3    H2 7842   5.319   0.751   0.121
 2633TIP3   OH2 7843   6.299   6.013   3.905
 2633TIP3    H1 7844   6.353   6.065   3.846
 2633TIP3    H2 7845   6.285   5.930   3.859
 2634TIP3   OH2 7846   6.206   5.139   4.909
 2634TIP3    H1 7847   6.275   5.204   4.921
 2634TIP3    H2 7848   6.156   5.169   4.833
 2635TIP3   OH2 7849   7.300   0.305   3.240
 2635TIP3    H1 7850   7.321   0.383   3.291
 2635TIP3    H2 7851   7.257   0.247   3.303
 2636TIP3   OH2 7852   6.039   5.798   3.769
 2636TIP3    H1 7853   6.013   5.840   3.851
 2636TIP3    H2 7854   6.115   5.848   3.740
 2637TIP3   OH2 7855   7.047   4.569   6.500
 2637TIP3    H1 7856   7.001   4.648   6.472
 2637TIP3    H2 7857   7.079   4.529   6.419
 2638TIP3   OH2 7858   3.953   0.488   4.804
 2638TIP3    H1 7859   3.865   0.454   4.785
 2638TIP3    H2 7860   3.963   0.563   4.746
 2639TIP3   OH2 7861   4.117   3.411   5.529
 2639TIP3    H1 7862   4.136   3.358   5.452
 2639TIP3    H2 7863   4.200   3.453   5.551
 2640TIP3   OH2 7864   3.375   0.636   2.024
 2640TIP3    H1 7865   3.289   0.611   2.057
 2640TIP3    H2 7866   3.402   0.708   2.080
 2641TIP3   OH2 7867   3.873   1.086   3.528
 2641TIP3    H1 7868   3.888   1.115   3.618
 2641TIP3    H2 7869   3.961   1.071   3.492
 2642TIP3   OH2 7870   0.709   5.180   1.735
 2642TIP3    H1 7871   0.785   5.172   1.792
 2642TIP3    H2 7872   0.709   5.272   1.708
 2643TIP3   OH2 7873   3.260   6.109   2.094
 2643TIP3    H1 7874   3.315   6.170   2.046
 2643TIP3    H2 7875   3.224   6.050   2.028
 2644TIP3   OH2 7876   4.089   0.751   5.439
 2644TIP3    H1 7877   4.157   0.706   5.489
 2644TIP3    H2 7878   4.014   0.692   5.443
 2645TIP3   OH2 7879   2.638   2.079   5.018
 2645TIP3    H1 7880   2.612   2.041   5.102
 2645TIP3    H2 7881   2.699   2.150   5.042
 2646TIP3   OH2 7882   2.704   3.500   2.214
 2646TIP3    H1 7883   2.732   3.582   2.174
 2646TIP3    H2 7884   2.619   3.483   2.174
 2647TIP3   OH2 7885   2.262   6.304   3.422
 2647TIP3    H1 7886   2.283   6.392   3.454
 2647TIP3    H2 7887   2.338   6.279   3.369
 2648TIP3   OH2 7888   4.446   0.681   0.289
 2648TIP3    H1 7889   4.382   0.623   0.248
 2648TIP3    H2 7890   4.531   0.645   0.262
 2649TIP3   OH2 7891   6.670   4.162   0.207
 2649TIP3    H1 7892   6.578   4.145   0.188
 2649TIP3    H2 7893   6.670   4.234   0.269
 2650TIP3   OH2 7894   3.762   6.459   5.169
 2650TIP3    H1 7895   3.791   6.431   5.256
 2650TIP3    H2 7896   3.841   6.454   5.114
 2651TIP3   OH2 7897   2.644   3.047   3.774
 2651TIP3    H1 7898   2.705   2.976   3.793
 2651TIP3    H2 7899   2.596   3.016   3.697
 2652TIP3   OH2 7900   2.203   7.329   5.263
 2652TIP3    H1 7901   2.293   7.350   5.239
 2652TIP3    H2 7902   2.168   7.411   5.300
 2653TIP3   OH2 7903   8.226   0.611   1.390
 2653TIP3    H1 7904   8.252   0.526   1.355
 2653TIP3    H2 7905   8.298   0.637   1.447
 2654TIP3   OH2 7906   4.448   1.893   5.402
 2654TIP3    H1 7907   4.446   1.884   5.306
 2654TIP3    H2 7908   4.356   1.882   5.428
 2655TIP3   OH2 7909   0.351   2.217   1.918
 2655TIP3    H1 7910   0.440   2.197   1.887
 2655TIP3    H2 7911   0.322   2.290   1.863
 2656TIP3   OH2 7912   0.012   7.056   5.067
 2656TIP3    H1 7913   0.067   7.068   5.144
 2656TIP3    H2 7914  -0.046   6.984   5.089
 2657TIP3   OH2 7915   2.915   6.767   0.638
 2657TIP3    H1 7916   2.828   6.772   0.599
 2657TIP3    H2 7917   2.947   6.680   0.615
 2658TIP3   OH2 7918   0.792   7.445   3.947
 2658TIP3    H1 7919   0.757   7.373   4.000
 2658TIP3    H2 7920   0.715   7.482   3.903
 2659TIP3   OH2 7921   4.892   7.427   1.586
 2659TIP3    H1 7922   4.898   7.439   1.492
 2659TIP3    H2 7923   4.980   7.399   1.612
 2660TIP3   OH2 7924   7.515   5.306   2.013
 2660TIP3    H1 7925   7.592   5.250   2.019
 2660TIP3    H2 7926   7.540   5.374   1.950
 2661TIP3   OH2 7927   4.326   2.037   5.126
 2661TIP3    H1 7928   4.370   2.114   5.162
 2661TIP3    H2 7929   4.252   2.072   5.077
 2662TIP3   OH2 7930   3.527   3.033   3.706
 2662TIP3    H1 7931   3.551   2.944   3.732
 2662TIP3    H2 7932   3.439   3.025   3.669
 2663TIP3   OH2 7933   0.036   3.670   2.879
 2663TIP3    H1 7934   0.033   3.764   2.863
 2663TIP3    H2 7935   0.119   3.656   2.925
 2664TIP3   OH2 7936   7.757   1.160   4.993
 2664TIP3    H1 7937   7.675   1.134   5.034
 2664TIP3    H2 7938   7.730   1.199   4.909
 2665TIP3   OH2 7939   0.166   7.251   0.793
 2665TIP3    H1 7940   0.167   7.342   0.821
 2665TIP3    H2 7941   0.137   7.202   0.871
 2666TIP3   OH2 7942   5.543   2.900   2.443
 2666TIP3    H1 7943   5.544   2.808   2.467
 2666TIP3    H2 7944   5.502   2.902   2.356
 2667TIP3   OH2 7945   0.360   6.459   6.394
 2667TIP3    H1 7946   0.346   6.461   6.299
 2667TIP3    H2 7947   0.272   6.444   6.431
 2668TIP3   OH2 7948   4.192   1.853   4.468
 2668TIP3    H1 7949   4.097   1.853   4.456
 2668TIP3    H2 7950   4.227   1.875   4.381
 2669TIP3   OH2 7951   5.965   0.742   3.173
 2669TIP3    H1 7952   6.040   0.687   3.151
 2669TIP3    H2 7953   6.002   0.826   3.199
 2670TIP3   OH2 7954   8.106   2.224   1.073
 2670TIP3    H1 7955   8.131   2.140   1.111
 2670TIP3    H2 7956   8.021   2.244   1.112
 2671TIP3   OH2 7957   0.920   0.005   0.319
 2671TIP3    H1 7958   0.995   0.055   0.352
 2671TIP3    H2 7959   0.874   0.067   0.262
 2672TIP3   OH2 7960   5.313   2.610   1.910
 2672TIP3    H1 7961   5.338   2.540   1.970
 2672TIP3    H2 7962   5.372   2.682   1.932
 2673TIP3   OH2 7963   6.426   1.530   2.952
 2673TIP3    H1 7964   6.469   1.454   2.912
 2673TIP3    H2 7965   6.489   1.602   2.939
 2674TIP3   OH2 7966   3.488   2.220   0.750
 2674TIP3    H1 7967   3.526   2.256   0.670
 2674TIP3    H2 7968   3.482   2.294   0.810
 2675TIP3   OH2 7969   6.057   3.020   5.474
 2675TIP3    H1 7970   5.982   3.069   5.439
 2675TIP3    H2 7971   6.113   3.087   5.514
 2676TIP3   OH2 7972   5.744   0.096   0.485
 2676TIP3    H1 7973   5.785   0.009   0.479
 2676TIP3    H2 7974   5.725   0.119   0.394
 2677TIP3   OH2 7975   5.445   3.599   2.839
 2677TIP3    H1 7976   5.420   3.593   2.746
 2677TIP3    H2 7977   5.519   3.660   2.839
 2678TIP3   OH2 7978   6.861   6.158   6.400
 2678TIP3    H1 7979   6.945   6.116   6.383
 2678TIP3    H2 7980   6.827   6.115   6.478
 2679TIP3   OH2 7981   5.258   6.020   0.584
 2679TIP3    H1 7982   5.283   5.928   0.568
 2679TIP3    H2 7983   5.162   6.020   0.576
 2680TIP3   OH2 7984   4.844   0.391   6.724
 2680TIP3    H1 7985   4.803   0.311   6.692
 2680TIP3    H2 7986   4.934   0.387   6.692
 2681TIP3   OH2 7987   2.427   1.361   6.100
 2681TIP3    H1 7988   2.343   1.390   6.136
 2681TIP3    H2 7989   2.413   1.269   6.077
 2682TIP3   OH2 7990   3.255   5.486   0.300
 2682TIP3    H1 7991   3.315   5.444   0.362
 2682TIP3    H2 7992   3.247   5.576   0.332
 2683TIP3   OH2 7993   7.891   2.893   5.666
 2683TIP3    H1 7994   7.939   2.872   5.586
 2683TIP3    H2 7995   7.801   2.863   5.649
 2684TIP3   OH2 7996   7.689   4.086   5.529
 2684TIP3    H1 7997   7.744   4.036   5.469
 2684TIP3    H2 7998   7.611   4.108   5.479
 2685TIP3   OH2 7999   5.155   4.114   4.392
 2685TIP3    H1 8000   5.203   4.187   4.353
 2685TIP3    H2 8001   5.127   4.061   4.317
 2686TIP3   OH2 8002   5.781   0.166   1.498
 2686TIP3    H1 8003   5.835   0.098   1.538
 2686TIP3    H2 8004   5.693   0.128   1.496
 2687TIP3   OH2 8005   0.935   3.495   3.408
 2687TIP3    H1 8006   0.975   3.546   3.478
 2687TIP3    H2 8007   0.887   3.425   3.453
 2688TIP3   OH2 8008   2.051   4.951   3.695
 2688TIP3    H1 8009   2.018   4.989   3.776
 2688TIP3    H2 8010   2.132   4.907   3.721
 2689TIP3   OH2 8011   1.126   5.291   4.191
 2689TIP3    H1 8012   1.094   5.250   4.111
 2689TIP3    H2 8013   1.220   5.300   4.177
 2690TIP3   OH2 8014   2.177   6.127   6.312
 2690TIP3    H1 8015   2.229   6.181   6.372
 2690TIP3    H2 8016   2.172   6.042   6.356
 2691TIP3   OH2 8017   5.557   0.643   4.374
 2691TIP3    H1 8018   5.550   0.736   4.353
 2691TIP3    H2 8019   5.650   0.624   4.365
 2692TIP3   OH2 8020   5.644   0.976   3.585
 2692TIP3    H1 8021   5.557   1.001   3.617
 2692TIP3    H2 8022   5.662   1.038   3.515
 2693TIP3   OH2 8023   3.243   1.925   5.969
 2693TIP3    H1 8024   3.317   1.898   6.024
 2693TIP3    H2 8025   3.244   1.865   5.895
 2694TIP3   OH2 8026   1.040   1.373   0.371
 2694TIP3    H1 8027   1.054   1.312   0.444
 2694TIP3    H2 8028   1.101   1.343   0.303
 2695TIP3   OH2 8029   3.840   5.926   6.451
 2695TIP3    H1 8030   3.931   5.911   6.475
 2695TIP3    H2 8031   3.833   5.897   6.360
 2696TIP3   OH2 8032   4.650   1.788   2.568
 2696TIP3    H1 8033   4.626   1.850   2.499
 2696TIP3    H2 8034   4.738   1.815   2.595
 2697TIP3   OH2 8035   3.852   7.308   1.602
 2697TIP3    H1 8036   3.769   7.323   1.647
 2697TIP3    H2 8037   3.855   7.376   1.534
 2698TIP3   OH2 8038   2.226   0.584   6.396
 2698TIP3    H1 8039   2.308   0.581   6.445
 2698TIP3    H2 8040   2.252   0.575   6.304
 2699TIP3   OH2 8041   4.832   3.134   5.296
 2699TIP3    H1 8042   4.755   3.185   5.274
 2699TIP3    H2 8043   4.868   3.178   5.374
 2700TIP3   OH2 8044   2.189   1.848   5.564
 2700TIP3    H1 8045   2.164   1.868   5.473
 2700TIP3    H2 8046   2.107   1.827   5.607
 2701TIP3   OH2 8047   6.726   7.390   0.453
 2701TIP3    H1 8048   6.786   7.451   0.495
 2701TIP3    H2 8049   6.755   7.386   0.362
 2702TIP3   OH2 8050   0.490   3.031   3.966
 2702TIP3    H1 8051   0.528   2.944   3.974
 2702TIP3    H2 8052   0.433   3.025   3.889
 2703TIP3   OH2 8053   5.812   1.930   2.529
 2703TIP3    H1 8054   5.772   2.015   2.548
 2703TIP3    H2 8055   5.748   1.866   2.558
 2704TIP3   OH2 8056   3.302   0.673   3.175
 2704TIP3    H1 8057   3.387   0.692   3.216
 2704TIP3    H2 8058   3.278   0.586   3.208
 2705TIP3   OH2 8059   7.951   5.134   4.348
 2705TIP3    H1 8060   7.973   5.228   4.346
 2705TIP3    H2 8061   7.974   5.102   4.261
 2706TIP3   OH2 8062   7.318   3.697   3.200
 2706TIP3    H1 8063   7.356   3.692   3.287
 2706TIP3    H2 8064   7.392   3.715   3.142
 2707TIP3   OH2 8065   0.771   6.318   1.583
 2707TIP3    H1 8066   0.732   6.393   1.538
 2707TIP3    H2 8067   0.706   6.248   1.573
 2708TIP3   OH2 8068   7.626   1.246   3.789
 2708TIP3    H1 8069   7.558   1.313   3.782
 2708TIP3    H2 8070   7.612   1.190   3.712
 2709TIP3   OH2 8071   8.284   5.429   3.401
 2709TIP3    H1 8072   8.366   5.402   3.360
 2709TIP3    H2 8073   8.296   5.410   3.494
 2710TIP3   OH2 8074   8.043   3.717   5.353
 2710TIP3    H1 8075   8.080   3.636   5.387
 2710TIP3    H2 8076   8.110   3.783   5.370
 2711TIP3   OH2 8077   1.005   7.499   2.470
 2711TIP3    H1 8078   0.978   7.421   2.423
 2711TIP3    H2 8079   0.949   7.569   2.435
 2712TIP3   OH2 8080   4.702   1.967   6.038
 2712TIP3    H1 8081   4.770   1.978   5.971
 2712TIP3    H2 8082   4.661   1.883   6.019
 2713TIP3   OH2 8083   7.345   4.579   2.665
 2713TIP3    H1 8084   7.367   4.496   2.624
 2713TIP3    H2 8085   7.424   4.632   2.658
 2714TIP3   OH2 8086   7.654   3.107   4.210
 2714TIP3    H1 8087   7.666   3.151   4.127
 2714TIP3    H2 8088   7.703   3.160   4.273
 2715TIP3   OH2 8089   4.520   6.283   5.469
 2715TIP3    H1 8090   4.566   6.250   5.391
 2715TIP3    H2 8091   4.455   6.344   5.434
 2716TIP3   OH2 8092   8.182   6.881   2.019
 2716TIP3    H1 8093   8.172   6.859   1.927
 2716TIP3    H2 8094   8.104   6.843   2.061
 2717TIP3   OH2 8095   1.249   4.684   1.387
 2717TIP3    H1 8096   1.198   4.603   1.379
 2717TIP3    H2 8097   1.273   4.688   1.479
 2718TIP3   OH2 8098   7.959   0.291   1.627
 2718TIP3    H1 8099   7.868   0.260   1.625
 2718TIP3    H2 8100   7.967   0.348   1.551
 2719TIP3   OH2 8101   3.788   1.038   2.375
 2719TIP3    H1 8102   3.763   1.001   2.291
 2719TIP3    H2 8103   3.835   0.968   2.421
 2720TIP3   OH2 8104   7.456   7.497   2.938
 2720TIP3    H1 8105   7.484   7.428   2.877
 2720TIP3    H2 8106   7.498   7.475   3.021
 2721TIP3   OH2 8107   5.996   1.301   0.254
 2721TIP3    H1 8108   5.978   1.245   0.179
 2721TIP3    H2 8109   6.090   1.320   0.248
 2722TIP3   OH2 8110   1.769   0.871   0.573
 2722TIP3    H1 8111   1.821   0.948   0.550
 2722TIP3    H2 8112   1.680   0.894   0.547
 2723TIP3   OH2 8113   2.867   0.891   6.380
 2723TIP3    H1 8114   2.776   0.882   6.354
 2723TIP3    H2 8115   2.871   0.975   6.426
 2724TIP3   OH2 8116   6.061   4.110   0.385
 2724TIP3    H1 8117   6.065   4.192   0.336
 2724TIP3    H2 8118   6.126   4.121   0.455
 2725TIP3   OH2 8119   2.435   5.905   3.805
 2725TIP3    H1 8120   2.488   5.963   3.861
 2725TIP3    H2 8121   2.487   5.894   3.726
 2726TIP3   OH2 8122   3.571   5.044   2.775
 2726TIP3    H1 8123   3.582   5.136   2.798
 2726TIP3    H2 8124   3.477   5.031   2.768
 2727TIP3   OH2 8125   0.851   5.702   4.987
 2727TIP3    H1 8126   0.943   5.726   5.004
 2727TIP3    H2 8127   0.847   5.608   5.007
 2728TIP3   OH2 8128   1.884   2.760   1.102
 2728TIP3    H1 8129   1.901   2.849   1.133
 2728TIP3    H2 8130   1.897   2.765   1.008
 2729TIP3   OH2 8131   7.325   6.771   1.118
 2729TIP3    H1 8132   7.305   6.701   1.056
 2729TIP3    H2 8133   7.358   6.843   1.065
 2730TIP3   OH2 8134   5.556   4.159   1.768
 2730TIP3    H1 8135   5.593   4.201   1.845
 2730TIP3    H2 8136   5.630   4.115   1.727
 2731TIP3   OH2 8137   0.463   3.940   0.663
 2731TIP3    H1 8138   0.468   4.035   0.660
 2731TIP3    H2 8139   0.550   3.913   0.694
 2732TIP3   OH2 8140   4.087   3.585   6.616
 2732TIP3    H1 8141   4.032   3.538   6.554
 2732TIP3    H2 8142   4.173   3.544   6.608
 2733TIP3   OH2 8143   6.453   0.018   4.591
 2733TIP3    H1 8144   6.517  -0.003   4.523
 2733TIP3    H2 8145   6.368   0.000   4.552
 2734TIP3   OH2 8146   7.289   2.506   2.849
 2734TIP3    H1 8147   7.251   2.420   2.864
 2734TIP3    H2 8148   7.358   2.491   2.784
 2735TIP3   OH2 8149   1.769   7.812   1.186
 2735TIP3    H1 8150   1.685   7.777   1.154
 2735TIP3    H2 8151   1.745   7.868   1.260
 2736TIP3   OH2 8152   3.044   5.222   3.693
 2736TIP3    H1 8153   3.046   5.199   3.786
 2736TIP3    H2 8154   3.048   5.138   3.648
 2737TIP3   OH2 8155   3.025   4.615   4.833
 2737TIP3    H1 8156   3.087   4.632   4.762
 2737TIP3    H2 8157   2.960   4.686   4.826
 2738TIP3   OH2 8158   6.004   2.529   2.665
 2738TIP3    H1 8159   6.022   2.477   2.587
 2738TIP3    H2 8160   5.936   2.591   2.637
 2739TIP3   OH2 8161   1.653   3.440   4.757
 2739TIP3    H1 8162   1.590   3.475   4.820
 2739TIP3    H2 8163   1.629   3.480   4.674
 2740TIP3   OH2 8164   3.156   1.436   5.662
 2740TIP3    H1 8165   3.144   1.503   5.595
 2740TIP3    H2 8166   3.216   1.373   5.622
 2741TIP3   OH2 8167   0.607   7.076   6.289
 2741TIP3    H1 8168   0.701   7.060   6.284
 2741TIP3    H2 8169   0.587   7.123   6.208
 2742TIP3   OH2 8170   2.472   2.350   5.694
 2742TIP3    H1 8171   2.421   2.272   5.671
 2742TIP3    H2 8172   2.562   2.327   5.674
 2743TIP3   OH2 8173   0.260   3.763   4.475
 2743TIP3    H1 8174   0.207   3.700   4.428
 2743TIP3    H2 8175   0.220   3.770   4.562
 2744TIP3   OH2 8176   3.691   5.069   1.902
 2744TIP3    H1 8177   3.703   4.977   1.877
 2744TIP3    H2 8178   3.694   5.069   1.997
 2745TIP3   OH2 8179   0.905   7.827   2.591
 2745TIP3    H1 8180   0.816   7.792   2.596
 2745TIP3    H2 8181   0.935   7.803   2.503
 2746TIP3   OH2 8182   4.646   6.427   3.391
 2746TIP3    H1 8183   4.588   6.495   3.424
 2746TIP3    H2 8184   4.728   6.440   3.439
 2747TIP3   OH2 8185   7.511   3.196   0.761
 2747TIP3    H1 8186   7.570   3.173   0.689
 2747TIP3    H2 8187   7.459   3.118   0.777
 2748TIP3   OH2 8188   7.785   1.531   2.175
 2748TIP3    H1 8189   7.856   1.476   2.143
 2748TIP3    H2 8190   7.707   1.476   2.169
 2749TIP3   OH2 8191   2.987   6.413   1.368
 2749TIP3    H1 8192   2.914   6.475   1.365
 2749TIP3    H2 8193   2.966   6.355   1.441
 2750TIP3   OH2 8194   0.877   4.087   5.837
 2750TIP3    H1 8195   0.953   4.080   5.779
 2750TIP3    H2 8196   0.908   4.142   5.910
 2751TIP3   OH2 8197   8.062   1.032   0.205
 2751TIP3    H1 8198   8.109   1.067   0.129
 2751TIP3    H2 8199   7.991   0.980   0.168
 2752TIP3   OH2 8200   7.699   4.706   5.550
 2752TIP3    H1 8201   7.741   4.762   5.615
 2752TIP3    H2 8202   7.628   4.663   5.597
 2753TIP3   OH2 8203   7.419   6.789   1.660
 2753TIP3    H1 8204   7.355   6.860   1.665
 2753TIP3    H2 8205   7.436   6.777   1.567
 2754TIP3   OH2 8206   0.922   4.729   0.019
 2754TIP3    H1 8207   0.979   4.680  -0.039
 2754TIP3    H2 8208   0.961   4.718   0.106
 2755TIP3   OH2 8209   5.165   6.840   5.570
 2755TIP3    H1 8210   5.128   6.860   5.657
 2755TIP3    H2 8211   5.207   6.755   5.582
 2756TIP3   OH2 8212   8.232   1.963   2.686
 2756TIP3    H1 8213   8.148   1.920   2.675
 2756TIP3    H2 8214   8.243   2.016   2.607
 2757TIP3   OH2 8215   0.815   6.494  -0.021
 2757TIP3    H1 8216   0.865   6.420   0.013
 2757TIP3    H2 8217   0.739   6.500   0.037
 2758TIP3   OH2 8218   3.043   0.710   6.510
 2758TIP3    H1 8219   2.990   0.771   6.458
 2758TIP3    H2 8220   3.117   0.688   6.453
 2759TIP3   OH2 8221   1.058   4.010   4.500
 2759TIP3    H1 8222   1.132   4.006   4.560
 2759TIP3    H2 8223   1.019   3.922   4.503
 2760TIP3   OH2 8224   3.714   5.493   2.801
 2760TIP3    H1 8225   3.702   5.570   2.746
 2760TIP3    H2 8226   3.762   5.525   2.877
 2761TIP3   OH2 8227   2.679   6.310   2.997
 2761TIP3    H1 8228   2.761   6.328   2.951
 2761TIP3    H2 8229   2.659   6.219   2.976
 2762TIP3   OH2 8230   7.607   1.354   1.020
 2762TIP3    H1 8231   7.573   1.270   0.990
 2762TIP3    H2 8232   7.607   1.347   1.115
 2763TIP3   OH2 8233   0.364   6.839   6.354
 2763TIP3    H1 8234   0.271   6.837   6.376
 2763TIP3    H2 8235   0.409   6.849   6.438
 2764TIP3   OH2 8236   0.869   5.230   2.359
 2764TIP3    H1 8237   0.909   5.143   2.364
 2764TIP3    H2 8238   0.943   5.290   2.345
 2765TIP3   OH2 8239   7.482   3.695   6.027
 2765TIP3    H1 8240   7.418   3.742   6.081
 2765TIP3    H2 8241   7.545   3.762   6.001
 2766TIP3   OH2 8242   3.479   0.039   1.602
 2766TIP3    H1 8243   3.429   0.094   1.541
 2766TIP3    H2 8244   3.497   0.096   1.676
 2767TIP3   OH2 8245   7.391   7.049   6.092
 2767TIP3    H1 8246   7.431   7.111   6.153
 2767TIP3    H2 8247   7.310   7.091   6.065
 2768TIP3   OH2 8248   0.152   1.600   5.019
 2768TIP3    H1 8249   0.239   1.587   4.980
 2768TIP3    H2 8250   0.094   1.548   4.964
 2769TIP3   OH2 8251   7.715   7.377   3.675
 2769TIP3    H1 8252   7.797   7.385   3.626
 2769TIP3    H2 8253   7.739   7.323   3.751
 2770TIP3   OH2 8254   6.204   6.128   0.446
 2770TIP3    H1 8255   6.289   6.095   0.418
 2770TIP3    H2 8256   6.174   6.065   0.512
 2771TIP3   OH2 8257   6.713   4.976   2.213
 2771TIP3    H1 8258   6.618   4.990   2.211
 2771TIP3    H2 8259   6.728   4.905   2.152
 2772TIP3   OH2 8260   3.489   0.445   6.380
 2772TIP3    H1 8261   3.544   0.453   6.302
 2772TIP3    H2 8262   3.429   0.373   6.359
 2773TIP3   OH2 8263   6.391   4.097   4.473
 2773TIP3    H1 8264   6.470   4.076   4.522
 2773TIP3    H2 8265   6.328   4.122   4.541
 2774TIP3   OH2 8266   1.787   6.492   4.885
 2774TIP3    H1 8267   1.719   6.424   4.888
 2774TIP3    H2 8268   1.861   6.455   4.933
 2775TIP3   OH2 8269   4.504   6.465   1.486
 2775TIP3    H1 8270   4.543   6.459   1.398
 2775TIP3    H2 8271   4.411   6.453   1.471
 2776TIP3   OH2 8272   3.822   5.807   5.816
 2776TIP3    H1 8273   3.789   5.814   5.905
 2776TIP3    H2 8274   3.747   5.830   5.760
 2777TIP3   OH2 8275   5.593   4.770   5.411
 2777TIP3    H1 8276   5.535   4.718   5.356
 2777TIP3    H2 8277   5.564   4.860   5.399
 2778TIP3   OH2 8278   6.824   0.906   5.623
 2778TIP3    H1 8279   6.912   0.867   5.622
 2778TIP3    H2 8280   6.833   0.985   5.676
 2779TIP3   OH2 8281   3.943   0.217   2.577
 2779TIP3    H1 8282   3.945   0.127   2.545
 2779TIP3    H2 8283   3.850   0.240   2.578
 2780TIP3   OH2 8284   0.055   2.418   3.176
 2780TIP3    H1 8285   0.072   2.509   3.200
 2780TIP3    H2 8286   0.067   2.369   3.258
 2781TIP3   OH2 8287   3.950   1.917   5.498
 2781TIP3    H1 8288   3.986   1.995   5.457
 2781TIP3    H2 8289   4.011   1.897   5.569
 2782TIP3   OH2 8290   4.117   4.296   5.972
 2782TIP3    H1 8291   4.205   4.293   5.935
 2782TIP3    H2 8292   4.109   4.385   6.007
 2783TIP3   OH2 8293   2.816   0.481   0.557
 2783TIP3    H1 8294   2.822   0.520   0.469
 2783TIP3    H2 8295   2.779   0.394   0.542
 2784TIP3   OH2 8296   4.483   1.953   2.362
 2784TIP3    H1 8297   4.391   1.965   2.337
 2784TIP3    H2 8298   4.523   2.039   2.346
 2785TIP3   OH2 8299   7.521   5.079   6.449
 2785TIP3    H1 8300   7.470   5.160   6.451
 2785TIP3    H2 8301   7.510   5.042   6.537
 2786TIP3   OH2 8302   0.363   3.351   0.716
 2786TIP3    H1 8303   0.382   3.259   0.696
 2786TIP3    H2 8304   0.284   3.347   0.770
 2787TIP3   OH2 8305   6.923   1.696   3.985
 2787TIP3    H1 8306   6.888   1.688   4.073
 2787TIP3    H2 8307   7.018   1.705   3.997
 2788TIP3   OH2 8308   0.555   1.909   5.138
 2788TIP3    H1 8309   0.598   1.826   5.114
 2788TIP3    H2 8310   0.604   1.940   5.214
 2789TIP3   OH2 8311   2.825   3.779   6.023
 2789TIP3    H1 8312   2.741   3.804   5.984
 2789TIP3    H2 8313   2.801   3.743   6.109
 2790TIP3   OH2 8314   4.480   7.101   0.826
 2790TIP3    H1 8315   4.449   7.152   0.751
 2790TIP3    H2 8316   4.400   7.068   0.867
 2791TIP3   OH2 8317   4.707   4.976   4.272
 2791TIP3    H1 8318   4.783   4.988   4.330
 2791TIP3    H2 8319   4.631   4.993   4.328
 2792TIP3   OH2 8320   7.973   1.551   2.413
 2792TIP3    H1 8321   8.015   1.486   2.357
 2792TIP3    H2 8322   7.879   1.533   2.404
 2793TIP3   OH2 8323   6.285   1.986   4.332
 2793TIP3    H1 8324   6.380   1.984   4.340
 2793TIP3    H2 8325   6.262   2.078   4.346
 2794TIP3   OH2 8326   7.468   1.176   2.822
 2794TIP3    H1 8327   7.523   1.100   2.839
 2794TIP3    H2 8328   7.415   1.151   2.747
 2795TIP3   OH2 8329   4.801   4.884   2.243
 2795TIP3    H1 8330   4.709   4.877   2.269
 2795TIP3    H2 8331   4.822   4.976   2.253
 2796TIP3   OH2 8332   2.178   7.197   0.024
 2796TIP3    H1 8333   2.264   7.208  -0.017
 2796TIP3    H2 8334   2.129   7.276   0.000
 2797TIP3   OH2 8335   2.299   3.610   5.130
 2797TIP3    H1 8336   2.390   3.614   5.159
 2797TIP3    H2 8337   2.302   3.643   5.040
 2798TIP3   OH2 8338   3.675   7.306   0.343
 2798TIP3    H1 8339   3.698   7.386   0.297
 2798TIP3    H2 8340   3.657   7.333   0.433
 2799TIP3   OH2 8341   4.846   4.033   1.152
 2799TIP3    H1 8342   4.832   4.126   1.172
 2799TIP3    H2 8343   4.903   4.002   1.222
 2800TIP3   OH2 8344   7.036   4.110   3.488
 2800TIP3    H1 8345   7.083   4.059   3.422
 2800TIP3    H2 8346   6.963   4.055   3.514
 2801TIP3   OH2 8347   4.110   2.072   1.678
 2801TIP3    H1 8348   4.141   2.094   1.591
 2801TIP3    H2 8349   4.177   2.014   1.714
 2802TIP3   OH2 8350   2.473   0.887   2.139
 2802TIP3    H1 8351   2.398   0.895   2.080
 2802TIP3    H2 8352   2.548   0.872   2.082
 2803TIP3   OH2 8353   4.465   5.902   3.029
 2803TIP3    H1 8354   4.525   5.833   3.055
 2803TIP3    H2 8355   4.499   5.981   3.071
 2804TIP3   OH2 8356   5.709   4.533   5.102
 2804TIP3    H1 8357   5.762   4.471   5.153
 2804TIP3    H2 8358   5.691   4.487   5.020
 2805TIP3   OH2 8359   4.676   7.335   6.284
 2805TIP3    H1 8360   4.735   7.263   6.308
 2805TIP3    H2 8361   4.596   7.291   6.255
 2806TIP3   OH2 8362   7.346   1.767   3.338
 2806TIP3    H1 8363   7.308   1.783   3.252
 2806TIP3    H2 8364   7.296   1.692   3.373
 2807TIP3   OH2 8365   2.693   4.628   5.109
 2807TIP3    H1 8366   2.679   4.632   5.204
 2807TIP3    H2 8367   2.646   4.549   5.081
 2808TIP3   OH2 8368   7.090   2.041   6.245
 2808TIP3    H1 8369   7.170   2.079   6.280
 2808TIP3    H2 8370   7.019   2.095   6.280
 2809TIP3   OH2 8371   5.649   6.459   0.844
 2809TIP3    H1 8372   5.706   6.396   0.889
 2809TIP3    H2 8373   5.679   6.456   0.753
 2810TIP3   OH2 8374   4.585   2.765   6.565
 2810TIP3    H1 8375   4.566   2.858   6.561
 2810TIP3    H2 8376   4.583   2.736   6.474
 2811TIP3   OH2 8377   5.353   0.742   4.615
 2811TIP3    H1 8378   5.346   0.770   4.523
 2811TIP3    H2 8379   5.418   0.801   4.652
 2812TIP3   OH2 8380   0.694   2.260   3.189
 2812TIP3    H1 8381   0.708   2.351   3.165
 2812TIP3    H2 8382   0.634   2.264   3.264
 2813TIP3   OH2 8383   3.810   6.818   4.223
 2813TIP3    H1 8384   3.741   6.884   4.216
 2813TIP3    H2 8385   3.848   6.814   4.136
 2814TIP3   OH2 8386   4.529   0.570   2.786
 2814TIP3    H1 8387   4.554   0.616   2.867
 2814TIP3    H2 8388   4.433   0.566   2.790
 2815TIP3   OH2 8389   0.424   7.754   6.564
 2815TIP3    H1 8390   0.338   7.742   6.606
 2815TIP3    H2 8391   0.477   7.683   6.599
 2816TIP3   OH2 8392   2.087   1.170   3.611
 2816TIP3    H1 8393   2.017   1.110   3.637
 2816TIP3    H2 8394   2.095   1.158   3.516
 2817TIP3   OH2 8395   0.985   7.701   6.084
 2817TIP3    H1 8396   1.047   7.644   6.130
 2817TIP3    H2 8397   1.033   7.784   6.073
 2818TIP3   OH2 8398   4.746   3.781   2.650
 2818TIP3    H1 8399   4.760   3.697   2.694
 2818TIP3    H2 8400   4.657   3.807   2.676
 2819TIP3   OH2 8401   0.890   1.011   1.909
 2819TIP3    H1 8402   0.934   1.093   1.931
 2819TIP3    H2 8403   0.895   1.005   1.814
 2820TIP3   OH2 8404   7.681   0.076   0.936
 2820TIP3    H1 8405   7.649   0.157   0.976
 2820TIP3    H2 8406   7.605   0.041   0.890
 2821TIP3   OH2 8407   7.625   3.114   0.092
 2821TIP3    H1 8408   7.588   3.173   0.026
 2821TIP3    H2 8409   7.559   3.045   0.101
 2822TIP3   OH2 8410   5.482   7.023   0.483
 2822TIP3    H1 8411   5.418   7.067   0.427
 2822TIP3    H2 8412   5.567   7.057   0.454
 2823TIP3   OH2 8413   0.887   6.229   0.618
 2823TIP3    H1 8414   0.866   6.317   0.589
 2823TIP3    H2 8415   0.975   6.236   0.654
 2824TIP3   OH2 8416   3.918   5.316   0.450
 2824TIP3    H1 8417   4.003   5.322   0.493
 2824TIP3    H2 8418   3.884   5.231   0.476
 2825TIP3   OH2 8419   0.393   4.741   4.772
 2825TIP3    H1 8420   0.308   4.779   4.797
 2825TIP3    H2 8421   0.391   4.741   4.676
 2826TIP3   OH2 8422   1.689   2.067   6.248
 2826TIP3    H1 8423   1.736   2.102   6.173
 2826TIP3    H2 8424   1.758   2.038   6.308
 2827TIP3   OH2 8425   5.046   0.794   3.154
 2827TIP3    H1 8426   5.113   0.822   3.092
 2827TIP3    H2 8427   5.007   0.716   3.114
 2828TIP3   OH2 8428   5.276   3.030   0.333
 2828TIP3    H1 8429   5.304   3.016   0.243
 2828TIP3    H2 8430   5.346   3.082   0.372
 2829TIP3   OH2 8431   4.636   0.811   6.263
 2829TIP3    H1 8432   4.567   0.840   6.203
 2829TIP3    H2 8433   4.716   0.850   6.228
 2830TIP3   OH2 8434   2.536   2.044   2.985
 2830TIP3    H1 8435   2.478   2.079   3.052
 2830TIP3    H2 8436   2.511   1.952   2.978
 2831TIP3   OH2 8437   4.385   2.196   4.120
 2831TIP3    H1 8438   4.328   2.252   4.172
 2831TIP3    H2 8439   4.400   2.246   4.039
 2832TIP3   OH2 8440   4.719   1.915   5.345
 2832TIP3    H1 8441   4.702   1.997   5.299
 2832TIP3    H2 8442   4.647   1.907   5.407
 2833TIP3   OH2 8443   5.389   2.167   2.429
 2833TIP3    H1 8444   5.373   2.255   2.396
 2833TIP3    H2 8445   5.309   2.118   2.407
 2834TIP3   OH2 8446   1.895   0.845   6.036
 2834TIP3    H1 8447   1.835   0.771   6.027
 2834TIP3    H2 8448   1.924   0.841   6.128
 2835TIP3   OH2 8449   4.802   5.783   0.596
 2835TIP3    H1 8450   4.743   5.833   0.652
 2835TIP3    H2 8451   4.804   5.695   0.634
 2836TIP3   OH2 8452   5.213   4.170   0.502
 2836TIP3    H1 8453   5.272   4.179   0.427
 2836TIP3    H2 8454   5.143   4.113   0.469
 2837TIP3   OH2 8455   0.080   1.398   2.270
 2837TIP3    H1 8456   0.103   1.385   2.361
 2837TIP3    H2 8457   0.126   1.479   2.245
 2838TIP3   OH2 8458   2.269   3.150   3.100
 2838TIP3    H1 8459   2.321   3.228   3.080
 2838TIP3    H2 8460   2.279   3.138   3.194
 2839TIP3   OH2 8461   2.621   1.759   1.590
 2839TIP3    H1 8462   2.582   1.715   1.665
 2839TIP3    H2 8463   2.546   1.794   1.541
 2840TIP3   OH2 8464   6.531   2.729   5.296
 2840TIP3    H1 8465   6.449   2.688   5.268
 2840TIP3    H2 8466   6.511   2.822   5.302
 2841TIP3   OH2 8467   2.542   1.070   4.627
 2841TIP3    H1 8468   2.553   1.140   4.692
 2841TIP3    H2 8469   2.601   1.095   4.555
 2842TIP3   OH2 8470   1.998   5.092   3.927
 2842TIP3    H1 8471   2.078   5.125   3.968
 2842TIP3    H2 8472   1.987   5.004   3.964
 2843TIP3   OH2 8473   0.462   4.639   1.870
 2843TIP3    H1 8474   0.373   4.617   1.840
 2843TIP3    H2 8475   0.467   4.601   1.958
 2844TIP3   OH2 8476   2.157   6.477   6.657
 2844TIP3    H1 8477   2.237   6.527   6.671
 2844TIP3    H2 8478   2.156   6.412   6.727
 2845TIP3   OH2 8479   0.201   5.985   5.606
 2845TIP3    H1 8480   0.212   5.972   5.512
 2845TIP3    H2 8481   0.205   5.897   5.643
 2846TIP3   OH2 8482   4.495   6.443   2.428
 2846TIP3    H1 8483   4.500   6.380   2.356
 2846TIP3    H2 8484   4.504   6.390   2.507
 2847TIP3   OH2 8485   0.448   4.458   4.760
 2847TIP3    H1 8486   0.360   4.447   4.726
 2847TIP3    H2 8487   0.448   4.546   4.798
 2848TIP3   OH2 8488   4.887   2.595   2.385
 2848TIP3    H1 8489   4.874   2.525   2.320
 2848TIP3    H2 8490   4.833   2.667   2.353
 2849TIP3   OH2 8491   5.735   2.239   0.906
 2849TIP3    H1 8492   5.653   2.235   0.857
 2849TIP3    H2 8493   5.785   2.309   0.864
 2850TIP3   OH2 8494   0.769   4.334   0.793
 2850TIP3    H1 8495   0.770   4.244   0.762
 2850TIP3    H2 8496   0.791   4.387   0.716
 2851TIP3   OH2 8497   5.296   4.076   5.450
 2851TIP3    H1 8498   5.332   4.137   5.386
 2851TIP3    H2 8499   5.276   4.130   5.527
 2852TIP3   OH2 8500   7.204   3.752   4.233
 2852TIP3    H1 8501   7.163   3.669   4.255
 2852TIP3    H2 8502   7.298   3.734   4.234
 2853TIP3   OH2 8503   3.884   3.977   3.224
 2853TIP3    H1 8504   3.864   4.024   3.304
 2853TIP3    H2 8505   3.841   3.892   3.235
 2854TIP3   OH2 8506   6.840   3.203   3.328
 2854TIP3    H1 8507   6.775   3.167   3.269
 2854TIP3    H2 8508   6.799   3.199   3.415
 2855TIP3   OH2 8509   0.623   1.461   0.236
 2855TIP3    H1 8510   0.644   1.376   0.197
 2855TIP3    H2 8511   0.702   1.487   0.283
 2856TIP3   OH2 8512   6.000   6.165   6.463
 2856TIP3    H1 8513   5.944   6.088   6.470
 2856TIP3    H2 8514   6.027   6.182   6.553
 2857TIP3   OH2 8515   2.189   2.843   0.956
 2857TIP3    H1 8516   2.097   2.865   0.941
 2857TIP3    H2 8517   2.214   2.793   0.878
 2858TIP3   OH2 8518   5.045   5.011   0.533
 2858TIP3    H1 8519   4.973   5.045   0.586
 2858TIP3    H2 8520   5.112   4.987   0.596
 2859TIP3   OH2 8521   0.767   2.524   2.362
 2859TIP3    H1 8522   0.769   2.504   2.455
 2859TIP3    H2 8523   0.813   2.450   2.321
 2860TIP3   OH2 8524   4.747   2.150   5.689
 2860TIP3    H1 8525   4.653   2.165   5.682
 2860TIP3    H2 8526   4.759   2.116   5.777
 2861TIP3   OH2 8527   1.399   1.079   4.575
 2861TIP3    H1 8528   1.490   1.048   4.577
 2861TIP3    H2 8529   1.404   1.171   4.600
 2862TIP3   OH2 8530   0.647   4.545   2.751
 2862TIP3    H1 8531   0.552   4.539   2.748
 2862TIP3    H2 8532   0.678   4.463   2.712
 2863TIP3   OH2 8533   7.763   7.667   5.763
 2863TIP3    H1 8534   7.741   7.602   5.830
 2863TIP3    H2 8535   7.772   7.749   5.811
 2864TIP3   OH2 8536   1.794   3.115   3.280
 2864TIP3    H1 8537   1.702   3.107   3.255
 2864TIP3    H2 8538   1.832   3.029   3.262
 2865TIP3   OH2 8539   7.821   2.397   4.060
 2865TIP3    H1 8540   7.862   2.321   4.020
 2865TIP3    H2 8541   7.791   2.366   4.145
 2866TIP3   OH2 8542   1.014   2.782   5.105
 2866TIP3    H1 8543   1.043   2.779   5.014
 2866TIP3    H2 8544   1.083   2.830   5.151
 2867TIP3   OH2 8545   4.033   4.015   5.242
 2867TIP3    H1 8546   4.032   3.919   5.247
 2867TIP3    H2 8547   4.015   4.043   5.332
 2868TIP3   OH2 8548   1.539   5.634   3.215
 2868TIP3    H1 8549   1.523   5.722   3.248
 2868TIP3    H2 8550   1.461   5.613   3.164
 2869TIP3   OH2 8551   4.738   7.561   0.690
 2869TIP3    H1 8552   4.719   7.484   0.637
 2869TIP3    H2 8553   4.801   7.611   0.638
 2870TIP3   OH2 8554   3.505   1.574   3.962
 2870TIP3    H1 8555   3.588   1.538   3.931
 2870TIP3    H2 8556   3.497   1.659   3.917
 2871TIP3   OH2 8557   4.570   4.165   0.587
 2871TIP3    H1 8558   4.483   4.140   0.617
 2871TIP3    H2 8559   4.623   4.086   0.596
 2872TIP3   OH2 8560   2.981   4.107   6.142
 2872TIP3    H1 8561   3.018   4.024   6.174
 2872TIP3    H2 8562   2.923   4.135   6.213
 2873TIP3   OH2 8563   7.035   5.783   1.010
 2873TIP3    H1 8564   6.972   5.785   0.938
 2873TIP3    H2 8565   7.035   5.872   1.045
 2874TIP3   OH2 8566   0.563   7.344   4.493
 2874TIP3    H1 8567   0.485   7.376   4.446
 2874TIP3    H2 8568   0.532   7.269   4.543
 2875TIP3   OH2 8569   6.760   3.622   1.051
 2875TIP3    H1 8570   6.785   3.644   1.140
 2875TIP3    H2 8571   6.725   3.703   1.015
 2876TIP3   OH2 8572   6.538   6.217   0.457
 2876TIP3    H1 8573   6.564   6.165   0.381
 2876TIP3    H2 8574   6.602   6.288   0.461
 2877TIP3   OH2 8575   6.746   5.661   0.013
 2877TIP3    H1 8576   6.725   5.573   0.046
 2877TIP3    H2 8577   6.841   5.662   0.007
 2878TIP3   OH2 8578   1.627   0.747   5.680
 2878TIP3    H1 8579   1.590   0.770   5.594
 2878TIP3    H2 8580   1.551   0.748   5.739
 2879TIP3   OH2 8581   8.257   2.824   2.377
 2879TIP3    H1 8582   8.293   2.844   2.463
 2879TIP3    H2 8583   8.239   2.730   2.379
 2880TIP3   OH2 8584   8.191   6.851   3.828
 2880TIP3    H1 8585   8.152   6.795   3.895
 2880TIP3    H2 8586   8.215   6.931   3.874
 2881TIP3   OH2 8587   5.288   3.746   1.073
 2881TIP3    H1 8588   5.310   3.835   1.100
 2881TIP3    H2 8589   5.312   3.692   1.148
 2882TIP3   OH2 8590   0.760   2.528   3.517
 2882TIP3    H1 8591   0.798   2.616   3.517
 2882TIP3    H2 8592   0.787   2.490   3.600
 2883TIP3   OH2 8593   0.896   5.762   4.676
 2883TIP3    H1 8594   0.912   5.672   4.647
 2883TIP3    H2 8595   0.873   5.754   4.768
 2884TIP3   OH2 8596   3.311   3.764   4.422
 2884TIP3    H1 8597   3.220   3.776   4.394
 2884TIP3    H2 8598   3.340   3.686   4.375
 2885TIP3   OH2 8599   0.743   3.090   6.194
 2885TIP3    H1 8600   0.717   3.007   6.154
 2885TIP3    H2 8601   0.813   3.123   6.137
 2886TIP3   OH2 8602   2.239   5.538   3.833
 2886TIP3    H1 8603   2.155   5.567   3.797
 2886TIP3    H2 8604   2.304   5.566   3.768
 2887TIP3   OH2 8605   0.077   4.367   5.311
 2887TIP3    H1 8606   0.160   4.391   5.270
 2887TIP3    H2 8607   0.067   4.273   5.292
 2888TIP3   OH2 8608   7.641   0.548   2.243
 2888TIP3    H1 8609   7.670   0.501   2.322
 2888TIP3    H2 8610   7.664   0.639   2.260
 2889TIP3   OH2 8611   8.046   1.182   0.673
 2889TIP3    H1 8612   8.075   1.207   0.586
 2889TIP3    H2 8613   8.126   1.184   0.726
 2890TIP3   OH2 8614   7.870   3.552   1.498
 2890TIP3    H1 8615   7.925   3.474   1.491
 2890TIP3    H2 8616   7.804   3.529   1.563
 2891TIP3   OH2 8617   7.162   6.917   1.442
 2891TIP3    H1 8618   7.157   6.826   1.470
 2891TIP3    H2 8619   7.094   6.925   1.375
 2892TIP3   OH2 8620   7.199   3.094   6.705
 2892TIP3    H1 8621   7.266   3.065   6.766
 2892TIP3    H2 8622   7.148   3.158   6.754
 2893TIP3   OH2 8623   2.678   2.299   2.424
 2893TIP3    H1 8624   2.643   2.310   2.512
 2893TIP3    H2 8625   2.623   2.354   2.369
 2894TIP3   OH2 8626   1.208   2.556   5.438
 2894TIP3    H1 8627   1.204   2.483   5.499
 2894TIP3    H2 8628   1.162   2.628   5.482
 2895TIP3   OH2 8629   4.607   1.437   1.951
 2895TIP3    H1 8630   4.515   1.444   1.925
 2895TIP3    H2 8631   4.613   1.352   1.994
 2896TIP3   OH2 8632   0.068   6.823   4.187
 2896TIP3    H1 8633  -0.006   6.824   4.248
 2896TIP3    H2 8634   0.145   6.821   4.243
 2897TIP3   OH2 8635   7.367   7.675   5.222
 2897TIP3    H1 8636   7.430   7.715   5.282
 2897TIP3    H2 8637   7.290   7.656   5.276
 2898TIP3   OH2 8638   7.763   5.183   6.649
 2898TIP3    H1 8639   7.707   5.106   6.655
 2898TIP3    H2 8640   7.838   5.154   6.597
 2899TIP3   OH2 8641   6.987   7.244   2.467
 2899TIP3    H1 8642   7.020   7.164   2.425
 2899TIP3    H2 8643   7.033   7.248   2.551
 2900TIP3   OH2 8644   7.382   0.825   5.067
 2900TIP3    H1 8645   7.343   0.806   5.153
 2900TIP3    H2 8646   7.422   0.742   5.041
 2901TIP3   OH2 8647   7.965   5.812   5.900
 2901TIP3    H1 8648   7.873   5.838   5.898
 2901TIP3    H2 8649   7.964   5.723   5.934
 2902TIP3   OH2 8650   2.451   7.629   1.006
 2902TIP3    H1 8651   2.450   7.623   0.911
 2902TIP3    H2 8652   2.491   7.714   1.025
 2903TIP3   OH2 8653   1.827   0.247   2.084
 2903TIP3    H1 8654   1.866   0.245   2.171
 2903TIP3    H2 8655   1.739   0.212   2.096
 2904TIP3   OH2 8656   3.936   0.298   1.765
 2904TIP3    H1 8657   3.960   0.273   1.676
 2904TIP3    H2 8658   3.965   0.225   1.819
 2905TIP3   OH2 8659   7.704   3.812   4.617
 2905TIP3    H1 8660   7.609   3.814   4.629
 2905TIP3    H2 8661   7.727   3.900   4.589
 2906TIP3   OH2 8662   5.049   6.233   1.910
 2906TIP3    H1 8663   4.962   6.223   1.947
 2906TIP3    H2 8664   5.052   6.323   1.878
 2907TIP3   OH2 8665   6.799   5.371   2.665
 2907TIP3    H1 8666   6.737   5.440   2.690
 2907TIP3    H2 8667   6.819   5.389   2.573
 2908TIP3   OH2 8668   4.134   4.466   2.936
 2908TIP3    H1 8669   4.189   4.439   2.862
 2908TIP3    H2 8670   4.070   4.525   2.898
 2909TIP3   OH2 8671   1.109   2.208   4.197
 2909TIP3    H1 8672   1.076   2.194   4.286
 2909TIP3    H2 8673   1.055   2.279   4.162
 2910TIP3   OH2 8674   4.275   4.119   5.613
 2910TIP3    H1 8675   4.355   4.074   5.586
 2910TIP3    H2 8676   4.270   4.103   5.708
 2911TIP3   OH2 8677   5.948   6.160   2.344
 2911TIP3    H1 8678   5.990   6.197   2.422
 2911TIP3    H2 8679   5.931   6.236   2.288
 2912TIP3   OH2 8680   2.590   7.342   6.131
 2912TIP3    H1 8681   2.584   7.385   6.046
 2912TIP3    H2 8682   2.519   7.381   6.183
 2913TIP3   OH2 8683   3.723   5.767   3.207
 2913TIP3    H1 8684   3.784   5.767   3.280
 2913TIP3    H2 8685   3.649   5.715   3.238
 2914TIP3   OH2 8686   2.054   1.688   2.668
 2914TIP3    H1 8687   2.108   1.744   2.613
 2914TIP3    H2 8688   2.094   1.692   2.755
 2915TIP3   OH2 8689   0.751   2.445   1.357
 2915TIP3    H1 8690   0.751   2.541   1.361
 2915TIP3    H2 8691   0.749   2.425   1.264
 2916TIP3   OH2 8692   0.544   6.984   1.938
 2916TIP3    H1 8693   0.460   6.987   1.983
 2916TIP3    H2 8694   0.529   7.028   1.854
 2917TIP3   OH2 8695   5.395   4.183   3.611
 2917TIP3    H1 8696   5.426   4.097   3.639
 2917TIP3    H2 8697   5.300   4.177   3.617
 2918TIP3   OH2 8698   2.212   5.714   5.225
 2918TIP3    H1 8699   2.295   5.678   5.193
 2918TIP3    H2 8700   2.148   5.645   5.205
 2919TIP3   OH2 8701   3.848   6.554   1.610
 2919TIP3    H1 8702   3.873   6.640   1.642
 2919TIP3    H2 8703   3.795   6.572   1.532
 2920TIP3   OH2 8704   6.761   1.714   3.145
 2920TIP3    H1 8705   6.712   1.794   3.160
 2920TIP3    H2 8706   6.828   1.714   3.214
 2921TIP3   OH2 8707   2.091   3.135   3.365
 2921TIP3    H1 8708   2.133   3.052   3.391
 2921TIP3    H2 8709   2.030   3.155   3.437
 2922TIP3   OH2 8710   6.154   0.964   0.631
 2922TIP3    H1 8711   6.067   0.994   0.659
 2922TIP3    H2 8712   6.186   1.032   0.573
 2923TIP3   OH2 8713   1.379   4.383   0.573
 2923TIP3    H1 8714   1.367   4.288   0.576
 2923TIP3    H2 8715   1.463   4.398   0.616
 2924TIP3   OH2 8716   7.878   3.646   5.912
 2924TIP3    H1 8717   7.853   3.719   5.968
 2924TIP3    H2 8718   7.955   3.678   5.864
 2925TIP3   OH2 8719   3.791   5.431   4.800
 2925TIP3    H1 8720   3.791   5.342   4.834
 2925TIP3    H2 8721   3.700   5.459   4.807
 2926TIP3   OH2 8722   4.286   0.615   2.120
 2926TIP3    H1 8723   4.354   0.663   2.166
 2926TIP3    H2 8724   4.323   0.597   2.034
 2927TIP3   OH2 8725   3.056   6.856   1.571
 2927TIP3    H1 8726   3.117   6.884   1.503
 2927TIP3    H2 8727   2.996   6.796   1.526
 2928TIP3   OH2 8728   7.029   0.340   5.997
 2928TIP3    H1 8729   6.990   0.291   6.070
 2928TIP3    H2 8730   7.120   0.352   6.023
 2929TIP3   OH2 8731   1.860   2.456   1.372
 2929TIP3    H1 8732   1.832   2.479   1.461
 2929TIP3    H2 8733   1.946   2.416   1.384
 2930TIP3   OH2 8734   4.300   0.666   1.395
 2930TIP3    H1 8735   4.295   0.577   1.360
 2930TIP3    H2 8736   4.375   0.705   1.351
 2931TIP3   OH2 8737   5.791   3.965   2.564
 2931TIP3    H1 8738   5.789   4.053   2.527
 2931TIP3    H2 8739   5.726   3.916   2.514
 2932TIP3   OH2 8740   5.008   3.977   2.934
 2932TIP3    H1 8741   5.073   3.915   2.969
 2932TIP3    H2 8742   5.040   3.998   2.846
 2933TIP3   OH2 8743   6.480   4.095   3.515
 2933TIP3    H1 8744   6.461   4.076   3.607
 2933TIP3    H2 8745   6.570   4.065   3.502
 2934TIP3   OH2 8746   6.380   5.085   3.401
 2934TIP3    H1 8747   6.452   5.041   3.356
 2934TIP3    H2 8748   6.384   5.176   3.370
 2935TIP3   OH2 8749   4.399   3.191   1.442
 2935TIP3    H1 8750   4.414   3.099   1.464
 2935TIP3    H2 8751   4.409   3.238   1.525
 2936TIP3   OH2 8752   6.068   7.590   5.157
 2936TIP3    H1 8753   6.083   7.509   5.206
 2936TIP3    H2 8754   6.105   7.572   5.071
 2937TIP3   OH2 8755   1.444   6.367   5.649
 2937TIP3    H1 8756   1.463   6.420   5.726
 2937TIP3    H2 8757   1.415   6.430   5.583
 2938TIP3   OH2 8758   1.083   3.091   4.351
 2938TIP3    H1 8759   1.136   3.014   4.329
 2938TIP3    H2 8760   0.994   3.065   4.330
 2939TIP3   OH2 8761   2.437   4.984   6.060
 2939TIP3    H1 8762   2.492   5.063   6.054
 2939TIP3    H2 8763   2.419   4.975   6.153
 2940TIP3   OH2 8764   1.881   1.983   6.449
 2940TIP3    H1 8765   1.954   2.030   6.488
 2940TIP3    H2 8766   1.916   1.896   6.430
 2941TIP3   OH2 8767   0.811   2.422   2.616
 2941TIP3    H1 8768   0.787   2.400   2.706
 2941TIP3    H2 8769   0.905   2.435   2.618
 2942TIP3   OH2 8770   0.147   6.214   2.042
 2942TIP3    H1 8771   0.157   6.309   2.047
 2942TIP3    H2 8772   0.203   6.181   2.112
 2943TIP3   OH2 8773   0.689   1.501   3.577
 2943TIP3    H1 8774   0.657   1.590   3.561
 2943TIP3    H2 8775   0.782   1.513   3.598
 2944TIP3   OH2 8776   3.885   6.772   6.339
 2944TIP3    H1 8777   3.950   6.749   6.406
 2944TIP3    H2 8778   3.819   6.703   6.346
 2945TIP3   OH2 8779   1.917   2.485   0.208
 2945TIP3    H1 8780   1.917   2.537   0.127
 2945TIP3    H2 8781   1.868   2.406   0.185
 2946TIP3   OH2 8782   2.888   3.119   5.634
 2946TIP3    H1 8783   2.911   3.058   5.704
 2946TIP3    H2 8784   2.969   3.168   5.617
 2947TIP3   OH2 8785   0.043   5.809   4.043
 2947TIP3    H1 8786   0.040   5.869   3.968
 2947TIP3    H2 8787   0.080   5.728   4.008
 2948TIP3   OH2 8788   5.209   2.040   3.829
 2948TIP3    H1 8789   5.158   1.981   3.774
 2948TIP3    H2 8790   5.268   1.983   3.878
 2949TIP3   OH2 8791   4.868   5.215   3.853
 2949TIP3    H1 8792   4.845   5.122   3.855
 2949TIP3    H2 8793   4.963   5.217   3.843
 2950TIP3   OH2 8794   2.885   4.642   3.281
 2950TIP3    H1 8795   2.945   4.684   3.219
 2950TIP3    H2 8796   2.857   4.562   3.237
 2951TIP3   OH2 8797   0.443   0.833   4.970
 2951TIP3    H1 8798   0.532   0.822   4.936
 2951TIP3    H2 8799   0.447   0.914   5.021
 2952TIP3   OH2 8800   7.501   1.838   5.818
 2952TIP3    H1 8801   7.580   1.802   5.780
 2952TIP3    H2 8802   7.489   1.923   5.775
 2953TIP3   OH2 8803   4.570   7.578   4.305
 2953TIP3    H1 8804   4.540   7.524   4.379
 2953TIP3    H2 8805   4.583   7.665   4.342
 2954TIP3   OH2 8806   4.195   3.041   6.305
 2954TIP3    H1 8807   4.192   2.947   6.325
 2954TIP3    H2 8808   4.276   3.052   6.256
 2955TIP3   OH2 8809   6.234   2.722   1.030
 2955TIP3    H1 8810   6.328   2.741   1.032
 2955TIP3    H2 8811   6.207   2.742   0.940
 2956TIP3   OH2 8812   6.304   2.506   4.521
 2956TIP3    H1 8813   6.389   2.546   4.534
 2956TIP3    H2 8814   6.241   2.573   4.548
 2957TIP3   OH2 8815   4.251   7.308   5.206
 2957TIP3    H1 8816   4.273   7.271   5.291
 2957TIP3    H2 8817   4.229   7.232   5.151
 2958TIP3   OH2 8818   7.846   3.248   2.631
 2958TIP3    H1 8819   7.806   3.317   2.578
 2958TIP3    H2 8820   7.779   3.226   2.695
 2959TIP3   OH2 8821   4.135   7.827   4.059
 2959TIP3    H1 8822   4.222   7.843   4.021
 2959TIP3    H2 8823   4.078   7.889   4.014
 2960TIP3   OH2 8824   2.213   4.366   2.318
 2960TIP3    H1 8825   2.209   4.337   2.227
 2960TIP3    H2 8826   2.140   4.323   2.361
 2961TIP3   OH2 8827   0.584   4.071   3.261
 2961TIP3    H1 8828   0.673   4.102   3.277
 2961TIP3    H2 8829   0.583   4.047   3.168
 2962TIP3   OH2 8830   7.682   5.087   2.089
 2962TIP3    H1 8831   7.770   5.070   2.054
 2962TIP3    H2 8832   7.684   5.048   2.176
 2963TIP3   OH2 8833   5.997   3.201   3.174
 2963TIP3    H1 8834   6.087   3.197   3.140
 2963TIP3    H2 8835   5.977   3.294   3.177
 2964TIP3   OH2 8836   3.783   6.039   3.409
 2964TIP3    H1 8837   3.775   6.000   3.496
 2964TIP3    H2 8838   3.871   6.076   3.407
 2965TIP3   OH2 8839   0.985   6.941   5.417
 2965TIP3    H1 8840   0.909   6.885   5.434
 2965TIP3    H2 8841   0.990   7.000   5.493
 2966TIP3   OH2 8842   2.995   3.744   5.817
 2966TIP3    H1 8843   2.975   3.765   5.908
 2966TIP3    H2 8844   2.952   3.660   5.802
 2967TIP3   OH2 8845   0.893   6.520   2.464
 2967TIP3    H1 8846   0.965   6.582   2.453
 2967TIP3    H2 8847   0.821   6.573   2.499
 2968TIP3   OH2 8848   4.189   2.458   1.206
 2968TIP3    H1 8849   4.122   2.415   1.259
 2968TIP3    H2 8850   4.141   2.510   1.143
 2969TIP3   OH2 8851   0.311   2.274   1.107
 2969TIP3    H1 8852   0.261   2.320   1.175
 2969TIP3    H2 8853   0.361   2.207   1.155
 2970TIP3   OH2 8854   7.445   6.905   0.879
 2970TIP3    H1 8855   7.384   6.978   0.891
 2970TIP3    H2 8856   7.486   6.921   0.794
 2971TIP3   OH2 8857   2.722   6.541   0.298
 2971TIP3    H1 8858   2.634   6.576   0.308
 2971TIP3    H2 8859   2.716   6.483   0.221
 2972TIP3   OH2 8860   7.015   4.502   4.054
 2972TIP3    H1 8861   6.979   4.466   4.135
 2972TIP3    H2 8862   7.106   4.524   4.076
 2973TIP3   OH2 8863   3.857   5.368   3.500
 2973TIP3    H1 8864   3.876   5.428   3.572
 2973TIP3    H2 8865   3.914   5.293   3.516
 2974TIP3   OH2 8866   5.155   1.599   0.683
 2974TIP3    H1 8867   5.153   1.679   0.736
 2974TIP3    H2 8868   5.205   1.622   0.606
 2975TIP3   OH2 8869   7.342   5.771   2.897
 2975TIP3    H1 8870   7.415   5.825   2.867
 2975TIP3    H2 8871   7.384   5.693   2.934
 2976TIP3   OH2 8872   5.454   7.074   6.650
 2976TIP3    H1 8873   5.377   7.017   6.643
 2976TIP3    H2 8874   5.421   7.154   6.691
 2977TIP3   OH2 8875   1.927   2.179   5.549
 2977TIP3    H1 8876   1.946   2.269   5.577
 2977TIP3    H2 8877   1.833   2.169   5.562
 2978TIP3   OH2 8878   2.578   0.747   3.641
 2978TIP3    H1 8879   2.499   0.801   3.633
 2978TIP3    H2 8880   2.600   0.722   3.552
 2979TIP3   OH2 8881   1.099   2.369   6.380
 2979TIP3    H1 8882   1.131   2.336   6.463
 2979TIP3    H2 8883   1.045   2.298   6.345
 2980TIP3   OH2 8884   6.846   4.323   4.597
 2980TIP3    H1 8885   6.912   4.310   4.529
 2980TIP3    H2 8886   6.843   4.239   4.643
 2981TIP3   OH2 8887   3.417   7.435   0.276
 2981TIP3    H1 8888   3.350   7.366   0.276
 2981TIP3    H2 8889   3.469   7.419   0.355
 2982TIP3   OH2 8890   3.154   6.989   0.620
 2982TIP3    H1 8891   3.099   6.914   0.597
 2982TIP3    H2 8892   3.092   7.053   0.655
 2983TIP3   OH2 8893   6.648   4.719   4.832
 2983TIP3    H1 8894   6.643   4.803   4.878
 2983TIP3    H2 8895   6.702   4.736   4.755
 2984TIP3   OH2 8896   8.252   6.361   5.134
 2984TIP3    H1 8897   8.253   6.265   5.135
 2984TIP3    H2 8898   8.172   6.384   5.087
 2985TIP3   OH2 8899   7.613   1.720   4.792
 2985TIP3    H1 8900   7.551   1.686   4.727
 2985TIP3    H2 8901   7.623   1.649   4.855
 2986TIP3   OH2 8902   0.423   6.051   6.676
 2986TIP3    H1 8903   0.378   6.133   6.698
 2986TIP3    H2 8904   0.488   6.040   6.745
 2987TIP3   OH2 8905   3.417   3.818   4.066
 2987TIP3    H1 8906   3.486   3.810   4.131
 2987TIP3    H2 8907   3.350   3.757   4.094
 2988TIP3   OH2 8908   3.369   0.510   5.511
 2988TIP3    H1 8909   3.386   0.436   5.568
 2988TIP3    H2 8910   3.273   0.517   5.508
 2989TIP3   OH2 8911   5.490   4.614   1.236
 2989TIP3    H1 8912   5.459   4.697   1.272
 2989TIP3    H2 8913   5.411   4.571   1.203
 2990TIP3   OH2 8914   6.296   3.234   2.475
 2990TIP3    H1 8915   6.333   3.317   2.447
 2990TIP3    H2 8916   6.223   3.258   2.532
 2991TIP3   OH2 8917   2.110   1.917   5.009
 2991TIP3    H1 8918   2.134   2.008   4.992
 2991TIP3    H2 8919   2.036   1.900   4.950
 2992TIP3   OH2 8920   1.678   2.255   2.543
 2992TIP3    H1 8921   1.714   2.272   2.630
 2992TIP3    H2 8922   1.709   2.167   2.521
 2993TIP3   OH2 8923   3.098   7.485   2.038
 2993TIP3    H1 8924   3.141   7.435   1.969
 2993TIP3    H2 8925   3.150   7.469   2.116
 2994TIP3   OH2 8926   5.352   4.464   6.176
 2994TIP3    H1 8927   5.353   4.510   6.092
 2994TIP3    H2 8928   5.321   4.376   6.155
 2995TIP3   OH2 8929   1.307   3.746   5.044
 2995TIP3    H1 8930   1.302   3.659   5.085
 2995TIP3    H2 8931   1.215   3.771   5.031
 2996TIP3   OH2 8932   5.417   6.262   5.147
 2996TIP3    H1 8933   5.335   6.219   5.167
 2996TIP3    H2 8934   5.400   6.355   5.162
 2997TIP3   OH2 8935   1.072   7.384   6.490
 2997TIP3    H1 8936   1.120   7.356   6.568
 2997TIP3    H2 8937   1.057   7.477   6.502
 2998TIP3   OH2 8938   0.849   3.244   4.132
 2998TIP3    H1 8939   0.802   3.162   4.148
 2998TIP3    H2 8940   0.804   3.284   4.058
 2999TIP3   OH2 8941   7.698   6.542   4.717
 2999TIP3    H1 8942   7.748   6.554   4.798
 2999TIP3    H2 8943   7.752   6.482   4.665
 3000TIP3   OH2 8944   1.466   2.918   0.921
 3000TIP3    H1 8945   1.460   2.935   0.827
 3000TIP3    H2 8946   1.557   2.938   0.944
 3001TIP3   OH2 8947   1.227   6.081   4.232
 3001TIP3    H1 8948   1.177   6.042   4.304
 3001TIP3    H2 8949   1.263   6.006   4.184
 3002TIP3   OH2 8950   7.033   2.020   6.546
 3002TIP3    H1 8951   7.066   2.105   6.517
 3002TIP3    H2 8952   7.075   2.006   6.631
 3003TIP3   OH2 8953   5.903   6.471   0.291
 3003TIP3    H1 8954   5.898   6.552   0.342
 3003TIP3    H2 8955   5.967   6.490   0.222
 3004TIP3   OH2 8956   7.261   2.241   1.634
 3004TIP3    H1 8957   7.323   2.313   1.622
 3004TIP3    H2 8958   7.225   2.225   1.547
 3005TIP3   OH2 8959   0.624   3.848   6.452
 3005TIP3    H1 8960   0.658   3.930   6.416
 3005TIP3    H2 8961   0.703   3.799   6.476
 3006TIP3   OH2 8962   7.869   0.596   3.918
 3006TIP3    H1 8963   7.842   0.617   3.829
 3006TIP3    H2 8964   7.949   0.646   3.932
 3007TIP3   OH2 8965   3.134   0.902   6.705
 3007TIP3    H1 8966   3.105   0.880   6.617
 3007TIP3    H2 8967   3.053   0.903   6.757
 3008TIP3   OH2 8968   1.164   0.455   0.532
 3008TIP3    H1 8969   1.256   0.434   0.519
 3008TIP3    H2 8970   1.118   0.375   0.507
 3009TIP3   OH2 8971   3.132   4.876   6.515
 3009TIP3    H1 8972   3.209   4.838   6.560
 3009TIP3    H2 8973   3.103   4.945   6.574
 3010TIP3   OH2 8974   6.472   2.293   3.727
 3010TIP3    H1 8975   6.479   2.300   3.822
 3010TIP3    H2 8976   6.481   2.199   3.710
 3011TIP3   OH2 8977   0.960   1.557   3.611
 3011TIP3    H1 8978   0.990   1.584   3.524
 3011TIP3    H2 8979   0.983   1.631   3.668
 3012TIP3   OH2 8980   5.831   5.354   2.291
 3012TIP3    H1 8981   5.754   5.363   2.346
 3012TIP3    H2 8982   5.819   5.271   2.246
 3013TIP3   OH2 8983   0.662   1.986   2.194
 3013TIP3    H1 8984   0.747   1.944   2.197
 3013TIP3    H2 8985   0.607   1.935   2.254
 3014TIP3   OH2 8986   0.238   0.927   3.405
 3014TIP3    H1 8987   0.253   0.993   3.336
 3014TIP3    H2 8988   0.314   0.934   3.462
 3015TIP3   OH2 8989   5.393   0.738   2.718
 3015TIP3    H1 8990   5.390   0.646   2.746
 3015TIP3    H2 8991   5.485   0.753   2.695
 3016TIP3   OH2 8992   4.358   1.825   6.287
 3016TIP3    H1 8993   4.355   1.907   6.336
 3016TIP3    H2 8994   4.269   1.791   6.293
 3017TIP3   OH2 8995   2.588   4.516   4.648
 3017TIP3    H1 8996   2.536   4.570   4.708
 3017TIP3    H2 8997   2.653   4.576   4.612
 3018TIP3   OH2 8998   3.193   0.295   6.277
 3018TIP3    H1 8999   3.134   0.301   6.352
 3018TIP3    H2 9000   3.136   0.304   6.201
 3019TIP3   OH2 9001   2.638   7.241   4.009
 3019TIP3    H1 9002   2.544   7.261   4.007
 3019TIP3    H2 9003   2.679   7.315   3.962
 3020TIP3   OH2 9004   4.081   1.123   3.725
 3020TIP3    H1 9005   4.092   1.163   3.811
 3020TIP3    H2 9006   4.165   1.137   3.681
 3021TIP3   OH2 9007   7.199   4.424   1.808
 3021TIP3    H1 9008   7.286   4.461   1.793
 3021TIP3    H2 9009   7.190   4.355   1.742
 3022TIP3   OH2 9010   5.278   7.343   0.464
 3022TIP3    H1 9011   5.301   7.357   0.556
 3022TIP3    H2 9012   5.206   7.280   0.467
 3023TIP3   OH2 9013   5.167   3.640   6.258
 3023TIP3    H1 9014   5.262   3.650   6.252
 3023TIP3    H2 9015   5.154   3.546   6.269
 3024TIP3   OH2 9016   2.688   0.065   4.867
 3024TIP3    H1 9017   2.696  -0.020   4.910
 3024TIP3    H2 9018   2.724   0.052   4.780
 3025TIP3   OH2 9019   4.015   1.560   6.293
 3025TIP3    H1 9020   3.971   1.563   6.377
 3025TIP3    H2 9021   3.956   1.511   6.236
 3026TIP3   OH2 9022   5.815   5.359   1.961
 3026TIP3    H1 9023   5.742   5.399   2.009
 3026TIP3    H2 9024   5.842   5.286   2.016
 3027TIP3   OH2 9025   6.321   7.160   1.072
 3027TIP3    H1 9026   6.278   7.182   1.155
 3027TIP3    H2 9027   6.415   7.157   1.094
 3028TIP3   OH2 9028   2.395   0.186   0.441
 3028TIP3    H1 9029   2.347   0.181   0.524
 3028TIP3    H2 9030   2.354   0.120   0.385
 3029TIP3   OH2 9031   6.215   4.101   6.037
 3029TIP3    H1 9032   6.121   4.099   6.018
 3029TIP3    H2 9033   6.250   4.023   5.994
 3030TIP3   OH2 9034   5.479   2.401   2.740
 3030TIP3    H1 9035   5.550   2.413   2.676
 3030TIP3    H2 9036   5.522   2.409   2.825
 3031TIP3   OH2 9037   4.938   1.792   2.593
 3031TIP3    H1 9038   4.952   1.752   2.679
 3031TIP3    H2 9039   4.964   1.724   2.530
 3032TIP3   OH2 9040   0.938   4.664   5.007
 3032TIP3    H1 9041   0.969   4.719   5.079
 3032TIP3    H2 9042   0.905   4.725   4.942
 3033TIP3   OH2 9043   4.180   5.710   4.837
 3033TIP3    H1 9044   4.143   5.768   4.770
 3033TIP3    H2 9045   4.109   5.697   4.899
 3034TIP3   OH2 9046   0.946   5.590   3.280
 3034TIP3    H1 9047   1.034   5.584   3.318
 3034TIP3    H2 9048   0.926   5.501   3.251
 3035TIP3   OH2 9049   6.857   2.565   4.515
 3035TIP3    H1 9050   6.815   2.572   4.429
 3035TIP3    H2 9051   6.784   2.553   4.577
 3036TIP3   OH2 9052   5.075   0.005   3.414
 3036TIP3    H1 9053   5.040   0.093   3.397
 3036TIP3    H2 9054   4.999  -0.046   3.442
 3037TIP3   OH2 9055   6.726   2.813   1.251
 3037TIP3    H1 9056   6.775   2.733   1.271
 3037TIP3    H2 9057   6.749   2.833   1.160
 3038TIP3   OH2 9058   5.441   7.266   5.974
 3038TIP3    H1 9059   5.456   7.215   6.054
 3038TIP3    H2 9060   5.381   7.335   6.000
 3039TIP3   OH2 9061   1.512   1.546   2.510
 3039TIP3    H1 9062   1.532   1.457   2.540
 3039TIP3    H2 9063   1.449   1.579   2.574
 3040TIP3   OH2 9064   6.236   2.913   3.695
 3040TIP3    H1 9065   6.155   2.886   3.739
 3040TIP3    H2 9066   6.233   3.009   3.697
 3041TIP3   OH2 9067   4.736   3.728   1.170
 3041TIP3    H1 9068   4.656   3.677   1.174
 3041TIP3    H2 9069   4.706   3.818   1.156
 3042TIP3   OH2 9070   3.698   4.893   2.954
 3042TIP3    H1 9071   3.767   4.869   2.892
 3042TIP3    H2 9072   3.636   4.945   2.902
 3043TIP3   OH2 9073   6.027   4.489   3.467
 3043TIP3    H1 9074   5.947   4.519   3.424
 3043TIP3    H2 9075   6.004   4.405   3.505
 3044TIP3   OH2 9076   1.207   0.994   0.849
 3044TIP3    H1 9077   1.301   0.989   0.865
 3044TIP3    H2 9078   1.172   1.036   0.928
 3045TIP3   OH2 9079   0.895   5.040   1.100
 3045TIP3    H1 9080   0.885   5.133   1.120
 3045TIP3    H2 9081   0.877   5.033   1.007
 3046TIP3   OH2 9082   7.056   4.989   0.167
 3046TIP3    H1 9083   7.139   4.949   0.191
 3046TIP3    H2 9084   7.075   5.042   0.089
 3047TIP3   OH2 9085   5.609   1.834   4.552
 3047TIP3    H1 9086   5.571   1.746   4.555
 3047TIP3    H2 9087   5.670   1.831   4.478
 3048TIP3   OH2 9088   1.690   4.596   4.696
 3048TIP3    H1 9089   1.723   4.669   4.747
 3048TIP3    H2 9090   1.767   4.561   4.651
 3049TIP3   OH2 9091   5.339   0.825   4.079
 3049TIP3    H1 9092   5.431   0.800   4.079
 3049TIP3    H2 9093   5.315   0.827   4.172
 3050TIP3   OH2 9094   3.774   0.213   5.108
 3050TIP3    H1 9095   3.868   0.223   5.094
 3050TIP3    H2 9096   3.766   0.139   5.169
 3051TIP3   OH2 9097   1.436   5.015   3.853
 3051TIP3    H1 9098   1.342   5.023   3.870
 3051TIP3    H2 9099   1.451   4.920   3.851
 3052TIP3   OH2 9100   6.602   2.783   4.019
 3052TIP3    H1 9101   6.545   2.723   4.066
 3052TIP3    H2 9102   6.567   2.787   3.930
 3053TIP3   OH2 9103   0.463   1.177   5.534
 3053TIP3    H1 9104   0.556   1.162   5.515
 3053TIP3    H2 9105   0.461   1.204   5.626
 3054TIP3   OH2 9106   5.461   6.453   5.901
 3054TIP3    H1 9107   5.557   6.447   5.906
 3054TIP3    H2 9108   5.445   6.537   5.858
 3055TIP3   OH2 9109   2.181   2.746   5.675
 3055TIP3    H1 9110   2.108   2.805   5.660
 3055TIP3    H2 9111   2.151   2.661   5.642
 3056TIP3   OH2 9112   7.020   4.547   6.047
 3056TIP3    H1 9113   6.960   4.609   6.004
 3056TIP3    H2 9114   7.106   4.570   6.013
 3057TIP3   OH2 9115   5.086   5.070   4.061
 3057TIP3    H1 9116   5.064   5.011   3.989
 3057TIP3    H2 9117   5.081   5.158   4.023
 3058TIP3   OH2 9118   6.358   6.688   4.273
 3058TIP3    H1 9119   6.338   6.764   4.328
 3058TIP3    H2 9120   6.286   6.627   4.290
 3059TIP3   OH2 9121   4.466   3.759   6.495
 3059TIP3    H1 9122   4.424   3.760   6.409
 3059TIP3    H2 9123   4.549   3.714   6.481
 3060TIP3   OH2 9124   3.241   3.259   5.955
 3060TIP3    H1 9125   3.285   3.323   6.011
 3060TIP3    H2 9126   3.232   3.181   6.010
 3061TIP3   OH2 9127   3.444   5.896   1.855
 3061TIP3    H1 9128   3.449   5.807   1.820
 3061TIP3    H2 9129   3.350   5.912   1.864
 3062TIP3   OH2 9130   4.424   6.165   6.255
 3062TIP3    H1 9131   4.497   6.106   6.235
 3062TIP3    H2 9132   4.360   6.109   6.297
 3063TIP3   OH2 9133   6.584   1.487   6.498
 3063TIP3    H1 9134   6.539   1.561   6.539
 3063TIP3    H2 9135   6.677   1.505   6.512
 3064TIP3   OH2 9136   5.440   3.580   1.799
 3064TIP3    H1 9137   5.450   3.523   1.723
 3064TIP3    H2 9138   5.494   3.539   1.867
 3065TIP3   OH2 9139   5.082   2.662   1.743
 3065TIP3    H1 9140   5.115   2.685   1.656
 3065TIP3    H2 9141   5.160   2.641   1.793
 3066TIP3   OH2 9142   7.117   0.461   4.256
 3066TIP3    H1 9143   7.061   0.463   4.333
 3066TIP3    H2 9144   7.141   0.369   4.246
 3067TIP3   OH2 9145   4.785   4.607   0.409
 3067TIP3    H1 9146   4.840   4.684   0.400
 3067TIP3    H2 9147   4.722   4.614   0.338
 3068TIP3   OH2 9148   8.072   6.637   0.859
 3068TIP3    H1 9149   8.047   6.616   0.769
 3068TIP3    H2 9150   7.990   6.630   0.908
 3069TIP3   OH2 9151   6.339   2.355   0.847
 3069TIP3    H1 9152   6.352   2.264   0.871
 3069TIP3    H2 9153   6.245   2.370   0.858
 3070TIP3   OH2 9154   3.477   2.102   4.871
 3070TIP3    H1 9155   3.407   2.112   4.936
 3070TIP3    H2 9156   3.447   2.154   4.796
 3071TIP3   OH2 9157   2.049   2.143   2.531
 3071TIP3    H1 9158   2.051   2.237   2.516
 3071TIP3    H2 9159   2.065   2.133   2.624
 3072TIP3   OH2 9160   4.475   1.737   3.091
 3072TIP3    H1 9161   4.406   1.734   3.025
 3072TIP3    H2 9162   4.546   1.788   3.051
 3073TIP3   OH2 9163   6.579   0.802   2.551
 3073TIP3    H1 9164   6.675   0.808   2.549
 3073TIP3    H2 9165   6.550   0.889   2.578
 3074TIP3   OH2 9166   0.721   0.124   0.881
 3074TIP3    H1 9167   0.792   0.104   0.820
 3074TIP3    H2 9168   0.744   0.209   0.918
 3075TIP3   OH2 9169   0.418   4.928   5.809
 3075TIP3    H1 9170   0.327   4.948   5.831
 3075TIP3    H2 9171   0.412   4.848   5.756
 3076TIP3   OH2 9172   2.519   7.561   0.408
 3076TIP3    H1 9173   2.549   7.470   0.410
 3076TIP3    H2 9174   2.441   7.558   0.351
 3077TIP3   OH2 9175   7.016   1.733   1.593
 3077TIP3    H1 9176   6.928   1.714   1.623
 3077TIP3    H2 9177   7.073   1.701   1.663
 3078TIP3   OH2 9178   3.880   2.268   4.103
 3078TIP3    H1 9179   3.914   2.249   4.191
 3078TIP3    H2 9180   3.890   2.363   4.094
 3079TIP3   OH2 9181   4.553   6.838   2.385
 3079TIP3    H1 9182   4.611   6.814   2.457
 3079TIP3    H2 9183   4.467   6.805   2.412
 3080TIP3   OH2 9184   0.429   3.445   5.660
 3080TIP3    H1 9185   0.507   3.458   5.714
 3080TIP3    H2 9186   0.462   3.442   5.570
 3081TIP3   OH2 9187   2.420   3.669   0.259
 3081TIP3    H1 9188   2.460   3.593   0.302
 3081TIP3    H2 9189   2.493   3.730   0.247
 3082TIP3   OH2 9190   5.746   6.205   3.517
 3082TIP3    H1 9191   5.761   6.246   3.603
 3082TIP3    H2 9192   5.751   6.278   3.455
 3083TIP3   OH2 9193   3.040   7.112   0.110
 3083TIP3    H1 9194   2.955   7.126   0.070
 3083TIP3    H2 9195   3.062   7.021   0.088
 3084TIP3   OH2 9196   1.933   0.059   0.643
 3084TIP3    H1 9197   1.852   0.081   0.596
 3084TIP3    H2 9198   1.906   0.052   0.735
 3085TIP3   OH2 9199   6.458   2.779   4.863
 3085TIP3    H1 9200   6.381   2.757   4.811
 3085TIP3    H2 9201   6.436   2.862   4.906
 3086TIP3   OH2 9202   7.582   3.537   6.742
 3086TIP3    H1 9203   7.521   3.470   6.713
 3086TIP3    H2 9204   7.606   3.585   6.663
 3087TIP3   OH2 9205   3.804   6.082   4.867
 3087TIP3    H1 9206   3.798   5.996   4.908
 3087TIP3    H2 9207   3.719   6.123   4.885
 3088TIP3   OH2 9208   7.378   3.405   1.293
 3088TIP3    H1 9209   7.381   3.318   1.333
 3088TIP3    H2 9210   7.376   3.465   1.368
 3089TIP3   OH2 9211   2.538   3.522   5.764
 3089TIP3    H1 9212   2.489   3.445   5.795
 3089TIP3    H2 9213   2.479   3.564   5.702
 3090TIP3   OH2 9214   7.977   0.341   1.128
 3090TIP3    H1 9215   8.011   0.254   1.149
 3090TIP3    H2 9216   7.986   0.348   1.032
 3091TIP3   OH2 9217   1.123   6.744   5.280
 3091TIP3    H1 9218   1.201   6.797   5.263
 3091TIP3    H2 9219   1.064   6.803   5.328
 3092TIP3   OH2 9220   1.125   3.398   5.597
 3092TIP3    H1 9221   1.177   3.345   5.658
 3092TIP3    H2 9222   1.118   3.343   5.519
 3093TIP3   OH2 9223   5.956   6.931   1.758
 3093TIP3    H1 9224   5.948   7.025   1.771
 3093TIP3    H2 9225   6.048   6.912   1.779
 3094TIP3   OH2 9226   4.860   1.375   3.451
 3094TIP3    H1 9227   4.945   1.333   3.464
 3094TIP3    H2 9228   4.875   1.467   3.473
 3095TIP3   OH2 9229   2.417   6.754   3.834
 3095TIP3    H1 9230   2.453   6.836   3.802
 3095TIP3    H2 9231   2.423   6.760   3.930
 3096TIP3   OH2 9232   7.608   7.516   1.796
 3096TIP3    H1 9233   7.664   7.582   1.836
 3096TIP3    H2 9234   7.646   7.500   1.710
 3097TIP3   OH2 9235   1.808   2.473   5.380
 3097TIP3    H1 9236   1.781   2.387   5.351
 3097TIP3    H2 9237   1.883   2.456   5.438
 3098TIP3   OH2 9238   1.035   6.120   2.695
 3098TIP3    H1 9239   0.954   6.160   2.662
 3098TIP3    H2 9240   1.085   6.098   2.617
 3099TIP3   OH2 9241   5.569   0.054   6.036
 3099TIP3    H1 9242   5.535   0.102   5.960
 3099TIP3    H2 9243   5.491   0.033   6.087
 3100TIP3   OH2 9244   5.621   0.052   3.811
 3100TIP3    H1 9245   5.616   0.140   3.774
 3100TIP3    H2 9246   5.709   0.022   3.788
 3101TIP3   OH2 9247   6.817   7.153   6.055
 3101TIP3    H1 9248   6.901   7.108   6.065
 3101TIP3    H2 9249   6.823   7.227   6.115
 3102TIP3   OH2 9250   8.018   6.605   2.528
 3102TIP3    H1 9251   7.985   6.525   2.488
 3102TIP3    H2 9252   8.077   6.576   2.597
 3103TIP3   OH2 9253   7.406   5.420   2.287
 3103TIP3    H1 9254   7.404   5.411   2.192
 3103TIP3    H2 9255   7.493   5.388   2.312
 3104TIP3   OH2 9256   6.424   3.973   4.993
 3104TIP3    H1 9257   6.347   3.917   4.998
 3104TIP3    H2 9258   6.490   3.920   4.948
 3105TIP3   OH2 9259   0.276   3.760   6.149
 3105TIP3    H1 9260   0.338   3.697   6.112
 3105TIP3    H2 9261   0.327   3.842   6.156
 3106TIP3   OH2 9262   8.134   1.188   1.826
 3106TIP3    H1 9263   8.207   1.164   1.768
 3106TIP3    H2 9264   8.176   1.228   1.902
 3107TIP3   OH2 9265   7.741   0.079   2.251
 3107TIP3    H1 9266   7.804   0.008   2.265
 3107TIP3    H2 9267   7.796   0.156   2.236
 3108TIP3   OH2 9268   1.053   7.665   6.525
 3108TIP3    H1 9269   1.009   7.738   6.482
 3108TIP3    H2 9270   1.147   7.686   6.520
 3109TIP3   OH2 9271   7.559   1.037   2.109
 3109TIP3    H1 9272   7.570   1.007   2.019
 3109TIP3    H2 9273   7.634   1.002   2.156
 3110TIP3   OH2 9274   5.455   6.378   2.835
 3110TIP3    H1 9275   5.427   6.442   2.770
 3110TIP3    H2 9276   5.505   6.429   2.899
 3111TIP3   OH2 9277   0.770   7.006   0.381
 3111TIP3    H1 9278   0.745   7.023   0.471
 3111TIP3    H2 9279   0.865   7.016   0.380
 3112TIP3   OH2 9280   7.289   3.876   0.192
 3112TIP3    H1 9281   7.268   3.930   0.116
 3112TIP3    H2 9282   7.226   3.804   0.189
 3113TIP3   OH2 9283   3.203   3.673   3.841
 3113TIP3    H1 9284   3.210   3.639   3.930
 3113TIP3    H2 9285   3.109   3.681   3.825
 3114TIP3   OH2 9286   5.804   4.659   0.190
 3114TIP3    H1 9287   5.814   4.578   0.141
 3114TIP3    H2 9288   5.883   4.665   0.244
 3115TIP3   OH2 9289   7.798   3.667   0.955
 3115TIP3    H1 9290   7.708   3.698   0.973
 3115TIP3    H2 9291   7.793   3.631   0.867
 3116TIP3   OH2 9292   3.053   7.407   4.281
 3116TIP3    H1 9293   2.976   7.351   4.285
 3116TIP3    H2 9294   3.118   7.355   4.233
 3117TIP3   OH2 9295   3.935   6.509   0.092
 3117TIP3    H1 9296   3.904   6.437   0.146
 3117TIP3    H2 9297   4.024   6.527   0.123
 3118TIP3   OH2 9298   7.298   5.102   5.126
 3118TIP3    H1 9299   7.384   5.063   5.110
 3118TIP3    H2 9300   7.281   5.086   5.219
 3119TIP3   OH2 9301   6.624   6.537   3.360
 3119TIP3    H1 9302   6.542   6.500   3.327
 3119TIP3    H2 9303   6.672   6.563   3.281
 3120TIP3   OH2 9304   5.277   5.597   1.320
 3120TIP3    H1 9305   5.271   5.543   1.399
 3120TIP3    H2 9306   5.294   5.535   1.249
 3121TIP3   OH2 9307   4.513   2.906   4.120
 3121TIP3    H1 9308   4.601   2.869   4.128
 3121TIP3    H2 9309   4.488   2.928   4.209
 3122TIP3   OH2 9310   1.233   3.349   1.857
 3122TIP3    H1 9311   1.248   3.375   1.766
 3122TIP3    H2 9312   1.214   3.256   1.853
 3123TIP3   OH2 9313   2.325   6.632   1.156
 3123TIP3    H1 9314   2.406   6.600   1.117
 3123TIP3    H2 9315   2.352   6.707   1.210
 3124TIP3   OH2 9316   0.073   3.346   6.678
 3124TIP3    H1 9317   0.146   3.358   6.617
 3124TIP3    H2 9318   0.032   3.264   6.651
 3125TIP3   OH2 9319   3.897   5.165   2.509
 3125TIP3    H1 9320   3.880   5.252   2.546
 3125TIP3    H2 9321   3.885   5.105   2.583
 3126TIP3   OH2 9322   4.889   5.521   6.433
 3126TIP3    H1 9323   4.839   5.562   6.363
 3126TIP3    H2 9324   4.981   5.531   6.407
 3127TIP3   OH2 9325   6.748   7.068   4.791
 3127TIP3    H1 9326   6.719   7.091   4.879
 3127TIP3    H2 9327   6.759   7.152   4.746
 3128TIP3   OH2 9328   6.614   6.611   4.174
 3128TIP3    H1 9329   6.522   6.639   4.180
 3128TIP3    H2 9330   6.621   6.571   4.088
 3129TIP3   OH2 9331   5.439   5.230   2.205
 3129TIP3    H1 9332   5.487   5.179   2.270
 3129TIP3    H2 9333   5.353   5.246   2.246
 3130TIP3   OH2 9334   7.275   2.179   2.407
 3130TIP3    H1 9335   7.198   2.128   2.385
 3130TIP3    H2 9336   7.303   2.145   2.492
 3131TIP3   OH2 9337   3.292   0.081   2.382
 3131TIP3    H1 9338   3.268   0.007   2.326
 3131TIP3    H2 9339   3.351   0.133   2.328
 3132TIP3   OH2 9340   6.690   3.952   5.760
 3132TIP3    H1 9341   6.622   3.995   5.708
 3132TIP3    H2 9342   6.707   3.870   5.714
 3133TIP3   OH2 9343   1.063   4.314   0.465
 3133TIP3    H1 9344   1.057   4.291   0.557
 3133TIP3    H2 9345   1.050   4.232   0.418
 3134TIP3   OH2 9346   4.835   5.510   1.648
 3134TIP3    H1 9347   4.833   5.511   1.744
 3134TIP3    H2 9348   4.752   5.469   1.623
 3135TIP3   OH2 9349   1.317   7.290   5.968
 3135TIP3    H1 9350   1.362   7.367   6.004
 3135TIP3    H2 9351   1.371   7.263   5.893
 3136TIP3   OH2 9352   6.886   2.751   2.291
 3136TIP3    H1 9353   6.965   2.728   2.341
 3136TIP3    H2 9354   6.919   2.804   2.219
 3137TIP3   OH2 9355   1.693   4.748   3.751
 3137TIP3    H1 9356   1.710   4.756   3.657
 3137TIP3    H2 9357   1.779   4.751   3.791
 3138TIP3   OH2 9358   2.452   1.331   3.538
 3138TIP3    H1 9359   2.506   1.409   3.554
 3138TIP3    H2 9360   2.420   1.306   3.625
 3139TIP3   OH2 9361   1.048   4.702   2.338
 3139TIP3    H1 9362   1.015   4.740   2.419
 3139TIP3    H2 9363   1.072   4.613   2.362
 3140TIP3   OH2 9364   1.941   1.426   1.666
 3140TIP3    H1 9365   1.936   1.459   1.756
 3140TIP3    H2 9366   1.957   1.333   1.675
 3141TIP3   OH2 9367   8.241   4.827   3.837
 3141TIP3    H1 9368   8.182   4.754   3.854
 3141TIP3    H2 9369   8.228   4.846   3.744
 3142TIP3   OH2 9370   4.370   0.254   5.074
 3142TIP3    H1 9371   4.443   0.314   5.087
 3142TIP3    H2 9372   4.411   0.167   5.075
 3143TIP3   OH2 9373   4.088   0.055   0.676
 3143TIP3    H1 9374   4.015   0.016   0.627
 3143TIP3    H2 9375   4.083   0.149   0.655
 3144TIP3   OH2 9376   6.738   1.940   1.160
 3144TIP3    H1 9377   6.700   1.875   1.100
 3144TIP3    H2 9378   6.715   1.909   1.247
 3145TIP3   OH2 9379   4.711   2.448   0.125
 3145TIP3    H1 9380   4.760   2.369   0.100
 3145TIP3    H2 9381   4.774   2.500   0.176
 3146TIP3   OH2 9382   7.954   6.920   1.017
 3146TIP3    H1 9383   7.871   6.901   0.973
 3146TIP3    H2 9384   8.020   6.876   0.964
 3147TIP3   OH2 9385   2.779   5.327   4.968
 3147TIP3    H1 9386   2.720   5.346   5.040
 3147TIP3    H2 9387   2.729   5.270   4.910
 3148TIP3   OH2 9388   5.653   3.760   1.311
 3148TIP3    H1 9389   5.592   3.687   1.300
 3148TIP3    H2 9390   5.692   3.745   1.397
 3149TIP3   OH2 9391   0.435   6.540   2.660
 3149TIP3    H1 9392   0.407   6.450   2.642
 3149TIP3    H2 9393   0.358   6.593   2.641
 3150TIP3   OH2 9394   7.701   0.423   2.502
 3150TIP3    H1 9395   7.784   0.387   2.531
 3150TIP3    H2 9396   7.666   0.469   2.578
 3151TIP3   OH2 9397   5.962   6.006   1.042
 3151TIP3    H1 9398   6.015   6.070   1.091
 3151TIP3    H2 9399   5.887   5.989   1.099
 3152TIP3   OH2 9400   3.301   3.155   5.074
 3152TIP3    H1 9401   3.339   3.238   5.103
 3152TIP3    H2 9402   3.239   3.131   5.144
 3153TIP3   OH2 9403   6.714   6.683   6.144
 3153TIP3    H1 9404   6.757   6.680   6.229
 3153TIP3    H2 9405   6.666   6.766   6.145
 3154TIP3   OH2 9406   5.734   3.676   3.251
 3154TIP3    H1 9407   5.703   3.731   3.179
 3154TIP3    H2 9408   5.654   3.653   3.299
 3155TIP3   OH2 9409   4.653   0.474   0.067
 3155TIP3    H1 9410   4.709   0.432   0.001
 3155TIP3    H2 9411   4.606   0.542   0.018
 3156TIP3   OH2 9412   1.053   1.946   4.936
 3156TIP3    H1 9413   1.016   1.871   4.984
 3156TIP3    H2 9414   1.027   2.022   4.988
 3157TIP3   OH2 9415   7.801   2.730   3.543
 3157TIP3    H1 9416   7.824   2.653   3.595
 3157TIP3    H2 9417   7.778   2.797   3.608
 3158TIP3   OH2 9418   7.816   6.744   4.912
 3158TIP3    H1 9419   7.905   6.710   4.914
 3158TIP3    H2 9420   7.790   6.750   5.004
 3159TIP3   OH2 9421   2.590   5.817   3.595
 3159TIP3    H1 9422   2.589   5.908   3.564
 3159TIP3    H2 9423   2.666   5.777   3.553
 3160TIP3   OH2 9424   3.871   5.408   5.554
 3160TIP3    H1 9425   3.885   5.317   5.581
 3160TIP3    H2 9426   3.794   5.404   5.497
 3161TIP3   OH2 9427   3.853   6.507   5.809
 3161TIP3    H1 9428   3.797   6.528   5.734
 3161TIP3    H2 9429   3.874   6.414   5.798
 3162TIP3   OH2 9430   2.183   1.320   1.486
 3162TIP3    H1 9431   2.241   1.381   1.531
 3162TIP3    H2 9432   2.161   1.255   1.552
 3163TIP3   OH2 9433   0.210   6.136   2.295
 3163TIP3    H1 9434   0.174   6.222   2.315
 3163TIP3    H2 9435   0.195   6.084   2.374
 3164TIP3   OH2 9436   3.118   5.209   1.955
 3164TIP3    H1 9437   3.204   5.242   1.977
 3164TIP3    H2 9438   3.128   5.173   1.867
 3165TIP3   OH2 9439   5.914   2.558   4.415
 3165TIP3    H1 9440   5.834   2.598   4.381
 3165TIP3    H2 9441   5.883   2.485   4.469
 3166TIP3   OH2 9442   6.192   3.397   1.458
 3166TIP3    H1 9443   6.232   3.477   1.424
 3166TIP3    H2 9444   6.209   3.331   1.391
 3167TIP3   OH2 9445   4.731   1.432   4.311
 3167TIP3    H1 9446   4.695   1.518   4.288
 3167TIP3    H2 9447   4.718   1.378   4.234
 3168TIP3   OH2 9448   3.089   6.242   3.397
 3168TIP3    H1 9449   3.183   6.241   3.418
 3168TIP3    H2 9450   3.085   6.217   3.305
 3169TIP3   OH2 9451   0.448   7.088   3.958
 3169TIP3    H1 9452   0.528   7.064   3.911
 3169TIP3    H2 9453   0.377   7.066   3.897
 3170TIP3   OH2 9454   5.700   6.976   6.542
 3170TIP3    H1 9455   5.671   6.891   6.510
 3170TIP3    H2 9456   5.621   7.016   6.579
 3171TIP3   OH2 9457   3.950   3.564   4.028
 3171TIP3    H1 9458   3.899   3.640   4.002
 3171TIP3    H2 9459   4.015   3.554   3.959
 3172TIP3   OH2 9460   7.560   5.348   5.039
 3172TIP3    H1 9461   7.491   5.284   5.019
 3172TIP3    H2 9462   7.641   5.297   5.032
 3173TIP3   OH2 9463   4.857   5.596   6.711
 3173TIP3    H1 9464   4.890   5.559   6.630
 3173TIP3    H2 9465   4.903   5.548   6.780
 3174TIP3   OH2 9466   6.942   2.871   0.124
 3174TIP3    H1 9467   6.915   2.960   0.102
 3174TIP3    H2 9468   7.038   2.873   0.119
 3175TIP3   OH2 9469   7.770   2.156   6.442
 3175TIP3    H1 9470   7.746   2.249   6.452
 3175TIP3    H2 9471   7.750   2.137   6.350
 3176TIP3   OH2 9472   1.309   2.448   1.340
 3176TIP3    H1 9473   1.354   2.527   1.310
 3176TIP3    H2 9474   1.362   2.376   1.306
 3177TIP3   OH2 9475   6.839   5.344   6.044
 3177TIP3    H1 9476   6.882   5.263   6.017
 3177TIP3    H2 9477   6.847   5.402   5.968
 3178TIP3   OH2 9478   3.108   6.696   2.740
 3178TIP3    H1 9479   3.144   6.775   2.780
 3178TIP3    H2 9480   3.154   6.624   2.784
 3179TIP3   OH2 9481   5.925   0.251   1.949
 3179TIP3    H1 9482   5.968   0.248   1.863
 3179TIP3    H2 9483   5.901   0.160   1.967
 3180TIP3   OH2 9484   7.721   6.499   3.089
 3180TIP3    H1 9485   7.696   6.430   3.027
 3180TIP3    H2 9486   7.748   6.452   3.168
 3181TIP3   OH2 9487   3.039   6.165   3.123
 3181TIP3    H1 9488   3.004   6.081   3.093
 3181TIP3    H2 9489   3.017   6.226   3.053
 3182TIP3   OH2 9490   5.575   3.549   0.567
 3182TIP3    H1 9491   5.511   3.605   0.611
 3182TIP3    H2 9492   5.608   3.602   0.494
 3183TIP3   OH2 9493   2.083   2.591   4.255
 3183TIP3    H1 9494   2.174   2.616   4.244
 3183TIP3    H2 9495   2.074   2.570   4.348
 3184TIP3   OH2 9496   1.895   3.720   2.904
 3184TIP3    H1 9497   1.806   3.741   2.876
 3184TIP3    H2 9498   1.888   3.634   2.945
 3185TIP3   OH2 9499   7.238   1.588   5.780
 3185TIP3    H1 9500   7.217   1.558   5.691
 3185TIP3    H2 9501   7.215   1.681   5.779
 3186TIP3   OH2 9502   0.802   5.543   1.394
 3186TIP3    H1 9503   0.838   5.540   1.483
 3186TIP3    H2 9504   0.707   5.541   1.407
 3187TIP3   OH2 9505   1.765   5.476   1.331
 3187TIP3    H1 9506   1.795   5.563   1.305
 3187TIP3    H2 9507   1.803   5.417   1.266
 3188TIP3   OH2 9508   3.540   1.426   0.190
 3188TIP3    H1 9509   3.579   1.343   0.218
 3188TIP3    H2 9510   3.568   1.490   0.255
 3189TIP3   OH2 9511   2.030   2.851   2.628
 3189TIP3    H1 9512   2.050   2.775   2.683
 3189TIP3    H2 9513   2.069   2.925   2.675
 3190TIP3   OH2 9514   7.606   4.715   2.624
 3190TIP3    H1 9515   7.591   4.806   2.602
 3190TIP3    H2 9516   7.698   4.700   2.601
 3191TIP3   OH2 9517   7.146   3.051   2.872
 3191TIP3    H1 9518   7.204   3.116   2.911
 3191TIP3    H2 9519   7.070   3.048   2.931
 3192TIP3   OH2 9520   1.805   2.754   2.459
 3192TIP3    H1 9521   1.785   2.692   2.529
 3192TIP3    H2 9522   1.895   2.782   2.478
 3193TIP3   OH2 9523   6.945   5.250   6.454
 3193TIP3    H1 9524   6.922   5.329   6.405
 3193TIP3    H2 9525   6.882   5.247   6.526
 3194TIP3   OH2 9526   2.463   2.540   5.319
 3194TIP3    H1 9527   2.378   2.503   5.294
 3194TIP3    H2 9528   2.445   2.593   5.397
 3195TIP3   OH2 9529   8.209   1.632   6.783
 3195TIP3    H1 9530   8.137   1.630   6.720
 3195TIP3    H2 9531   8.189   1.706   6.840
 3196TIP3   OH2 9532   6.928   6.324   3.134
 3196TIP3    H1 9533   6.993   6.268   3.091
 3196TIP3    H2 9534   6.968   6.411   3.136
 3197TIP3   OH2 9535   7.118   6.173   2.996
 3197TIP3    H1 9536   7.207   6.199   3.018
 3197TIP3    H2 9537   7.125   6.081   2.973
 3198TIP3   OH2 9538   8.271   4.443   1.879
 3198TIP3    H1 9539   8.353   4.483   1.908
 3198TIP3    H2 9540   8.203   4.501   1.913
 3199TIP3   OH2 9541   8.105   1.835   6.130
 3199TIP3    H1 9542   8.105   1.871   6.041
 3199TIP3    H2 9543   8.038   1.885   6.176
 3200TIP3   OH2 9544   1.078   5.403   2.020
 3200TIP3    H1 9545   1.019   5.333   1.993
 3200TIP3    H2 9546   1.071   5.405   2.116
 3201TIP3   OH2 9547   2.141   6.480   2.890
 3201TIP3    H1 9548   2.199   6.432   2.831
 3201TIP3    H2 9549   2.198   6.542   2.934
 3202TIP3   OH2 9550   5.567   6.277   1.808
 3202TIP3    H1 9551   5.570   6.343   1.877
 3202TIP3    H2 9552   5.654   6.237   1.809
 3203TIP3   OH2 9553   5.821   1.076   3.915
 3203TIP3    H1 9554   5.881   1.088   3.989
 3203TIP3    H2 9555   5.828   1.157   3.865
 3204TIP3   OH2 9556   1.736   5.230   3.469
 3204TIP3    H1 9557   1.820   5.242   3.513
 3204TIP3    H2 9558   1.675   5.285   3.519
 3205TIP3   OH2 9559   7.094   3.074   3.245
 3205TIP3    H1 9560   7.135   3.154   3.212
 3205TIP3    H2 9561   7.014   3.104   3.287
 3206TIP3   OH2 9562   1.066   6.328   1.449
 3206TIP3    H1 9563   0.978   6.292   1.450
 3206TIP3    H2 9564   1.100   6.307   1.362
 3207TIP3   OH2 9565   4.913   7.115   1.399
 3207TIP3    H1 9566   4.892   7.106   1.492
 3207TIP3    H2 9567   4.997   7.161   1.397
 3208TIP3   OH2 9568   2.387   2.263   3.898
 3208TIP3    H1 9569   2.473   2.223   3.891
 3208TIP3    H2 9570   2.329   2.192   3.925
 3209TIP3   OH2 9571   0.320   4.976   4.457
 3209TIP3    H1 9572   0.412   4.983   4.430
 3209TIP3    H2 9573   0.270   4.989   4.377
 3210TIP3   OH2 9574   2.621   6.203   4.992
 3210TIP3    H1 9575   2.651   6.197   4.901
 3210TIP3    H2 9576   2.679   6.267   5.032
 3211TIP3   OH2 9577   1.486   0.338   3.716
 3211TIP3    H1 9578   1.440   0.298   3.790
 3211TIP3    H2 9579   1.540   0.267   3.680
 3212TIP3   OH2 9580   1.012   7.113   4.029
 3212TIP3    H1 9581   0.973   7.117   3.942
 3212TIP3    H2 9582   1.076   7.041   4.023
 3213TIP3   OH2 9583   0.734   4.871   6.078
 3213TIP3    H1 9584   0.752   4.876   5.984
 3213TIP3    H2 9585   0.714   4.779   6.094
 3214TIP3   OH2 9586   4.454   4.180   2.674
 3214TIP3    H1 9587   4.457   4.095   2.718
 3214TIP3    H2 9588   4.545   4.198   2.650
 3215TIP3   OH2 9589   5.223   7.571   1.315
 3215TIP3    H1 9590   5.232   7.528   1.230
 3215TIP3    H2 9591   5.179   7.507   1.370
 3216TIP3   OH2 9592   3.244   5.455   5.370
 3216TIP3    H1 9593   3.263   5.409   5.289
 3216TIP3    H2 9594   3.328   5.491   5.398
 3217TIP3   OH2 9595   4.862   4.286   1.243
 3217TIP3    H1 9596   4.924   4.274   1.316
 3217TIP3    H2 9597   4.909   4.342   1.182
 3218TIP3   OH2 9598   7.744   0.808   6.055
 3218TIP3    H1 9599   7.702   0.725   6.078
 3218TIP3    H2 9600   7.706   0.832   5.971
 3219TIP3   OH2 9601   4.087   7.803   2.604
 3219TIP3    H1 9602   4.146   7.732   2.627
 3219TIP3    H2 9603   4.104   7.821   2.512
 3220TIP3   OH2 9604   4.521   7.444   5.785
 3220TIP3    H1 9605   4.432   7.448   5.748
 3220TIP3    H2 9606   4.517   7.500   5.862
 3221TIP3   OH2 9607   0.855   1.235   4.741
 3221TIP3    H1 9608   0.925   1.300   4.748
 3221TIP3    H2 9609   0.783   1.272   4.792
 3222TIP3   OH2 9610   1.241   6.093   3.422
 3222TIP3    H1 9611   1.203   6.024   3.367
 3222TIP3    H2 9612   1.226   6.063   3.512
 3223TIP3   OH2 9613   0.639   0.906   5.438
 3223TIP3    H1 9614   0.553   0.881   5.473
 3223TIP3    H2 9615   0.689   0.933   5.515
 3224TIP3   OH2 9616   1.716   2.281   4.137
 3224TIP3    H1 9617   1.676   2.237   4.212
 3224TIP3    H2 9618   1.662   2.254   4.063
 3225TIP3   OH2 9619   5.163   3.495   4.329
 3225TIP3    H1 9620   5.173   3.511   4.423
 3225TIP3    H2 9621   5.103   3.420   4.324
 3226TIP3   OH2 9622   1.590   4.361   5.142
 3226TIP3    H1 9623   1.629   4.448   5.133
 3226TIP3    H2 9624   1.499   4.373   5.114
 3227TIP3   OH2 9625   0.393   1.710   3.384
 3227TIP3    H1 9626   0.325   1.678   3.325
 3227TIP3    H2 9627   0.350   1.719   3.469
 3228TIP3   OH2 9628   0.309   4.795   1.550
 3228TIP3    H1 9629   0.373   4.819   1.617
 3228TIP3    H2 9630   0.259   4.724   1.589
 3229TIP3   OH2 9631   2.636   4.531   0.195
 3229TIP3    H1 9632   2.614   4.525   0.102
 3229TIP3    H2 9633   2.563   4.488   0.239
 3230TIP3   OH2 9634  -0.050   1.325   3.842
 3230TIP3    H1 9635   0.028   1.380   3.854
 3230TIP3    H2 9636  -0.019   1.236   3.859
 3231TIP3   OH2 9637   0.746   2.184   0.949
 3231TIP3    H1 9638   0.743   2.273   0.984
 3231TIP3    H2 9639   0.830   2.150   0.979
 3232TIP3   OH2 9640   2.503   7.011   0.599
 3232TIP3    H1 9641   2.504   7.022   0.694
 3232TIP3    H2 9642   2.448   7.082   0.567
 3233TIP3   OH2 9643   4.051   0.771   4.659
 3233TIP3    H1 9644   3.997   0.768   4.738
 3233TIP3    H2 9645   4.138   0.795   4.689
 3234TIP3   OH2 9646   7.523   3.598   2.238
 3234TIP3    H1 9647   7.466   3.611   2.313
 3234TIP3    H2 9648   7.584   3.672   2.241
 3235TIP3   OH2 9649   2.396   2.756   4.743
 3235TIP3    H1 9650   2.456   2.818   4.701
 3235TIP3    H2 9651   2.312   2.803   4.746
 3236TIP3   OH2 9652   0.368   1.572   1.597
 3236TIP3    H1 9653   0.285   1.524   1.592
 3236TIP3    H2 9654   0.424   1.531   1.531
 3237TIP3   OH2 9655   0.335   6.315   0.732
 3237TIP3    H1 9656   0.343   6.286   0.641
 3237TIP3    H2 9657   0.423   6.304   0.767
 3238TIP3   OH2 9658   4.751   7.139   3.318
 3238TIP3    H1 9659   4.826   7.191   3.348
 3238TIP3    H2 9660   4.779   7.048   3.325
 3239TIP3   OH2 9661   0.028   5.288   0.703
 3239TIP3    H1 9662   0.123   5.305   0.705
 3239TIP3    H2 9663  -0.012   5.374   0.705
 3240TIP3   OH2 9664   4.526   5.212   4.856
 3240TIP3    H1 9665   4.617   5.195   4.883
 3240TIP3    H2 9666   4.480   5.231   4.938
 3241TIP3   OH2 9667   1.012   1.743   1.290
 3241TIP3    H1 9668   0.990   1.829   1.323
 3241TIP3    H2 9669   0.937   1.717   1.237
 3242TIP3   OH2 9670   3.345   1.850   2.023
 3242TIP3    H1 9671   3.321   1.794   1.949
 3242TIP3    H2 9672   3.266   1.902   2.040
 3243TIP3   OH2 9673   2.421   6.646   6.409
 3243TIP3    H1 9674   2.415   6.741   6.409
 3243TIP3    H2 9675   2.398   6.620   6.320
 3244TIP3   OH2 9676   2.791   1.585   1.481
 3244TIP3    H1 9677   2.709   1.626   1.506
 3244TIP3    H2 9678   2.841   1.579   1.563
 3245TIP3   OH2 9679   1.599   6.043   3.703
 3245TIP3    H1 9680   1.594   5.985   3.627
 3245TIP3    H2 9681   1.599   6.131   3.666
 3246TIP3   OH2 9682   7.954   0.484   3.028
 3246TIP3    H1 9683   7.903   0.486   3.109
 3246TIP3    H2 9684   8.026   0.424   3.047
 3247TIP3   OH2 9685   5.476   1.866   1.550
 3247TIP3    H1 9686   5.521   1.919   1.616
 3247TIP3    H2 9687   5.464   1.781   1.592
 3248TIP3   OH2 9688   0.699   6.928   3.966
 3248TIP3    H1 9689   0.669   6.916   4.056
 3248TIP3    H2 9690   0.790   6.898   3.968
 3249TIP3   OH2 9691   7.956   1.445   3.689
 3249TIP3    H1 9692   7.913   1.515   3.640
 3249TIP3    H2 9693   8.023   1.412   3.629
 3250TIP3   OH2 9694   3.017   7.147   4.569
 3250TIP3    H1 9695   3.093   7.167   4.623
 3250TIP3    H2 9696   2.942   7.160   4.627
 3251TIP3   OH2 9697   6.700   5.656   0.940
 3251TIP3    H1 9698   6.741   5.731   0.984
 3251TIP3    H2 9699   6.746   5.650   0.856
 3252TIP3   OH2 9700   4.353   2.301   1.006
 3252TIP3    H1 9701   4.264   2.267   1.018
 3252TIP3    H2 9702   4.367   2.358   1.082
 3253TIP3   OH2 9703   4.273   4.797   4.911
 3253TIP3    H1 9704   4.322   4.794   4.828
 3253TIP3    H2 9705   4.337   4.824   4.976
 3254TIP3   OH2 9706   3.670   3.233   3.600
 3254TIP3    H1 9707   3.656   3.158   3.657
 3254TIP3    H2 9708   3.582   3.261   3.576
 3255TIP3   OH2 9709   7.312   0.179   4.757
 3255TIP3    H1 9710   7.351   0.092   4.761
 3255TIP3    H2 9711   7.357   0.229   4.826
 3256TIP3   OH2 9712   0.535   0.052   1.291
 3256TIP3    H1 9713   0.514  -0.014   1.358
 3256TIP3    H2 9714   0.449   0.083   1.262
 3257TIP3   OH2 9715   1.224   6.529   4.851
 3257TIP3    H1 9716   1.256   6.564   4.935
 3257TIP3    H2 9717   1.293   6.472   4.821
 3258TIP3   OH2 9718   4.819   4.840   6.343
 3258TIP3    H1 9719   4.766   4.907   6.385
 3258TIP3    H2 9720   4.885   4.817   6.408
 3259TIP3   OH2 9721   7.389   1.010   3.668
 3259TIP3    H1 9722   7.368   1.064   3.745
 3259TIP3    H2 9723   7.333   1.045   3.598
 3260TIP3   OH2 9724   2.862   0.619   2.667
 3260TIP3    H1 9725   2.893   0.595   2.580
 3260TIP3    H2 9726   2.936   0.662   2.709
 3261TIP3   OH2 9727   5.528   4.848   0.225
 3261TIP3    H1 9728   5.593   4.785   0.195
 3261TIP3    H2 9729   5.445   4.801   0.217
 3262TIP3   OH2 9730   1.882   3.817   6.064
 3262TIP3    H1 9731   1.828   3.740   6.085
 3262TIP3    H2 9732   1.942   3.785   5.996
 3263TIP3   OH2 9733   6.302   5.301   2.009
 3263TIP3    H1 9734   6.279   5.393   2.001
 3263TIP3    H2 9735   6.253   5.271   2.086
 3264TIP3   OH2 9736   4.411   2.396   1.379
 3264TIP3    H1 9737   4.376   2.416   1.466
 3264TIP3    H2 9738   4.342   2.426   1.319
 3265TIP3   OH2 9739   6.133   2.636   4.081
 3265TIP3    H1 9740   6.096   2.695   4.147
 3265TIP3    H2 9741   6.152   2.555   4.129
 3266TIP3   OH2 9742   0.235   4.725   3.351
 3266TIP3    H1 9743   0.329   4.717   3.333
 3266TIP3    H2 9744   0.220   4.670   3.428
 3267TIP3   OH2 9745   7.044   7.014   6.383
 3267TIP3    H1 9746   7.076   6.947   6.323
 3267TIP3    H2 9747   7.076   7.096   6.347
 3268TIP3   OH2 9748   6.352   3.221   5.333
 3268TIP3    H1 9749   6.331   3.299   5.283
 3268TIP3    H2 9750   6.367   3.253   5.422
 3269TIP3   OH2 9751   4.308   4.600   0.067
 3269TIP3    H1 9752   4.377   4.573   0.129
 3269TIP3    H2 9753   4.247   4.650   0.121
 3270TIP3   OH2 9754   3.343   4.351   4.446
 3270TIP3    H1 9755   3.280   4.322   4.380
 3270TIP3    H2 9756   3.392   4.421   4.403
 3271TIP3   OH2 9757   8.285   3.950   2.872
 3271TIP3    H1 9758   8.345   3.973   2.801
 3271TIP3    H2 9759   8.261   4.035   2.911
 3272TIP3   OH2 9760   3.460   2.807   5.610
 3272TIP3    H1 9761   3.385   2.749   5.601
 3272TIP3    H2 9762   3.528   2.752   5.651
 3273TIP3   OH2 9763   2.694   0.297   2.038
 3273TIP3    H1 9764   2.750   0.225   2.009
 3273TIP3    H2 9765   2.747   0.345   2.102
 3274TIP3   OH2 9766   1.397   5.867   0.689
 3274TIP3    H1 9767   1.392   5.802   0.760
 3274TIP3    H2 9768   1.365   5.820   0.612
 3275TIP3   OH2 9769   2.409   4.797   0.266
 3275TIP3    H1 9770   2.425   4.851   0.343
 3275TIP3    H2 9771   2.470   4.831   0.200
 3276TIP3   OH2 9772   3.321   5.332   6.463
 3276TIP3    H1 9773   3.407   5.358   6.430
 3276TIP3    H2 9774   3.312   5.380   6.546
 3277TIP3   OH2 9775   6.499   3.114   2.872
 3277TIP3    H1 9776   6.524   3.187   2.816
 3277TIP3    H2 9777   6.411   3.135   2.903
 3278TIP3   OH2 9778   2.089   6.501   4.726
 3278TIP3    H1 9779   2.107   6.577   4.671
 3278TIP3    H2 9780   2.059   6.537   4.809
 3279TIP3   OH2 9781   4.303   4.294   3.295
 3279TIP3    H1 9782   4.280   4.220   3.352
 3279TIP3    H2 9783   4.246   4.285   3.219
 3280TIP3   OH2 9784   2.210   5.697   3.277
 3280TIP3    H1 9785   2.157   5.744   3.341
 3280TIP3    H2 9786   2.268   5.642   3.330
 3281TIP3   OH2 9787   4.441   3.071   3.326
 3281TIP3    H1 9788   4.490   2.989   3.321
 3281TIP3    H2 9789   4.469   3.110   3.409
 3282TIP3   OH2 9790   2.785   7.175   1.412
 3282TIP3    H1 9791   2.719   7.239   1.438
 3282TIP3    H2 9792   2.814   7.136   1.495
 3283TIP3   OH2 9793   3.035   3.313   4.613
 3283TIP3    H1 9794   3.018   3.224   4.582
 3283TIP3    H2 9795   3.002   3.315   4.702
 3284TIP3   OH2 9796   1.648   1.314   1.558
 3284TIP3    H1 9797   1.608   1.386   1.508
 3284TIP3    H2 9798   1.600   1.314   1.641
 3285TIP3   OH2 9799   3.105   6.188   1.582
 3285TIP3    H1 9800   3.064   6.102   1.574
 3285TIP3    H2 9801   3.199   6.170   1.579
 3286TIP3   OH2 9802   3.570   5.867   5.758
 3286TIP3    H1 9803   3.539   5.957   5.764
 3286TIP3    H2 9804   3.503   5.816   5.804
 3287TIP3   OH2 9805   3.057   4.269   2.196
 3287TIP3    H1 9806   3.061   4.218   2.115
 3287TIP3    H2 9807   3.149   4.285   2.219
 3288TIP3   OH2 9808   2.299   1.239   1.006
 3288TIP3    H1 9809   2.213   1.280   1.002
 3288TIP3    H2 9810   2.336   1.250   0.918
 3289TIP3   OH2 9811   5.234   2.396   5.270
 3289TIP3    H1 9812   5.246   2.352   5.186
 3289TIP3    H2 9813   5.257   2.330   5.336
 3290TIP3   OH2 9814   0.953   5.533   2.622
 3290TIP3    H1 9815   1.010   5.456   2.621
 3290TIP3    H2 9816   0.951   5.560   2.713
 3291TIP3   OH2 9817   8.204   2.644   5.015
 3291TIP3    H1 9818   8.172   2.714   4.958
 3291TIP3    H2 9819   8.280   2.682   5.060
 3292TIP3   OH2 9820   5.886   3.819   0.837
 3292TIP3    H1 9821   5.952   3.811   0.905
 3292TIP3    H2 9822   5.810   3.857   0.881
 3293TIP3   OH2 9823   5.948   6.672   0.541
 3293TIP3    H1 9824   5.956   6.733   0.615
 3293TIP3    H2 9825   5.907   6.723   0.472
 3294TIP3   OH2 9826   6.290   0.572   4.964
 3294TIP3    H1 9827   6.196   0.577   4.945
 3294TIP3    H2 9828   6.300   0.491   5.014
 3295TIP3   OH2 9829   6.078   0.687   4.750
 3295TIP3    H1 9830   6.083   0.640   4.667
 3295TIP3    H2 9831   6.049   0.775   4.727
 3296TIP3   OH2 9832   5.254   7.472   5.739
 3296TIP3    H1 9833   5.260   7.460   5.644
 3296TIP3    H2 9834   5.304   7.552   5.755
 3297TIP3   OH2 9835   2.846   6.714   0.923
 3297TIP3    H1 9836   2.899   6.765   0.984
 3297TIP3    H2 9837   2.888   6.728   0.838
 3298TIP3   OH2 9838   4.968   0.503   5.641
 3298TIP3    H1 9839   5.054   0.499   5.599
 3298TIP3    H2 9840   4.952   0.413   5.670
 3299TIP3   OH2 9841   7.255   3.780   2.383
 3299TIP3    H1 9842   7.201   3.795   2.461
 3299TIP3    H2 9843   7.336   3.742   2.417
 3300TIP3   OH2 9844   0.901   1.497   2.381
 3300TIP3    H1 9845   0.810   1.522   2.366
 3300TIP3    H2 9846   0.937   1.483   2.294
 3301TIP3   OH2 9847   1.062   2.325   2.359
 3301TIP3    H1 9848   1.144   2.278   2.374
 3301TIP3    H2 9849   1.083   2.416   2.382
 3302TIP3   OH2 9850   3.066   7.606  -0.001
 3302TIP3    H1 9851   3.111   7.523   0.013
 3302TIP3    H2 9852   2.986   7.599   0.051
 3303TIP3   OH2 9853   3.095   4.520   6.737
 3303TIP3    H1 9854   3.181   4.495   6.703
 3303TIP3    H2 9855   3.044   4.543   6.659
 3304TIP3   OH2 9856   6.507   1.634   5.069
 3304TIP3    H1 9857   6.526   1.724   5.042
 3304TIP3    H2 9858   6.578   1.611   5.128
 3305TIP3   OH2 9859   3.989   4.847   5.564
 3305TIP3    H1 9860   3.928   4.838   5.637
 3305TIP3    H2 9861   3.936   4.830   5.487
 3306TIP3   OH2 9862   6.588   1.913   3.056
 3306TIP3    H1 9863   6.551   1.864   2.983
 3306TIP3    H2 9864   6.524   1.981   3.075
 3307TIP3   OH2 9865   5.536   4.437   0.490
 3307TIP3    H1 9866   5.525   4.352   0.531
 3307TIP3    H2 9867   5.525   4.421   0.397
 3308TIP3   OH2 9868   7.948   1.462   3.227
 3308TIP3    H1 9869   7.935   1.409   3.305
 3308TIP3    H2 9870   8.035   1.501   3.238
 3309TIP3   OH2 9871   3.653   3.074   2.788
 3309TIP3    H1 9872   3.622   3.056   2.877
 3309TIP3    H2 9873   3.588   3.032   2.732
 3310TIP3   OH2 9874   1.977   4.366   0.702
 3310TIP3    H1 9875   1.963   4.293   0.762
 3310TIP3    H2 9876   2.072   4.370   0.691
 3311TIP3   OH2 9877   1.181   3.502   4.509
 3311TIP3    H1 9878   1.214   3.537   4.592
 3311TIP3    H2 9879   1.113   3.440   4.534
 3312TIP3   OH2 9880   0.086   4.169   0.563
 3312TIP3    H1 9881   0.045   4.243   0.518
 3312TIP3    H2 9882   0.129   4.120   0.493
 3313TIP3   OH2 9883   7.772   7.210   0.941
 3313TIP3    H1 9884   7.720   7.214   1.022
 3313TIP3    H2 9885   7.711   7.236   0.872
 3314TIP3   OH2 9886   0.333   1.442   0.630
 3314TIP3    H1 9887   0.351   1.481   0.544
 3314TIP3    H2 9888   0.386   1.363   0.631
 3315TIP3   OH2 9889   2.151   6.851   2.982
 3315TIP3    H1 9890   2.245   6.848   3.000
 3315TIP3    H2 9891   2.132   6.944   2.968
 3316TIP3   OH2 9892   0.299   1.735   3.655
 3316TIP3    H1 9893   0.223   1.691   3.694
 3316TIP3    H2 9894   0.321   1.803   3.718
 3317TIP3   OH2 9895   1.349   3.259   5.723
 3317TIP3    H1 9896   1.389   3.231   5.806
 3317TIP3    H2 9897   1.356   3.182   5.666
 3318TIP3   OH2 9898   4.465   7.542   2.958
 3318TIP3    H1 9899   4.520   7.469   2.929
 3318TIP3    H2 9900   4.397   7.549   2.892
 3319TIP3   OH2 9901   7.676   0.398   4.578
 3319TIP3    H1 9902   7.764   0.426   4.554
 3319TIP3    H2 9903   7.688   0.343   4.655
 3320TIP3   OH2 9904   3.332   4.770   0.372
 3320TIP3    H1 9905   3.386   4.798   0.298
 3320TIP3    H2 9906   3.273   4.705   0.336
 3321TIP3   OH2 9907   1.593   4.341   5.570
 3321TIP3    H1 9908   1.591   4.249   5.542
 3321TIP3    H2 9909   1.626   4.338   5.659
 3322TIP3   OH2 9910   5.320   1.877   2.194
 3322TIP3    H1 9911   5.268   1.906   2.269
 3322TIP3    H2 9912   5.341   1.786   2.214
 3323TIP3   OH2 9913   5.625   3.136   4.304
 3323TIP3    H1 9914   5.563   3.173   4.367
 3323TIP3    H2 9915   5.667   3.212   4.264
 3324TIP3   OH2 9916   2.917   4.994   2.355
 3324TIP3    H1 9917   2.961   4.920   2.315
 3324TIP3    H2 9918   2.935   5.068   2.296
 3325TIP3   OH2 9919   2.935   4.869   0.923
 3325TIP3    H1 9920   2.996   4.840   0.990
 3325TIP3    H2 9921   2.929   4.795   0.862
 3326TIP3   OH2 9922   2.824   2.312   0.880
 3326TIP3    H1 9923   2.897   2.292   0.822
 3326TIP3    H2 9924   2.774   2.231   0.886
 3327TIP3   OH2 9925   0.939   4.690   5.537
 3327TIP3    H1 9926   0.993   4.678   5.459
 3327TIP3    H2 9927   0.947   4.607   5.585
 3328TIP3   OH2 9928   1.944   3.847   1.354
 3328TIP3    H1 9929   2.029   3.890   1.345
 3328TIP3    H2 9930   1.901   3.893   1.426
 3329TIP3   OH2 9931   3.602   2.138   0.345
 3329TIP3    H1 9932   3.526   2.175   0.301
 3329TIP3    H2 9933   3.676   2.159   0.288
 3330TIP3   OH2 9934   7.808   3.455   4.920
 3330TIP3    H1 9935   7.878   3.394   4.943
 3330TIP3    H2 9936   7.853   3.531   4.884
 3331TIP3   OH2 9937   4.747   5.128   2.538
 3331TIP3    H1 9938   4.818   5.164   2.591
 3331TIP3    H2 9939   4.772   5.149   2.448
 3332TIP3   OH2 9940   5.067   6.842   3.504
 3332TIP3    H1 9941   5.087   6.869   3.415
 3332TIP3    H2 9942   5.055   6.924   3.552
 3333TIP3   OH2 9943   1.083   3.828   2.931
 3333TIP3    H1 9944   1.172   3.796   2.916
 3333TIP3    H2 9945   1.031   3.749   2.943
 3334TIP3   OH2 9946   5.410   6.787   5.116
 3334TIP3    H1 9947   5.375   6.816   5.200
 3334TIP3    H2 9948   5.477   6.722   5.139
 3335TIP3   OH2 9949   6.939   2.629   6.133
 3335TIP3    H1 9950   6.996   2.661   6.204
 3335TIP3    H2 9951   6.870   2.581   6.178
 3336TIP3   OH2 9952   8.015   0.755   5.221
 3336TIP3    H1 9953   7.963   0.798   5.152
 3336TIP3    H2 9954   8.035   0.669   5.186
 3337TIP3   OH2 9955   6.892   2.974   5.739
 3337TIP3    H1 9956   6.884   3.033   5.813
 3337TIP3    H2 9957   6.948   2.902   5.771
 3338TIP3   OH2 9958   7.236   6.116   4.737
 3338TIP3    H1 9959   7.192   6.200   4.725
 3338TIP3    H2 9960   7.174   6.062   4.786
 3339TIP3   OH2 9961   2.325   7.092   5.321
 3339TIP3    H1 9962   2.271   7.171   5.327
 3339TIP3    H2 9963   2.390   7.103   5.390
 3340TIP3   OH2 9964   5.562   3.204   2.482
 3340TIP3    H1 9965   5.467   3.206   2.473
 3340TIP3    H2 9966   5.583   3.111   2.491
 3341TIP3   OH2 9967   2.775   3.637   5.011
 3341TIP3    H1 9968   2.742   3.713   4.964
 3341TIP3    H2 9969   2.713   3.626   5.083
 3342TIP3   OH2 9970   1.592   0.564   0.515
 3342TIP3    H1 9971   1.549   0.580   0.431
 3342TIP3    H2 9972   1.685   0.574   0.497
 3343TIP3   OH2 9973   2.776   2.802   2.015
 3343TIP3    H1 9974   2.860   2.772   1.981
 3343TIP3    H2 9975   2.720   2.812   1.937
 3344TIP3   OH2 9976   6.976   6.834   3.193
 3344TIP3    H1 9977   6.924   6.766   3.151
 3344TIP3    H2 9978   7.039   6.861   3.126
 3345TIP3   OH2 9979   2.258   7.220   5.917
 3345TIP3    H1 9980   2.261   7.295   5.976
 3345TIP3    H2 9981   2.193   7.161   5.956
 3346TIP3   OH2 9982   3.821   3.449   2.648
 3346TIP3    H1 9983   3.763   3.517   2.682
 3346TIP3    H2 9984   3.836   3.392   2.723
 3347TIP3   OH2 9985   5.243   2.639   0.041
 3347TIP3    H1 9986   5.173   2.676   0.095
 3347TIP3    H2 9987   5.205   2.560   0.002
 3348TIP3   OH2 9988   3.208   0.459   3.366
 3348TIP3    H1 9989   3.176   0.369   3.365
 3348TIP3    H2 9990   3.131   0.512   3.386
 3349TIP3   OH2 9991   1.793   5.154   6.214
 3349TIP3    H1 9992   1.832   5.091   6.276
 3349TIP3    H2 9993   1.866   5.183   6.160
 3350TIP3   OH2 9994   3.558   7.822   1.332
 3350TIP3    H1 9995   3.653   7.813   1.327
 3350TIP3    H2 9996   3.544   7.912   1.360
 3351TIP3   OH2 9997   3.279   5.080   2.861
 3351TIP3    H1 9998   3.285   5.153   2.801
 3351TIP3    H2 9999   3.268   5.120   2.947
 3352TIP3   OH210000   7.132   3.175   1.378
 3352TIP3    H110001   7.117   3.268   1.399
 3352TIP3    H210002   7.045   3.135   1.383
 3353TIP3   OH210003   6.321   7.189   5.287
 3353TIP3    H110004   6.236   7.186   5.244
 3353TIP3    H210005   6.314   7.262   5.349
 3354TIP3   OH210006   2.086   6.816   0.654
 3354TIP3    H110007   2.173   6.802   0.692
 3354TIP3    H210008   2.064   6.731   0.615
 3355TIP3   OH210009   1.103   5.814   3.846
 3355TIP3    H110010   1.171   5.864   3.801
 3355TIP3    H210011   1.055   5.880   3.896
 3356TIP3   OH210012   3.032   5.111   0.847
 3356TIP3    H110013   3.073   5.133   0.930
 3356TIP3    H210014   3.025   5.015   0.848
 3357TIP3   OH210015   3.831   4.223   1.888
 3357TIP3    H110016   3.805   4.230   1.797
 3357TIP3    H210017   3.753   4.245   1.938
 3358TIP3   OH210018   1.834   7.051   1.791
 3358TIP3    H110019   1.787   7.040   1.709
 3358TIP3    H210020   1.882   7.133   1.780
 3359TIP3   OH210021   0.082   1.519   1.770
 3359TIP3    H110022   0.064   1.562   1.853
 3359TIP3    H210023   0.110   1.430   1.794
 3360TIP3   OH210024   2.702   2.868   6.151
 3360TIP3    H110025   2.635   2.907   6.094
 3360TIP3    H210026   2.738   2.796   6.099
 3361TIP3   OH210027   5.124   7.752   2.069
 3361TIP3    H110028   5.121   7.830   2.015
 3361TIP3    H210029   5.047   7.701   2.044
 3362TIP3   OH210030   7.089   2.555   3.468
 3362TIP3    H110031   7.094   2.535   3.374
 3362TIP3    H210032   7.142   2.488   3.510
 3363TIP3   OH210033   1.924   2.300   2.189
 3363TIP3    H110034   1.851   2.349   2.229
 3363TIP3    H210035   1.886   2.215   2.168
 3364TIP3   OH210036   6.802   7.822   6.033
 3364TIP3    H110037   6.771   7.833   5.943
 3364TIP3    H210038   6.725   7.794   6.082
 3365TIP3   OH210039   3.483   5.885   2.587
 3365TIP3    H110040   3.480   5.859   2.494
 3365TIP3    H210041   3.395   5.867   2.619
 3366TIP3   OH210042   8.021   1.449   6.361
 3366TIP3    H110043   7.944   1.497   6.329
 3366TIP3    H210044   8.050   1.398   6.286
 3367TIP3   OH210045   8.061   5.259   1.304
 3367TIP3    H110046   7.987   5.213   1.265
 3367TIP3    H210047   8.025   5.305   1.380
 3368TIP3   OH210048   4.693   1.210   2.443
 3368TIP3    H110049   4.720   1.178   2.529
 3368TIP3    H210050   4.638   1.140   2.408
 3369TIP3   OH210051   2.139   0.511   2.275
 3369TIP3    H110052   2.046   0.532   2.286
 3369TIP3    H210053   2.161   0.546   2.188
 3370TIP3   OH210054   4.279   5.431   6.001
 3370TIP3    H110055   4.288   5.338   5.978
 3370TIP3    H210056   4.237   5.470   5.924
 3371TIP3   OH210057   4.162   2.389   3.319
 3371TIP3    H110058   4.078   2.431   3.300
 3371TIP3    H210059   4.148   2.346   3.403
 3372TIP3   OH210060   4.146   4.036   6.086
 3372TIP3    H110061   4.118   4.126   6.069
 3372TIP3    H210062   4.199   4.042   6.165
 3373TIP3   OH210063   5.107   5.738   1.958
 3373TIP3    H110064   5.158   5.816   1.936
 3373TIP3    H210065   5.059   5.718   1.877
 3374TIP3   OH210066   0.249   6.308   4.816
 3374TIP3    H110067   0.158   6.318   4.789
 3374TIP3    H210068   0.253   6.219   4.852
 3375TIP3   OH210069   7.948   2.130   4.100
 3375TIP3    H110070   7.937   2.036   4.114
 3375TIP3    H210071   7.984   2.163   4.182
 3376TIP3   OH210072   3.150   1.230   0.878
 3376TIP3    H110073   3.120   1.219   0.787
 3376TIP3    H210074   3.097   1.302   0.912
 3377TIP3   OH210075   0.583   7.428   2.644
 3377TIP3    H110076   0.620   7.375   2.715
 3377TIP3    H210077   0.497   7.454   2.677
 3378TIP3   OH210078   1.104   3.000   5.854
 3378TIP3    H110079   1.080   2.961   5.771
 3378TIP3    H210080   1.167   2.939   5.892
 3379TIP3   OH210081   1.505   2.326   5.725
 3379TIP3    H110082   1.538   2.259   5.666
 3379TIP3    H210083   1.537   2.409   5.688
 3380TIP3   OH210084   3.178   5.747   5.261
 3380TIP3    H110085   3.204   5.669   5.310
 3380TIP3    H210086   3.104   5.783   5.311
 3381TIP3   OH210087   2.440   4.648   3.947
 3381TIP3    H110088   2.498   4.711   3.988
 3381TIP3    H210089   2.493   4.568   3.940
 3382TIP3   OH210090   4.686   7.192   5.067
 3382TIP3    H110091   4.740   7.221   5.141
 3382TIP3    H210092   4.616   7.257   5.062
 3383TIP3   OH210093   7.037   5.373   0.398
 3383TIP3    H110094   7.060   5.282   0.420
 3383TIP3    H210095   7.017   5.370   0.304
 3384TIP3   OH210096   3.572   7.266   1.780
 3384TIP3    H110097   3.546   7.174   1.789
 3384TIP3    H210098   3.506   7.314   1.831
 3385TIP3   OH210099   8.142   0.312   5.587
 3385TIP3    H110100   8.216   0.337   5.642
 3385TIP3    H210101   8.157   0.358   5.504
 3386TIP3   OH210102   0.219   7.465   5.702
 3386TIP3    H110103   0.230   7.381   5.657
 3386TIP3    H210104   0.206   7.529   5.631
 3387TIP3   OH210105   6.943   4.595   1.945
 3387TIP3    H110106   6.927   4.501   1.942
 3387TIP3    H210107   7.022   4.608   1.893
 3388TIP3   OH210108   5.641   2.510   5.349
 3388TIP3    H110109   5.555   2.538   5.382
 3388TIP3    H210110   5.645   2.416   5.367
 3389TIP3   OH210111   0.868   3.257   5.256
 3389TIP3    H110112   0.943   3.239   5.199
 3389TIP3    H210113   0.901   3.244   5.345
 3390TIP3   OH210114   0.701   6.120   3.415
 3390TIP3    H110115   0.651   6.111   3.333
 3390TIP3    H210116   0.719   6.214   3.422
 3391TIP3   OH210117   4.019   3.474   5.926
 3391TIP3    H110118   4.001   3.556   5.971
 3391TIP3    H210119   3.995   3.406   5.990
 3392TIP3   OH210120   4.879   0.895   4.164
 3392TIP3    H110121   4.896   0.975   4.214
 3392TIP3    H210122   4.951   0.837   4.186
 3393TIP3   OH210123   4.930   1.013   3.813
 3393TIP3    H110124   4.846   0.967   3.812
 3393TIP3    H210125   4.914   1.093   3.764
 3394TIP3   OH210126   7.880   1.194   2.353
 3394TIP3    H110127   7.843   1.184   2.440
 3394TIP3    H210128   7.957   1.250   2.365
 3395TIP3   OH210129   7.347   4.790   4.888
 3395TIP3    H110130   7.298   4.819   4.811
 3395TIP3    H210131   7.298   4.826   4.962
 3396TIP3   OH210132   4.170   2.653   0.962
 3396TIP3    H110133   4.188   2.738   0.922
 3396TIP3    H210134   4.077   2.657   0.987
 3397TIP3   OH210135   7.988   5.164   0.219
 3397TIP3    H110136   8.021   5.244   0.259
 3397TIP3    H210137   7.999   5.097   0.286
 3398TIP3   OH210138   5.668   0.880   5.726
 3398TIP3    H110139   5.733   0.900   5.793
 3398TIP3    H210140   5.590   0.853   5.775
 3399TIP3   OH210141   4.792   4.708   4.518
 3399TIP3    H110142   4.743   4.790   4.515
 3399TIP3    H210143   4.730   4.642   4.485
 3400TIP3   OH210144   6.543   5.562   2.873
 3400TIP3    H110145   6.472   5.501   2.851
 3400TIP3    H210146   6.574   5.594   2.788
 3401TIP3   OH210147   5.624   6.650   3.478
 3401TIP3    H110148   5.537   6.611   3.468
 3401TIP3    H210149   5.613   6.717   3.545
 3402TIP3   OH210150   4.674   0.291   3.705
 3402TIP3    H110151   4.625   0.285   3.623
 3402TIP3    H210152   4.734   0.217   3.703
 3403TIP3   OH210153   0.052   3.413   6.383
 3403TIP3    H110154   0.136   3.441   6.420
 3403TIP3    H210155   0.054   3.443   6.292
 3404TIP3   OH210156   7.948   0.247   2.209
 3404TIP3    H110157   7.985   0.320   2.258
 3404TIP3    H210158   8.024   0.204   2.169
 3405TIP3   OH210159   4.796   3.982   2.016
 3405TIP3    H110160   4.816   3.998   2.108
 3405TIP3    H210161   4.848   3.905   1.993
 3406TIP3   OH210162   3.848   2.435   1.803
 3406TIP3    H110163   3.848   2.528   1.826
 3406TIP3    H210164   3.776   2.398   1.855
 3407TIP3   OH210165   3.313   5.869   6.470
 3407TIP3    H110166   3.396   5.821   6.471
 3407TIP3    H210167   3.309   5.909   6.384
 3408TIP3   OH210168   5.798   4.362   1.685
 3408TIP3    H110169   5.774   4.269   1.678
 3408TIP3    H210170   5.866   4.374   1.619
 3409TIP3   OH210171   7.114   3.819   2.643
 3409TIP3    H110172   7.145   3.909   2.647
 3409TIP3    H210173   7.022   3.825   2.672
 3410TIP3   OH210174   1.061   2.394   3.107
 3410TIP3    H110175   1.044   2.450   3.031
 3410TIP3    H210176   1.032   2.444   3.182
 3411TIP3   OH210177   0.054   2.667   1.016
 3411TIP3    H110178  -0.025   2.706   1.052
 3411TIP3    H210179   0.029   2.576   0.996
 3412TIP3   OH210180   0.127   2.329   2.615
 3412TIP3    H110181   0.089   2.267   2.552
 3412TIP3    H210182   0.096   2.414   2.585
 3413TIP3   OH210183   3.274   7.372   6.395
 3413TIP3    H110184   3.201   7.390   6.335
 3413TIP3    H210185   3.327   7.306   6.349
 3414TIP3   OH210186   7.769   7.666   4.620
 3414TIP3    H110187   7.693   7.674   4.561
 3414TIP3    H210188   7.732   7.632   4.701
 3415TIP3   OH210189   2.782   4.301   1.954
 3415TIP3    H110190   2.712   4.278   1.893
 3415TIP3    H210191   2.861   4.304   1.899
 3416TIP3   OH210192   0.435   7.775   2.159
 3416TIP3    H110193   0.358   7.754   2.106
 3416TIP3    H210194   0.481   7.841   2.107
 3417TIP3   OH210195   1.669   2.282   5.268
 3417TIP3    H110196   1.722   2.263   5.190
 3417TIP3    H210197   1.583   2.304   5.234
 3418TIP3   OH210198   1.389   2.182   4.894
 3418TIP3    H110199   1.398   2.160   4.801
 3418TIP3    H210200   1.331   2.258   4.896
 3419TIP3   OH210201   4.010   4.015   1.921
 3419TIP3    H110202   3.963   4.094   1.894
 3419TIP3    H210203   3.942   3.952   1.943
 3420TIP3   OH210204   2.502   0.256   6.794
 3420TIP3    H110205   2.445   0.259   6.717
 3420TIP3    H210206   2.578   0.309   6.770
 3421TIP3   OH210207   6.255   1.939   0.923
 3421TIP3    H110208   6.343   1.976   0.921
 3421TIP3    H210209   6.268   1.845   0.912
 3422TIP3   OH210210   7.042   2.425   4.108
 3422TIP3    H110211   7.007   2.513   4.097
 3422TIP3    H210212   6.985   2.370   4.053
 3423TIP3   OH210213   4.598   4.004   5.018
 3423TIP3    H110214   4.648   4.012   4.937
 3423TIP3    H210215   4.657   4.037   5.086
 3424TIP3   OH210216   5.956   5.943   0.542
 3424TIP3    H110217   5.902   5.883   0.492
 3424TIP3    H210218   6.042   5.900   0.546
 3425TIP3   OH210219   7.747   2.639   2.491
 3425TIP3    H110220   7.786   2.674   2.572
 3425TIP3    H210221   7.688   2.708   2.461
 3426TIP3   OH210222   4.004   7.196   2.863
 3426TIP3    H110223   4.041   7.271   2.909
 3426TIP3    H210224   3.987   7.131   2.932
 3427TIP3   OH210225   5.114   0.866   5.349
 3427TIP3    H110226   5.176   0.935   5.371
 3427TIP3    H210227   5.111   0.810   5.427
 3428TIP3   OH210228   7.708   3.033   6.649
 3428TIP3    H110229   7.718   3.122   6.683
 3428TIP3    H210230   7.690   2.980   6.727
 3429TIP3   OH210231   4.770   0.677   3.645
 3429TIP3    H110232   4.828   0.679   3.569
 3429TIP3    H210233   4.737   0.766   3.653
 3430TIP3   OH210234   5.480   3.370   1.608
 3430TIP3    H110235   5.477   3.277   1.633
 3430TIP3    H210236   5.462   3.370   1.514
 3431TIP3   OH210237   6.123   2.006   1.227
 3431TIP3    H110238   6.191   1.974   1.287
 3431TIP3    H210239   6.166   2.075   1.177
 3432TIP3   OH210240   3.849   5.813   6.214
 3432TIP3    H110241   3.826   5.871   6.141
 3432TIP3    H210242   3.938   5.784   6.195
 3433TIP3   OH210243   4.840   6.075   3.489
 3433TIP3    H110244   4.929   6.108   3.498
 3433TIP3    H210245   4.803   6.081   3.578
 3434TIP3   OH210246   7.231   4.798   1.980
 3434TIP3    H110247   7.319   4.825   1.954
 3434TIP3    H210248   7.245   4.746   2.060
 3435TIP3   OH210249   6.513   5.540   5.286
 3435TIP3    H110250   6.502   5.456   5.242
 3435TIP3    H210251   6.449   5.598   5.244
 3436TIP3   OH210252   7.800   6.768   6.113
 3436TIP3    H110253   7.865   6.757   6.183
 3436TIP3    H210254   7.820   6.854   6.076
 3437TIP3   OH210255   4.107   4.301   1.433
 3437TIP3    H110256   4.101   4.208   1.413
 3437TIP3    H210257   4.187   4.310   1.483
 3438TIP3   OH210258   1.848   5.319   4.273
 3438TIP3    H110259   1.804   5.234   4.282
 3438TIP3    H210260   1.907   5.322   4.348
 3439TIP3   OH210261   3.265   7.086   5.327
 3439TIP3    H110262   3.322   7.121   5.258
 3439TIP3    H210263   3.307   7.114   5.408
 3440TIP3   OH210264   0.286   4.997   4.882
 3440TIP3    H110265   0.209   4.943   4.863
 3440TIP3    H210266   0.271   5.029   4.971
 3441TIP3   OH210267   5.420   4.070   2.230
 3441TIP3    H110268   5.344   4.019   2.260
 3441TIP3    H210269   5.457   4.017   2.159
 3442TIP3   OH210270   5.465   4.607   5.232
 3442TIP3    H110271   5.412   4.565   5.164
 3442TIP3    H210272   5.555   4.598   5.200
 3443TIP3   OH210273   2.292   1.723   0.374
 3443TIP3    H110274   2.236   1.658   0.416
 3443TIP3    H210275   2.354   1.749   0.442
 3444TIP3   OH210276   4.253   6.236   1.059
 3444TIP3    H110277   4.189   6.183   1.106
 3444TIP3    H210278   4.200   6.286   0.996
 3445TIP3   OH210279   0.684   6.392   3.103
 3445TIP3    H110280   0.733   6.329   3.051
 3445TIP3    H210281   0.593   6.381   3.075
 3446TIP3   OH210282   6.114   3.780   0.132
 3446TIP3    H110283   6.089   3.863   0.090
 3446TIP3    H210284   6.160   3.731   0.064
 3447TIP3   OH210285   3.533   5.441   2.233
 3447TIP3    H110286   3.543   5.472   2.143
 3447TIP3    H210287   3.614   5.393   2.250
 3448TIP3   OH210288   2.421   0.393   5.584
 3448TIP3    H110289   2.376   0.335   5.646
 3448TIP3    H210290   2.351   0.446   5.546
 3449TIP3   OH210291   5.205   7.635   0.302
 3449TIP3    H110292   5.253   7.553   0.314
 3449TIP3    H210293   5.255   7.699   0.353
 3450TIP3   OH210294   2.515   3.553   3.031
 3450TIP3    H110295   2.445   3.497   3.062
 3450TIP3    H210296   2.554   3.505   2.957
 3451TIP3   OH210297   1.002   7.140   5.622
 3451TIP3    H110298   0.913   7.174   5.614
 3451TIP3    H210299   1.058   7.216   5.610
 3452TIP3   OH210300   0.691   5.022   6.507
 3452TIP3    H110301   0.758   4.960   6.478
 3452TIP3    H210302   0.614   4.967   6.524
 3453TIP3   OH210303   3.651   5.219   0.101
 3453TIP3    H110304   3.743   5.244   0.091
 3453TIP3    H210305   3.604   5.302   0.104
 3454TIP3   OH210306   3.904   1.999   3.992
 3454TIP3    H110307   3.878   2.076   4.042
 3454TIP3    H210308   3.944   1.941   4.057
 3455TIP3   OH210309   5.997   5.691   1.386
 3455TIP3    H110310   6.046   5.636   1.448
 3455TIP3    H210311   5.909   5.654   1.387
 3456TIP3   OH210312   2.452   0.607   1.542
 3456TIP3    H110313   2.387   0.566   1.486
 3456TIP3    H210314   2.510   0.653   1.482
 3457TIP3   OH210315   1.852   7.543   3.502
 3457TIP3    H110316   1.760   7.545   3.528
 3457TIP3    H210317   1.850   7.514   3.411
 3458TIP3   OH210318   4.184   4.088   3.417
 3458TIP3    H110319   4.093   4.106   3.442
 3458TIP3    H210320   4.177   4.014   3.356
 3459TIP3   OH210321   6.113   5.952   5.983
 3459TIP3    H110322   6.164   5.930   5.905
 3459TIP3    H210323   6.102   5.868   6.028
 3460TIP3   OH210324   3.901   7.693   4.125
 3460TIP3    H110325   3.984   7.738   4.111
 3460TIP3    H210326   3.927   7.607   4.159
 3461TIP3   OH210327   7.082   6.912   2.698
 3461TIP3    H110328   7.053   7.000   2.676
 3461TIP3    H210329   7.161   6.899   2.645
 3462TIP3   OH210330   3.129   3.114   0.040
 3462TIP3    H110331   3.065   3.160   0.094
 3462TIP3    H210332   3.150   3.176  -0.030
 3463TIP3   OH210333   7.357   5.374   1.549
 3463TIP3    H110334   7.341   5.467   1.533
 3463TIP3    H210335   7.280   5.345   1.598
 3464TIP3   OH210336   7.049   6.463   0.820
 3464TIP3    H110337   7.104   6.410   0.764
 3464TIP3    H210338   7.103   6.539   0.843
 3465TIP3   OH210339   7.523   4.610   5.744
 3465TIP3    H110340   7.468   4.686   5.765
 3465TIP3    H210341   7.462   4.536   5.745
 3466TIP3   OH210342   1.445   3.983   3.509
 3466TIP3    H110343   1.521   3.971   3.453
 3466TIP3    H210344   1.477   4.036   3.582
 3467TIP3   OH210345   7.868   1.489   0.228
 3467TIP3    H110346   7.782   1.519   0.197
 3467TIP3    H210347   7.927   1.563   0.210
 3468TIP3   OH210348   4.638   6.167   3.356
 3468TIP3    H110349   4.649   6.261   3.371
 3468TIP3    H210350   4.717   6.127   3.391
 3469TIP3   OH210351   0.143   0.686   1.542
 3469TIP3    H110352   0.173   0.777   1.543
 3469TIP3    H210353   0.091   0.678   1.622
 3470TIP3   OH210354   5.449   6.552   6.414
 3470TIP3    H110355   5.506   6.627   6.432
 3470TIP3    H210356   5.505   6.489   6.369
 3471TIP3   OH210357   0.839   3.422   1.387
 3471TIP3    H110358   0.795   3.341   1.413
 3471TIP3    H210359   0.786   3.491   1.428
 3472TIP3   OH210360   5.310   1.296   1.114
 3472TIP3    H110361   5.390   1.271   1.160
 3472TIP3    H210362   5.325   1.268   1.023
 3473TIP3   OH210363   1.274   4.997   5.560
 3473TIP3    H110364   1.360   5.030   5.585
 3473TIP3    H210365   1.225   5.074   5.534
 3474TIP3   OH210366   1.662   5.105   0.807
 3474TIP3    H110367   1.638   5.013   0.797
 3474TIP3    H210368   1.720   5.123   0.733
 3475TIP3   OH210369   0.799   7.122   2.440
 3475TIP3    H110370   0.814   7.139   2.533
 3475TIP3    H210371   0.716   7.165   2.421
 3476TIP3   OH210372   2.975   5.947   0.375
 3476TIP3    H110373   3.034   5.972   0.304
 3476TIP3    H210374   2.995   6.010   0.445
 3477TIP3   OH210375   4.613   2.626   2.022
 3477TIP3    H110376   4.628   2.672   1.940
 3477TIP3    H210377   4.530   2.660   2.054
 3478TIP3   OH210378   1.155   7.400   4.322
 3478TIP3    H110379   1.112   7.397   4.237
 3478TIP3    H210380   1.195   7.314   4.331
 3479TIP3   OH210381   2.516   5.311   3.188
 3479TIP3    H110382   2.611   5.297   3.184
 3479TIP3    H210383   2.481   5.252   3.121
 3480TIP3   OH210384   4.363   4.964   6.218
 3480TIP3    H110385   4.317   5.045   6.241
 3480TIP3    H210386   4.401   4.982   6.132
 3481TIP3   OH210387   7.677   0.163   1.840
 3481TIP3    H110388   7.744   0.100   1.814
 3481TIP3    H210389   7.725   0.236   1.879
 3482TIP3   OH210390   7.902   4.247   1.813
 3482TIP3    H110391   7.916   4.279   1.902
 3482TIP3    H210392   7.928   4.155   1.816
 3483TIP3   OH210393   7.879   4.512   1.618
 3483TIP3    H110394   7.822   4.549   1.550
 3483TIP3    H210395   7.871   4.417   1.606
 3484TIP3   OH210396   4.282   5.596   0.614
 3484TIP3    H110397   4.277   5.540   0.691
 3484TIP3    H210398   4.277   5.685   0.648
 3485TIP3   OH210399   6.960   2.116   2.660
 3485TIP3    H110400   6.913   2.105   2.578
 3485TIP3    H210401   6.994   2.029   2.680
 3486TIP3   OH210402   7.624   2.425   3.200
 3486TIP3    H110403   7.599   2.463   3.284
 3486TIP3    H210404   7.718   2.413   3.206
 3487TIP3   OH210405   3.265   1.078   5.165
 3487TIP3    H110406   3.222   1.121   5.091
 3487TIP3    H210407   3.194   1.034   5.212
 3488TIP3   OH210408   8.012   0.425   0.764
 3488TIP3    H110409   8.095   0.456   0.802
 3488TIP3    H210410   7.978   0.500   0.717
 3489TIP3   OH210411   2.001   5.553   5.141
 3489TIP3    H110412   1.917   5.549   5.186
 3489TIP3    H210413   1.980   5.546   5.048
 3490TIP3   OH210414   6.915   4.471   2.513
 3490TIP3    H110415   6.907   4.535   2.444
 3490TIP3    H210416   6.993   4.420   2.489
 3491TIP3   OH210417   7.046   4.290   4.894
 3491TIP3    H110418   7.075   4.381   4.884
 3491TIP3    H210419   7.022   4.284   4.987
 3492TIP3   OH210420   5.038   6.127   6.023
 3492TIP3    H110421   5.121   6.145   5.979
 3492TIP3    H210422   5.025   6.202   6.081
 3493TIP3   OH210423   2.004   7.047   5.660
 3493TIP3    H110424   2.024   7.141   5.657
 3493TIP3    H210425   2.048   7.011   5.583
 3494TIP3   OH210426   4.003   3.256   0.636
 3494TIP3    H110427   3.927   3.296   0.678
 3494TIP3    H210428   4.077   3.278   0.694
 3495TIP3   OH210429   7.988   5.421   3.408
 3495TIP3    H110430   7.999   5.516   3.410
 3495TIP3    H210431   8.060   5.389   3.353
 3496TIP3   OH210432   0.626   0.747   0.157
 3496TIP3    H110433   0.552   0.743   0.097
 3496TIP3    H210434   0.700   0.774   0.102
 3497TIP3   OH210435   5.537   4.893   5.061
 3497TIP3    H110436   5.457   4.850   5.092
 3497TIP3    H210437   5.511   4.984   5.046
 3498TIP3   OH210438   1.279   0.289   5.710
 3498TIP3    H110439   1.264   0.322   5.798
 3498TIP3    H210440   1.227   0.347   5.653
 3499TIP3   OH210441   6.009   2.296   1.763
 3499TIP3    H110442   6.033   2.368   1.705
 3499TIP3    H210443   5.986   2.224   1.704
 3500TIP3   OH210444   0.466   5.134   1.590
 3500TIP3    H110445   0.440   5.226   1.591
 3500TIP3    H210446   0.530   5.126   1.660
 3501TIP3   OH210447   3.725   0.825   2.091
 3501TIP3    H110448   3.735   0.792   2.180
 3501TIP3    H210449   3.743   0.749   2.035
 3502TIP3   OH210450   4.472   7.735   0.433
 3502TIP3    H110451   4.559   7.757   0.400
 3502TIP3    H210452   4.469   7.639   0.430
 3503TIP3   OH210453   3.674   0.456   4.257
 3503TIP3    H110454   3.689   0.385   4.195
 3503TIP3    H210455   3.761   0.485   4.282
 3504TIP3   OH210456   4.407   4.264   0.916
 3504TIP3    H110457   4.396   4.239   0.824
 3504TIP3    H210458   4.457   4.345   0.913
 3505TIP3   OH210459   5.915   5.009   4.877
 3505TIP3    H110460   5.998   4.966   4.899
 3505TIP3    H210461   5.851   4.965   4.933
 3506TIP3   OH210462   2.686   3.198   5.949
 3506TIP3    H110463   2.661   3.286   5.977
 3506TIP3    H210464   2.686   3.146   6.030
 3507TIP3   OH210465   4.030   0.575   5.792
 3507TIP3    H110466   3.982   0.595   5.872
 3507TIP3    H210467   3.966   0.588   5.722
 3508TIP3   OH210468   4.374   1.624   4.567
 3508TIP3    H110469   4.332   1.702   4.533
 3508TIP3    H210470   4.466   1.648   4.577
 3509TIP3   OH210471   6.416   0.074   3.547
 3509TIP3    H110472   6.415  -0.006   3.494
 3509TIP3    H210473   6.493   0.063   3.604
 3510TIP3   OH210474   5.378   3.388   0.721
 3510TIP3    H110475   5.381   3.311   0.664
 3510TIP3    H210476   5.398   3.462   0.663
 3511TIP3   OH210477   4.542   3.045   6.501
 3511TIP3    H110478   4.610   3.076   6.561
 3511TIP3    H210479   4.462   3.089   6.529
 3512TIP3   OH210480   8.206   6.486   3.556
 3512TIP3    H110481   8.278   6.549   3.564
 3512TIP3    H210482   8.199   6.448   3.643
 3513TIP3   OH210483   1.391   2.078   4.634
 3513TIP3    H110484   1.430   2.136   4.568
 3513TIP3    H210485   1.312   2.044   4.593
 3514TIP3   OH210486   7.629   7.126   3.551
 3514TIP3    H110487   7.672   7.150   3.470
 3514TIP3    H210488   7.629   7.207   3.603
 3515TIP3   OH210489   6.327   3.895   6.655
 3515TIP3    H110490   6.278   3.944   6.590
 3515TIP3    H210491   6.399   3.856   6.606
 3516TIP3   OH210492   3.550   4.779   1.011
 3516TIP3    H110493   3.638   4.780   0.973
 3516TIP3    H210494   3.491   4.780   0.935
 3517TIP3   OH210495   2.448   3.962   1.187
 3517TIP3    H110496   2.492   3.962   1.102
 3517TIP3    H210497   2.360   3.928   1.168
 3518TIP3   OH210498   3.409   0.996   4.136
 3518TIP3    H110499   3.315   0.980   4.145
 3518TIP3    H210500   3.445   0.971   4.220
 3519TIP3   OH210501   4.804   5.425   1.312
 3519TIP3    H110502   4.755   5.424   1.230
 3519TIP3    H210503   4.740   5.401   1.378
 3520TIP3   OH210504   7.948   1.004   2.682
 3520TIP3    H110505   7.981   1.085   2.720
 3520TIP3    H210506   7.919   0.952   2.757
 3521TIP3   OH210507   4.555   0.644   4.059
 3521TIP3    H110508   4.514   0.638   4.146
 3521TIP3    H210509   4.488   0.610   4.000
 3522TIP3   OH210510   8.293   2.693   6.462
 3522TIP3    H110511   8.232   2.764   6.443
 3522TIP3    H210512   8.355   2.694   6.389
 3523TIP3   OH210513   3.693   1.276   5.690
 3523TIP3    H110514   3.678   1.214   5.619
 3523TIP3    H210515   3.626   1.344   5.677
 3524TIP3   OH210516   6.316   3.318   1.985
 3524TIP3    H110517   6.308   3.260   2.060
 3524TIP3    H210518   6.281   3.266   1.911
 3525TIP3   OH210519   0.874   1.821   2.218
 3525TIP3    H110520   0.868   1.731   2.184
 3525TIP3    H210521   0.857   1.813   2.311
 3526TIP3   OH210522   2.291   7.000   3.171
 3526TIP3    H110523   2.335   6.947   3.238
 3526TIP3    H210524   2.362   7.042   3.123
 3527TIP3   OH210525   7.102   1.664   3.658
 3527TIP3    H110526   7.078   1.709   3.739
 3527TIP3    H210527   7.101   1.571   3.680
 3528TIP3   OH210528   4.479   1.193   1.770
 3528TIP3    H110529   4.552   1.175   1.829
 3528TIP3    H210530   4.414   1.127   1.791
 3529TIP3   OH210531   7.155   6.484   3.037
 3529TIP3    H110532   7.207   6.558   3.070
 3529TIP3    H210533   7.113   6.518   2.958
 3530TIP3   OH210534   2.864   5.557   6.253
 3530TIP3    H110535   2.783   5.592   6.216
 3530TIP3    H210536   2.931   5.621   6.228
 3531TIP3   OH210537   4.306   2.550   3.501
 3531TIP3    H110538   4.245   2.492   3.546
 3531TIP3    H210539   4.288   2.538   3.408
 3532TIP3   OH210540   7.571   4.601   6.633
 3532TIP3    H110541   7.483   4.565   6.619
 3532TIP3    H210542   7.591   4.580   6.724
 3533TIP3   OH210543   3.895   2.735   6.779
 3533TIP3    H110544   3.954   2.744   6.704
 3533TIP3    H210545   3.949   2.758   6.854
 3534TIP3   OH210546   2.214   3.739   0.928
 3534TIP3    H110547   2.129   3.718   0.890
 3534TIP3    H210548   2.269   3.760   0.852
 3535TIP3   OH210549   8.136   3.810   4.753
 3535TIP3    H110550   8.145   3.865   4.830
 3535TIP3    H210551   8.071   3.744   4.779
 3536TIP3   OH210552   4.146   0.844   3.714
 3536TIP3    H110553   4.241   0.839   3.721
 3536TIP3    H210554   4.128   0.937   3.698
 3537TIP3   OH210555   3.256   2.441   2.379
 3537TIP3    H110556   3.202   2.401   2.311
 3537TIP3    H210557   3.338   2.391   2.378
 3538TIP3   OH210558   0.358   2.906   1.009
 3538TIP3    H110559   0.418   2.866   1.072
 3538TIP3    H210560   0.412   2.923   0.932
 3539TIP3   OH210561   5.743   5.158   3.192
 3539TIP3    H110562   5.710   5.087   3.136
 3539TIP3    H210563   5.686   5.232   3.174
 3540TIP3   OH210564   4.943   4.382   2.869
 3540TIP3    H110565   4.935   4.474   2.893
 3540TIP3    H210566   4.860   4.360   2.826
 3541TIP3   OH210567   0.013   7.680   5.347
 3541TIP3    H110568  -0.047   7.686   5.272
 3541TIP3    H210569   0.012   7.768   5.385
 3542TIP3   OH210570   1.213   5.641   2.251
 3542TIP3    H110571   1.191   5.664   2.161
 3542TIP3    H210572   1.309   5.636   2.251
 3543TIP3   OH210573   3.919   1.809   4.663
 3543TIP3    H110574   3.950   1.796   4.752
 3543TIP3    H210575   3.830   1.843   4.672
 3544TIP3   OH210576   0.037   4.180   1.919
 3544TIP3    H110577  -0.036   4.146   1.971
 3544TIP3    H210578   0.018   4.274   1.910
 3545TIP3   OH210579   8.062   4.360   4.989
 3545TIP3    H110580   7.967   4.353   5.001
 3545TIP3    H210581   8.099   4.296   5.050
 3546TIP3   OH210582   6.216   0.120   0.549
 3546TIP3    H110583   6.187   0.056   0.484
 3546TIP3    H210584   6.175   0.092   0.631
 3547TIP3   OH210585   4.192   3.391   1.887
 3547TIP3    H110586   4.159   3.421   1.972
 3547TIP3    H210587   4.199   3.470   1.834
 3548TIP3   OH210588   0.796   1.347   3.252
 3548TIP3    H110589   0.760   1.307   3.330
 3548TIP3    H210590   0.842   1.425   3.283
 3549TIP3   OH210591   3.449   4.547   4.187
 3549TIP3    H110592   3.501   4.471   4.163
 3549TIP3    H210593   3.403   4.572   4.107
 3550TIP3   OH210594   4.202   5.998   6.363
 3550TIP3    H110595   4.234   5.908   6.354
 3550TIP3    H210596   4.191   6.011   6.457
 3551TIP3   OH210597   2.894   4.075   3.666
 3551TIP3    H110598   2.977   4.028   3.662
 3551TIP3    H210599   2.833   4.020   3.616
 3552TIP3   OH210600   1.734   6.907   0.604
 3552TIP3    H110601   1.796   6.919   0.676
 3552TIP3    H210602   1.743   6.815   0.580
 3553TIP3   OH210603   6.031   6.062   2.079
 3553TIP3    H110604   5.985   6.064   2.163
 3553TIP3    H210605   6.021   5.971   2.049
 3554TIP3   OH210606   4.239   4.490   1.091
 3554TIP3    H110607   4.191   4.439   1.025
 3554TIP3    H210608   4.239   4.580   1.057
 3555TIP3   OH210609   4.901   3.510   1.159
 3555TIP3    H110610   4.857   3.595   1.155
 3555TIP3    H210611   4.894   3.484   1.251
 3556TIP3   OH210612   5.380   7.135   1.721
 3556TIP3    H110613   5.414   7.225   1.722
 3556TIP3    H210614   5.285   7.145   1.716
 3557TIP3   OH210615   3.285   5.481   3.952
 3557TIP3    H110616   3.348   5.441   3.891
 3557TIP3    H210617   3.295   5.431   4.033
 3558TIP3   OH210618   2.408   7.043   5.075
 3558TIP3    H110619   2.399   7.128   5.031
 3558TIP3    H210620   2.381   7.060   5.165
 3559TIP3   OH210621   5.857   6.609   6.190
 3559TIP3    H110622   5.916   6.605   6.114
 3559TIP3    H210623   5.838   6.518   6.211
 3560TIP3   OH210624   1.531   0.490   3.494
 3560TIP3    H110625   1.493   0.431   3.429
 3560TIP3    H210626   1.498   0.459   3.578
 3561TIP3   OH210627   0.187   0.018   1.304
 3561TIP3    H110628   0.212   0.079   1.235
 3561TIP3    H210629   0.095   0.039   1.322
 3562TIP3   OH210630   0.847   4.819   6.432
 3562TIP3    H110631   0.820   4.736   6.470
 3562TIP3    H210632   0.937   4.804   6.403
 3563TIP3   OH210633   3.265   4.792   2.867
 3563TIP3    H110634   3.258   4.887   2.880
 3563TIP3    H210635   3.222   4.777   2.783
 3564TIP3   OH210636   2.294   1.540   6.416
 3564TIP3    H110637   2.238   1.504   6.348
 3564TIP3    H210638   2.248   1.520   6.498
 3565TIP3   OH210639   2.571   6.105   3.505
 3565TIP3    H110640   2.581   6.133   3.414
 3565TIP3    H210641   2.556   6.186   3.553
 3566TIP3   OH210642   0.794   3.099   2.110
 3566TIP3    H110643   0.720   3.041   2.126
 3566TIP3    H210644   0.867   3.058   2.156
 3567TIP3   OH210645   7.852   1.753   5.033
 3567TIP3    H110646   7.921   1.705   4.987
 3567TIP3    H210647   7.809   1.686   5.088
 3568TIP3   OH210648   3.100   0.542   2.210
 3568TIP3    H110649   3.147   0.623   2.229
 3568TIP3    H210650   3.017   0.571   2.172
 3569TIP3   OH210651   3.410   6.932   3.046
 3569TIP3    H110652   3.404   6.838   3.033
 3569TIP3    H210653   3.503   6.952   3.041
 3570TIP3   OH210654   7.787   3.275   5.206
 3570TIP3    H110655   7.695   3.273   5.181
 3570TIP3    H210656   7.787   3.272   5.301
 3571TIP3   OH210657   7.608   7.766   2.726
 3571TIP3    H110658   7.606   7.795   2.635
 3571TIP3    H210659   7.664   7.688   2.725
 3572TIP3   OH210660   0.263   7.018   0.465
 3572TIP3    H110661   0.248   6.959   0.540
 3572TIP3    H210662   0.279   6.959   0.392
 3573TIP3   OH210663   2.164   6.694   5.287
 3573TIP3    H110664   2.078   6.653   5.281
 3573TIP3    H210665   2.219   6.626   5.326
 3574TIP3   OH210666   4.475   3.121   3.934
 3574TIP3    H110667   4.492   3.031   3.961
 3574TIP3    H210668   4.385   3.138   3.960
 3575TIP3   OH210669   3.936   4.321   5.309
 3575TIP3    H110670   3.882   4.244   5.291
 3575TIP3    H210671   3.885   4.394   5.274
 3576TIP3   OH210672   1.877   4.738   4.925
 3576TIP3    H110673   1.970   4.759   4.928
 3576TIP3    H210674   1.843   4.795   4.856
 3577TIP3   OH210675   7.241   2.768   5.213
 3577TIP3    H110676   7.298   2.787   5.139
 3577TIP3    H210677   7.242   2.672   5.220
 3578TIP3   OH210678   4.510   0.223   2.964
 3578TIP3    H110679   4.517   0.220   2.869
 3578TIP3    H210680   4.427   0.269   2.981
 3579TIP3   OH210681   7.313   4.204   6.616
 3579TIP3    H110682   7.292   4.111   6.624
 3579TIP3    H210683   7.232   4.250   6.637
 3580TIP3   OH210684   2.298   7.806   1.614
 3580TIP3    H110685   2.309   7.792   1.520
 3580TIP3    H210686   2.333   7.726   1.654
 3581TIP3   OH210687   4.646   4.353   1.550
 3581TIP3    H110688   4.623   4.408   1.625
 3581TIP3    H210689   4.691   4.413   1.490
 3582TIP3   OH210690   8.174   2.502   4.228
 3582TIP3    H110691   8.233   2.545   4.290
 3582TIP3    H210692   8.232   2.462   4.163
 3583TIP3   OH210693   8.172   2.648   1.967
 3583TIP3    H110694   8.150   2.555   1.957
 3583TIP3    H210695   8.117   2.678   2.039
 3584TIP3   OH210696   8.309   2.839   0.152
 3584TIP3    H110697   8.214   2.848   0.147
 3584TIP3    H210698   8.323   2.750   0.183
 3585TIP3   OH210699   3.364   4.095   4.638
 3585TIP3    H110700   3.290   4.034   4.642
 3585TIP3    H210701   3.381   4.105   4.544
 3586TIP3   OH210702   7.616   0.256   0.651
 3586TIP3    H110703   7.584   0.314   0.720
 3586TIP3    H210704   7.690   0.303   0.612
 3587TIP3   OH210705   1.896   3.836   4.055
 3587TIP3    H110706   1.863   3.782   4.128
 3587TIP3    H210707   1.987   3.809   4.045
 3588TIP3   OH210708   4.980   3.126   6.713
 3588TIP3    H110709   5.023   3.060   6.658
 3588TIP3    H210710   4.996   3.209   6.669
 3589TIP3   OH210711   8.011   7.146   1.698
 3589TIP3    H110712   7.969   7.132   1.782
 3589TIP3    H210713   7.940   7.142   1.634
 3590TIP3   OH210714   3.345   0.643   2.322
 3590TIP3    H110715   3.407   0.715   2.309
 3590TIP3    H210716   3.401   0.566   2.335
 3591TIP3   OH210717   4.868   4.946   1.194
 3591TIP3    H110718   4.831   4.916   1.277
 3591TIP3    H210719   4.792   4.968   1.140
 3592TIP3   OH210720   4.961   4.761   3.130
 3592TIP3    H110721   5.005   4.710   3.198
 3592TIP3    H210722   4.917   4.831   3.177
 3593TIP3   OH210723   1.607   4.360   4.825
 3593TIP3    H110724   1.575   4.398   4.907
 3593TIP3    H210725   1.648   4.433   4.779
 3594TIP3   OH210726   6.005   6.753   4.162
 3594TIP3    H110727   5.910   6.761   4.162
 3594TIP3    H210728   6.036   6.832   4.118
 3595TIP3   OH210729   3.528   5.985   4.703
 3595TIP3    H110730   3.458   5.920   4.712
 3595TIP3    H210731   3.521   6.037   4.783
 3596TIP3   OH210732   2.123   7.652   6.523
 3596TIP3    H110733   2.060   7.588   6.556
 3596TIP3    H210734   2.098   7.664   6.431
 3597TIP3   OH210735   1.367   1.975   1.713
 3597TIP3    H110736   1.416   1.928   1.646
 3597TIP3    H210737   1.329   1.906   1.768
 3598TIP3   OH210738   3.788   6.077   4.342
 3598TIP3    H110739   3.730   6.142   4.381
 3598TIP3    H210740   3.741   5.994   4.352
 3599TIP3   OH210741   7.648   6.895   1.764
 3599TIP3    H110742   7.664   6.971   1.707
 3599TIP3    H210743   7.560   6.865   1.740
 3600TIP3   OH210744   5.599   1.929   5.943
 3600TIP3    H110745   5.626   1.841   5.970
 3600TIP3    H210746   5.527   1.952   6.001
 3601TIP3   OH210747   4.230   6.085   2.807
 3601TIP3    H110748   4.304   6.135   2.841
 3601TIP3    H210749   4.175   6.068   2.883
 3602TIP3   OH210750   0.140   0.836   6.736
 3602TIP3    H110751   0.176   0.769   6.678
 3602TIP3    H210752   0.087   0.891   6.678
 3603TIP3   OH210753   2.480   7.391   5.257
 3603TIP3    H110754   2.529   7.452   5.202
 3603TIP3    H210755   2.543   7.321   5.276
 3604TIP3   OH210756   3.547   7.049   3.896
 3604TIP3    H110757   3.613   7.056   3.827
 3604TIP3    H210758   3.487   6.981   3.865
 3605TIP3   OH210759   5.899   6.960   5.201
 3605TIP3    H110760   5.930   6.897   5.267
 3605TIP3    H210761   5.827   7.006   5.245
 3606TIP3   OH210762   6.551   4.759   6.582
 3606TIP3    H110763   6.578   4.714   6.662
 3606TIP3    H210764   6.601   4.840   6.582
 3607TIP3   OH210765   8.212   1.552   3.509
 3607TIP3    H110766   8.257   1.598   3.579
 3607TIP3    H210767   8.278   1.491   3.475
 3608TIP3   OH210768   3.039   5.906   6.581
 3608TIP3    H110769   3.134   5.901   6.590
 3608TIP3    H210770   3.014   5.981   6.635
 3609TIP3   OH210771   2.248   6.154   0.804
 3609TIP3    H110772   2.308   6.117   0.869
 3609TIP3    H210773   2.180   6.197   0.856
 3610TIP3   OH210774   1.070   0.130   1.071
 3610TIP3    H110775   1.164   0.123   1.051
 3610TIP3    H210776   1.033   0.179   0.998
 3611TIP3   OH210777   7.069   2.724   0.791
 3611TIP3    H110778   6.996   2.688   0.841
 3611TIP3    H210779   7.136   2.742   0.857
 3612TIP3   OH210780   4.646   4.246   5.870
 3612TIP3    H110781   4.722   4.236   5.927
 3612TIP3    H210782   4.674   4.310   5.804
 3613TIP3   OH210783   1.600   6.521   4.470
 3613TIP3    H110784   1.534   6.550   4.407
 3613TIP3    H210785   1.569   6.436   4.500
 3614TIP3   OH210786   7.825   7.336   3.118
 3614TIP3    H110787   7.918   7.323   3.136
 3614TIP3    H210788   7.815   7.431   3.114
 3615TIP3   OH210789   5.676   3.463   3.568
 3615TIP3    H110790   5.653   3.508   3.650
 3615TIP3    H210791   5.620   3.503   3.502
 3616TIP3   OH210792   3.165   6.785   5.723
 3616TIP3    H110793   3.099   6.835   5.771
 3616TIP3    H210794   3.158   6.816   5.633
 3617TIP3   OH210795   3.154   7.814   6.590
 3617TIP3    H110796   3.248   7.832   6.585
 3617TIP3    H210797   3.141   7.783   6.680
 3618TIP3   OH210798   4.749   3.017   3.399
 3618TIP3    H110799   4.808   2.998   3.473
 3618TIP3    H210800   4.712   2.931   3.376
 3619TIP3   OH210801   8.020   1.967   5.457
 3619TIP3    H110802   8.023   2.041   5.518
 3619TIP3    H210803   8.023   1.889   5.513
 3620TIP3   OH210804   4.577   4.124   1.883
 3620TIP3    H110805   4.648   4.114   1.947
 3620TIP3    H210806   4.619   4.112   1.798
 3621TIP3   OH210807   0.814   4.908   5.417
 3621TIP3    H110808   0.849   4.862   5.494
 3621TIP3    H210809   0.764   4.981   5.454
 3622TIP3   OH210810   4.647   0.471   1.392
 3622TIP3    H110811   4.694   0.400   1.435
 3622TIP3    H210812   4.625   0.437   1.305
 3623TIP3   OH210813   3.331   5.652   0.735
 3623TIP3    H110814   3.421   5.624   0.721
 3623TIP3    H210815   3.300   5.677   0.648
 3624TIP3   OH210816   4.519   4.092   6.076
 3624TIP3    H110817   4.563   4.010   6.099
 3624TIP3    H210818   4.569   4.125   6.001
 3625TIP3   OH210819   0.877   5.893   3.423
 3625TIP3    H110820   0.869   5.852   3.509
 3625TIP3    H210821   0.828   5.974   3.429
 3626TIP3   OH210822   1.301   5.936   6.329
 3626TIP3    H110823   1.301   6.001   6.399
 3626TIP3    H210824   1.219   5.888   6.340
 3627TIP3   OH210825   3.722   6.982   0.002
 3627TIP3    H110826   3.787   6.946   0.062
 3627TIP3    H210827   3.763   6.976  -0.084
 3628TIP3   OH210828   6.371   2.645   1.953
 3628TIP3    H110829   6.317   2.716   1.918
 3628TIP3    H210830   6.365   2.575   1.888
 3629TIP3   OH210831   3.182   7.118   6.227
 3629TIP3    H110832   3.123   7.146   6.157
 3629TIP3    H210833   3.256   7.079   6.180
 3630TIP3   OH210834   4.187   2.426   0.052
 3630TIP3    H110835   4.129   2.432   0.128
 3630TIP3    H210836   4.182   2.513   0.012
 3631TIP3   OH210837   4.342   4.484   3.952
 3631TIP3    H110838   4.326   4.578   3.956
 3631TIP3    H210839   4.275   4.450   3.894
 3632TIP3   OH210840   4.926   6.238   0.528
 3632TIP3    H110841   4.897   6.328   0.513
 3632TIP3    H210842   4.969   6.213   0.446
 3633TIP3   OH210843   1.332   5.272   5.852
 3633TIP3    H110844   1.240   5.278   5.880
 3633TIP3    H210845   1.328   5.269   5.757
 3634TIP3   OH210846   4.429   5.142   1.552
 3634TIP3    H110847   4.459   5.100   1.633
 3634TIP3    H210848   4.428   5.073   1.487
 3635TIP3   OH210849   5.525   3.078   1.276
 3635TIP3    H110850   5.443   3.054   1.318
 3635TIP3    H210851   5.579   2.999   1.280
 3636TIP3   OH210852   6.775   7.442   5.104
 3636TIP3    H110853   6.838   7.514   5.101
 3636TIP3    H210854   6.817   7.371   5.057
 3637TIP3   OH210855   2.188   6.330   0.527
 3637TIP3    H110856   2.147   6.357   0.610
 3637TIP3    H210857   2.115   6.300   0.473
 3638TIP3   OH210858   6.121   0.575   4.467
 3638TIP3    H110859   6.212   0.552   4.484
 3638TIP3    H210860   6.081   0.494   4.435
 3639TIP3   OH210861   7.605   3.124   4.839
 3639TIP3    H110862   7.700   3.121   4.827
 3639TIP3    H210863   7.592   3.103   4.932
 3640TIP3   OH210864   6.602   3.576   4.651
 3640TIP3    H110865   6.614   3.560   4.558
 3640TIP3    H210866   6.683   3.618   4.679
 3641TIP3   OH210867   6.786   5.913   5.864
 3641TIP3    H110868   6.694   5.925   5.890
 3641TIP3    H210869   6.783   5.840   5.802
 3642TIP3   OH210870   2.785   0.033   0.372
 3642TIP3    H110871   2.856   0.090   0.342
 3642TIP3    H210872   2.829  -0.035   0.423
 3643TIP3   OH210873   5.624   1.811   5.376
 3643TIP3    H110874   5.678   1.888   5.354
 3643TIP3    H210875   5.661   1.780   5.458
 3644TIP3   OH210876   2.333   1.767   4.496
 3644TIP3    H110877   2.355   1.842   4.441
 3644TIP3    H210878   2.390   1.697   4.463
 3645TIP3   OH210879   7.485   5.238   5.372
 3645TIP3    H110880   7.428   5.314   5.356
 3645TIP3    H210881   7.552   5.271   5.431
 3646TIP3   OH210882   5.236   6.833   4.176
 3646TIP3    H110883   5.267   6.911   4.223
 3646TIP3    H210884   5.184   6.785   4.240
 3647TIP3   OH210885   4.664   1.285   6.768
 3647TIP3    H110886   4.622   1.341   6.703
 3647TIP3    H210887   4.747   1.329   6.787
 3648TIP3   OH210888   5.866   6.551   3.403
 3648TIP3    H110889   5.857   6.495   3.325
 3648TIP3    H210890   5.778   6.588   3.415
 3649TIP3   OH210891   0.458   2.939   6.242
 3649TIP3    H110892   0.525   2.901   6.186
 3649TIP3    H210893   0.491   2.926   6.331
 3650TIP3   OH210894   4.722   1.415   1.694
 3650TIP3    H110895   4.695   1.425   1.785
 3650TIP3    H210896   4.716   1.321   1.677
 3651TIP3   OH210897   3.236   7.382   0.503
 3651TIP3    H110898   3.284   7.324   0.563
 3651TIP3    H210899   3.206   7.325   0.433
 3652TIP3   OH210900   4.223   6.819   6.223
 3652TIP3    H110901   4.302   6.778   6.259
 3652TIP3    H210902   4.186   6.753   6.166
 3653TIP3   OH210903   7.521   2.646   2.311
 3653TIP3    H110904   7.509   2.732   2.350
 3653TIP3    H210905   7.492   2.584   2.378
 3654TIP3   OH210906   3.583   6.116   5.664
 3654TIP3    H110907   3.678   6.120   5.647
 3654TIP3    H210908   3.547   6.076   5.585
 3655TIP3   OH210909   7.031   2.892   2.124
 3655TIP3    H110910   7.028   2.982   2.157
 3655TIP3    H210911   7.100   2.850   2.176
 3656TIP3   OH210912   7.086   0.339   0.535
 3656TIP3    H110913   7.156   0.390   0.495
 3656TIP3    H210914   7.131   0.266   0.577
 3657TIP3   OH210915   0.654   0.871   2.366
 3657TIP3    H110916   0.570   0.857   2.410
 3657TIP3    H210917   0.662   0.967   2.360
 3658TIP3   OH210918   0.291   2.685   0.015
 3658TIP3    H110919   0.224   2.640  -0.036
 3658TIP3    H210920   0.370   2.632   0.005
 3659TIP3   OH210921   7.898   2.473   1.703
 3659TIP3    H110922   7.861   2.481   1.615
 3659TIP3    H210923   7.837   2.416   1.750
 3660TIP3   OH210924   1.738   5.059   4.278
 3660TIP3    H110925   1.681   5.013   4.339
 3660TIP3    H210926   1.690   5.058   4.195
 3661TIP3   OH210927   6.387   2.369   5.908
 3661TIP3    H110928   6.374   2.320   5.826
 3661TIP3    H210929   6.319   2.436   5.907
 3662TIP3   OH210930   4.955   1.003   2.133
 3662TIP3    H110931   4.939   0.949   2.210
 3662TIP3    H210932   5.029   0.961   2.089
 3663TIP3   OH210933   2.175   3.608   4.444
 3663TIP3    H110934   2.101   3.550   4.460
 3663TIP3    H210935   2.135   3.688   4.409
 3664TIP3   OH210936   5.708   3.179   4.615
 3664TIP3    H110937   5.671   3.267   4.618
 3664TIP3    H210938   5.801   3.193   4.597
 3665TIP3   OH210939   4.444   6.575   4.795
 3665TIP3    H110940   4.535   6.561   4.821
 3665TIP3    H210941   4.393   6.546   4.870
 3666TIP3   OH210942   4.767   7.756   6.181
 3666TIP3    H110943   4.827   7.742   6.254
 3666TIP3    H210944   4.703   7.819   6.214
 3667TIP3   OH210945   3.965   4.280   6.427
 3667TIP3    H110946   3.955   4.189   6.457
 3667TIP3    H210947   4.057   4.300   6.442
 3668TIP3   OH210948   7.101   6.635   2.331
 3668TIP3    H110949   7.024   6.687   2.355
 3668TIP3    H210950   7.070   6.579   2.260
 3669TIP3   OH210951   0.434   0.457   4.059
 3669TIP3    H110952   0.474   0.434   3.975
 3669TIP3    H210953   0.340   0.442   4.045
 3670TIP3   OH210954   2.683   7.590   4.439
 3670TIP3    H110955   2.672   7.661   4.502
 3670TIP3    H210956   2.708   7.634   4.358
 3671TIP3   OH210957   1.879   6.768   5.624
 3671TIP3    H110958   1.940   6.722   5.566
 3671TIP3    H210959   1.933   6.804   5.694
 3672TIP3   OH210960   3.112   0.828   1.978
 3672TIP3    H110961   3.177   0.896   1.995
 3672TIP3    H210962   3.123   0.808   1.885
 3673TIP3   OH210963   3.984   4.399   4.856
 3673TIP3    H110964   3.989   4.320   4.909
 3673TIP3    H210965   3.938   4.462   4.910
 3674TIP3   OH210966   4.567   6.677   3.505
 3674TIP3    H110967   4.496   6.655   3.565
 3674TIP3    H210968   4.582   6.771   3.519
 3675TIP3   OH210969   4.589   1.250   4.892
 3675TIP3    H110970   4.660   1.197   4.856
 3675TIP3    H210971   4.575   1.318   4.826
 3676TIP3   OH210972   2.374   6.632   6.686
 3676TIP3    H110973   2.367   6.726   6.701
 3676TIP3    H210974   2.409   6.625   6.597
 3677TIP3   OH210975   3.280   3.703   0.477
 3677TIP3    H110976   3.359   3.715   0.425
 3677TIP3    H210977   3.208   3.719   0.416
 3678TIP3   OH210978   4.163   5.787   2.085
 3678TIP3    H110979   4.131   5.831   2.164
 3678TIP3    H210980   4.088   5.788   2.025
 3679TIP3   OH210981   2.982   7.166   0.722
 3679TIP3    H110982   2.949   7.205   0.803
 3679TIP3    H210983   2.908   7.172   0.662
 3680TIP3   OH210984   7.682   2.721   3.103
 3680TIP3    H110985   7.775   2.703   3.119
 3680TIP3    H210986   7.636   2.655   3.156
 3681TIP3   OH210987   4.864   4.492   3.295
 3681TIP3    H110988   4.848   4.405   3.258
 3681TIP3    H210989   4.903   4.475   3.380
 3682TIP3   OH210990   1.136   6.679   1.011
 3682TIP3    H110991   1.212   6.737   1.019
 3682TIP3    H210992   1.160   6.619   0.940
 3683TIP3   OH210993   4.714   3.065   6.689
 3683TIP3    H110994   4.688   3.033   6.775
 3683TIP3    H210995   4.808   3.083   6.697
 3684TIP3   OH210996   8.286   1.663   5.833
 3684TIP3    H110997   8.375   1.629   5.848
 3684TIP3    H210998   8.239   1.642   5.914
 3685TIP3   OH210999   1.172   1.517   2.498
 3685TIP3    H111000   1.159   1.564   2.415
 3685TIP3    H211001   1.202   1.584   2.559
 3686TIP3   OH211002   6.309   0.775   1.628
 3686TIP3    H111003   6.314   0.861   1.586
 3686TIP3    H211004   6.395   0.736   1.612
 3687TIP3   OH211005   3.310   5.818   1.419
 3687TIP3    H111006   3.296   5.724   1.411
 3687TIP3    H211007   3.243   5.847   1.481
 3688TIP3   OH211008   4.936   5.909   3.092
 3688TIP3    H111009   4.904   5.983   3.041
 3688TIP3    H211010   4.900   5.832   3.048
 3689TIP3   OH211011   6.304   6.923   3.540
 3689TIP3    H111012   6.294   6.850   3.601
 3689TIP3    H211013   6.230   6.981   3.560
 3690TIP3   OH211014   4.228   5.696   3.809
 3690TIP3    H111015   4.162   5.710   3.741
 3690TIP3    H211016   4.302   5.657   3.762
 3691TIP3   OH211017   2.690   1.321   1.223
 3691TIP3    H111018   2.600   1.335   1.251
 3691TIP3    H211019   2.700   1.378   1.147
 3692TIP3   OH211020   1.331   0.541   6.089
 3692TIP3    H111021   1.401   0.599   6.059
 3692TIP3    H211022   1.316   0.566   6.180
 3693TIP3   OH211023   5.112   6.905   4.649
 3693TIP3    H111024   5.111   6.924   4.743
 3693TIP3    H211025   5.170   6.830   4.640
 3694TIP3   OH211026  -0.005   0.640   3.890
 3694TIP3    H111027  -0.088   0.688   3.884
 3694TIP3    H211028   0.036   0.653   3.804
 3695TIP3   OH211029   3.376   5.417   5.772
 3695TIP3    H111030   3.450   5.478   5.771
 3695TIP3    H211031   3.411   5.337   5.812
 3696TIP3   OH211032   5.998   1.093   6.019
 3696TIP3    H111033   6.047   1.148   6.080
 3696TIP3    H211034   5.999   1.141   5.937
 3697TIP3   OH211035   0.714   6.225   1.038
 3697TIP3    H111036   0.638   6.170   1.022
 3697TIP3    H211037   0.684   6.291   1.100
 3698TIP3   OH211038   1.326   6.343   2.056
 3698TIP3    H111039   1.413   6.313   2.082
 3698TIP3    H211040   1.268   6.314   2.127
 3699TIP3   OH211041   5.870   2.559   3.832
 3699TIP3    H111042   5.798   2.517   3.785
 3699TIP3    H211043   5.861   2.526   3.922
 3700TIP3   OH211044   1.313   1.562   4.176
 3700TIP3    H111045   1.278   1.599   4.257
 3700TIP3    H211046   1.252   1.590   4.108
 3701TIP3   OH211047   5.458   4.454   5.751
 3701TIP3    H111048   5.412   4.499   5.822
 3701TIP3    H211049   5.507   4.524   5.707
 3702TIP3   OH211050   5.708   7.612   1.145
 3702TIP3    H111051   5.725   7.705   1.165
 3702TIP3    H211052   5.795   7.572   1.145
 3703TIP3   OH211053   7.483   2.991   4.427
 3703TIP3    H111054   7.504   3.032   4.342
 3703TIP3    H211055   7.398   2.949   4.413
 3704TIP3   OH211056   4.024   0.237   3.863
 3704TIP3    H111057   4.027   0.285   3.780
 3704TIP3    H211058   3.987   0.298   3.926
 3705TIP3   OH211059   3.566   6.159   3.281
 3705TIP3    H111060   3.516   6.100   3.225
 3705TIP3    H211061   3.622   6.102   3.333
 3706TIP3   OH211062   3.205   7.182   2.302
 3706TIP3    H111063   3.153   7.191   2.222
 3706TIP3    H211064   3.149   7.216   2.372
 3707TIP3   OH211065   6.572   0.697   6.051
 3707TIP3    H111066   6.645   0.636   6.049
 3707TIP3    H211067   6.558   0.721   5.960
 3708TIP3   OH211068   8.245   1.004   6.210
 3708TIP3    H111069   8.198   0.980   6.290
 3708TIP3    H211070   8.311   0.936   6.199
 3709TIP3   OH211071   0.818   6.693   0.334
 3709TIP3    H111072   0.747   6.727   0.388
 3709TIP3    H211073   0.898   6.718   0.381
 3710TIP3   OH211074   6.846   5.722   3.348
 3710TIP3    H111075   6.791   5.758   3.418
 3710TIP3    H211076   6.893   5.798   3.313
 3711TIP3   OH211077   1.878   1.751   2.451
 3711TIP3    H111078   1.920   1.697   2.518
 3711TIP3    H211079   1.888   1.701   2.370
 3712TIP3   OH211080   7.660   5.871   5.952
 3712TIP3    H111081   7.647   5.850   5.859
 3712TIP3    H211082   7.618   5.798   5.998
 3713TIP3   OH211083   4.234   2.556   5.887
 3713TIP3    H111084   4.144   2.556   5.917
 3713TIP3    H211085   4.283   2.514   5.958
 3714TIP3   OH211086   3.581   7.580   5.268
 3714TIP3    H111087   3.513   7.606   5.206
 3714TIP3    H211088   3.542   7.594   5.354
 3715TIP3   OH211089   0.292   4.470   6.632
 3715TIP3    H111090   0.277   4.495   6.541
 3715TIP3    H211091   0.224   4.516   6.681
 3716TIP3   OH211092   3.321   5.152   5.958
 3716TIP3    H111093   3.354   5.083   6.016
 3716TIP3    H211094   3.296   5.107   5.878
 3717TIP3   OH211095   7.962   6.813   4.557
 3717TIP3    H111096   7.976   6.905   4.536
 3717TIP3    H211097   7.867   6.801   4.546
 3718TIP3   OH211098   7.061   0.495   5.681
 3718TIP3    H111099   7.028   0.434   5.615
 3718TIP3    H211100   7.019   0.468   5.762
 3719TIP3   OH211101   3.876   2.739   4.670
 3719TIP3    H111102   3.828   2.657   4.656
 3719TIP3    H211103   3.892   2.742   4.764
 3720TIP3   OH211104   7.502   4.820   1.726
 3720TIP3    H111105   7.535   4.757   1.663
 3720TIP3    H211106   7.450   4.882   1.673
 3721TIP3   OH211107   7.059   7.505   5.219
 3721TIP3    H111108   7.113   7.583   5.222
 3721TIP3    H211109   7.086   7.454   5.296
 3722TIP3   OH211110   1.127   7.469   4.715
 3722TIP3    H111111   1.075   7.389   4.717
 3722TIP3    H211112   1.076   7.529   4.661
 3723TIP3   OH211113   0.381   4.455   1.183
 3723TIP3    H111114   0.320   4.476   1.112
 3723TIP3    H211115   0.447   4.398   1.143
 3724TIP3   OH211116   3.505   4.583   6.137
 3724TIP3    H111117   3.476   4.520   6.070
 3724TIP3    H211118   3.558   4.646   6.089
 3725TIP3   OH211119   7.435   5.042   4.146
 3725TIP3    H111120   7.521   5.036   4.188
 3725TIP3    H211121   7.380   4.981   4.195
 3726TIP3   OH211122   0.568   5.926   3.563
 3726TIP3    H111123   0.606   5.999   3.514
 3726TIP3    H211124   0.502   5.966   3.619
 3727TIP3   OH211125   6.748   4.965   4.864
 3727TIP3    H111126   6.819   4.931   4.810
 3727TIP3    H211127   6.755   5.060   4.855
 3728TIP3   OH211128   6.168   7.759   2.182
 3728TIP3    H111129   6.130   7.786   2.098
 3728TIP3    H211130   6.262   7.772   2.170
 3729TIP3   OH211131   2.795   4.778   0.202
 3729TIP3    H111132   2.731   4.707   0.189
 3729TIP3    H211133   2.835   4.790   0.117
 3730TIP3   OH211134   1.620   0.660   6.056
 3730TIP3    H111135   1.638   0.598   5.985
 3730TIP3    H211136   1.546   0.712   6.025
 3731TIP3   OH211137   6.233   1.019   2.416
 3731TIP3    H111138   6.163   0.967   2.378
 3731TIP3    H211139   6.191   1.100   2.444
 3732TIP3   OH211140   1.657   6.133   1.102
 3732TIP3    H111141   1.593   6.071   1.066
 3732TIP3    H211142   1.639   6.132   1.196
 3733TIP3   OH211143   5.458   1.142   3.209
 3733TIP3    H111144   5.419   1.229   3.212
 3733TIP3    H211145   5.539   1.149   3.260
 3734TIP3   OH211146   0.895   2.568   5.202
 3734TIP3    H111147   0.934   2.619   5.131
 3734TIP3    H211148   0.843   2.501   5.157
 3735TIP3   OH211149   0.745   1.741   1.456
 3735TIP3    H111150   0.769   1.648   1.465
 3735TIP3    H211151   0.703   1.763   1.538
 3736TIP3   OH211152   7.305   0.743   4.122
 3736TIP3    H111153   7.255   0.661   4.128
 3736TIP3    H211154   7.396   0.715   4.113
 3737TIP3   OH211155   4.206   2.700   5.352
 3737TIP3    H111156   4.207   2.657   5.438
 3737TIP3    H211157   4.124   2.749   5.351
 3738TIP3   OH211158   3.545   6.126   0.825
 3738TIP3    H111159   3.564   6.149   0.734
 3738TIP3    H211160   3.498   6.043   0.820
 3739TIP3   OH211161   4.396   1.192   6.678
 3739TIP3    H111162   4.456   1.241   6.621
 3739TIP3    H211163   4.371   1.116   6.626
 3740TIP3   OH211164   2.707   1.489   2.114
 3740TIP3    H111165   2.646   1.420   2.142
 3740TIP3    H211166   2.670   1.569   2.151
 3741TIP3   OH211167   7.550   5.792   1.980
 3741TIP3    H111168   7.587   5.733   2.045
 3741TIP3    H211169   7.579   5.757   1.896
 3742TIP3   OH211170   0.449   0.542   0.405
 3742TIP3    H111171   0.406   0.573   0.325
 3742TIP3    H211172   0.495   0.462   0.379
 3743TIP3   OH211173   7.721   3.515   2.505
 3743TIP3    H111174   7.748   3.548   2.419
 3743TIP3    H211175   7.781   3.557   2.567
 3744TIP3   OH211176   4.262   6.451   3.258
 3744TIP3    H111177   4.179   6.441   3.211
 3744TIP3    H211178   4.289   6.541   3.240
 3745TIP3   OH211179   8.130   6.444   1.045
 3745TIP3    H111180   8.161   6.370   0.993
 3745TIP3    H211181   8.128   6.517   0.983
 3746TIP3   OH211182   6.853   4.386   6.190
 3746TIP3    H111183   6.898   4.412   6.270
 3746TIP3    H211184   6.899   4.433   6.120
 3747TIP3   OH211185   4.786   1.369   5.795
 3747TIP3    H111186   4.706   1.364   5.847
 3747TIP3    H211187   4.799   1.281   5.761
 3748TIP3   OH211188   6.043   0.243   6.438
 3748TIP3    H111189   6.130   0.204   6.451
 3748TIP3    H211190   5.989   0.205   6.507
 3749TIP3   OH211191   2.313   4.957   3.441
 3749TIP3    H111192   2.388   5.015   3.447
 3749TIP3    H211193   2.237   5.015   3.435
 3750TIP3   OH211194   7.873   5.665   4.768
 3750TIP3    H111195   7.941   5.642   4.831
 3750TIP3    H211196   7.792   5.634   4.808
 3751TIP3   OH211197   5.082   2.742   6.166
 3751TIP3    H111198   5.049   2.766   6.253
 3751TIP3    H211199   5.081   2.823   6.116
 3752TIP3   OH211200   4.252   2.354   6.070
 3752TIP3    H111201   4.319   2.346   6.139
 3752TIP3    H211202   4.195   2.279   6.083
 3753TIP3   OH211203   1.514   6.170   1.600
 3753TIP3    H111204   1.497   6.136   1.688
 3753TIP3    H211205   1.549   6.258   1.615
 3754TIP3   OH211206   6.529   0.292   0.564
 3754TIP3    H111207   6.536   0.362   0.629
 3754TIP3    H211208   6.618   0.258   0.555
 3755TIP3   OH211209   7.494   4.811   5.375
 3755TIP3    H111210   7.478   4.903   5.396
 3755TIP3    H211211   7.562   4.785   5.437
 3756TIP3   OH211212   3.702   5.665   2.569
 3756TIP3    H111213   3.741   5.661   2.482
 3756TIP3    H211214   3.701   5.758   2.591
 3757TIP3   OH211215   4.065   7.685   5.514
 3757TIP3    H111216   4.147   7.640   5.493
 3757TIP3    H211217   4.004   7.655   5.446
 3758TIP3   OH211218   1.841   5.134   0.612
 3758TIP3    H111219   1.884   5.168   0.533
 3758TIP3    H211220   1.875   5.045   0.621
 3759TIP3   OH211221   3.426   2.182   3.881
 3759TIP3    H111222   3.426   2.261   3.934
 3759TIP3    H211223   3.494   2.127   3.919
 3760TIP3   OH211224   5.231   1.576   4.512
 3760TIP3    H111225   5.253   1.489   4.477
 3760TIP3    H211226   5.139   1.568   4.540
 3761TIP3   OH211227   2.405   2.339   1.797
 3761TIP3    H111228   2.338   2.277   1.769
 3761TIP3    H211229   2.357   2.420   1.815
 3762TIP3   OH211230   5.535   6.713   4.631
 3762TIP3    H111231   5.554   6.669   4.548
 3762TIP3    H211232   5.614   6.701   4.684
 3763TIP3   OH211233   1.403   3.541   2.819
 3763TIP3    H111234   1.376   3.614   2.874
 3763TIP3    H211235   1.435   3.475   2.880
 3764TIP3   OH211236   6.319   1.691   2.601
 3764TIP3    H111237   6.263   1.726   2.531
 3764TIP3    H211238   6.384   1.638   2.556
 3765TIP3   OH211239   4.855   2.391   1.971
 3765TIP3    H111240   4.806   2.376   1.890
 3765TIP3    H211241   4.793   2.438   2.027
 3766TIP3   OH211242   4.992   2.906   6.482
 3766TIP3    H111243   4.906   2.904   6.440
 3766TIP3    H211244   5.019   2.814   6.485
 3767TIP3   OH211245   5.311   5.397   0.772
 3767TIP3    H111246   5.265   5.459   0.828
 3767TIP3    H211247   5.345   5.450   0.700
 3768TIP3   OH211248   3.044   3.712   0.307
 3768TIP3    H111249   2.995   3.642   0.266
 3768TIP3    H211250   2.992   3.736   0.384
 3769TIP3   OH211251   7.116   2.077   4.978
 3769TIP3    H111252   7.076   2.115   5.056
 3769TIP3    H211253   7.186   2.137   4.955
 3770TIP3   OH211254   7.149   3.196   4.323
 3770TIP3    H111255   7.190   3.257   4.384
 3770TIP3    H211256   7.076   3.158   4.372
 3771TIP3   OH211257   0.819   4.833   3.882
 3771TIP3    H111258   0.898   4.826   3.829
 3771TIP3    H211259   0.788   4.922   3.866
 3772TIP3   OH211260   7.963   0.758   4.203
 3772TIP3    H111261   8.040   0.715   4.165
 3772TIP3    H211262   7.944   0.829   4.141
 3773TIP3   OH211263   1.640   1.570   4.742
 3773TIP3    H111264   1.582   1.566   4.666
 3773TIP3    H211265   1.599   1.636   4.799
 3774TIP3   OH211266   6.420   6.146   1.397
 3774TIP3    H111267   6.490   6.209   1.415
 3774TIP3    H211268   6.370   6.141   1.478
 3775TIP3   OH211269   2.420   4.878   1.122
 3775TIP3    H111270   2.432   4.802   1.178
 3775TIP3    H211271   2.506   4.893   1.082
 3776TIP3   OH211272   4.128   3.001   5.148
 3776TIP3    H111273   4.034   3.012   5.141
 3776TIP3    H211274   4.147   2.920   5.100
 3777TIP3   OH211275   0.087   2.171   1.946
 3777TIP3    H111276   0.072   2.175   2.041
 3777TIP3    H211277   0.182   2.173   1.937
 3778TIP3   OH211278   0.914   1.666   5.984
 3778TIP3    H111279   0.894   1.582   6.025
 3778TIP3    H211280   0.982   1.645   5.919
 3779TIP3   OH211281   2.474   7.662   6.102
 3779TIP3    H111282   2.538   7.617   6.047
 3779TIP3    H211283   2.395   7.668   6.049
 3780TIP3   OH211284   3.172   0.771   0.200
 3780TIP3    H111285   3.222   0.725   0.133
 3780TIP3    H211286   3.235   0.791   0.268
 3781TIP3   OH211287   1.947   0.964   2.197
 3781TIP3    H111288   1.911   1.023   2.131
 3781TIP3    H211289   1.885   0.967   2.269
 3782TIP3   OH211290   3.077   5.690   6.102
 3782TIP3    H111291   3.128   5.676   6.182
 3782TIP3    H211292   3.141   5.687   6.031
 3783TIP3   OH211293   3.314   0.183   0.296
 3783TIP3    H111294   3.278   0.130   0.225
 3783TIP3    H211295   3.249   0.178   0.366
 3784TIP3   OH211296   2.165   5.627   2.175
 3784TIP3    H111297   2.161   5.720   2.196
 3784TIP3    H211298   2.157   5.624   2.080
 3785TIP3   OH211299   0.245   5.715   5.885
 3785TIP3    H111300   0.330   5.749   5.914
 3785TIP3    H211301   0.250   5.714   5.790
 3786TIP3   OH211302   2.927   3.082   3.494
 3786TIP3    H111303   2.960   3.148   3.554
 3786TIP3    H211304   2.984   3.087   3.418
 3787TIP3   OH211305   1.223   1.269   2.584
 3787TIP3    H111306   1.231   1.295   2.675
 3787TIP3    H211307   1.194   1.347   2.538
 3788TIP3   OH211308   5.021   2.510   3.106
 3788TIP3    H111309   5.107   2.470   3.121
 3788TIP3    H211310   4.968   2.438   3.071
 3789TIP3   OH211311   7.119   0.625   0.189
 3789TIP3    H111312   7.168   0.545   0.169
 3789TIP3    H211313   7.099   0.663   0.103
 3790TIP3   OH211314   3.126   6.584   6.201
 3790TIP3    H111315   3.087   6.670   6.191
 3790TIP3    H211316   3.106   6.539   6.119
 3791TIP3   OH211317   1.162   6.636   1.535
 3791TIP3    H111318   1.136   6.544   1.525
 3791TIP3    H211319   1.155   6.653   1.629
 3792TIP3   OH211320   0.508   6.223   0.083
 3792TIP3    H111321   0.426   6.201   0.127
 3792TIP3    H211322   0.513   6.318   0.086
 3793TIP3   OH211323   8.234   2.331   0.171
 3793TIP3    H111324   8.151   2.362   0.207
 3793TIP3    H211325   8.257   2.255   0.224
 3794TIP3   OH211326   6.051   3.959   3.619
 3794TIP3    H111327   6.028   4.008   3.698
 3794TIP3    H211328   5.968   3.951   3.571
 3795TIP3   OH211329   5.045   2.284   0.409
 3795TIP3    H111330   5.113   2.292   0.476
 3795TIP3    H211331   5.068   2.348   0.343
 3796TIP3   OH211332   5.703   4.954   1.375
 3796TIP3    H111333   5.615   4.960   1.412
 3796TIP3    H211334   5.757   5.008   1.432
 3797TIP3   OH211335   3.849   6.569   6.083
 3797TIP3    H111336   3.832   6.537   5.995
 3797TIP3    H211337   3.839   6.664   6.076
 3798TIP3   OH211338   1.737   2.432   1.880
 3798TIP3    H111339   1.700   2.381   1.952
 3798TIP3    H211340   1.693   2.516   1.886
 3799TIP3   OH211341   3.170   7.504   0.817
 3799TIP3    H111342   3.209   7.423   0.851
 3799TIP3    H211343   3.163   7.561   0.893
 3800TIP3   OH211344   6.265   4.442   4.219
 3800TIP3    H111345   6.326   4.501   4.264
 3800TIP3    H211346   6.303   4.432   4.131
 3801TIP3   OH211347   2.778   7.089   2.575
 3801TIP3    H111348   2.711   7.147   2.539
 3801TIP3    H211349   2.780   7.109   2.668
 3802TIP3   OH211350   5.078   5.379   6.092
 3802TIP3    H111351   5.004   5.319   6.074
 3802TIP3    H211352   5.137   5.366   6.018
 3803TIP3   OH211353   0.295   4.230   3.948
 3803TIP3    H111354   0.338   4.184   4.021
 3803TIP3    H211355   0.352   4.213   3.873
 3804TIP3   OH211356   7.777   5.428   1.350
 3804TIP3    H111357   7.830   5.352   1.327
 3804TIP3    H211358   7.745   5.410   1.438
 3805TIP3   OH211359   3.310   1.156   3.909
 3805TIP3    H111360   3.360   1.125   3.984
 3805TIP3    H211361   3.228   1.106   3.912
 3806TIP3   OH211362   0.416   3.669   1.967
 3806TIP3    H111363   0.473   3.745   1.954
 3806TIP3    H211364   0.432   3.642   2.057
 3807TIP3   OH211365   6.996   0.180   2.210
 3807TIP3    H111366   6.984   0.149   2.120
 3807TIP3    H211367   6.973   0.105   2.265
 3808TIP3   OH211368   4.117   2.204   2.878
 3808TIP3    H111369   4.206   2.235   2.893
 3808TIP3    H211370   4.072   2.222   2.961
 3809TIP3   OH211371   2.169   5.844   6.276
 3809TIP3    H111372   2.115   5.785   6.328
 3809TIP3    H211373   2.167   5.807   6.188
 3810TIP3   OH211374   0.473   5.431   2.012
 3810TIP3    H111375   0.444   5.353   1.965
 3810TIP3    H211376   0.441   5.419   2.101
 3811TIP3   OH211377   4.596   2.224   0.818
 3811TIP3    H111378   4.623   2.135   0.840
 3811TIP3    H211379   4.518   2.240   0.871
 3812TIP3   OH211380   2.568   6.943   6.234
 3812TIP3    H111381   2.649   6.952   6.283
 3812TIP3    H211382   2.593   6.899   6.153
 3813TIP3   OH211383   2.671   4.470   3.884
 3813TIP3    H111384   2.694   4.502   3.971
 3813TIP3    H211385   2.700   4.379   3.885
 3814TIP3   OH211386   6.271   2.024   1.833
 3814TIP3    H111387   6.250   2.089   1.900
 3814TIP3    H211388   6.341   2.065   1.781
 3815TIP3   OH211389   4.725   3.087   2.244
 3815TIP3    H111390   4.753   3.168   2.201
 3815TIP3    H211391   4.730   3.107   2.338
 3816TIP3   OH211392   3.971   0.585   5.121
 3816TIP3    H111393   3.945   0.615   5.034
 3816TIP3    H211394   4.022   0.658   5.156
 3817TIP3   OH211395   8.222   5.041   3.272
 3817TIP3    H111396   8.301   5.031   3.219
 3817TIP3    H211397   8.244   5.001   3.356
 3818TIP3   OH211398   7.586   3.243   6.112
 3818TIP3    H111399   7.600   3.235   6.206
 3818TIP3    H211400   7.644   3.314   6.085
 3819TIP3   OH211401   4.401   3.991   1.029
 3819TIP3    H111402   4.400   4.075   0.983
 3819TIP3    H211403   4.421   4.013   1.120
 3820TIP3   OH211404   1.399   1.482   2.239
 3820TIP3    H111405   1.446   1.496   2.321
 3820TIP3    H211406   1.380   1.388   2.237
 3821TIP3   OH211407   2.785   2.347   0.572
 3821TIP3    H111408   2.833   2.427   0.592
 3821TIP3    H211409   2.822   2.318   0.488
 3822TIP3   OH211410   2.753   4.833   5.468
 3822TIP3    H111411   2.677   4.866   5.420
 3822TIP3    H211412   2.751   4.738   5.454
 3823TIP3   OH211413   4.445   6.757   5.145
 3823TIP3    H111414   4.396   6.830   5.182
 3823TIP3    H211415   4.377   6.696   5.115
 3824TIP3   OH211416   4.320   6.404   5.008
 3824TIP3    H111417   4.260   6.408   5.083
 3824TIP3    H211418   4.267   6.368   4.937
 3825TIP3   OH211419   5.234   1.801   4.666
 3825TIP3    H111420   5.269   1.720   4.628
 3825TIP3    H211421   5.145   1.808   4.632
 3826TIP3   OH211422   2.399   4.600   0.855
 3826TIP3    H111423   2.475   4.569   0.805
 3826TIP3    H211424   2.390   4.692   0.831
 3827TIP3   OH211425   4.157   4.556   6.397
 3827TIP3    H111426   4.174   4.474   6.443
 3827TIP3    H211427   4.083   4.594   6.443
 3828TIP3   OH211428   2.522   7.766   6.781
 3828TIP3    H111429   2.483   7.825   6.717
 3828TIP3    H211430   2.598   7.728   6.736
 3829TIP3   OH211431   5.893   3.390   2.591
 3829TIP3    H111432   5.800   3.400   2.611
 3829TIP3    H211433   5.930   3.477   2.608
 3830TIP3   OH211434   0.547   4.830   3.126
 3830TIP3    H111435   0.521   4.783   3.205
 3830TIP3    H211436   0.596   4.906   3.158
 3831TIP3   OH211437   6.688   5.337   1.228
 3831TIP3    H111438   6.740   5.354   1.307
 3831TIP3    H211439   6.740   5.374   1.157
 3832TIP3   OH211440   6.082   5.639   2.861
 3832TIP3    H111441   6.168   5.681   2.864
 3832TIP3    H211442   6.052   5.639   2.952
 3833TIP3   OH211443   8.006   0.173   5.786
 3833TIP3    H111444   8.061   0.170   5.864
 3833TIP3    H211445   8.042   0.244   5.733
 3834TIP3   OH211446   4.042   4.839   0.092
 3834TIP3    H111447   4.086   4.880   0.166
 3834TIP3    H211448   4.095   4.865   0.016
 3835TIP3   OH211449   0.531   0.734   0.958
 3835TIP3    H111450   0.537   0.731   0.863
 3835TIP3    H211451   0.549   0.645   0.987
 3836TIP3   OH211452   6.744   1.212   4.866
 3836TIP3    H111453   6.780   1.204   4.954
 3836TIP3    H211454   6.687   1.289   4.870
 3837TIP3   OH211455   6.760   2.857   6.056
 3837TIP3    H111456   6.783   2.869   6.148
 3837TIP3    H211457   6.788   2.767   6.036
 3838TIP3   OH211458   2.397   2.599   5.572
 3838TIP3    H111459   2.411   2.511   5.607
 3838TIP3    H211460   2.349   2.644   5.641
 3839TIP3   OH211461   7.016   3.130   0.371
 3839TIP3    H111462   7.075   3.205   0.363
 3839TIP3    H211463   7.003   3.121   0.466
 3840TIP3   OH211464   2.501   7.303   1.679
 3840TIP3    H111465   2.576   7.275   1.730
 3840TIP3    H211466   2.425   7.266   1.725
 3841TIP3   OH211467   2.231   0.140   1.246
 3841TIP3    H111468   2.317   0.143   1.289
 3841TIP3    H211469   2.227   0.220   1.194
 3842TIP3   OH211470   1.181   1.738   0.203
 3842TIP3    H111471   1.219   1.688   0.275
 3842TIP3    H211472   1.122   1.800   0.245
 3843TIP3   OH211473   0.204   1.629   2.278
 3843TIP3    H111474   0.124   1.651   2.324
 3843TIP3    H211475   0.274   1.665   2.333
 3844TIP3   OH211476   4.246   4.336   6.508
 3844TIP3    H111477   4.333   4.369   6.489
 3844TIP3    H211478   4.261   4.258   6.562
 3845TIP3   OH211479   4.377   1.220   0.511
 3845TIP3    H111480   4.337   1.291   0.562
 3845TIP3    H211481   4.457   1.198   0.559
 3846TIP3   OH211482   5.606   5.661   6.286
 3846TIP3    H111483   5.572   5.572   6.285
 3846TIP3    H211484   5.586   5.696   6.200
 3847TIP3   OH211485   4.685   2.210   5.282
 3847TIP3    H111486   4.595   2.244   5.285
 3847TIP3    H211487   4.740   2.288   5.276
 3848TIP3   OH211488   4.813   6.574   6.095
 3848TIP3    H111489   4.773   6.497   6.054
 3848TIP3    H211490   4.896   6.542   6.130
 3849TIP3   OH211491   6.727   4.562   3.228
 3849TIP3    H111492   6.695   4.645   3.193
 3849TIP3    H211493   6.821   4.573   3.237
 3850TIP3   OH211494   7.674   3.836   2.694
 3850TIP3    H111495   7.742   3.778   2.659
 3850TIP3    H211496   7.722   3.898   2.749
 3851TIP3   OH211497   1.033   7.281   1.310
 3851TIP3    H111498   0.942   7.297   1.333
 3851TIP3    H211499   1.058   7.357   1.256
 3852TIP3   OH211500   5.220   6.897   2.966
 3852TIP3    H111501   5.181   6.844   3.034
 3852TIP3    H211502   5.178   6.868   2.885
 3853TIP3   OH211503   4.352   0.039   3.468
 3853TIP3    H111504   4.297   0.065   3.394
 3853TIP3    H211505   4.293   0.037   3.543
 3854TIP3   OH211506   8.072   0.798   3.889
 3854TIP3    H111507   8.083   0.858   3.963
 3854TIP3    H211508   8.003   0.837   3.836
 3855TIP3   OH211509   3.404   2.570   0.631
 3855TIP3    H111510   3.372   2.649   0.674
 3855TIP3    H211511   3.494   2.591   0.606
 3856TIP3   OH211512   1.722   5.383   0.746
 3856TIP3    H111513   1.757   5.295   0.735
 3856TIP3    H211514   1.633   5.368   0.779
 3857TIP3   OH211515   3.599   7.662   2.966
 3857TIP3    H111516   3.517   7.615   2.980
 3857TIP3    H211517   3.587   7.746   3.010
 3858TIP3   OH211518   0.369   1.897   5.391
 3858TIP3    H111519   0.383   1.954   5.315
 3858TIP3    H211520   0.312   1.948   5.448
 3859TIP3   OH211521   3.463   1.217   0.478
 3859TIP3    H111522   3.497   1.271   0.549
 3859TIP3    H211523   3.370   1.237   0.475
 3860TIP3   OH211524   8.245   2.316   4.711
 3860TIP3    H111525   8.267   2.240   4.657
 3860TIP3    H211526   8.187   2.368   4.656
 3861TIP3   OH211527   4.132   4.983   1.988
 3861TIP3    H111528   4.039   5.005   1.984
 3861TIP3    H211529   4.136   4.892   1.959
 3862TIP3   OH211530   1.138   5.967   6.067
 3862TIP3    H111531   1.095   6.044   6.030
 3862TIP3    H211532   1.211   6.003   6.119
 3863TIP3   OH211533   6.025   6.675   4.447
 3863TIP3    H111534   6.034   6.687   4.353
 3863TIP3    H211535   6.062   6.588   4.464
 3864TIP3   OH211536   6.300   3.737   5.078
 3864TIP3    H111537   6.387   3.697   5.085
 3864TIP3    H211538   6.257   3.689   5.007
 3865TIP3   OH211539   2.171   4.862   4.215
 3865TIP3    H111540   2.130   4.918   4.282
 3865TIP3    H211541   2.109   4.862   4.143
 3866TIP3   OH211542   5.469   6.924   3.318
 3866TIP3    H111543   5.445   6.981   3.391
 3866TIP3    H211544   5.469   6.836   3.355
 3867TIP3   OH211545   1.923   4.329   2.422
 3867TIP3    H111546   1.832   4.309   2.402
 3867TIP3    H211547   1.928   4.424   2.417
 3868TIP3   OH211548   2.289   4.450   0.388
 3868TIP3    H111549   2.272   4.519   0.323
 3868TIP3    H211550   2.262   4.369   0.344
 3869TIP3   OH211551   4.861   5.384   4.880
 3869TIP3    H111552   4.832   5.323   4.948
 3869TIP3    H211553   4.841   5.339   4.797
 3870TIP3   OH211554   7.631   0.831   4.460
 3870TIP3    H111555   7.725   0.816   4.450
 3870TIP3    H211556   7.624   0.923   4.484
 3871TIP3   OH211557   0.010   2.542   2.895
 3871TIP3    H111558  -0.043   2.582   2.826
 3871TIP3    H211559   0.087   2.598   2.902
 3872TIP3   OH211560   5.438   5.778   3.740
 3872TIP3    H111561   5.504   5.834   3.698
 3872TIP3    H211562   5.359   5.790   3.687
 3873TIP3   OH211563   3.836   1.022   1.919
 3873TIP3    H111564   3.900   0.965   1.876
 3873TIP3    H211565   3.809   0.974   1.997
 3874TIP3   OH211566   6.736   4.271   2.642
 3874TIP3    H111567   6.669   4.273   2.574
 3874TIP3    H211568   6.805   4.330   2.610
 3875TIP3   OH211569   1.819   0.129   2.651
 3875TIP3    H111570   1.737   0.178   2.663
 3875TIP3    H211571   1.835   0.088   2.735
 3876TIP3   OH211572   0.015   3.525   5.390
 3876TIP3    H111573   0.045   3.572   5.312
 3876TIP3    H211574   0.075   3.451   5.398
 3877TIP3   OH211575   2.566   7.307   4.628
 3877TIP3    H111576   2.515   7.226   4.636
 3877TIP3    H211577   2.605   7.301   4.541
 3878TIP3   OH211578   5.686   1.632   0.306
 3878TIP3    H111579   5.721   1.720   0.318
 3878TIP3    H211580   5.640   1.636   0.222
 3879TIP3   OH211581   3.264   3.306   1.240
 3879TIP3    H111582   3.178   3.288   1.278
 3879TIP3    H211583   3.327   3.271   1.303
 3880TIP3   OH211584   5.496   3.104   1.680
 3880TIP3    H111585   5.455   3.068   1.758
 3880TIP3    H211586   5.455   3.056   1.608
 3881TIP3   OH211587   4.343   4.752   3.944
 3881TIP3    H111588   4.432   4.786   3.956
 3881TIP3    H211589   4.288   4.812   3.993
 3882TIP3   OH211590   1.901   2.344   6.702
 3882TIP3    H111591   1.826   2.396   6.673
 3882TIP3    H211592   1.863   2.274   6.756
 3883TIP3   OH211593   4.017   7.662   6.282
 3883TIP3    H111594   3.957   7.688   6.212
 3883TIP3    H211595   4.083   7.609   6.238
 3884TIP3   OH211596   7.876   5.608   2.590
 3884TIP3    H111597   7.905   5.662   2.516
 3884TIP3    H211598   7.881   5.518   2.558
 3885TIP3   OH211599   8.137   3.574   6.235
 3885TIP3    H111600   8.197   3.647   6.219
 3885TIP3    H211601   8.083   3.603   6.308
 3886TIP3   OH211602   1.673   5.805   0.906
 3886TIP3    H111603   1.626   5.729   0.870
 3886TIP3    H211604   1.758   5.803   0.861
 3887TIP3   OH211605   4.029   0.688   3.209
 3887TIP3    H111606   4.115   0.695   3.251
 3887TIP3    H211607   4.010   0.777   3.179
 3888TIP3   OH211608   3.946   5.411   6.114
 3888TIP3    H111609   3.987   5.325   6.124
 3888TIP3    H211610   4.015   5.473   6.136
 3889TIP3   OH211611   0.190   3.208   4.045
 3889TIP3    H111612   0.211   3.115   4.041
 3889TIP3    H211613   0.099   3.214   4.018
 3890TIP3   OH211614   4.806   1.825   6.317
 3890TIP3    H111615   4.892   1.782   6.314
 3890TIP3    H211616   4.810   1.891   6.248
 3891TIP3   OH211617   2.983   0.656   4.265
 3891TIP3    H111618   2.983   0.701   4.180
 3891TIP3    H211619   2.891   0.654   4.290
 3892TIP3   OH211620   4.803   4.580   2.162
 3892TIP3    H111621   4.708   4.582   2.170
 3892TIP3    H211622   4.831   4.667   2.189
 3893TIP3   OH211623   7.482   0.388   0.092
 3893TIP3    H111624   7.459   0.407   0.183
 3893TIP3    H211625   7.415   0.431   0.040
 3894TIP3   OH211626   2.765   1.938   4.510
 3894TIP3    H111627   2.734   2.012   4.563
 3894TIP3    H211628   2.727   1.953   4.424
 3895TIP3   OH211629   3.764   1.444   1.476
 3895TIP3    H111630   3.684   1.410   1.517
 3895TIP3    H211631   3.735   1.518   1.423
 3896TIP3   OH211632   2.995   2.920   1.449
 3896TIP3    H111633   3.080   2.943   1.410
 3896TIP3    H211634   3.011   2.838   1.495
 3897TIP3   OH211635   6.199   2.608   0.418
 3897TIP3    H111636   6.198   2.643   0.328
 3897TIP3    H211637   6.284   2.634   0.453
 3898TIP3   OH211638   5.224   5.830   1.485
 3898TIP3    H111639   5.236   5.750   1.433
 3898TIP3    H211640   5.239   5.901   1.423
 3899TIP3   OH211641   7.685   6.387   0.183
 3899TIP3    H111642   7.780   6.384   0.175
 3899TIP3    H211643   7.662   6.479   0.170
 3900TIP3   OH211644   5.085   5.600   0.305
 3900TIP3    H111645   5.156   5.660   0.281
 3900TIP3    H211646   5.102   5.521   0.254
 3901TIP3   OH211647   4.487   1.061   2.301
 3901TIP3    H111648   4.497   0.970   2.273
 3901TIP3    H211649   4.457   1.055   2.391
 3902TIP3   OH211650   4.520   3.029   0.144
 3902TIP3    H111651   4.491   3.009   0.233
 3902TIP3    H211652   4.614   3.040   0.151
 3903TIP3   OH211653   3.954   0.610   1.508
 3903TIP3    H111654   3.885   0.638   1.449
 3903TIP3    H211655   4.012   0.556   1.454
 3904TIP3   OH211656   1.165   7.116   1.674
 3904TIP3    H111657   1.216   7.194   1.651
 3904TIP3    H211658   1.084   7.125   1.625
 3905TIP3   OH211659   3.602   4.298   3.300
 3905TIP3    H111660   3.658   4.274   3.227
 3905TIP3    H211661   3.636   4.381   3.332
 3906TIP3   OH211662   0.633   7.161   0.207
 3906TIP3    H111663   0.678   7.099   0.265
 3906TIP3    H211664   0.578   7.213   0.266
 3907TIP3   OH211665   0.311   1.080   5.305
 3907TIP3    H111666   0.374   1.069   5.376
 3907TIP3    H211667   0.363   1.080   5.225
 3908TIP3   OH211668   5.699   2.496   6.075
 3908TIP3    H111669   5.746   2.564   6.122
 3908TIP3    H211670   5.718   2.514   5.983
 3909TIP3   OH211671   4.733   7.390   4.633
 3909TIP3    H111672   4.741   7.443   4.713
 3909TIP3    H211673   4.798   7.426   4.573
 3910TIP3   OH211674   3.594   5.650   4.565
 3910TIP3    H111675   3.642   5.572   4.537
 3910TIP3    H211676   3.537   5.619   4.636
 3911TIP3   OH211677   7.950   1.857   3.748
 3911TIP3    H111678   8.003   1.845   3.669
 3911TIP3    H211679   7.885   1.924   3.723
 3912TIP3   OH211680   4.735   4.001   3.009
 3912TIP3    H111681   4.709   4.032   3.096
 3912TIP3    H211682   4.826   4.028   2.999
 3913TIP3   OH211683   2.973   4.573   1.660
 3913TIP3    H111684   2.966   4.514   1.735
 3913TIP3    H211685   3.054   4.546   1.616
 3914TIP3   OH211686   6.793   7.526   4.427
 3914TIP3    H111687   6.712   7.507   4.380
 3914TIP3    H211688   6.845   7.576   4.364
 3915TIP3   OH211689   4.949   1.686   2.849
 3915TIP3    H111690   4.922   1.663   2.938
 3915TIP3    H211691   5.003   1.612   2.821
 3916TIP3   OH211692   0.084   2.996   1.014
 3916TIP3    H111693   0.060   3.082   0.977
 3916TIP3    H211694   0.179   2.991   1.002
 3917TIP3   OH211695   5.664   5.921   6.763
 3917TIP3    H111696   5.574   5.945   6.739
 3917TIP3    H211697   5.692   5.860   6.694
 3918TIP3   OH211698   4.962   1.598   4.304
 3918TIP3    H111699   4.962   1.660   4.378
 3918TIP3    H211700   4.906   1.526   4.333
 3919TIP3   OH211701   7.422   6.706   2.840
 3919TIP3    H111702   7.415   6.794   2.803
 3919TIP3    H211703   7.511   6.679   2.820
 3920TIP3   OH211704   4.078   2.117   5.363
 3920TIP3    H111705   4.016   2.176   5.319
 3920TIP3    H211706   4.134   2.175   5.414
 3921TIP3   OH211707   6.472   6.615   1.369
 3921TIP3    H111708   6.513   6.529   1.356
 3921TIP3    H211709   6.464   6.624   1.464
 3922TIP3   OH211710   7.421   4.046   5.191
 3922TIP3    H111711   7.327   4.058   5.175
 3922TIP3    H211712   7.463   4.110   5.135
 3923TIP3   OH211713   3.680   3.501   6.264
 3923TIP3    H111714   3.610   3.556   6.229
 3923TIP3    H211715   3.676   3.420   6.213
 3924TIP3   OH211716   4.450   0.577   3.383
 3924TIP3    H111717   4.506   0.537   3.316
 3924TIP3    H211718   4.491   0.554   3.466
 3925TIP3   OH211719   6.230   3.550   2.069
 3925TIP3    H111720   6.147   3.503   2.074
 3925TIP3    H211721   6.296   3.482   2.054
 3926TIP3   OH211722   0.702   2.022   1.423
 3926TIP3    H111723   0.783   2.054   1.382
 3926TIP3    H211724   0.707   1.927   1.415
 3927TIP3   OH211725   2.524   1.150   1.578
 3927TIP3    H111726   2.535   1.122   1.488
 3927TIP3    H211727   2.523   1.246   1.573
 3928TIP3   OH211728   7.042   1.268   6.530
 3928TIP3    H111729   7.046   1.172   6.527
 3928TIP3    H211730   7.122   1.293   6.576
 3929TIP3   OH211731   6.135   1.178   1.497
 3929TIP3    H111732   6.093   1.115   1.555
 3929TIP3    H211733   6.117   1.146   1.409
 3930TIP3   OH211734   0.899   4.404   1.665
 3930TIP3    H111735   0.968   4.400   1.731
 3930TIP3    H211736   0.848   4.324   1.678
 3931TIP3   OH211737   1.656   1.049   2.755
 3931TIP3    H111738   1.742   1.021   2.726
 3931TIP3    H211739   1.595   0.984   2.718
 3932TIP3   OH211740   2.696   2.443   3.766
 3932TIP3    H111741   2.730   2.354   3.755
 3932TIP3    H211742   2.742   2.477   3.843
 3933TIP3   OH211743   6.606   1.707   5.604
 3933TIP3    H111744   6.626   1.777   5.666
 3933TIP3    H211745   6.518   1.678   5.627
 3934TIP3   OH211746   3.622   4.530   4.675
 3934TIP3    H111747   3.613   4.440   4.645
 3934TIP3    H211748   3.551   4.578   4.633
 3935TIP3   OH211749   4.633   1.215   0.617
 3935TIP3    H111750   4.659   1.214   0.709
 3935TIP3    H211751   4.640   1.307   0.591
 3936TIP3   OH211752   4.299   3.902   6.677
 3936TIP3    H111753   4.336   3.990   6.678
 3936TIP3    H211754   4.334   3.862   6.598
 3937TIP3   OH211755   7.158   4.996   0.906
 3937TIP3    H111756   7.092   5.064   0.920
 3937TIP3    H211757   7.207   4.993   0.988
 3938TIP3   OH211758   1.810   7.402   2.470
 3938TIP3    H111759   1.793   7.328   2.528
 3938TIP3    H211760   1.905   7.411   2.469
 3939TIP3   OH211761   2.871   7.739   4.848
 3939TIP3    H111762   2.817   7.669   4.810
 3939TIP3    H211763   2.950   7.694   4.877
 3940TIP3   OH211764   1.659   3.396   1.122
 3940TIP3    H111765   1.611   3.314   1.131
 3940TIP3    H211766   1.672   3.426   1.212
 3941TIP3   OH211767   2.603   7.356   1.048
 3941TIP3    H111768   2.637   7.443   1.069
 3941TIP3    H211769   2.521   7.351   1.097
 3942TIP3   OH211770   6.215   5.772   5.794
 3942TIP3    H111771   6.308   5.750   5.806
 3942TIP3    H211772   6.183   5.708   5.731
 3943TIP3   OH211773   2.154   1.423   6.635
 3943TIP3    H111774   2.078   1.479   6.647
 3943TIP3    H211775   2.121   1.334   6.650
 3944TIP3   OH211776   6.377   1.832   5.305
 3944TIP3    H111777   6.346   1.894   5.371
 3944TIP3    H211778   6.320   1.847   5.229
 3945TIP3   OH211779   0.219   4.903   0.318
 3945TIP3    H111780   0.192   4.948   0.398
 3945TIP3    H211781   0.269   4.827   0.348
 3946TIP3   OH211782   2.673   0.238   0.518
 3946TIP3    H111783   2.710   0.163   0.471
 3946TIP3    H211784   2.683   0.217   0.610
 3947TIP3   OH211785   5.974   2.185   1.018
 3947TIP3    H111786   6.020   2.121   0.963
 3947TIP3    H211787   5.881   2.166   1.002
 3948TIP3   OH211788   3.733   5.485   5.984
 3948TIP3    H111789   3.801   5.437   6.031
 3948TIP3    H211790   3.651   5.458   6.026
 3949TIP3   OH211791   5.473   1.560   3.458
 3949TIP3    H111792   5.471   1.645   3.501
 3949TIP3    H211793   5.524   1.574   3.379
 3950TIP3   OH211794   6.952   7.613   0.056
 3950TIP3    H111795   6.990   7.694   0.024
 3950TIP3    H211796   6.907   7.576  -0.020
 3951TIP3   OH211797   6.300   5.678   5.096
 3951TIP3    H111798   6.258   5.743   5.152
 3951TIP3    H211799   6.353   5.729   5.035
 3952TIP3   OH211800   7.757   4.317   3.064
 3952TIP3    H111801   7.844   4.325   3.026
 3952TIP3    H211802   7.766   4.247   3.129
 3953TIP3   OH211803   2.694   0.871   4.802
 3953TIP3    H111804   2.726   0.820   4.877
 3953TIP3    H211805   2.765   0.867   4.738
 3954TIP3   OH211806   2.869   6.653   2.621
 3954TIP3    H111807   2.812   6.724   2.648
 3954TIP3    H211808   2.953   6.672   2.663
 3955TIP3   OH211809   6.720   2.609   5.477
 3955TIP3    H111810   6.780   2.563   5.536
 3955TIP3    H211811   6.663   2.659   5.535
 3956TIP3   OH211812   0.321   0.949   4.103
 3956TIP3    H111813   0.250   0.927   4.043
 3956TIP3    H211814   0.360   0.864   4.126
 3957TIP3   OH211815   2.900   1.810   1.927
 3957TIP3    H111816   2.894   1.724   1.969
 3957TIP3    H211817   2.837   1.865   1.975
 3958TIP3   OH211818   2.222   7.514   3.632
 3958TIP3    H111819   2.186   7.426   3.636
 3958TIP3    H211820   2.233   7.541   3.723
 3959TIP3   OH211821   6.645   4.133   4.678
 3959TIP3    H111822   6.654   4.225   4.656
 3959TIP3    H211823   6.734   4.099   4.676
 3960TIP3   OH211824   5.679   2.919   2.980
 3960TIP3    H111825   5.618   2.877   3.041
 3960TIP3    H211826   5.764   2.910   3.021
 3961TIP3   OH211827   4.421   5.874   0.285
 3961TIP3    H111828   4.406   5.968   0.292
 3961TIP3    H211829   4.333   5.837   0.280
 3962TIP3   OH211830   3.359   5.164   4.133
 3962TIP3    H111831   3.374   5.071   4.150
 3962TIP3    H211832   3.361   5.205   4.219
 3963TIP3   OH211833   6.167   1.748   0.577
 3963TIP3    H111834   6.169   1.837   0.540
 3963TIP3    H211835   6.147   1.692   0.502
 3964TIP3   OH211836   3.654   3.334   6.064
 3964TIP3    H111837   3.683   3.255   6.019
 3964TIP3    H211838   3.649   3.400   5.995
 3965TIP3   OH211839   4.858   2.406   0.566
 3965TIP3    H111840   4.799   2.468   0.523
 3965TIP3    H211841   4.911   2.371   0.494
 3966TIP3   OH211842   4.215   3.859   3.230
 3966TIP3    H111843   4.149   3.861   3.161
 3966TIP3    H211844   4.293   3.898   3.190
 3967TIP3   OH211845   6.664   7.373   2.001
 3967TIP3    H111846   6.743   7.378   2.054
 3967TIP3    H211847   6.601   7.430   2.045
 3968TIP3   OH211848   3.319   3.249   4.512
 3968TIP3    H111849   3.230   3.232   4.482
 3968TIP3    H211850   3.315   3.244   4.607
 3969TIP3   OH211851   2.618   3.982   6.356
 3969TIP3    H111852   2.612   4.027   6.272
 3969TIP3    H211853   2.548   4.022   6.409
 3970TIP3   OH211854   8.043   4.361   4.013
 3970TIP3    H111855   7.959   4.370   4.057
 3970TIP3    H211856   8.108   4.373   4.083
 3971TIP3   OH211857   2.456   5.541   1.863
 3971TIP3    H111858   2.444   5.458   1.816
 3971TIP3    H211859   2.460   5.516   1.955
 3972TIP3   OH211860   3.862   7.022   6.451
 3972TIP3    H111861   3.831   6.931   6.456
 3972TIP3    H211862   3.922   7.023   6.376
 3973TIP3   OH211863   2.429   0.280   2.874
 3973TIP3    H111864   2.336   0.300   2.863
 3973TIP3    H211865   2.456   0.245   2.789
 3974TIP3   OH211866   4.775   2.039   3.102
 3974TIP3    H111867   4.751   2.089   3.180
 3974TIP3    H211868   4.777   1.948   3.132
 3975TIP3   OH211869   7.183   2.920   4.166
 3975TIP3    H111870   7.246   2.854   4.196
 3975TIP3    H211871   7.113   2.918   4.231
 3976TIP3   OH211872   2.814   3.173   5.148
 3976TIP3    H111873   2.895   3.128   5.124
 3976TIP3    H211874   2.749   3.104   5.157
 3977TIP3   OH211875   3.431   6.918   2.723
 3977TIP3    H111876   3.491   6.880   2.788
 3977TIP3    H211877   3.441   6.862   2.646
 3978TIP3   OH211878   1.762   0.316   6.204
 3978TIP3    H111879   1.724   0.335   6.290
 3978TIP3    H211880   1.700   0.352   6.141
 3979TIP3   OH211881   6.173   7.813   6.575
 3979TIP3    H111882   6.154   7.746   6.509
 3979TIP3    H211883   6.093   7.866   6.579
 3980TIP3   OH211884   6.466   2.573   4.173
 3980TIP3    H111885   6.425   2.647   4.218
 3980TIP3    H211886   6.416   2.496   4.202
 3981TIP3   OH211887   0.127   5.114   6.373
 3981TIP3    H111888   0.216   5.133   6.344
 3981TIP3    H211889   0.092   5.055   6.307
 3982TIP3   OH211890   3.505   1.254   3.716
 3982TIP3    H111891   3.429   1.221   3.764
 3982TIP3    H211892   3.467   1.316   3.653
 3983TIP3   OH211893   0.708   3.270   0.643
 3983TIP3    H111894   0.773   3.200   0.637
 3983TIP3    H211895   0.717   3.302   0.733
 3984TIP3   OH211896   7.844   3.107   5.426
 3984TIP3    H111897   7.824   3.144   5.512
 3984TIP3    H211898   7.927   3.061   5.439
 3985TIP3   OH211899   3.978   5.680   4.546
 3985TIP3    H111900   3.917   5.720   4.608
 3985TIP3    H211901   3.944   5.593   4.531
 3986TIP3   OH211902   7.632   3.527   5.228
 3986TIP3    H111903   7.608   3.618   5.216
 3986TIP3    H211904   7.683   3.505   5.150
 3987TIP3   OH211905   1.473   1.933   6.077
 3987TIP3    H111906   1.402   1.997   6.073
 3987TIP3    H211907   1.537   1.972   6.136
 3988TIP3   OH211908   0.733   3.508   6.276
 3988TIP3    H111909   0.677   3.442   6.316
 3988TIP3    H211910   0.768   3.558   6.350
 3989TIP3   OH211911   3.040   1.822   2.782
 3989TIP3    H111912   3.056   1.760   2.711
 3989TIP3    H211913   3.060   1.772   2.861
 3990TIP3   OH211914   1.092   3.080   6.572
 3990TIP3    H111915   1.174   3.128   6.584
 3990TIP3    H211916   1.051   3.122   6.496
 3991TIP3   OH211917   6.948   3.026   2.669
 3991TIP3    H111918   6.909   3.113   2.682
 3991TIP3    H211919   7.004   3.014   2.745
 3992TIP3   OH211920   6.685   6.824   1.532
 3992TIP3    H111921   6.761   6.844   1.586
 3992TIP3    H211922   6.686   6.728   1.523
 3993TIP3   OH211923   0.863   7.480   0.351
 3993TIP3    H111924   0.821   7.462   0.435
 3993TIP3    H211925   0.883   7.393   0.316
 3994TIP3   OH211926   0.286   3.344   4.290
 3994TIP3    H111927   0.251   3.311   4.207
 3994TIP3    H211928   0.323   3.266   4.333
 3995TIP3   OH211929   1.131   3.112   0.475
 3995TIP3    H111930   1.108   3.160   0.555
 3995TIP3    H211931   1.096   3.024   0.490
 3996TIP3   OH211932   5.831   0.753   1.770
 3996TIP3    H111933   5.821   0.807   1.692
 3996TIP3    H211934   5.837   0.663   1.736
 3997TIP3   OH211935   6.962   1.183   3.496
 3997TIP3    H111936   6.889   1.218   3.445
 3997TIP3    H211937   6.967   1.091   3.470
 3998TIP3   OH211938   0.192   3.597   1.852
 3998TIP3    H111939   0.284   3.623   1.855
 3998TIP3    H211940   0.189   3.515   1.901
 3999TIP3   OH211941   4.259   0.477   2.786
 3999TIP3    H111942   4.211   0.401   2.753
 3999TIP3    H211943   4.208   0.553   2.758
 4000TIP3   OH211944   3.785   0.185   1.405
 4000TIP3    H111945   3.801   0.152   1.316
 4000TIP3    H211946   3.724   0.257   1.394
 4001TIP3   OH211947   2.908   7.619   5.626
 4001TIP3    H111948   2.953   7.661   5.700
 4001TIP3    H211949   2.815   7.632   5.644
 4002TIP3   OH211950   6.510   0.678   1.919
 4002TIP3    H111951   6.472   0.756   1.880
 4002TIP3    H211952   6.593   0.708   1.957
 4003TIP3   OH211953   1.694   4.838   2.790
 4003TIP3    H111954   1.644   4.757   2.804
 4003TIP3    H211955   1.772   4.827   2.845
 4004TIP3   OH211956   7.183   4.527   4.908
 4004TIP3    H111957   7.273   4.537   4.878
 4004TIP3    H211958   7.138   4.605   4.876
 4005TIP3   OH211959   1.478   1.487   1.414
 4005TIP3    H111960   1.417   1.437   1.360
 4005TIP3    H211961   1.479   1.574   1.373
 4006TIP3   OH211962   6.660   3.108   1.847
 4006TIP3    H111963   6.588   3.060   1.888
 4006TIP3    H211964   6.656   3.085   1.755
 4007TIP3   OH211965   0.857   6.721   2.218
 4007TIP3    H111966   0.896   6.678   2.295
 4007TIP3    H211967   0.926   6.717   2.152
 4008TIP3   OH211968   5.291   7.199   5.738
 4008TIP3    H111969   5.302   7.291   5.714
 4008TIP3    H211970   5.336   7.190   5.822
 4009TIP3   OH211971   2.067   0.872   3.907
 4009TIP3    H111972   2.025   0.867   3.993
 4009TIP3    H211973   2.034   0.796   3.859
 4010TIP3   OH211974   3.699   2.658   5.939
 4010TIP3    H111975   3.720   2.733   5.995
 4010TIP3    H211976   3.623   2.618   5.981
 4011TIP3   OH211977   3.086   2.429   5.417
 4011TIP3    H111978   3.163   2.471   5.379
 4011TIP3    H211979   3.119   2.373   5.486
 4012TIP3   OH211980   3.666   2.194   2.917
 4012TIP3    H111981   3.704   2.262   2.974
 4012TIP3    H211982   3.741   2.147   2.882
 4013TIP3   OH211983   0.399   6.621   2.343
 4013TIP3    H111984   0.339   6.692   2.368
 4013TIP3    H211985   0.467   6.665   2.292
 4014TIP3   OH211986   6.102   3.352   4.040
 4014TIP3    H111987   6.167   3.369   4.109
 4014TIP3    H211988   6.076   3.440   4.010
 4015TIP3   OH211989   4.866   5.146   0.129
 4015TIP3    H111990   4.803   5.074   0.133
 4015TIP3    H211991   4.843   5.202   0.203
 4016TIP3   OH211992   1.077   4.441   0.037
 4016TIP3    H111993   0.985   4.453   0.011
 4016TIP3    H211994   1.124   4.433  -0.046
 4017TIP3   OH211995   6.612   6.763   2.280
 4017TIP3    H111996   6.553   6.822   2.233
 4017TIP3    H211997   6.560   6.684   2.295
 4018TIP3   OH211998   6.721   6.257   5.289
 4018TIP3    H111999   6.664   6.316   5.239
 4018TIP3    H212000   6.798   6.246   5.234
 4019TIP3   OH212001   1.573   7.340   5.729
 4019TIP3    H112002   1.667   7.333   5.749
 4019TIP3    H212003   1.541   7.407   5.788
 4020TIP3   OH212004   5.923   1.169   0.469
 4020TIP3    H112005   5.983   1.214   0.529
 4020TIP3    H212006   5.947   1.202   0.382
 4021TIP3   OH212007   1.451   1.219   2.046
 4021TIP3    H112008   1.505   1.158   2.095
 4021TIP3    H212009   1.375   1.234   2.102
 4022TIP3   OH212010   0.403   0.478   3.261
 4022TIP3    H112011   0.366   0.402   3.306
 4022TIP3    H212012   0.329   0.519   3.217
 4023TIP3   OH212013   6.769   6.594   2.583
 4023TIP3    H112014   6.709   6.533   2.627
 4023TIP3    H212015   6.716   6.672   2.566
 4024TIP3   OH212016   1.634   7.791   1.814
 4024TIP3    H112017   1.673   7.731   1.877
 4024TIP3    H212018   1.631   7.875   1.859
 4025TIP3   OH212019   4.917   1.436   6.797
 4025TIP3    H112020   4.996   1.387   6.775
 4025TIP3    H212021   4.893   1.480   6.716
 4026TIP3   OH212022   7.289   5.645   0.946
 4026TIP3    H112023   7.364   5.681   0.994
 4026TIP3    H212024   7.221   5.711   0.956
 4027TIP3   OH212025   8.003   0.661   0.276
 4027TIP3    H112026   7.939   0.695   0.339
 4027TIP3    H212027   8.014   0.732   0.213
 4028TIP3   OH212028   3.499   7.331   3.974
 4028TIP3    H112029   3.464   7.255   3.927
 4028TIP3    H212030   3.582   7.350   3.930
 4029TIP3   OH212031   5.395   7.198   0.222
 4029TIP3    H112032   5.378   7.259   0.294
 4029TIP3    H212033   5.410   7.254   0.146
 4030TIP3   OH212034   7.880   5.180   3.153
 4030TIP3    H112035   7.854   5.156   3.242
 4030TIP3    H212036   7.836   5.264   3.137
 4031TIP3   OH212037   6.764   1.090   2.051
 4031TIP3    H112038   6.723   1.038   1.982
 4031TIP3    H212039   6.848   1.046   2.066
 4032TIP3   OH212040   8.148   2.993   5.807
 4032TIP3    H112041   8.131   3.076   5.762
 4032TIP3    H212042   8.064   2.949   5.809
 4033TIP3   OH212043   0.761   3.910   5.560
 4033TIP3    H112044   0.748   3.979   5.496
 4033TIP3    H212045   0.781   3.832   5.509
 4034TIP3   OH212046   5.731   2.295   4.810
 4034TIP3    H112047   5.723   2.204   4.781
 4034TIP3    H212048   5.658   2.307   4.870
 4035TIP3   OH212049   6.311   1.293   2.185
 4035TIP3    H112050   6.279   1.324   2.100
 4035TIP3    H212051   6.271   1.207   2.196
 4036TIP3   OH212052   8.203   3.946   2.535
 4036TIP3    H112053   8.180   3.858   2.566
 4036TIP3    H212054   8.127   3.999   2.554
 4037TIP3   OH212055   2.482   4.705   5.311
 4037TIP3    H112056   2.451   4.628   5.263
 4037TIP3    H212057   2.487   4.675   5.402
 4038TIP3   OH212058   1.819   0.248   6.749
 4038TIP3    H112059   1.746   0.187   6.739
 4038TIP3    H212060   1.798   0.320   6.690
 4039TIP3   OH212061   6.072   4.936   2.025
 4039TIP3    H112062   6.086   5.011   2.083
 4039TIP3    H212063   6.117   4.960   1.944
 4040TIP3   OH212064   7.258   5.824   0.274
 4040TIP3    H112065   7.170   5.787   0.261
 4040TIP3    H212066   7.274   5.877   0.196
 4041TIP3   OH212067   4.542   7.531   1.332
 4041TIP3    H112068   4.509   7.616   1.361
 4041TIP3    H212069   4.579   7.491   1.410
 4042TIP3   OH212070   4.109   6.772   3.135
 4042TIP3    H112071   4.077   6.689   3.100
 4042TIP3    H212072   4.200   6.755   3.157
 4043TIP3   OH212073   7.046   3.858   3.934
 4043TIP3    H112074   6.960   3.829   3.903
 4043TIP3    H212075   7.029   3.942   3.976
 4044TIP3   OH212076   4.165   4.836   6.090
 4044TIP3    H112077   4.099   4.904   6.077
 4044TIP3    H212078   4.233   4.877   6.144
 4045TIP3   OH212079   2.335   4.181   3.330
 4045TIP3    H112080   2.274   4.109   3.342
 4045TIP3    H212081   2.387   4.156   3.253
 4046TIP3   OH212082   3.256   3.156   6.475
 4046TIP3    H112083   3.264   3.061   6.480
 4046TIP3    H212084   3.162   3.172   6.463
 4047TIP3   OH212085   0.159   4.546   4.303
 4047TIP3    H112086   0.252   4.556   4.280
 4047TIP3    H212087   0.155   4.461   4.348
 4048TIP3   OH212088   4.254   1.347   1.713
 4048TIP3    H112089   4.242   1.438   1.741
 4048TIP3    H212090   4.344   1.326   1.738
 4049TIP3   OH212091   7.044   0.776   5.009
 4049TIP3    H112092   6.952   0.775   5.038
 4049TIP3    H212093   7.091   0.819   5.081
 4050TIP3   OH212094   2.536   5.267   5.494
 4050TIP3    H112095   2.545   5.275   5.589
 4050TIP3    H212096   2.625   5.279   5.461
 4051TIP3   OH212097   6.759   4.311   3.672
 4051TIP3    H112098   6.854   4.314   3.682
 4051TIP3    H212099   6.738   4.388   3.619
 4052TIP3   OH212100   2.418   4.640   3.651
 4052TIP3    H112101   2.354   4.664   3.584
 4052TIP3    H212102   2.410   4.709   3.717
 4053TIP3   OH212103   5.409   3.976   0.853
 4053TIP3    H112104   5.399   3.967   0.948
 4053TIP3    H212105   5.433   3.889   0.822
 4054TIP3   OH212106   7.895   0.885   2.442
 4054TIP3    H112107   7.897   0.799   2.484
 4054TIP3    H212108   7.922   0.947   2.509
 4055TIP3   OH212109   3.391   6.419   0.887
 4055TIP3    H112110   3.367   6.473   0.962
 4055TIP3    H212111   3.466   6.464   0.848
 4056TIP3   OH212112   7.198   0.323   6.427
 4056TIP3    H112113   7.293   0.319   6.424
 4056TIP3    H212114   7.178   0.354   6.515
 4057TIP3   OH212115   3.672   1.189   0.299
 4057TIP3    H112116   3.597   1.189   0.358
 4057TIP3    H212117   3.740   1.140   0.346
 4058TIP3   OH212118   5.268   7.137   4.547
 4058TIP3    H112119   5.226   7.053   4.532
 4058TIP3    H212120   5.347   7.116   4.596
 4059TIP3   OH212121   2.683   1.414   3.191
 4059TIP3    H112122   2.646   1.390   3.106
 4059TIP3    H212123   2.777   1.427   3.173
 4060TIP3   OH212124   2.419   3.029   5.081
 4060TIP3    H112125   2.392   3.054   4.993
 4060TIP3    H212126   2.426   3.111   5.128
 4061TIP3   OH212127   5.964   6.856   0.031
 4061TIP3    H112128   5.990   6.947   0.040
 4061TIP3    H212129   6.017   6.809   0.096
 4062TIP3   OH212130   3.329   5.698   1.046
 4062TIP3    H112131   3.319   5.634   0.976
 4062TIP3    H212132   3.405   5.667   1.095
 4063TIP3   OH212133   3.557   7.488   1.566
 4063TIP3    H112134   3.479   7.527   1.604
 4063TIP3    H212135   3.533   7.397   1.549
 4064TIP3   OH212136   5.366   2.981   5.523
 4064TIP3    H112137   5.438   2.922   5.545
 4064TIP3    H212138   5.288   2.925   5.524
 4065TIP3   OH212139   5.526   2.523   3.305
 4065TIP3    H112140   5.478   2.519   3.388
 4065TIP3    H212141   5.591   2.453   3.311
 4066TIP3   OH212142   7.630   7.518   2.459
 4066TIP3    H112143   7.539   7.527   2.432
 4066TIP3    H212144   7.633   7.435   2.506
 4067TIP3   OH212145   6.364   0.938   4.459
 4067TIP3    H112146   6.375   0.964   4.550
 4067TIP3    H212147   6.420   0.861   4.449
 4068TIP3   OH212148   3.915   2.509   5.341
 4068TIP3    H112149   3.970   2.493   5.417
 4068TIP3    H212150   3.923   2.429   5.288
 4069TIP3   OH212151   3.184   5.256   4.566
 4069TIP3    H112152   3.096   5.228   4.542
 4069TIP3    H212153   3.206   5.202   4.643
 4070TIP3   OH212154   6.421   0.826   4.924
 4070TIP3    H112155   6.363   0.751   4.908
 4070TIP3    H212156   6.404   0.885   4.851
 4071TIP3   OH212157   0.581   0.442   0.981
 4071TIP3    H112158   0.557   0.431   1.073
 4071TIP3    H212159   0.523   0.382   0.934
 4072TIP3   OH212160   1.568   7.045   5.117
 4072TIP3    H112161   1.522   7.008   5.042
 4072TIP3    H212162   1.513   7.119   5.144
 4073TIP3   OH212163   5.645   3.250   3.735
 4073TIP3    H112164   5.612   3.304   3.663
 4073TIP3    H212165   5.702   3.186   3.692
 4074TIP3   OH212166   2.695   1.834   6.713
 4074TIP3    H112167   2.786   1.812   6.695
 4074TIP3    H212168   2.696   1.871   6.801
 4075TIP3   OH212169   6.496   2.246   4.241
 4075TIP3    H112170   6.567   2.209   4.292
 4075TIP3    H212171   6.417   2.224   4.289
 4076TIP3   OH212172   6.676   0.250   4.702
 4076TIP3    H112173   6.679   0.159   4.730
 4076TIP3    H212174   6.627   0.248   4.620
 4077TIP3   OH212175   1.161   5.929   4.472
 4077TIP3    H112176   1.157   5.834   4.472
 4077TIP3    H212177   1.073   5.957   4.499
 4078TIP3   OH212178   4.860   3.993   5.666
 4078TIP3    H112179   4.952   3.978   5.689
 4078TIP3    H212180   4.830   3.908   5.632
 4079TIP3   OH212181   0.276   5.781   5.071
 4079TIP3    H112182   0.342   5.801   5.005
 4079TIP3    H212183   0.290   5.689   5.091
 4080TIP3   OH212184   8.031   5.134   6.599
 4080TIP3    H112185   8.118   5.168   6.618
 4080TIP3    H212186   8.033   5.114   6.505
 4081TIP3   OH212187   2.219   1.335   0.342
 4081TIP3    H112188   2.284   1.269   0.317
 4081TIP3    H212189   2.143   1.284   0.371
 4082TIP3   OH212190   0.989   6.477   2.110
 4082TIP3    H112191   0.978   6.437   2.023
 4082TIP3    H212192   1.069   6.529   2.102
 4083TIP3   OH212193   7.459   0.858   6.168
 4083TIP3    H112194   7.434   0.936   6.118
 4083TIP3    H212195   7.479   0.792   6.101
 4084TIP3   OH212196   0.534   4.006   5.017
 4084TIP3    H112197   0.605   4.022   4.955
 4084TIP3    H212198   0.470   4.075   4.999
 4085TIP3   OH212199   3.636   0.380   1.270
 4085TIP3    H112200   3.566   0.339   1.218
 4085TIP3    H212201   3.705   0.398   1.206
 4086TIP3   OH212202   0.998   3.102   6.089
 4086TIP3    H112203   1.055   3.083   6.014
 4086TIP3    H212204   1.028   3.044   6.158
 4087TIP3   OH212205   5.978   1.130   0.034
 4087TIP3    H112206   6.056   1.076   0.041
 4087TIP3    H212207   5.905   1.067   0.041
 4088TIP3   OH212208   4.674   3.157   2.787
 4088TIP3    H112209   4.714   3.236   2.822
 4088TIP3    H212210   4.623   3.121   2.860
 4089TIP3   OH212211   3.955   3.009   5.996
 4089TIP3    H112212   3.893   2.941   6.020
 4089TIP3    H212213   3.968   2.997   5.901
 4090TIP3   OH212214   4.854   2.679   3.751
 4090TIP3    H112215   4.919   2.717   3.692
 4090TIP3    H212216   4.902   2.667   3.833
 4091TIP3   OH212217   7.093   4.572   1.329
 4091TIP3    H112218   7.166   4.632   1.312
 4091TIP3    H212219   7.124   4.516   1.400
 4092TIP3   OH212220   6.660   1.867   5.311
 4092TIP3    H112221   6.697   1.790   5.354
 4092TIP3    H212222   6.567   1.847   5.302
 4093TIP3   OH212223   1.723   1.857   3.316
 4093TIP3    H112224   1.685   1.860   3.404
 4093TIP3    H212225   1.804   1.807   3.327
 4094TIP3   OH212226   1.018   2.184   4.455
 4094TIP3    H112227   0.998   2.270   4.493
 4094TIP3    H212228   1.054   2.134   4.528
 4095TIP3   OH212229   3.556   1.455   5.546
 4095TIP3    H112230   3.578   1.463   5.453
 4095TIP3    H212231   3.489   1.386   5.549
 4096TIP3   OH212232   0.636   6.641   1.724
 4096TIP3    H112233   0.690   6.700   1.776
 4096TIP3    H212234   0.589   6.587   1.788
 4097TIP3   OH212235   5.506   5.352   1.392
 4097TIP3    H112236   5.570   5.413   1.354
 4097TIP3    H212237   5.458   5.405   1.455
 4098TIP3   OH212238   4.574   4.864   2.524
 4098TIP3    H112239   4.647   4.923   2.542
 4098TIP3    H212240   4.529   4.855   2.608
 4099TIP3   OH212241   7.077   4.332   5.763
 4099TIP3    H112242   7.147   4.279   5.800
 4099TIP3    H212243   7.034   4.275   5.699
 4100TIP3   OH212244   5.064   6.982   2.343
 4100TIP3    H112245   5.085   6.954   2.254
 4100TIP3    H212246   4.969   6.975   2.349
 4101TIP3   OH212247   6.680   3.067   1.549
 4101TIP3    H112248   6.752   3.040   1.493
 4101TIP3    H212249   6.674   3.162   1.538
 4102TIP3   OH212250   1.013   5.560   1.810
 4102TIP3    H112251   1.023   5.518   1.896
 4102TIP3    H212252   1.018   5.654   1.829
 4103TIP3   OH212253   5.937   3.996   6.099
 4103TIP3    H112254   5.920   3.904   6.077
 4103TIP3    H212255   5.952   3.995   6.193
 4104TIP3   OH212256   7.193   4.442   4.516
 4104TIP3    H112257   7.215   4.354   4.548
 4104TIP3    H212258   7.271   4.470   4.468
 4105TIP3   OH212259   2.534   1.635   4.673
 4105TIP3    H112260   2.577   1.673   4.596
 4105TIP3    H212261   2.529   1.707   4.736
 4106TIP3   OH212262   0.847   6.415   4.811
 4106TIP3    H112263   0.844   6.382   4.901
 4106TIP3    H212264   0.785   6.360   4.763
 4107TIP3   OH212265   0.635   2.809   4.564
 4107TIP3    H112266   0.647   2.903   4.552
 4107TIP3    H212267   0.574   2.784   4.494
 4108TIP3   OH212268   3.091   6.959   4.359
 4108TIP3    H112269   3.072   6.978   4.451
 4108TIP3    H212270   3.068   6.867   4.348
 4109TIP3   OH212271   2.864   2.600   6.050
 4109TIP3    H112272   2.811   2.549   5.988
 4109TIP3    H212273   2.894   2.536   6.114
 4110TIP3   OH212274   2.418   7.025   5.773
 4110TIP3    H112275   2.405   6.978   5.855
 4110TIP3    H212276   2.372   7.108   5.785
 4111TIP3   OH212277   6.072   5.216   6.581
 4111TIP3    H112278   6.142   5.159   6.548
 4111TIP3    H212279   6.101   5.304   6.558
 4112TIP3   OH212280   6.181   0.988   3.589
 4112TIP3    H112281   6.096   0.989   3.543
 4112TIP3    H212282   6.158   0.978   3.681
 4113TIP3   OH212283   1.044   4.795   4.617
 4113TIP3    H112284   1.093   4.864   4.573
 4113TIP3    H212285   1.075   4.798   4.708
 4114TIP3   OH212286   7.331   3.339   4.471
 4114TIP3    H112287   7.354   3.311   4.383
 4114TIP3    H212288   7.404   3.311   4.525
 4115TIP3   OH212289   6.853   2.767   1.921
 4115TIP3    H112290   6.830   2.824   1.848
 4115TIP3    H212291   6.916   2.818   1.972
 4116TIP3   OH212292   4.163   7.208   3.334
 4116TIP3    H112293   4.236   7.168   3.381
 4116TIP3    H212294   4.198   7.230   3.248
 4117TIP3   OH212295   1.735   5.968   4.442
 4117TIP3    H112296   1.692   6.025   4.379
 4117TIP3    H212297   1.810   5.930   4.395
 4118TIP3   OH212298   0.449   4.001   1.862
 4118TIP3    H112299   0.523   3.962   1.908
 4118TIP3    H212300   0.450   3.960   1.776
 4119TIP3   OH212301   2.302   3.720   4.891
 4119TIP3    H112302   2.349   3.798   4.861
 4119TIP3    H212303   2.306   3.660   4.816
 4120TIP3   OH212304   6.089   3.293   4.823
 4120TIP3    H112305   6.098   3.301   4.728
 4120TIP3    H212306   6.003   3.252   4.835
 4121TIP3   OH212307   3.802   3.440   0.402
 4121TIP3    H112308   3.747   3.411   0.329
 4121TIP3    H212309   3.823   3.360   0.450
 4122TIP3   OH212310   4.504   6.978   4.594
 4122TIP3    H112311   4.592   7.013   4.580
 4122TIP3    H212312   4.468   6.966   4.506
 4123TIP3   OH212313   1.408   5.505   5.977
 4123TIP3    H112314   1.466   5.474   6.047
 4123TIP3    H212315   1.387   5.427   5.926
 4124TIP3   OH212316   3.072   1.569   3.451
 4124TIP3    H112317   3.072   1.596   3.360
 4124TIP3    H212318   3.000   1.506   3.457
 4125TIP3   OH212319   7.903   3.348   5.893
 4125TIP3    H112320   7.977   3.370   5.948
 4125TIP3    H212321   7.864   3.432   5.869
 4126TIP3   OH212322   0.249   6.772   1.264
 4126TIP3    H112323   0.216   6.860   1.244
 4126TIP3    H212324   0.209   6.716   1.198
 4127TIP3   OH212325   5.573   3.582   3.805
 4127TIP3    H112326   5.606   3.549   3.889
 4127TIP3    H212327   5.477   3.580   3.815
 4128TIP3   OH212328   2.791   4.519   2.215
 4128TIP3    H112329   2.769   4.558   2.300
 4128TIP3    H212330   2.780   4.425   2.229
 4129TIP3   OH212331   4.608   2.063   4.333
 4129TIP3    H112332   4.544   2.025   4.273
 4129TIP3    H212333   4.693   2.039   4.297
 4130TIP3   OH212334   7.266   7.728   2.100
 4130TIP3    H112335   7.279   7.666   2.172
 4130TIP3    H212336   7.201   7.790   2.132
 4131TIP3   OH212337   3.617   1.887   1.930
 4131TIP3    H112338   3.551   1.848   1.987
 4131TIP3    H212339   3.567   1.927   1.859
 4132TIP3   OH212340   6.132   6.421   0.132
 4132TIP3    H112341   6.175   6.412   0.046
 4132TIP3    H212342   6.173   6.353   0.186
 4133TIP3   OH212343   7.736   4.408   3.697
 4133TIP3    H112344   7.779   4.492   3.710
 4133TIP3    H212345   7.804   4.343   3.712
 4134TIP3   OH212346   4.011   6.112   0.567
 4134TIP3    H112347   4.061   6.089   0.645
 4134TIP3    H212348   3.989   6.028   0.527
 4135TIP3   OH212349   3.998   0.458   4.030
 4135TIP3    H112350   3.949   0.531   4.069
 4135TIP3    H212351   4.030   0.493   3.947
 4136TIP3   OH212352   2.844   2.577   3.950
 4136TIP3    H112353   2.859   2.599   4.042
 4136TIP3    H212354   2.931   2.554   3.916
 4137TIP3   OH212355   3.347   1.073   1.278
 4137TIP3    H112356   3.285   1.092   1.348
 4137TIP3    H212357   3.294   1.069   1.199
 4138TIP3   OH212358   2.311   6.904   6.746
 4138TIP3    H112359   2.226   6.931   6.781
 4138TIP3    H212360   2.355   6.986   6.723
 4139TIP3   OH212361   0.450   1.686   3.078
 4139TIP3    H112362   0.445   1.777   3.107
 4139TIP3    H212363   0.360   1.653   3.083
 4140TIP3   OH212364   4.743   5.813   1.727
 4140TIP3    H112365   4.737   5.898   1.769
 4140TIP3    H212366   4.837   5.799   1.713
 4141TIP3   OH212367   2.538   2.983   5.526
 4141TIP3    H112368   2.605   2.917   5.506
 4141TIP3    H212369   2.587   3.065   5.529
 4142TIP3   OH212370   7.857   2.561   5.051
 4142TIP3    H112371   7.813   2.627   4.997
 4142TIP3    H212372   7.843   2.591   5.141
 4143TIP3   OH212373   1.928   4.071   4.480
 4143TIP3    H112374   1.916   4.132   4.553
 4143TIP3    H212375   1.972   4.124   4.413
 4144TIP3   OH212376   4.215   1.572   4.779
 4144TIP3    H112377   4.250   1.580   4.690
 4144TIP3    H212378   4.217   1.477   4.796
 4145TIP3   OH212379   2.966   2.097   2.756
 4145TIP3    H112380   3.030   2.026   2.763
 4145TIP3    H212381   2.891   2.067   2.806
 4146TIP3   OH212382   3.158   1.524   2.040
 4146TIP3    H112383   3.070   1.509   2.004
 4146TIP3    H212384   3.202   1.577   1.974
 4147TIP3   OH212385   3.873   7.643   0.199
 4147TIP3    H112386   3.884   7.735   0.225
 4147TIP3    H212387   3.896   7.593   0.277
 4148TIP3   OH212388   6.628   0.248   0.933
 4148TIP3    H112389   6.714   0.279   0.902
 4148TIP3    H212390   6.566   0.311   0.895
 4149TIP3   OH212391   3.631   2.257   3.636
 4149TIP3    H112392   3.605   2.165   3.647
 4149TIP3    H212393   3.615   2.297   3.721
 4150TIP3   OH212394   6.541   4.702   2.092
 4150TIP3    H112395   6.600   4.753   2.036
 4150TIP3    H212396   6.492   4.767   2.142
 4151TIP3   OH212397   6.739   6.090   3.933
 4151TIP3    H112398   6.718   6.138   4.014
 4151TIP3    H212399   6.828   6.118   3.912
 4152TIP3   OH212400   5.418   0.797   0.694
 4152TIP3    H112401   5.420   0.889   0.667
 4152TIP3    H212402   5.475   0.752   0.632
 4153TIP3   OH212403   1.053   5.090   5.135
 4153TIP3    H112404   1.007   5.173   5.144
 4153TIP3    H212405   1.141   5.114   5.107
 4154TIP3   OH212406   7.390   1.698   3.719
 4154TIP3    H112407   7.304   1.676   3.685
 4154TIP3    H212408   7.374   1.773   3.776
 4155TIP3   OH212409   0.437   3.971   1.576
 4155TIP3    H112410   0.462   3.943   1.488
 4155TIP3    H212411   0.342   3.962   1.579
 4156TIP3   OH212412   5.371   3.922   6.176
 4156TIP3    H112413   5.285   3.910   6.218
 4156TIP3    H212414   5.428   3.949   6.248
 4157TIP3   OH212415   1.842   2.223   1.093
 4157TIP3    H112416   1.917   2.196   1.040
 4157TIP3    H212417   1.828   2.315   1.071
 4158TIP3   OH212418   0.991   3.400   6.694
 4158TIP3    H112419   0.965   3.485   6.729
 4158TIP3    H212420   1.037   3.356   6.766
 4159TIP3   OH212421   5.683   6.142   5.918
 4159TIP3    H112422   5.724   6.086   5.984
 4159TIP3    H212423   5.591   6.113   5.916
 4160TIP3   OH212424   7.994   2.383   0.332
 4160TIP3    H112425   7.943   2.302   0.330
 4160TIP3    H212426   7.936   2.449   0.295
 4161TIP3   OH212427   6.258   2.701   2.731
 4161TIP3    H112428   6.173   2.674   2.697
 4161TIP3    H212429   6.285   2.774   2.675
 4162TIP3   OH212430   1.339   6.326   3.331
 4162TIP3    H112431   1.291   6.249   3.361
 4162TIP3    H212432   1.414   6.331   3.390
 4163TIP3   OH212433   6.871   6.686   4.303
 4163TIP3    H112434   6.798   6.659   4.248
 4163TIP3    H212435   6.834   6.749   4.364
 4164TIP3   OH212436   1.878   4.539   5.825
 4164TIP3    H112437   1.918   4.504   5.745
 4164TIP3    H212438   1.945   4.597   5.862
 4165TIP3   OH212439   0.688   1.539   3.039
 4165TIP3    H112440   0.608   1.577   3.077
 4165TIP3    H212441   0.736   1.505   3.115
 4166TIP3   OH212442   6.709   2.402   1.749
 4166TIP3    H112443   6.798   2.403   1.714
 4166TIP3    H212444   6.699   2.314   1.786
 4167TIP3   OH212445   4.255   6.916   1.880
 4167TIP3    H112446   4.278   6.866   1.958
 4167TIP3    H212447   4.198   6.986   1.912
 4168TIP3   OH212448   0.948   5.488   4.219
 4168TIP3    H112449   0.988   5.404   4.198
 4168TIP3    H212450   0.999   5.552   4.170
 4169TIP3   OH212451   3.987   4.111   5.802
 4169TIP3    H112452   4.045   4.161   5.859
 4169TIP3    H212453   3.899   4.131   5.835
 4170TIP3   OH212454   3.906   5.408   0.756
 4170TIP3    H112455   3.956   5.343   0.706
 4170TIP3    H212456   3.928   5.492   0.715
 4171TIP3   OH212457   6.774   4.407   6.578
 4171TIP3    H112458   6.785   4.386   6.671
 4171TIP3    H212459   6.687   4.375   6.556
 4172TIP3   OH212460   4.480   1.183   0.122
 4172TIP3    H112461   4.408   1.243   0.102
 4172TIP3    H212462   4.491   1.133   0.041
 4173TIP3   OH212463   0.624   6.644   4.214
 4173TIP3    H112464   0.635   6.738   4.220
 4173TIP3    H212465   0.647   6.611   4.302
 4174TIP3   OH212466   4.768   1.644   6.621
 4174TIP3    H112467   4.681   1.653   6.581
 4174TIP3    H212468   4.820   1.598   6.555
 4175TIP3   OH212469   0.808   6.657   6.570
 4175TIP3    H112470   0.763   6.592   6.516
 4175TIP3    H212471   0.896   6.623   6.580
 4176TIP3   OH212472   1.685   1.212   4.325
 4176TIP3    H112473   1.704   1.119   4.339
 4176TIP3    H212474   1.726   1.256   4.400
 4177TIP3   OH212475   7.472   1.875   5.264
 4177TIP3    H112476   7.444   1.857   5.174
 4177TIP3    H212477   7.393   1.867   5.316
 4178TIP3   OH212478   2.962   6.396   3.711
 4178TIP3    H112479   3.038   6.395   3.653
 4178TIP3    H212480   2.963   6.311   3.755
 4179TIP3   OH212481   0.541   5.054   3.963
 4179TIP3    H112482   0.635   5.062   3.978
 4179TIP3    H212483   0.501   5.112   4.028
 4180TIP3   OH212484   4.570   7.306   3.678
 4180TIP3    H112485   4.539   7.386   3.719
 4180TIP3    H212486   4.519   7.299   3.597
 4181TIP3   OH212487   1.360   3.066   1.791
 4181TIP3    H112488   1.295   2.998   1.809
 4181TIP3    H212489   1.421   3.061   1.864
 4182TIP3   OH212490   2.386   4.867   6.321
 4182TIP3    H112491   2.452   4.798   6.315
 4182TIP3    H212492   2.433   4.944   6.353
 4183TIP3   OH212493   1.393   5.639   4.050
 4183TIP3    H112494   1.426   5.635   4.140
 4183TIP3    H212495   1.466   5.605   3.997
 4184TIP3   OH212496   1.141   0.475   0.820
 4184TIP3    H112497   1.078   0.545   0.804
 4184TIP3    H212498   1.164   0.442   0.733
 4185TIP3   OH212499   0.464   2.473   0.945
 4185TIP3    H112500   0.457   2.435   0.857
 4185TIP3    H212501   0.413   2.414   1.000
 4186TIP3   OH212502   7.236   5.436   1.284
 4186TIP3    H112503   7.263   5.490   1.359
 4186TIP3    H212504   7.184   5.366   1.323
 4187TIP3   OH212505   2.135   2.799   1.976
 4187TIP3    H112506   2.055   2.765   2.016
 4187TIP3    H212507   2.118   2.797   1.882
 4188TIP3   OH212508   6.932   0.773   4.423
 4188TIP3    H112509   6.952   0.685   4.456
 4188TIP3    H212510   7.007   0.826   4.451
 4189TIP3   OH212511   5.291   6.208   3.692
 4189TIP3    H112512   5.270   6.210   3.785
 4189TIP3    H212513   5.344   6.128   3.682
 4190TIP3   OH212514   1.107   7.560   3.361
 4190TIP3    H112515   1.020   7.568   3.322
 4190TIP3    H212516   1.107   7.623   3.433
 4191TIP3   OH212517   1.083   1.914   2.041
 4191TIP3    H112518   1.082   2.006   2.067
 4191TIP3    H212519   1.041   1.868   2.113
 4192TIP3   OH212520   2.110   5.584   4.860
 4192TIP3    H112521   2.151   5.550   4.780
 4192TIP3    H212522   2.174   5.564   4.929
 4193TIP3   OH212523   8.124   3.836   3.124
 4193TIP3    H112524   8.161   3.906   3.179
 4193TIP3    H212525   8.199   3.785   3.095
 4194TIP3   OH212526   1.153   5.477   1.579
 4194TIP3    H112527   1.221   5.419   1.613
 4194TIP3    H212528   1.106   5.507   1.657
 4195TIP3   OH212529   1.854   7.112   1.350
 4195TIP3    H112530   1.890   7.048   1.289
 4195TIP3    H212531   1.931   7.150   1.393
 4196TIP3   OH212532   6.027   4.419   1.952
 4196TIP3    H112533   5.943   4.464   1.958
 4196TIP3    H212534   6.082   4.477   1.901
 4197TIP3   OH212535   6.348   4.469   3.955
 4197TIP3    H112536   6.426   4.452   3.902
 4197TIP3    H212537   6.335   4.564   3.949
 4198TIP3   OH212538   3.104   2.016   1.961
 4198TIP3    H112539   3.067   2.083   1.903
 4198TIP3    H212540   3.066   1.934   1.930
 4199TIP3   OH212541   6.253   4.612   3.357
 4199TIP3    H112542   6.196   4.580   3.428
 4199TIP3    H212543   6.332   4.642   3.402
 4200TIP3   OH212544   8.131   6.543   6.417
 4200TIP3    H112545   8.117   6.461   6.464
 4200TIP3    H212546   8.219   6.571   6.444
 4201TIP3   OH212547   8.177   5.533   0.630
 4201TIP3    H112548   8.187   5.624   0.603
 4201TIP3    H212549   8.161   5.485   0.549
 4202TIP3   OH212550   4.335   4.407   2.764
 4202TIP3    H112551   4.396   4.439   2.830
 4202TIP3    H212552   4.379   4.332   2.724
 4203TIP3   OH212553   2.007   3.167   4.903
 4203TIP3    H112554   2.066   3.187   4.975
 4203TIP3    H212555   1.981   3.076   4.917
 4204TIP3   OH212556   4.839   2.316   1.130
 4204TIP3    H112557   4.914   2.263   1.155
 4204TIP3    H212558   4.816   2.286   1.042
 4205TIP3   OH212559   0.458   5.222   2.801
 4205TIP3    H112560   0.414   5.298   2.840
 4205TIP3    H212561   0.508   5.259   2.728
 4206TIP3   OH212562   7.639   4.453   6.077
 4206TIP3    H112563   7.602   4.492   6.156
 4206TIP3    H212564   7.609   4.362   6.079
 4207TIP3   OH212565   1.747   0.281   3.332
 4207TIP3    H112566   1.725   0.371   3.308
 4207TIP3    H212567   1.782   0.288   3.421
 4208TIP3   OH212568   0.540   0.345   6.406
 4208TIP3    H112569   0.630   0.313   6.409
 4208TIP3    H212570   0.549   0.440   6.405
 4209TIP3   OH212571   4.496   3.628   1.911
 4209TIP3    H112572   4.479   3.544   1.952
 4209TIP3    H212573   4.473   3.693   1.977
 4210TIP3   OH212574   3.532   4.507   3.725
 4210TIP3    H112575   3.625   4.488   3.735
 4210TIP3    H212576   3.498   4.435   3.673
 4211TIP3   OH212577   4.117   5.265   2.728
 4211TIP3    H112578   4.185   5.247   2.793
 4211TIP3    H212579   4.035   5.243   2.771
 4212TIP3   OH212580   1.281   4.434   4.705
 4212TIP3    H112581   1.232   4.466   4.781
 4212TIP3    H212582   1.324   4.512   4.670
 4213TIP3   OH212583   3.914   2.656   1.053
 4213TIP3    H112584   3.835   2.659   0.998
 4213TIP3    H212585   3.882   2.671   1.142
 4214TIP3   OH212586   4.436   2.482   5.587
 4214TIP3    H112587   4.514   2.465   5.534
 4214TIP3    H212588   4.458   2.449   5.674
 4215TIP3   OH212589   0.051   5.910   4.811
 4215TIP3    H112590   0.107   5.854   4.757
 4215TIP3    H212591   0.031   5.985   4.755
 4216TIP3   OH212592   8.274   6.183   2.668
 4216TIP3    H112593   8.321   6.260   2.700
 4216TIP3    H212594   8.200   6.173   2.729
 4217TIP3   OH212595   6.984   6.392   0.054
 4217TIP3    H112596   7.067   6.388   0.102
 4217TIP3    H212597   6.996   6.464  -0.009
 4218TIP3   OH212598   5.390   6.442   0.981
 4218TIP3    H112599   5.462   6.468   1.037
 4218TIP3    H212600   5.415   6.470   0.893
 4219TIP3   OH212601   0.633   4.716   5.616
 4219TIP3    H112602   0.615   4.656   5.688
 4219TIP3    H212603   0.669   4.794   5.658
 4220TIP3   OH212604   3.502   3.858   1.863
 4220TIP3    H112605   3.531   3.767   1.862
 4220TIP3    H212606   3.567   3.904   1.810
 4221TIP3   OH212607   5.543   5.377   6.176
 4221TIP3    H112608   5.463   5.428   6.163
 4221TIP3    H212609   5.593   5.389   6.095
 4222TIP3   OH212610   7.342   1.480   6.044
 4222TIP3    H112611   7.436   1.475   6.024
 4222TIP3    H212612   7.309   1.548   5.986
 4223TIP3   OH212613   1.364   3.302   0.441
 4223TIP3    H112614   1.411   3.224   0.410
 4223TIP3    H212615   1.272   3.276   0.441
 4224TIP3   OH212616   0.362   5.550   4.803
 4224TIP3    H112617   0.439   5.584   4.758
 4224TIP3    H212618   0.397   5.491   4.870
 4225TIP3   OH212619   7.378   6.637   2.065
 4225TIP3    H112620   7.398   6.616   1.974
 4225TIP3    H212621   7.318   6.712   2.059
 4226TIP3   OH212622   4.611   4.080   3.954
 4226TIP3    H112623   4.648   4.075   4.042
 4226TIP3    H212624   4.610   3.990   3.923
 4227TIP3   OH212625   2.803   2.463   2.195
 4227TIP3    H112626   2.743   2.460   2.270
 4227TIP3    H212627   2.871   2.526   2.221
 4228TIP3   OH212628   0.286   2.700   3.970
 4228TIP3    H112629   0.234   2.675   3.894
 4228TIP3    H212630   0.277   2.626   4.030
 4229TIP3   OH212631   2.684   0.235   0.818
 4229TIP3    H112632   2.690   0.218   0.912
 4229TIP3    H212633   2.610   0.295   0.808
 4230TIP3   OH212634   4.159   4.016   4.203
 4230TIP3    H112635   4.210   4.083   4.249
 4230TIP3    H212636   4.140   3.950   4.270
 4231TIP3   OH212637   6.539   2.006   4.432
 4231TIP3    H112638   6.594   1.934   4.402
 4231TIP3    H212639   6.584   2.040   4.509
 4232TIP3   OH212640   7.678   2.376   0.075
 4232TIP3    H112641   7.620   2.416   0.140
 4232TIP3    H212642   7.729   2.312   0.124
 4233TIP3   OH212643   0.946   6.157   5.590
 4233TIP3    H112644   0.887   6.085   5.566
 4233TIP3    H212645   1.020   6.148   5.530
 4234TIP3   OH212646   5.828   1.723   1.765
 4234TIP3    H112647   5.862   1.731   1.676
 4234TIP3    H212648   5.906   1.706   1.819
 4235TIP3   OH212649   7.378   7.827   2.882
 4235TIP3    H112650   7.442   7.783   2.827
 4235TIP3    H212651   7.310   7.761   2.897
 4236TIP3   OH212652   1.304   4.362   5.307
 4236TIP3    H112653   1.341   4.274   5.308
 4236TIP3    H212654   1.325   4.396   5.220
 4237TIP3   OH212655   4.828   5.185   6.654
 4237TIP3    H112656   4.759   5.213   6.715
 4237TIP3    H212657   4.903   5.239   6.676
 4238TIP3   OH212658   7.516   0.130   6.647
 4238TIP3    H112659   7.478   0.053   6.604
 4238TIP3    H212660   7.500   0.202   6.586
 4239TIP3   OH212661   1.457   1.268   3.260
 4239TIP3    H112662   1.512   1.342   3.232
 4239TIP3    H212663   1.520   1.201   3.286
 4240TIP3   OH212664   6.006   3.572   4.236
 4240TIP3    H112665   6.018   3.666   4.250
 4240TIP3    H212666   5.996   3.564   4.141
 4241TIP3   OH212667   0.537   6.383   2.385
 4241TIP3    H112668   0.486   6.461   2.363
 4241TIP3    H212669   0.611   6.384   2.324
 4242TIP3   OH212670   7.065   4.473   0.527
 4242TIP3    H112671   7.076   4.378   0.531
 4242TIP3    H212672   7.059   4.493   0.434
 4243TIP3   OH212673   3.583   6.793   6.466
 4243TIP3    H112674   3.607   6.712   6.421
 4243TIP3    H212675   3.548   6.849   6.397
 4244TIP3   OH212676   1.146   5.634   5.001
 4244TIP3    H112677   1.136   5.597   4.913
 4244TIP3    H212678   1.145   5.729   4.987
 4245TIP3   OH212679   2.467   3.546   0.760
 4245TIP3    H112680   2.481   3.526   0.852
 4245TIP3    H212681   2.434   3.465   0.722
 4246TIP3   OH212682   3.485   5.444   0.124
 4246TIP3    H112683   3.411   5.480   0.172
 4246TIP3    H212684   3.549   5.516   0.121
 4247TIP3   OH212685   0.263   5.802   1.921
 4247TIP3    H112686   0.225   5.890   1.921
 4247TIP3    H212687   0.304   5.794   1.834
 4248TIP3   OH212688   7.954   5.452   0.787
 4248TIP3    H112689   8.033   5.499   0.759
 4248TIP3    H212690   7.890   5.521   0.802
 4249TIP3   OH212691   4.785   1.504   5.555
 4249TIP3    H112692   4.800   1.475   5.645
 4249TIP3    H212693   4.872   1.504   5.515
 4250TIP3   OH212694   1.037   3.780   3.295
 4250TIP3    H112695   1.008   3.689   3.297
 4250TIP3    H212696   1.125   3.778   3.333
 4251TIP3   OH212697   5.602   2.569   0.667
 4251TIP3    H112698   5.665   2.522   0.721
 4251TIP3    H212699   5.621   2.662   0.681
 4252TIP3   OH212700   7.406   2.835   1.467
 4252TIP3    H112701   7.427   2.818   1.559
 4252TIP3    H212702   7.479   2.798   1.419
 4253TIP3   OH212703   4.843   3.747   1.733
 4253TIP3    H112704   4.757   3.785   1.716
 4253TIP3    H212705   4.905   3.811   1.697
 4254TIP3   OH212706   5.859   1.979   5.320
 4254TIP3    H112707   5.927   1.978   5.252
 4254TIP3    H212708   5.894   2.037   5.388
 4255TIP3   OH212709   4.549   2.663   0.203
 4255TIP3    H112710   4.457   2.688   0.196
 4255TIP3    H212711   4.549   2.568   0.195
 4256TIP3   OH212712   1.331   3.801   0.404
 4256TIP3    H112713   1.324   3.737   0.334
 4256TIP3    H212714   1.264   3.775   0.468
 4257TIP3   OH212715   4.158   5.413   5.702
 4257TIP3    H112716   4.063   5.404   5.709
 4257TIP3    H212717   4.172   5.507   5.685
 4258TIP3   OH212718   7.787   4.790   6.663
 4258TIP3    H112719   7.747   4.861   6.712
 4258TIP3    H212720   7.714   4.730   6.643
 4259TIP3   OH212721   4.631   6.364   5.136
 4259TIP3    H112722   4.588   6.303   5.197
 4259TIP3    H212723   4.561   6.391   5.077
 4260TIP3   OH212724   3.315   6.311   1.796
 4260TIP3    H112725   3.329   6.320   1.701
 4260TIP3    H212726   3.396   6.272   1.828
 4261TIP3   OH212727   0.404   0.272   1.761
 4261TIP3    H112728   0.370   0.195   1.716
 4261TIP3    H212729   0.371   0.346   1.710
 4262TIP3   OH212730   7.485   3.995   2.500
 4262TIP3    H112731   7.483   3.963   2.590
 4262TIP3    H212732   7.499   4.089   2.508
 4263TIP3   OH212733   6.529   1.786   3.304
 4263TIP3    H112734   6.486   1.828   3.230
 4263TIP3    H212735   6.458   1.768   3.366
 4264TIP3   OH212736   5.626   1.195   0.750
 4264TIP3    H112737   5.638   1.195   0.845
 4264TIP3    H212738   5.535   1.168   0.737
 4265TIP3   OH212739   4.510   0.163   0.684
 4265TIP3    H112740   4.543   0.142   0.597
 4265TIP3    H212741   4.583   0.206   0.729
 4266TIP3   OH212742   6.983   0.174   1.421
 4266TIP3    H112743   6.935   0.145   1.343
 4266TIP3    H212744   7.035   0.249   1.391
 4267TIP3   OH212745   7.472   5.027   1.502
 4267TIP3    H112746   7.408   5.098   1.498
 4267TIP3    H212747   7.465   4.983   1.418
 4268TIP3   OH212748   4.351   1.357   4.038
 4268TIP3    H112749   4.435   1.339   3.996
 4268TIP3    H212750   4.359   1.446   4.071
 4269TIP3   OH212751   3.500   4.678   5.080
 4269TIP3    H112752   3.423   4.655   5.029
 4269TIP3    H212753   3.568   4.618   5.050
 4270TIP3   OH212754   0.059   7.070   2.732
 4270TIP3    H112755   0.032   7.159   2.708
 4270TIP3    H212756  -0.010   7.014   2.696
 4271TIP3   OH212757   1.719   0.690   2.777
 4271TIP3    H112758   1.743   0.600   2.756
 4271TIP3    H212759   1.797   0.728   2.818
 4272TIP3   OH212760   2.392   4.839   2.359
 4272TIP3    H112761   2.485   4.851   2.376
 4272TIP3    H212762   2.380   4.863   2.268
 4273TIP3   OH212763   6.346   5.773   6.119
 4273TIP3    H112764   6.303   5.847   6.161
 4273TIP3    H212765   6.431   5.766   6.163
 4274TIP3   OH212766   1.509   4.468   1.153
 4274TIP3    H112767   1.536   4.387   1.111
 4274TIP3    H212768   1.422   4.450   1.187
 4275TIP3   OH212769   5.636   3.328   4.942
 4275TIP3    H112770   5.619   3.282   5.024
 4275TIP3    H212771   5.692   3.402   4.968
 4276TIP3   OH212772   0.472   0.534   4.974
 4276TIP3    H112773   0.548   0.497   4.928
 4276TIP3    H212774   0.477   0.628   4.957
 4277TIP3   OH212775   7.635   7.528   6.674
 4277TIP3    H112776   7.582   7.578   6.736
 4277TIP3    H212777   7.711   7.583   6.658
 4278TIP3   OH212778   6.370   2.535   3.081
 4278TIP3    H112779   6.307   2.597   3.117
 4278TIP3    H212780   6.328   2.449   3.091
 4279TIP3   OH212781   2.635   7.348   4.380
 4279TIP3    H112782   2.721   7.316   4.352
 4279TIP3    H212783   2.651   7.436   4.414
 4280TIP3   OH212784   0.692   3.019   2.354
 4280TIP3    H112785   0.671   2.932   2.320
 4280TIP3    H212786   0.776   3.007   2.398
 4281TIP3   OH212787   6.049   4.461   0.581
 4281TIP3    H112788   6.015   4.546   0.609
 4281TIP3    H212789   6.030   4.457   0.488
 4282TIP3   OH212790   8.108   6.939   4.861
 4282TIP3    H112791   8.029   6.900   4.824
 4282TIP3    H212792   8.086   6.959   4.952
 4283TIP3   OH212793   7.515   4.001   0.515
 4283TIP3    H112794   7.492   4.070   0.452
 4283TIP3    H212795   7.541   3.927   0.461
 4284TIP3   OH212796   6.376   1.138   3.450
 4284TIP3    H112797   6.436   1.102   3.516
 4284TIP3    H212798   6.298   1.083   3.455
 4285TIP3   OH212799   4.331   2.277   5.804
 4285TIP3    H112800   4.364   2.245   5.888
 4285TIP3    H212801   4.312   2.370   5.820
 4286TIP3   OH212802   6.038   1.236   3.384
 4286TIP3    H112803   6.001   1.213   3.470
 4286TIP3    H212804   6.094   1.311   3.402
 4287TIP3   OH212805   5.514   5.974   0.718
 4287TIP3    H112806   5.464   5.938   0.644
 4287TIP3    H212807   5.476   5.931   0.795
 4288TIP3   OH212808   0.481   6.121   3.958
 4288TIP3    H112809   0.536   6.175   3.901
 4288TIP3    H212810   0.393   6.128   3.920
 4289TIP3   OH212811   0.756   1.709   1.134
 4289TIP3    H112812   0.708   1.791   1.138
 4289TIP3    H212813   0.707   1.650   1.193
 4290TIP3   OH212814   8.221   5.785   0.586
 4290TIP3    H112815   8.306   5.780   0.631
 4290TIP3    H212816   8.183   5.867   0.617
 4291TIP3   OH212817   3.398   5.354   0.500
 4291TIP3    H112818   3.327   5.335   0.562
 4291TIP3    H212819   3.449   5.273   0.497
 4292TIP3   OH212820   6.294   7.526   6.050
 4292TIP3    H112821   6.306   7.448   6.103
 4292TIP3    H212822   6.283   7.597   6.114
 4293TIP3   OH212823   6.730   1.732   1.642
 4293TIP3    H112824   6.757   1.785   1.717
 4293TIP3    H212825   6.646   1.695   1.668
 4294TIP3   OH212826   5.692   5.379   5.111
 4294TIP3    H112827   5.713   5.314   5.179
 4294TIP3    H212828   5.775   5.422   5.092
 4295TIP3   OH212829   7.418   2.823   3.383
 4295TIP3    H112830   7.378   2.823   3.296
 4295TIP3    H212831   7.370   2.890   3.432
 4296TIP3   OH212832   2.613   0.944   3.220
 4296TIP3    H112833   2.570   1.009   3.274
 4296TIP3    H212834   2.552   0.926   3.149
 4297TIP3   OH212835   4.363   3.139   1.156
 4297TIP3    H112836   4.333   3.218   1.111
 4297TIP3    H212837   4.382   3.168   1.246
 4298TIP3   OH212838   2.139   2.077   3.132
 4298TIP3    H112839   2.149   1.990   3.093
 4298TIP3    H212840   2.226   2.101   3.162
 4299TIP3   OH212841   8.269   3.183   4.930
 4299TIP3    H112842   8.346   3.141   4.891
 4299TIP3    H212843   8.299   3.270   4.954
 4300TIP3   OH212844   0.437   1.562   2.542
 4300TIP3    H112845   0.504   1.496   2.527
 4300TIP3    H212846   0.399   1.539   2.627
 4301TIP3   OH212847   5.136   1.992   3.036
 4301TIP3    H112848   5.122   1.897   3.033
 4301TIP3    H212849   5.066   2.028   2.982
 4302TIP3   OH212850   3.614   4.183   2.934
 4302TIP3    H112851   3.660   4.143   2.859
 4302TIP3    H212852   3.684   4.208   2.994
 4303TIP3   OH212853   7.650   4.609   6.378
 4303TIP3    H112854   7.715   4.679   6.372
 4303TIP3    H212855   7.634   4.600   6.472
 4304TIP3   OH212856   2.844   7.645   6.317
 4304TIP3    H112857   2.916   7.628   6.379
 4304TIP3    H212858   2.829   7.561   6.274
 4305TIP3   OH212859   1.355   5.075   5.076
 4305TIP3    H112860   1.408   4.995   5.078
 4305TIP3    H212861   1.386   5.122   4.998
 4306TIP3   OH212862   3.990   5.716   0.616
 4306TIP3    H112863   4.072   5.702   0.664
 4306TIP3    H212864   3.998   5.659   0.539
 4307TIP3   OH212865   3.176   4.768   2.487
 4307TIP3    H112866   3.176   4.770   2.391
 4307TIP3    H212867   3.240   4.834   2.512
 4308TIP3   OH212868   0.916   2.190   6.528
 4308TIP3    H112869   0.829   2.156   6.507
 4308TIP3    H212870   0.973   2.113   6.523
 4309TIP3   OH212871   7.738   6.041   2.828
 4309TIP3    H112872   7.723   6.081   2.742
 4309TIP3    H212873   7.816   5.987   2.816
 4310TIP3   OH212874   4.220   4.268   5.185
 4310TIP3    H112875   4.195   4.185   5.144
 4310TIP3    H212876   4.305   4.289   5.146
 4311TIP3   OH212877   0.302   5.946   0.571
 4311TIP3    H112878   0.234   5.903   0.623
 4311TIP3    H212879   0.383   5.900   0.594
 4312TIP3   OH212880   6.238   2.873   6.620
 4312TIP3    H112881   6.279   2.823   6.690
 4312TIP3    H212882   6.239   2.964   6.650
 4313TIP3   OH212883   1.045   5.779   6.224
 4313TIP3    H112884   1.069   5.850   6.164
 4313TIP3    H212885   1.063   5.699   6.174
 4314TIP3   OH212886   0.418   2.300   5.656
 4314TIP3    H112887   0.425   2.205   5.664
 4314TIP3    H212888   0.384   2.314   5.568
 4315TIP3   OH212889   4.205   4.508   4.201
 4315TIP3    H112890   4.251   4.483   4.122
 4315TIP3    H212891   4.157   4.430   4.228
 4316TIP3   OH212892   4.745   5.608   5.134
 4316TIP3    H112893   4.708   5.522   5.151
 4316TIP3    H212894   4.838   5.599   5.152
 4317TIP3   OH212895   7.621   2.023   3.681
 4317TIP3    H112896   7.624   2.008   3.776
 4317TIP3    H212897   7.708   2.058   3.660
 4318TIP3   OH212898   0.972   6.834   2.900
 4318TIP3    H112899   0.915   6.875   2.834
 4318TIP3    H212900   1.035   6.902   2.923
 4319TIP3   OH212901   7.502   0.209   2.285
 4319TIP3    H112902   7.464   0.222   2.198
 4319TIP3    H212903   7.570   0.143   2.272
 4320TIP3   OH212904   5.055   4.722   4.593
 4320TIP3    H112905   5.066   4.656   4.661
 4320TIP3    H212906   4.961   4.724   4.577
 4321TIP3   OH212907   7.195   7.686   4.998
 4321TIP3    H112908   7.227   7.758   4.944
 4321TIP3    H212909   7.254   7.683   5.073
 4322TIP3   OH212910   2.127   1.240   3.005
 4322TIP3    H112911   2.199   1.302   2.989
 4322TIP3    H212912   2.164   1.177   3.067
 4323TIP3   OH212913   1.647   4.038   1.542
 4323TIP3    H112914   1.697   4.120   1.550
 4323TIP3    H212915   1.602   4.046   1.458
 4324TIP3   OH212916   3.771   1.685   5.656
 4324TIP3    H112917   3.798   1.604   5.612
 4324TIP3    H212918   3.844   1.706   5.714
 4325TIP3   OH212919   8.030   0.622   5.547
 4325TIP3    H112920   8.121   0.645   5.569
 4325TIP3    H212921   7.980   0.648   5.624
 4326TIP3   OH212922   7.323   4.576   5.994
 4326TIP3    H112923   7.415   4.594   5.972
 4326TIP3    H212924   7.326   4.498   6.049
 4327TIP3   OH212925   7.896   4.919   2.519
 4327TIP3    H112926   7.922   4.828   2.534
 4327TIP3    H212927   7.902   4.960   2.606
 4328TIP3   OH212928   7.368   0.825   0.277
 4328TIP3    H112929   7.299   0.759   0.283
 4328TIP3    H212930   7.338   0.884   0.208
 4329TIP3   OH212931   3.539   4.229   3.861
 4329TIP3    H112932   3.458   4.181   3.879
 4329TIP3    H212933   3.535   4.248   3.767
 4330TIP3   OH212934   3.899   5.235   3.828
 4330TIP3    H112935   3.890   5.149   3.870
 4330TIP3    H212936   3.980   5.271   3.864
 4331TIP3   OH212937   5.477   5.126   0.719
 4331TIP3    H112938   5.516   5.181   0.786
 4331TIP3    H212939   5.397   5.171   0.694
 4332TIP3   OH212940   0.332   0.252   3.052
 4332TIP3    H112941   0.284   0.242   3.134
 4332TIP3    H212942   0.278   0.210   2.986
 4333TIP3   OH212943   2.896   5.490   4.394
 4333TIP3    H112944   2.945   5.465   4.316
 4333TIP3    H212945   2.963   5.516   4.457
 4334TIP3   OH212946   6.000   0.350   6.201
 4334TIP3    H112947   5.905   0.356   6.195
 4334TIP3    H212948   6.015   0.287   6.271
 4335TIP3   OH212949   4.279   7.468   5.683
 4335TIP3    H112950   4.278   7.500   5.593
 4335TIP3    H212951   4.223   7.390   5.681
 4336TIP3   OH212952   1.899   2.996   4.679
 4336TIP3    H112953   1.827   2.937   4.656
 4336TIP3    H212954   1.948   3.005   4.597
 4337TIP3   OH212955   6.959   3.646   2.302
 4337TIP3    H112956   7.048   3.678   2.288
 4337TIP3    H212957   6.909   3.723   2.329
 4338TIP3   OH212958   7.227   5.817   2.229
 4338TIP3    H112959   7.244   5.831   2.136
 4338TIP3    H212960   7.172   5.739   2.232
 4339TIP3   OH212961   4.080   3.323   0.318
 4339TIP3    H112962   4.069   3.241   0.366
 4339TIP3    H212963   4.020   3.316   0.244
 4340TIP3   OH212964   7.437   3.313   1.613
 4340TIP3    H112965   7.362   3.369   1.632
 4340TIP3    H212966   7.400   3.226   1.600
 4341TIP3   OH212967   4.720   2.760   4.202
 4341TIP3    H112968   4.775   2.704   4.147
 4341TIP3    H212969   4.665   2.698   4.251
 4342TIP3   OH212970   1.034   6.739   2.467
 4342TIP3    H112971   1.035   6.829   2.501
 4342TIP3    H212972   1.125   6.711   2.470
 4343TIP3   OH212973   4.040   7.486   2.614
 4343TIP3    H112974   3.998   7.424   2.554
 4343TIP3    H212975   4.124   7.506   2.572
 4344TIP3   OH212976   5.839   3.064   4.094
 4344TIP3    H112977   5.758   3.021   4.065
 4344TIP3    H212978   5.842   3.145   4.043
 4345TIP3   OH212979   0.610   2.141   1.864
 4345TIP3    H112980   0.637   2.157   1.773
 4345TIP3    H212981   0.690   2.154   1.915
 4346TIP3   OH212982   6.150   6.445   1.581
 4346TIP3    H112983   6.169   6.535   1.554
 4346TIP3    H212984   6.055   6.443   1.593
 4347TIP3   OH212985   0.154   0.864   5.371
 4347TIP3    H112986   0.194   0.944   5.337
 4347TIP3    H212987   0.093   0.837   5.302
 4348TIP3   OH212988   6.760   4.400   1.748
 4348TIP3    H112989   6.695   4.433   1.810
 4348TIP3    H212990   6.708   4.352   1.683
 4349TIP3   OH212991   7.794   7.038   0.221
 4349TIP3    H112992   7.821   6.971   0.283
 4349TIP3    H212993   7.800   6.995   0.135
 4350TIP3   OH212994   4.744   0.181   1.468
 4350TIP3    H112995   4.820   0.219   1.512
 4350TIP3    H212996   4.724   0.102   1.519
 4351TIP3   OH212997   5.795   2.815   4.667
 4351TIP3    H112998   5.784   2.819   4.761
 4351TIP3    H212999   5.744   2.739   4.639
 4352TIP3   OH213000   7.041   4.923   5.681
 4352TIP3    H113001   7.047   4.835   5.644
 4352TIP3    H213002   7.007   4.910   5.770
 4353TIP3   OH213003   7.082   7.251   5.054
 4353TIP3    H113004   7.066   7.340   5.087
 4353TIP3    H213005   7.030   7.246   4.974
 4354TIP3   OH213006   8.166   3.165   6.571
 4354TIP3    H113007   8.108   3.091   6.554
 4354TIP3    H213008   8.116   3.241   6.541
 4355TIP3   OH213009   2.416   4.182   0.602
 4355TIP3    H113010   2.444   4.202   0.691
 4355TIP3    H213011   2.324   4.159   0.611
 4356TIP3   OH213012   0.593   7.808   3.756
 4356TIP3    H113013   0.592   7.715   3.777
 4356TIP3    H213014   0.627   7.812   3.667
 4357TIP3   OH213015   2.641   6.305   1.401
 4357TIP3    H113016   2.682   6.245   1.463
 4357TIP3    H213017   2.560   6.261   1.375
 4358TIP3   OH213018   4.761   6.264   1.959
 4358TIP3    H113019   4.668   6.283   1.947
 4358TIP3    H213020   4.768   6.170   1.944
 4359TIP3   OH213021   1.354   1.930   4.986
 4359TIP3    H113022   1.270   1.885   4.972
 4359TIP3    H213023   1.331   2.023   4.984
 4360TIP3   OH213024   7.090   6.563   1.785
 4360TIP3    H113025   7.093   6.658   1.799
 4360TIP3    H213026   7.008   6.536   1.827
 4361TIP3   OH213027   3.919   0.787   4.916
 4361TIP3    H113028   3.960   0.829   4.991
 4361TIP3    H213029   3.832   0.762   4.946
 4362TIP3   OH213030   1.867   6.364   5.777
 4362TIP3    H113031   1.808   6.421   5.728
 4362TIP3    H213032   1.876   6.286   5.722
 4363TIP3   OH213033   1.988   3.306   2.058
 4363TIP3    H113034   1.899   3.297   2.023
 4363TIP3    H213035   2.019   3.215   2.068
 4364TIP3   OH213036   5.715   4.937   3.380
 4364TIP3    H113037   5.680   5.011   3.331
 4364TIP3    H213038   5.752   4.879   3.314
 4365TIP3   OH213039   1.664   6.668   0.807
 4365TIP3    H113040   1.688   6.753   0.843
 4365TIP3    H213041   1.692   6.605   0.873
 4366TIP3   OH213042   5.800   0.535   4.314
 4366TIP3    H113043   5.819   0.502   4.226
 4366TIP3    H213044   5.877   0.513   4.366
 4367TIP3   OH213045   7.384   6.554   1.798
 4367TIP3    H113046   7.398   6.640   1.758
 4367TIP3    H213047   7.294   6.531   1.775
 4368TIP3   OH213048   3.892   2.432   3.332
 4368TIP3    H113049   3.849   2.367   3.386
 4368TIP3    H213050   3.910   2.505   3.391
 4369TIP3   OH213051   6.879   7.848   5.060
 4369TIP3    H113052   6.896   7.769   5.008
 4369TIP3    H213053   6.962   7.865   5.105
 4370TIP3   OH213054   1.794   0.525   3.998
 4370TIP3    H113055   1.765   0.486   4.080
 4370TIP3    H213056   1.731   0.594   3.980
 4371TIP3   OH213057   0.610   1.661   5.053
 4371TIP3    H113058   0.576   1.620   4.974
 4371TIP3    H213059   0.578   1.607   5.125
 4372TIP3   OH213060   3.893   7.024   4.574
 4372TIP3    H113061   3.947   6.993   4.501
 4372TIP3    H213062   3.861   7.109   4.546
 4373TIP3   OH213063   7.846   5.483   3.827
 4373TIP3    H113064   7.818   5.484   3.919
 4373TIP3    H213065   7.935   5.516   3.828
 4374TIP3   OH213066   5.124   1.191   3.007
 4374TIP3    H113067   5.158   1.139   3.079
 4374TIP3    H213068   5.052   1.241   3.046
 4375TIP3   OH213069   0.769   7.339   6.501
 4375TIP3    H113070   0.862   7.356   6.487
 4375TIP3    H213071   0.727   7.364   6.419
 4376TIP3   OH213072   2.466   4.376   4.192
 4376TIP3    H113073   2.436   4.427   4.117
 4376TIP3    H213074   2.488   4.290   4.155
 4377TIP3   OH213075   4.390   5.546   2.505
 4377TIP3    H113076   4.382   5.625   2.451
 4377TIP3    H213077   4.341   5.480   2.456
 4378TIP3   OH213078   7.558   4.941   2.873
 4378TIP3    H113079   7.651   4.957   2.861
 4378TIP3    H213080   7.520   4.953   2.786
 4379TIP3   OH213081   5.749   5.977   1.215
 4379TIP3    H113082   5.666   6.022   1.202
 4379TIP3    H213083   5.730   5.910   1.281
 4380TIP3   OH213084   6.556   6.140   1.021
 4380TIP3    H113085   6.559   6.152   0.926
 4380TIP3    H213086   6.647   6.124   1.046
 4381TIP3   OH213087   2.068   5.568   2.887
 4381TIP3    H113088   2.128   5.508   2.932
 4381TIP3    H213089   2.070   5.647   2.941
 4382TIP3   OH213090   5.663   7.160   0.955
 4382TIP3    H113091   5.704   7.098   1.016
 4382TIP3    H213092   5.629   7.105   0.885
 4383TIP3   OH213093   2.823   7.769   3.565
 4383TIP3    H113094   2.737   7.784   3.525
 4383TIP3    H213095   2.803   7.747   3.656
 4384TIP3   OH213096   8.089   1.085   4.568
 4384TIP3    H113097   8.103   1.156   4.506
 4384TIP3    H213098   8.004   1.103   4.607
 4385TIP3   OH213099   7.985   4.813   1.472
 4385TIP3    H113100   8.036   4.890   1.447
 4385TIP3    H213101   7.908   4.850   1.517
 4386TIP3   OH213102   1.434   7.177   6.481
 4386TIP3    H113103   1.462   7.115   6.414
 4386TIP3    H213104   1.343   7.153   6.500
 4387TIP3   OH213105   3.604   5.131   3.117
 4387TIP3    H113106   3.653   5.205   3.081
 4387TIP3    H213107   3.645   5.054   3.078
 4388TIP3   OH213108   4.789   2.868   5.240
 4388TIP3    H113109   4.822   2.951   5.274
 4388TIP3    H213110   4.862   2.831   5.192
 4389TIP3   OH213111   7.133   0.866   4.593
 4389TIP3    H113112   7.187   0.883   4.671
 4389TIP3    H213113   7.180   0.798   4.545
 4390TIP3   OH213114   5.787   3.728   6.164
 4390TIP3    H113115   5.697   3.751   6.140
 4390TIP3    H213116   5.780   3.641   6.202
 4391TIP3   OH213117   7.538   2.094   5.695
 4391TIP3    H113118   7.593   2.169   5.715
 4391TIP3    H213119   7.575   2.056   5.615
 4392TIP3   OH213120   2.527   1.294   2.156
 4392TIP3    H113121   2.510   1.250   2.240
 4392TIP3    H213122   2.443   1.333   2.132
 4393TIP3   OH213123   5.860   1.781   3.210
 4393TIP3    H113124   5.918   1.796   3.285
 4393TIP3    H213125   5.913   1.729   3.149
 4394TIP3   OH213126   7.062   1.958   1.415
 4394TIP3    H113127   7.036   1.872   1.448
 4394TIP3    H213128   7.146   1.942   1.371
 4395TIP3   OH213129   7.995   4.489   6.415
 4395TIP3    H113130   7.935   4.469   6.487
 4395TIP3    H213131   7.938   4.506   6.340
 4396TIP3   OH213132   5.077   6.950   4.924
 4396TIP3    H113133   5.069   7.017   4.992
 4396TIP3    H213134   5.015   6.882   4.950
 4397TIP3   OH213135   6.055   3.554   0.381
 4397TIP3    H113136   6.023   3.605   0.455
 4397TIP3    H213137   6.052   3.614   0.307
 4398TIP3   OH213138   7.773   6.032   6.139
 4398TIP3    H113139   7.814   5.972   6.202
 4398TIP3    H213140   7.724   5.975   6.080
 4399TIP3   OH213141   0.811   5.174   4.049
 4399TIP3    H113142   0.783   5.247   3.993
 4399TIP3    H213143   0.898   5.151   4.016
 4400TIP3   OH213144   3.190   7.632   1.081
 4400TIP3    H113145   3.259   7.614   1.146
 4400TIP3    H213146   3.216   7.715   1.041
 4401TIP3   OH213147   2.953   4.237   5.140
 4401TIP3    H113148   2.984   4.150   5.114
 4401TIP3    H213149   3.031   4.292   5.139
 4402TIP3   OH213150   8.282   0.471   2.594
 4402TIP3    H113151   8.221   0.470   2.668
 4402TIP3    H213152   8.248   0.539   2.535
 4403TIP3   OH213153   3.693   6.475   6.581
 4403TIP3    H113154   3.752   6.400   6.573
 4403TIP3    H213155   3.689   6.512   6.493
 4404TIP3   OH213156   3.941   6.584   3.019
 4404TIP3    H113157   3.881   6.614   3.088
 4404TIP3    H213158   3.887   6.583   2.940
 4405TIP3   OH213159   4.489   1.595  -0.036
 4405TIP3    H113160   4.540   1.554  -0.106
 4405TIP3    H213161   4.440   1.523   0.003
 4406TIP3   OH213162   2.203   6.589   1.943
 4406TIP3    H113163   2.220   6.501   1.977
 4406TIP3    H213164   2.198   6.577   1.848
 4407TIP3   OH213165   5.146   2.804   5.556
 4407TIP3    H113166   5.131   2.751   5.478
 4407TIP3    H213167   5.193   2.745   5.616
 4408TIP3   OH213168   4.347   5.312   5.538
 4408TIP3    H113169   4.354   5.220   5.512
 4408TIP3    H213170   4.268   5.315   5.592
 4409TIP3   OH213171   1.635   0.469   0.788
 4409TIP3    H113172   1.680   0.541   0.832
 4409TIP3    H213173   1.657   0.480   0.696
 4410TIP3   OH213174   3.688   3.988   4.501
 4410TIP3    H113175   3.726   4.033   4.577
 4410TIP3    H213176   3.637   3.916   4.538
 4411TIP3   OH213177   4.676   3.816   5.310
 4411TIP3    H113178   4.644   3.906   5.314
 4411TIP3    H213179   4.675   3.794   5.217
 4412TIP3   OH213180   4.727   3.934   0.509
 4412TIP3    H113181   4.794   3.866   0.507
 4412TIP3    H213182   4.645   3.887   0.495
 4413TIP3   OH213183   0.794   0.115   5.623
 4413TIP3    H113184   0.828   0.201   5.651
 4413TIP3    H213185   0.872   0.060   5.614
 4414TIP3   OH213186   7.626   2.323   0.506
 4414TIP3    H113187   7.573   2.402   0.518
 4414TIP3    H213188   7.570   2.264   0.454
 4415TIP3   OH213189   4.556   6.257   2.618
 4415TIP3    H113190   4.635   6.203   2.609
 4415TIP3    H213191   4.485   6.201   2.587
 4416TIP3   OH213192   1.270   4.230   3.607
 4416TIP3    H113193   1.177   4.210   3.614
 4416TIP3    H213194   1.301   4.173   3.536
 4417TIP3   OH213195   0.589   6.560   0.171
 4417TIP3    H113196   0.623   6.638   0.215
 4417TIP3    H213197   0.550   6.508   0.241
 4418TIP3   OH213198   7.480   5.213   0.793
 4418TIP3    H113199   7.575   5.213   0.783
 4418TIP3    H213200   7.465   5.247   0.881
 4419TIP3   OH213201   5.403   0.759   5.315
 4419TIP3    H113202   5.376   0.702   5.243
 4419TIP3    H213203   5.384   0.848   5.283
 4420TIP3   OH213204   0.016   6.076   3.565
 4420TIP3    H113205   0.111   6.078   3.552
 4420TIP3    H213206   0.001   5.994   3.612
 4421TIP3   OH213207   5.663   4.488   4.318
 4421TIP3    H113208   5.571   4.480   4.292
 4421TIP3    H213209   5.698   4.556   4.260
 4422TIP3   OH213210   4.353   1.125   3.681
 4422TIP3    H113211   4.401   1.111   3.763
 4422TIP3    H213212   4.345   1.220   3.674
 4423TIP3   OH213213   1.231   6.013   5.530
 4423TIP3    H113214   1.243   6.007   5.624
 4423TIP3    H213215   1.152   5.960   5.513
 4424TIP3   OH213216   7.036   6.126   3.931
 4424TIP3    H113217   7.046   6.218   3.905
 4424TIP3    H213218   7.017   6.080   3.849
 4425TIP3   OH213219   0.410   0.991   1.758
 4425TIP3    H113220   0.354   0.926   1.800
 4425TIP3    H213221   0.483   1.002   1.819
 4426TIP3   OH213222   1.567   6.214   0.597
 4426TIP3    H113223   1.551   6.162   0.519
 4426TIP3    H213224   1.608   6.294   0.565
 4427TIP3   OH213225   5.180   1.665   1.430
 4427TIP3    H113226   5.119   1.739   1.430
 4427TIP3    H213227   5.264   1.703   1.457
 4428TIP3   OH213228   6.586   6.435   1.870
 4428TIP3    H113229   6.658   6.460   1.927
 4428TIP3    H213230   6.615   6.355   1.827
 4429TIP3   OH213231   6.600   1.608   6.149
 4429TIP3    H113232   6.673   1.627   6.091
 4429TIP3    H213233   6.594   1.512   6.149
 4430TIP3   OH213234   3.866   7.762   0.473
 4430TIP3    H113235   3.896   7.851   0.491
 4430TIP3    H213236   3.801   7.745   0.541
 4431TIP3   OH213237   3.308   4.521   6.574
 4431TIP3    H113238   3.363   4.444   6.586
 4431TIP3    H213239   3.292   4.524   6.480
 4432TIP3   OH213240   2.343   5.886   5.964
 4432TIP3    H113241   2.292   5.887   5.883
 4432TIP3    H213242   2.426   5.846   5.938
 4433TIP3   OH213243   1.055   2.860   5.632
 4433TIP3    H113244   1.114   2.866   5.557
 4433TIP3    H213245   1.079   2.778   5.675
 4434TIP3   OH213246   5.389   2.607   5.424
 4434TIP3    H113247   5.318   2.651   5.376
 4434TIP3    H213248   5.344   2.545   5.481
 4435TIP3   OH213249   6.832   2.603   6.574
 4435TIP3    H113250   6.825   2.510   6.595
 4435TIP3    H213251   6.742   2.631   6.558
 4436TIP3   OH213252   6.465   2.662   0.453
 4436TIP3    H113253   6.478   2.585   0.508
 4436TIP3    H213254   6.482   2.736   0.511
 4437TIP3   OH213255   6.838   1.359   4.139
 4437TIP3    H113256   6.874   1.280   4.177
 4437TIP3    H213257   6.863   1.355   4.046
 4438TIP3   OH213258   5.978   3.577   3.960
 4438TIP3    H113259   5.973   3.568   3.865
 4438TIP3    H213260   5.888   3.565   3.990
 4439TIP3   OH213261   6.751   0.772   2.054
 4439TIP3    H113262   6.747   0.798   2.146
 4439TIP3    H213263   6.842   0.745   2.041
 4440TIP3   OH213264   8.250   7.176   5.469
 4440TIP3    H113265   8.264   7.270   5.462
 4440TIP3    H213266   8.325   7.137   5.423
 4441TIP3   OH213267   6.293   3.988   4.243
 4441TIP3    H113268   6.232   4.042   4.193
 4441TIP3    H213269   6.344   4.050   4.295
 4442TIP3   OH213270   2.276   5.443   3.049
 4442TIP3    H113271   2.364   5.478   3.063
 4442TIP3    H213272   2.266   5.376   3.116
 4443TIP3   OH213273   4.042   7.839   3.535
 4443TIP3    H113274   4.037   7.743   3.538
 4443TIP3    H213275   3.996   7.867   3.614
 4444TIP3   OH213276   2.589   0.826   2.741
 4444TIP3    H113277   2.652   0.773   2.791
 4444TIP3    H213278   2.536   0.763   2.694
 4445TIP3   OH213279   5.142   6.186   5.721
 4445TIP3    H113280   5.199   6.196   5.797
 4445TIP3    H213281   5.062   6.233   5.744
 4446TIP3   OH213282   2.035   0.494   4.277
 4446TIP3    H113283   1.976   0.420   4.291
 4446TIP3    H213284   2.118   0.467   4.316
 4447TIP3   OH213285   6.673   0.083   0.111
 4447TIP3    H113286   6.751   0.103   0.163
 4447TIP3    H213287   6.685   0.132   0.030
 4448TIP3   OH213288   3.249   1.548   0.132
 4448TIP3    H113289   3.258   1.618   0.067
 4448TIP3    H213290   3.327   1.494   0.120
 4449TIP3   OH213291   2.157   4.170   1.397
 4449TIP3    H113292   2.165   4.128   1.311
 4449TIP3    H213293   2.075   4.218   1.392
 4450TIP3   OH213294   2.965   3.021   2.055
 4450TIP3    H113295   2.945   3.061   1.970
 4450TIP3    H213296   2.895   2.958   2.069
 4451TIP3   OH213297   0.806   4.335   5.206
 4451TIP3    H113298   0.779   4.367   5.120
 4451TIP3    H213299   0.812   4.414   5.260
 4452TIP3   OH213300   2.454   2.643   0.907
 4452TIP3    H113301   2.538   2.661   0.949
 4452TIP3    H213302   2.389   2.656   0.976
 4453TIP3   OH213303   7.703   7.127   3.267
 4453TIP3    H113304   7.724   7.203   3.213
 4453TIP3    H213305   7.621   7.094   3.230
 4454TIP3   OH213306   0.649   3.344   3.955
 4454TIP3    H113307   0.562   3.322   3.923
 4454TIP3    H213308   0.657   3.438   3.945
 4455TIP3   OH213309   5.569   7.722   4.556
 4455TIP3    H113310   5.523   7.804   4.541
 4455TIP3    H213311   5.555   7.704   4.649
 4456TIP3   OH213312   3.990   7.113   2.550
 4456TIP3    H113313   3.905   7.074   2.530
 4456TIP3    H213314   3.975   7.162   2.631
 4457TIP3   OH213315   0.833   0.993   0.084
 4457TIP3    H113316   0.740   1.003   0.105
 4457TIP3    H213317   0.876   0.987   0.169
 4458TIP3   OH213318   5.171   2.841   4.225
 4458TIP3    H113319   5.192   2.928   4.260
 4458TIP3    H213320   5.221   2.835   4.144
 4459TIP3   OH213321   7.843   6.210   6.469
 4459TIP3    H113322   7.778   6.145   6.440
 4459TIP3    H213323   7.819   6.290   6.421
 4460TIP3   OH213324   5.575   7.131   5.255
 4460TIP3    H113325   5.615   7.217   5.242
 4460TIP3    H213326   5.625   7.091   5.326
 4461TIP3   OH213327   5.684   1.976   3.388
 4461TIP3    H113328   5.683   2.013   3.300
 4461TIP3    H213329   5.754   1.911   3.385
 4462TIP3   OH213330   2.652   2.088   3.837
 4462TIP3    H113331   2.661   2.021   3.905
 4462TIP3    H213332   2.740   2.097   3.801
 4463TIP3   OH213333   3.329   1.577   2.581
 4463TIP3    H113334   3.362   1.488   2.583
 4463TIP3    H213335   3.304   1.591   2.489
 4464TIP3   OH213336   7.703   2.386   1.505
 4464TIP3    H113337   7.737   2.297   1.494
 4464TIP3    H213338   7.698   2.421   1.416
 4465TIP3   OH213339   5.690   1.193   3.357
 4465TIP3    H113340   5.750   1.155   3.293
 4465TIP3    H213341   5.701   1.288   3.346
 4466TIP3   OH213342   0.208   0.185   6.620
 4466TIP3    H113343   0.129   0.155   6.574
 4466TIP3    H213344   0.180   0.260   6.671
 4467TIP3   OH213345   0.303   6.948   5.498
 4467TIP3    H113346   0.273   6.857   5.495
 4467TIP3    H213347   0.262   6.989   5.422
 4468TIP3   OH213348   5.052   1.923   1.435
 4468TIP3    H113349   5.094   2.009   1.428
 4468TIP3    H213350   5.022   1.918   1.525
 4469TIP3   OH213351   4.936   4.185   1.510
 4469TIP3    H113352   4.954   4.216   1.598
 4469TIP3    H213353   4.842   4.166   1.510
 4470TIP3   OH213354   7.664   0.384   3.939
 4470TIP3    H113355   7.627   0.359   3.855
 4470TIP3    H213356   7.706   0.469   3.923
 4471TIP3   OH213357   5.362   0.729   2.072
 4471TIP3    H113358   5.410   0.756   2.151
 4471TIP3    H213359   5.431   0.703   2.011
 4472TIP3   OH213360   3.181   2.289   1.017
 4472TIP3    H113361   3.237   2.354   0.975
 4472TIP3    H213362   3.225   2.206   1.003
 4473TIP3   OH213363   2.012   4.347   6.175
 4473TIP3    H113364   1.924   4.337   6.139
 4473TIP3    H213365   2.036   4.437   6.156
 4474TIP3   OH213366   5.903   6.174   2.642
 4474TIP3    H113367   5.873   6.121   2.717
 4474TIP3    H213368   5.827   6.178   2.584
 4475TIP3   OH213369   0.426   6.697   1.944
 4475TIP3    H113370   0.478   6.771   1.912
 4475TIP3    H213371   0.478   6.660   2.015
 4476TIP3   OH213372   1.733   6.916   5.429
 4476TIP3    H113373   1.756   6.861   5.504
 4476TIP3    H213374   1.775   7.000   5.446
 4477TIP3   OH213375   4.117   2.000   0.023
 4477TIP3    H113376   4.202   1.956   0.023
 4477TIP3    H213377   4.072   1.964   0.099
 4478TIP3   OH213378   1.595   3.296   2.363
 4478TIP3    H113379   1.530   3.366   2.371
 4478TIP3    H213380   1.672   3.339   2.324
 4479TIP3   OH213381   0.105   6.233   6.186
 4479TIP3    H113382   0.107   6.285   6.106
 4479TIP3    H213383   0.191   6.192   6.191
 4480TIP3   OH213384   5.022   1.541   1.882
 4480TIP3    H113385   4.968   1.608   1.840
 4480TIP3    H213386   5.051   1.581   1.964
 4481TIP3   OH213387   6.188   2.828   1.321
 4481TIP3    H113388   6.282   2.828   1.305
 4481TIP3    H213389   6.149   2.824   1.234
 4482TIP3   OH213390   1.576   1.947   4.207
 4482TIP3    H113391   1.495   1.964   4.254
 4482TIP3    H213392   1.645   1.963   4.271
 4483TIP3   OH213393   2.031   0.201   3.790
 4483TIP3    H113394   1.977   0.174   3.864
 4483TIP3    H213395   2.011   0.294   3.779
 4484TIP3   OH213396   0.352   7.461   2.784
 4484TIP3    H113397   0.342   7.383   2.839
 4484TIP3    H213398   0.351   7.534   2.846
 4485TIP3   OH213399   5.072   3.906   1.692
 4485TIP3    H113400   5.131   3.972   1.728
 4485TIP3    H213401   5.114   3.822   1.713
 4486TIP3   OH213402   1.310   5.894   4.049
 4486TIP3    H113403   1.392   5.938   4.024
 4486TIP3    H213404   1.325   5.802   4.029
 4487TIP3   OH213405   2.206   0.606   5.234
 4487TIP3    H113406   2.194   0.572   5.323
 4487TIP3    H213407   2.265   0.681   5.245
 4488TIP3   OH213408   3.217   2.949   1.183
 4488TIP3    H113409   3.304   2.935   1.221
 4488TIP3    H213410   3.180   2.861   1.176
 4489TIP3   OH213411   1.806   1.563   1.435
 4489TIP3    H113412   1.865   1.524   1.370
 4489TIP3    H213413   1.817   1.508   1.513
 4490TIP3   OH213414   2.741   7.678   2.750
 4490TIP3    H113415   2.730   7.753   2.692
 4490TIP3    H213416   2.710   7.709   2.835
 4491TIP3   OH213417   1.931   3.595   6.676
 4491TIP3    H113418   2.026   3.605   6.679
 4491TIP3    H213419   1.897   3.673   6.720
 4492TIP3   OH213420   2.728   0.089   1.425
 4492TIP3    H113421   2.763   0.054   1.507
 4492TIP3    H213422   2.658   0.148   1.451
 4493TIP3   OH213423   7.872   5.691   5.385
 4493TIP3    H113424   7.901   5.713   5.297
 4493TIP3    H213425   7.877   5.774   5.433
 4494TIP3   OH213426   3.926   4.893   4.138
 4494TIP3    H113427   3.832   4.906   4.139
 4494TIP3    H213428   3.957   4.943   4.062
 4495TIP3   OH213429   4.298   6.204   2.301
 4495TIP3    H113430   4.369   6.237   2.246
 4495TIP3    H213431   4.340   6.143   2.361
 4496TIP3   OH213432   2.832   2.520   4.391
 4496TIP3    H113433   2.886   2.543   4.315
 4496TIP3    H213434   2.882   2.453   4.436
 4497TIP3   OH213435   6.041   4.200   1.324
 4497TIP3    H113436   6.020   4.239   1.409
 4497TIP3    H213437   6.035   4.273   1.263
 4498TIP3   OH213438   4.167   3.065   3.874
 4498TIP3    H113439   4.182   3.128   3.804
 4498TIP3    H213440   4.114   3.113   3.938
 4499TIP3   OH213441   1.558   4.888   5.068
 4499TIP3    H113442   1.539   4.814   5.126
 4499TIP3    H213443   1.598   4.953   5.125
 4500TIP3   OH213444   5.193   7.240   3.339
 4500TIP3    H113445   5.172   7.147   3.350
 4500TIP3    H213446   5.289   7.241   3.331
 4501TIP3   OH213447   5.005   0.584   2.964
 4501TIP3    H113448   4.990   0.523   3.035
 4501TIP3    H213449   4.948   0.554   2.893
 4502TIP3   OH213450   4.075   3.619   1.430
 4502TIP3    H113451   4.066   3.546   1.491
 4502TIP3    H213452   4.070   3.697   1.485
 4503TIP3   OH213453   6.946   4.770   5.926
 4503TIP3    H113454   6.852   4.758   5.941
 4503TIP3    H213455   6.962   4.862   5.948
 4504TIP3   OH213456   2.071   4.318   3.934
 4504TIP3    H113457   2.165   4.301   3.939
 4504TIP3    H213458   2.034   4.270   4.008
 4505TIP3   OH213459   3.918   5.148   5.579
 4505TIP3    H113460   3.961   5.142   5.493
 4505TIP3    H213461   3.936   5.063   5.620
 4506TIP3   OH213462   3.840   7.346   5.201
 4506TIP3    H113463   3.756   7.382   5.173
 4506TIP3    H213464   3.839   7.255   5.171
 4507TIP3   OH213465   0.952   7.587   4.538
 4507TIP3    H113466   0.942   7.625   4.450
 4507TIP3    H213467   0.935   7.494   4.525
 4508TIP3   OH213468   1.454   1.442   5.587
 4508TIP3    H113469   1.476   1.349   5.580
 4508TIP3    H213470   1.538   1.485   5.605
 4509TIP3   OH213471   6.463   5.589   1.064
 4509TIP3    H113472   6.437   5.673   1.101
 4509TIP3    H213473   6.546   5.605   1.021
 4510TIP3   OH213474   3.461   0.986   2.543
 4510TIP3    H113475   3.504   0.904   2.518
 4510TIP3    H213476   3.527   1.053   2.531
 4511TIP3   OH213477   3.553   3.178   5.606
 4511TIP3    H113478   3.492   3.241   5.645
 4511TIP3    H213479   3.497   3.122   5.552
 4512TIP3   OH213480   2.215   0.671   0.589
 4512TIP3    H113481   2.261   0.603   0.540
 4512TIP3    H213482   2.143   0.697   0.532
 4513TIP3   OH213483   0.625   1.023   6.132
 4513TIP3    H113484   0.559   0.983   6.189
 4513TIP3    H213485   0.708   1.003   6.174
 4514TIP3   OH213486   7.180   6.725   4.567
 4514TIP3    H113487   7.240   6.763   4.630
 4514TIP3    H213488   7.101   6.704   4.618
 4515TIP3   OH213489   4.007   4.011   5.533
 4515TIP3    H113490   3.980   4.022   5.624
 4515TIP3    H213491   4.100   4.036   5.532
 4516TIP3   OH213492   2.364   7.415   1.178
 4516TIP3    H113493   2.383   7.490   1.122
 4516TIP3    H213494   2.334   7.453   1.260
 4517TIP3   OH213495   6.958   3.210   5.552
 4517TIP3    H113496   6.870   3.171   5.548
 4517TIP3    H213497   6.957   3.264   5.631
 4518TIP3   OH213498   1.787   4.752   1.944
 4518TIP3    H113499   1.799   4.844   1.920
 4518TIP3    H213500   1.863   4.730   1.997
 4519TIP3   OH213501   4.994   4.462   4.490
 4519TIP3    H113502   4.953   4.542   4.523
 4519TIP3    H213503   4.959   4.452   4.402
 4520TIP3   OH213504   5.592   2.374   6.547
 4520TIP3    H113505   5.631   2.338   6.627
 4520TIP3    H213506   5.639   2.331   6.476
 4521TIP3   OH213507   6.419   0.248   0.298
 4521TIP3    H113508   6.427   0.170   0.242
 4521TIP3    H213509   6.488   0.306   0.268
 4522TIP3   OH213510   4.070   3.486   2.532
 4522TIP3    H113511   4.096   3.574   2.558
 4522TIP3    H213512   3.995   3.465   2.588
 4523TIP3   OH213513   4.696   6.091   5.368
 4523TIP3    H113514   4.609   6.053   5.364
 4523TIP3    H213515   4.750   6.032   5.314
 4524TIP3   OH213516   5.143   6.706   1.457
 4524TIP3    H113517   5.190   6.769   1.511
 4524TIP3    H213518   5.084   6.760   1.404
 4525TIP3   OH213519   8.120   5.638   3.839
 4525TIP3    H113520   8.177   5.673   3.771
 4525TIP3    H213521   8.095   5.714   3.891
 4526TIP3   OH213522   6.014   0.113   3.092
 4526TIP3    H113523   6.005   0.089   3.184
 4526TIP3    H213524   6.092   0.169   3.089
 4527TIP3   OH213525   3.884   2.106   5.022
 4527TIP3    H113526   3.831   2.029   5.041
 4527TIP3    H213527   3.958   2.071   4.972
 4528TIP3   OH213528   1.229   3.300   5.336
 4528TIP3    H113529   1.172   3.304   5.260
 4528TIP3    H213530   1.281   3.220   5.324
 4529TIP3   OH213531   3.688   3.817   3.305
 4529TIP3    H113532   3.715   3.757   3.374
 4529TIP3    H213533   3.640   3.886   3.351
 4530TIP3   OH213534   6.883   2.052   5.279
 4530TIP3    H113535   6.800   2.005   5.264
 4530TIP3    H213536   6.885   2.120   5.212
 4531TIP3   OH213537   1.936   4.547   1.217
 4531TIP3    H113538   1.909   4.509   1.133
 4531TIP3    H213539   2.029   4.567   1.206
 4532TIP3   OH213540   4.790   0.937   1.893
 4532TIP3    H113541   4.854   0.983   1.947
 4532TIP3    H213542   4.809   0.966   1.803
 4533TIP3   OH213543   6.694   3.341   1.560
 4533TIP3    H113544   6.611   3.368   1.598
 4533TIP3    H213545   6.760   3.384   1.615
 4534TIP3   OH213546   5.902   2.176   2.318
 4534TIP3    H113547   5.838   2.214   2.257
 4534TIP3    H213548   5.901   2.082   2.298
 4535TIP3   OH213549   8.188   0.604   4.140
 4535TIP3    H113550   8.164   0.542   4.072
 4535TIP3    H213551   8.281   0.585   4.157
 4536TIP3   OH213552   4.779   2.891   5.764
 4536TIP3    H113553   4.687   2.885   5.793
 4536TIP3    H213554   4.778   2.854   5.676
 4537TIP3   OH213555   4.316   0.946   1.829
 4537TIP3    H113556   4.236   0.989   1.798
 4537TIP3    H213557   4.314   0.860   1.787
 4538TIP3   OH213558   0.122   7.068   2.261
 4538TIP3    H113559   0.031   7.041   2.277
 4538TIP3    H213560   0.147   7.025   2.180
 4539TIP3   OH213561   6.692   7.326   3.609
 4539TIP3    H113562   6.645   7.342   3.527
 4539TIP3    H213563   6.740   7.408   3.625
 4540TIP3   OH213564   3.029   4.147   4.384
 4540TIP3    H113565   3.032   4.091   4.462
 4540TIP3    H213566   3.009   4.234   4.417
 4541TIP3   OH213567   3.228   2.235   5.625
 4541TIP3    H113568   3.162   2.216   5.692
 4541TIP3    H213569   3.299   2.173   5.643
 4542TIP3   OH213570   6.521   3.231   5.558
 4542TIP3    H113571   6.593   3.244   5.620
 4542TIP3    H213572   6.520   3.136   5.542
 4543TIP3   OH213573   7.180   4.264   5.470
 4543TIP3    H113574   7.158   4.357   5.463
 4543TIP3    H213575   7.096   4.220   5.478
 4544TIP3   OH213576   0.084   7.150  -0.017
 4544TIP3    H113577   0.172   7.182   0.005
 4544TIP3    H213578   0.031   7.170   0.060
 4545TIP3   OH213579   1.880   2.641   4.778
 4545TIP3    H113580   1.881   2.575   4.709
 4545TIP3    H213581   1.788   2.648   4.804
 4546TIP3   OH213582   6.574   1.250   6.147
 4546TIP3    H113583   6.521   1.194   6.091
 4546TIP3    H213584   6.636   1.293   6.088
 4547TIP3   OH213585   5.957   4.151   1.945
 4547TIP3    H113586   6.005   4.117   1.869
 4547TIP3    H213587   6.002   4.232   1.967
 4548TIP3   OH213588   5.074   6.204   0.294
 4548TIP3    H113589   5.169   6.196   0.298
 4548TIP3    H213590   5.059   6.293   0.260
 4549TIP3   OH213591   7.546   7.264   2.001
 4549TIP3    H113592   7.588   7.342   2.038
 4549TIP3    H213593   7.550   7.278   1.906
 4550TIP3   OH213594   0.878   2.612   3.000
 4550TIP3    H113595   0.868   2.700   2.966
 4550TIP3    H213596   0.828   2.612   3.082
 4551TIP3   OH213597   0.482   6.321   3.603
 4551TIP3    H113598   0.437   6.241   3.630
 4551TIP3    H213599   0.562   6.322   3.655
 4552TIP3   OH213600   3.951   0.729   4.117
 4552TIP3    H113601   3.958   0.718   4.212
 4552TIP3    H213602   4.017   0.795   4.096
 4553TIP3   OH213603   6.155   2.455   4.294
 4553TIP3    H113604   6.074   2.487   4.335
 4553TIP3    H213605   6.220   2.458   4.364
 4554TIP3   OH213606   6.039   5.094   5.876
 4554TIP3    H113607   5.957   5.140   5.894
 4554TIP3    H213608   6.107   5.158   5.896
 4555TIP3   OH213609   1.319   6.760   0.151
 4555TIP3    H113610   1.244   6.711   0.117
 4555TIP3    H213611   1.324   6.736   0.243
 4556TIP3   OH213612   7.455   7.094   2.872
 4556TIP3    H113613   7.461   7.032   2.799
 4556TIP3    H213614   7.546   7.115   2.893
 4557TIP3   OH213615   1.494   2.617   0.234
 4557TIP3    H113616   1.584   2.594   0.209
 4557TIP3    H213617   1.490   2.712   0.222
 4558TIP3   OH213618   2.210   2.862   3.409
 4558TIP3    H113619   2.250   2.779   3.381
 4558TIP3    H213620   2.191   2.850   3.502
 4559TIP3   OH213621   0.318   6.738   4.272
 4559TIP3    H113622   0.273   6.663   4.311
 4559TIP3    H213623   0.398   6.702   4.235
 4560TIP3   OH213624   5.164   2.013   2.374
 4560TIP3    H113625   5.128   2.008   2.463
 4560TIP3    H213626   5.088   2.032   2.319
 4561TIP3   OH213627   0.935   0.782   6.009
 4561TIP3    H113628   1.028   0.762   6.015
 4561TIP3    H213629   0.932   0.876   5.989
 4562TIP3   OH213630   0.031   3.488   0.731
 4562TIP3    H113631  -0.061   3.496   0.753
 4562TIP3    H213632   0.077   3.494   0.816
 4563TIP3   OH213633   7.653   5.066   4.714
 4563TIP3    H113634   7.607   5.051   4.796
 4563TIP3    H213635   7.713   4.992   4.706
 4564TIP3   OH213636   4.694   4.524   2.707
 4564TIP3    H113637   4.682   4.510   2.801
 4564TIP3    H213638   4.697   4.619   2.698
 4565TIP3   OH213639   4.569   4.349   5.282
 4565TIP3    H113640   4.655   4.392   5.278
 4565TIP3    H213641   4.531   4.364   5.195
 4566TIP3   OH213642   1.117   4.999   1.684
 4566TIP3    H113643   1.023   4.985   1.667
 4566TIP3    H213644   1.159   4.984   1.599
 4567TIP3   OH213645   6.301   0.160   5.675
 4567TIP3    H113646   6.386   0.188   5.640
 4567TIP3    H213647   6.322   0.121   5.760
 4568TIP3   OH213648   1.541   5.666   2.774
 4568TIP3    H113649   1.564   5.698   2.687
 4568TIP3    H213650   1.459   5.710   2.795
 4569TIP3   OH213651   5.293   4.160   4.606
 4569TIP3    H113652   5.220   4.156   4.544
 4569TIP3    H213653   5.370   4.172   4.551
 4570TIP3   OH213654   3.675   1.069   1.424
 4570TIP3    H113655   3.630   1.026   1.352
 4570TIP3    H213656   3.629   1.040   1.502
 4571TIP3   OH213657   2.537   1.499   0.400
 4571TIP3    H113658   2.523   1.465   0.312
 4571TIP3    H213659   2.449   1.521   0.432
 4572TIP3   OH213660   0.704   0.499   4.819
 4572TIP3    H113661   0.779   0.555   4.840
 4572TIP3    H213662   0.702   0.497   4.723
 4573TIP3   OH213663   3.553   5.453   4.174
 4573TIP3    H113664   3.624   5.515   4.190
 4573TIP3    H213665   3.594   5.367   4.182
 4574TIP3   OH213666   5.210   4.598   2.604
 4574TIP3    H113667   5.224   4.509   2.635
 4574TIP3    H213668   5.143   4.590   2.536
 4575TIP3   OH213669   5.057   1.175   3.440
 4575TIP3    H113670   5.106   1.199   3.362
 4575TIP3    H213671   5.070   1.081   3.450
 4576TIP3   OH213672   4.358   6.131   4.338
 4576TIP3    H113673   4.320   6.079   4.268
 4576TIP3    H213674   4.317   6.099   4.418
 4577TIP3   OH213675   2.214   0.678   4.819
 4577TIP3    H113676   2.291   0.645   4.865
 4577TIP3    H213677   2.238   0.767   4.794
 4578TIP3   OH213678   7.750   7.570   0.545
 4578TIP3    H113679   7.683   7.610   0.600
 4578TIP3    H213680   7.707   7.495   0.504
 4579TIP3   OH213681   7.401   4.951   6.135
 4579TIP3    H113682   7.399   4.923   6.227
 4579TIP3    H213683   7.459   4.888   6.092
 4580TIP3   OH213684   3.711   4.923   6.247
 4580TIP3    H113685   3.621   4.925   6.214
 4580TIP3    H213686   3.745   4.839   6.216
 4581TIP3   OH213687   7.044   1.447   3.186
 4581TIP3    H113688   7.011   1.361   3.212
 4581TIP3    H213689   7.040   1.447   3.090
 4582TIP3   OH213690   8.034   1.820   2.529
 4582TIP3    H113691   7.983   1.877   2.472
 4582TIP3    H213692   8.006   1.731   2.506
 4583TIP3   OH213693   6.222   1.256   6.544
 4583TIP3    H113694   6.271   1.290   6.469
 4583TIP3    H213695   6.256   1.168   6.556
 4584TIP3   OH213696   0.454   1.458   1.365
 4584TIP3    H113697   0.478   1.410   1.285
 4584TIP3    H213698   0.409   1.536   1.334
 4585TIP3   OH213699   7.460   6.465   0.359
 4585TIP3    H113700   7.556   6.458   0.356
 4585TIP3    H213701   7.432   6.382   0.397
 4586TIP3   OH213702   6.332   0.441   6.758
 4586TIP3    H113703   6.333   0.377   6.830
 4586TIP3    H213704   6.335   0.388   6.679
 4587TIP3   OH213705   5.254   0.208   0.422
 4587TIP3    H113706   5.297   0.276   0.371
 4587TIP3    H213707   5.193   0.255   0.479
 4588TIP3   OH213708   7.863   3.644   6.691
 4588TIP3    H113709   7.787   3.689   6.653
 4588TIP3    H213710   7.860   3.557   6.653
 4589TIP3   OH213711   2.557   1.205   6.429
 4589TIP3    H113712   2.467   1.207   6.399
 4589TIP3    H213713   2.566   1.281   6.486
 4590TIP3   OH213714   5.311   4.710   0.096
 4590TIP3    H113715   5.223   4.695   0.132
 4590TIP3    H213716   5.296   4.738   0.006
 4591TIP3   OH213717   5.363   1.617   2.318
 4591TIP3    H113718   5.366   1.661   2.403
 4591TIP3    H213719   5.439   1.559   2.317
 4592TIP3   OH213720   0.057   5.263   2.124
 4592TIP3    H113721   0.122   5.248   2.191
 4592TIP3    H213722  -0.003   5.328   2.162
 4593TIP3   OH213723   6.992   4.139   4.416
 4593TIP3    H113724   6.987   4.048   4.384
 4593TIP3    H213725   6.903   4.172   4.407
 4594TIP3   OH213726   3.218   2.687   2.284
 4594TIP3    H113727   3.212   2.607   2.337
 4594TIP3    H213728   3.217   2.758   2.348
 4595TIP3   OH213729   0.828   6.323   4.526
 4595TIP3    H113730   0.846   6.263   4.598
 4595TIP3    H213731   0.913   6.335   4.483
 4596TIP3   OH213732   1.699   4.103   0.683
 4596TIP3    H113733   1.787   4.093   0.721
 4596TIP3    H213734   1.695   4.037   0.614
 4597TIP3   OH213735   5.106   4.242   5.118
 4597TIP3    H113736   5.063   4.215   5.037
 4597TIP3    H213737   5.194   4.203   5.113
 4598TIP3   OH213738   6.497   5.821   6.485
 4598TIP3    H113739   6.417   5.859   6.520
 4598TIP3    H213740   6.469   5.743   6.438
 4599TIP3   OH213741   3.108   6.470   6.447
 4599TIP3    H113742   3.180   6.526   6.476
 4599TIP3    H213743   3.097   6.490   6.354
 4600TIP3   OH213744   8.007   0.953   2.175
 4600TIP3    H113745   7.958   1.012   2.118
 4600TIP3    H213746   7.982   0.979   2.263
 4601TIP3   OH213747   1.772   0.856   0.997
 4601TIP3    H113748   1.798   0.892   1.082
 4601TIP3    H213749   1.725   0.776   1.019
 4602TIP3   OH213750   6.080   0.326   0.781
 4602TIP3    H113751   6.091   0.242   0.736
 4602TIP3    H213752   6.168   0.352   0.806
 4603TIP3   OH213753   2.286   0.488   1.347
 4603TIP3    H113754   2.284   0.564   1.288
 4603TIP3    H213755   2.199   0.450   1.340
 4604TIP3   OH213756   6.630   3.418   0.940
 4604TIP3    H113757   6.591   3.425   0.853
 4604TIP3    H213758   6.649   3.508   0.966
 4605TIP3   OH213759   7.268   7.632   4.717
 4605TIP3    H113760   7.310   7.712   4.750
 4605TIP3    H213761   7.174   7.649   4.725
 4606TIP3   OH213762   8.003   6.309   0.659
 4606TIP3    H113763   8.049   6.280   0.738
 4606TIP3    H213764   7.958   6.230   0.627
 4607TIP3   OH213765   2.112   6.281   2.342
 4607TIP3    H113766   2.152   6.230   2.413
 4607TIP3    H213767   2.161   6.363   2.340
 4608TIP3   OH213768   5.820   3.643   1.516
 4608TIP3    H113769   5.797   3.558   1.477
 4608TIP3    H213770   5.804   3.631   1.610
 4609TIP3   OH213771   0.486   3.049   0.308
 4609TIP3    H113772   0.416   2.990   0.280
 4609TIP3    H213773   0.559   3.028   0.249
 4610TIP3   OH213774   2.987   2.553   2.548
 4610TIP3    H113775   3.066   2.578   2.596
 4610TIP3    H213776   3.000   2.461   2.526
 4611TIP3   OH213777   5.169   5.660   4.373
 4611TIP3    H113778   5.211   5.601   4.311
 4611TIP3    H213779   5.207   5.746   4.352
 4612TIP3   OH213780   2.491   1.663   2.028
 4612TIP3    H113781   2.444   1.589   2.068
 4612TIP3    H213782   2.469   1.738   2.084
 4613TIP3   OH213783   6.517   4.269   2.471
 4613TIP3    H113784   6.441   4.245   2.524
 4613TIP3    H213785   6.502   4.361   2.447
 4614TIP3   OH213786   0.391   3.742   2.291
 4614TIP3    H113787   0.390   3.833   2.261
 4614TIP3    H213788   0.349   3.744   2.377
 4615TIP3   OH213789   7.434   6.610   5.033
 4615TIP3    H113790   7.370   6.578   5.096
 4615TIP3    H213791   7.518   6.580   5.067
 4616TIP3   OH213792   1.724   3.323   1.930
 4616TIP3    H113793   1.757   3.329   1.841
 4616TIP3    H213794   1.637   3.362   1.927
 4617TIP3   OH213795   1.346   2.591   4.869
 4617TIP3    H113796   1.297   2.509   4.874
 4617TIP3    H213797   1.361   2.616   4.960
 4618TIP3   OH213798   7.964   6.417   5.155
 4618TIP3    H113799   7.970   6.479   5.083
 4618TIP3    H213800   7.924   6.467   5.226
 4619TIP3   OH213801   2.162   3.104   2.668
 4619TIP3    H113802   2.178   3.193   2.700
 4619TIP3    H213803   2.244   3.057   2.684
 4620TIP3   OH213804   4.838   3.673   0.202
 4620TIP3    H113805   4.921   3.627   0.189
 4620TIP3    H213806   4.806   3.643   0.287
 4621TIP3   OH213807   6.306   3.896   3.991
 4621TIP3    H113808   6.370   3.825   3.996
 4621TIP3    H213809   6.293   3.923   4.082
 4622TIP3   OH213810  -0.012   5.142   0.468
 4622TIP3    H113811   0.016   5.205   0.534
 4622TIP3    H213812  -0.061   5.195   0.405
 4623TIP3   OH213813   1.730   2.501   4.346
 4623TIP3    H113814   1.664   2.563   4.314
 4623TIP3    H213815   1.714   2.422   4.295
 4624TIP3   OH213816   6.206   5.919   0.049
 4624TIP3    H113817   6.114   5.909   0.072
 4624TIP3    H213818   6.248   5.838   0.077
 4625TIP3   OH213819   6.273   0.857   0.878
 4625TIP3    H113820   6.221   0.853   0.798
 4625TIP3    H213821   6.271   0.950   0.903
 4626TIP3   OH213822   2.583   4.960   1.531
 4626TIP3    H113823   2.488   4.952   1.542
 4626TIP3    H213824   2.608   5.033   1.588
 4627TIP3   OH213825   0.333   7.323   3.928
 4627TIP3    H113826   0.384   7.244   3.945
 4627TIP3    H213827   0.275   7.299   3.856
 4628TIP3   OH213828   0.965   7.495   3.717
 4628TIP3    H113829   0.963   7.591   3.719
 4628TIP3    H213830   0.927   7.469   3.801
 4629TIP3   OH213831   8.252   0.729   6.419
 4629TIP3    H113832   8.346   0.713   6.419
 4629TIP3    H213833   8.223   0.704   6.332
 4630TIP3   OH213834   7.304   6.017   4.194
 4630TIP3    H113835   7.213   6.033   4.169
 4630TIP3    H213836   7.317   5.923   4.178
 4631TIP3   OH213837   8.093   6.730   5.417
 4631TIP3    H113838   8.074   6.637   5.426
 4631TIP3    H213839   8.085   6.765   5.506
 4632TIP3   OH213840   3.313   3.738   2.704
 4632TIP3    H113841   3.300   3.686   2.783
 4632TIP3    H213842   3.348   3.821   2.736
 4633TIP3   OH213843   1.190   4.101   2.196
 4633TIP3    H113844   1.206   4.105   2.102
 4633TIP3    H213845   1.261   4.153   2.235
 4634TIP3   OH213846   0.414   4.983   3.423
 4634TIP3    H113847   0.338   4.965   3.478
 4634TIP3    H213848   0.483   4.927   3.458
 4635TIP3   OH213849   4.839   3.246   6.217
 4635TIP3    H113850   4.864   3.297   6.140
 4635TIP3    H213851   4.834   3.156   6.185
 4636TIP3   OH213852   6.123   6.551   2.788
 4636TIP3    H113853   6.120   6.639   2.750
 4636TIP3    H213854   6.102   6.493   2.716
 4637TIP3   OH213855   0.268   3.022   2.361
 4637TIP3    H113856   0.276   2.966   2.438
 4637TIP3    H213857   0.218   2.969   2.298
 4638TIP3   OH213858   0.548   3.602   4.895
 4638TIP3    H113859   0.472   3.544   4.887
 4638TIP3    H213860   0.616   3.560   4.841
 4639TIP3   OH213861   8.231   4.598   2.691
 4639TIP3    H113862   8.292   4.547   2.744
 4639TIP3    H213863   8.275   4.683   2.680
 4640TIP3   OH213864   0.839   5.961   6.633
 4640TIP3    H113865   0.911   5.974   6.570
 4640TIP3    H213866   0.767   5.928   6.580
 4641TIP3   OH213867   0.775   2.682   6.314
 4641TIP3    H113868   0.827   2.752   6.354
 4641TIP3    H213869   0.780   2.610   6.377
 4642TIP3   OH213870   6.757   5.836   3.638
 4642TIP3    H113871   6.684   5.854   3.579
 4642TIP3    H213872   6.719   5.842   3.726
 4643TIP3   OH213873   6.944   4.737   0.219
 4643TIP3    H113874   6.935   4.819   0.171
 4643TIP3    H213875   7.021   4.695   0.181
 4644TIP3   OH213876   3.513   5.068   0.387
 4644TIP3    H113877   3.582   5.087   0.324
 4644TIP3    H213878   3.437   5.046   0.332
 4645TIP3   OH213879  -0.025  -0.005   3.062
 4645TIP3    H113880   0.021   0.067   3.020
 4645TIP3    H213881   0.029  -0.027   3.138
 4646TIP3   OH213882   4.002   3.727   0.752
 4646TIP3    H113883   3.985   3.693   0.664
 4646TIP3    H213884   4.083   3.684   0.778
 4647TIP3   OH213885   4.856   3.116   1.576
 4647TIP3    H113886   4.807   3.034   1.584
 4647TIP3    H213887   4.893   3.113   1.487
 4648TIP3   OH213888   0.155   3.293   5.373
 4648TIP3    H113889   0.119   3.223   5.319
 4648TIP3    H213890   0.220   3.249   5.428
 4649TIP3   OH213891   0.064   4.013   6.768
 4649TIP3    H113892   0.007   4.023   6.691
 4649TIP3    H213893   0.147   4.052   6.741
 4650TIP3   OH213894   7.265   4.713   1.564
 4650TIP3    H113895   7.293   4.633   1.608
 4650TIP3    H213896   7.314   4.713   1.481
 4651TIP3   OH213897   5.506   7.263   6.437
 4651TIP3    H113898   5.431   7.256   6.378
 4651TIP3    H213899   5.487   7.200   6.507
 4652TIP3   OH213900   8.150   6.496   2.757
 4652TIP3    H113901   8.102   6.414   2.748
 4652TIP3    H213902   8.092   6.552   2.809
 4653TIP3   OH213903   2.407   3.030   2.151
 4653TIP3    H113904   2.390   3.090   2.223
 4653TIP3    H213905   2.421   2.945   2.192
 4654TIP3   OH213906   5.992   1.880   2.322
 4654TIP3    H113907   5.931   1.902   2.392
 4654TIP3    H213908   6.060   1.828   2.365
 4655TIP3   OH213909   6.224   2.907   0.122
 4655TIP3    H113910   6.236   2.966   0.047
 4655TIP3    H213911   6.222   2.964   0.198
 4656TIP3   OH213912   7.774   2.758   4.787
 4656TIP3    H113913   7.750   2.786   4.699
 4656TIP3    H213914   7.693   2.767   4.838
 4657TIP3   OH213915   4.784   3.997   4.540
 4657TIP3    H113916   4.731   4.051   4.481
 4657TIP3    H213917   4.861   4.051   4.557
 4658TIP3   OH213918   7.684   0.050   6.407
 4658TIP3    H113919   7.676   0.109   6.331
 4658TIP3    H213920   7.727   0.103   6.474
 4659TIP3   OH213921   6.439   5.879   1.108
 4659TIP3    H113922   6.460   5.962   1.066
 4659TIP3    H213923   6.348   5.862   1.082
 4660TIP3   OH213924   7.952   5.584   6.036
 4660TIP3    H113925   7.915   5.534   6.109
 4660TIP3    H213926   8.019   5.526   5.999
 4661TIP3   OH213927   3.894   7.823   4.783
 4661TIP3    H113928   3.807   7.834   4.744
 4661TIP3    H213929   3.890   7.737   4.825
 4662TIP3   OH213930   2.899   4.837   4.166
 4662TIP3    H113931   2.994   4.840   4.158
 4662TIP3    H213932   2.880   4.745   4.185
 4663TIP3   OH213933   0.906   3.630   1.149
 4663TIP3    H113934   0.969   3.688   1.191
 4663TIP3    H213935   0.820   3.667   1.173
 4664TIP3   OH213936   7.718   2.844   5.361
 4664TIP3    H113937   7.730   2.886   5.276
 4664TIP3    H213938   7.704   2.916   5.422
 4665TIP3   OH213939   4.582   5.669   3.175
 4665TIP3    H113940   4.492   5.660   3.205
 4665TIP3    H213941   4.633   5.679   3.255
 4666TIP3   OH213942   3.959   5.898   4.111
 4666TIP3    H113943   4.036   5.949   4.084
 4666TIP3    H213944   3.955   5.909   4.206
 4667TIP3   OH213945   3.224   4.419   0.915
 4667TIP3    H113946   3.303   4.394   0.963
 4667TIP3    H213947   3.221   4.359   0.841
 4668TIP3   OH213948   7.900   1.862   3.070
 4668TIP3    H113949   7.888   1.935   3.010
 4668TIP3    H213950   7.878   1.897   3.156
 4669TIP3   OH213951   6.040   5.568   5.639
 4669TIP3    H113952   6.094   5.608   5.571
 4669TIP3    H213953   5.967   5.629   5.651
 4670TIP3   OH213954   4.082   1.821   0.880
 4670TIP3    H113955   4.135   1.742   0.867
 4670TIP3    H213956   4.034   1.830   0.797
 4671TIP3   OH213957   7.828   3.898   5.344
 4671TIP3    H113958   7.816   3.908   5.249
 4671TIP3    H213959   7.881   3.819   5.353
 4672TIP3   OH213960   7.287   3.724   3.874
 4672TIP3    H113961   7.346   3.787   3.916
 4672TIP3    H213962   7.202   3.768   3.872
 4673TIP3   OH213963   1.316   4.813   0.058
 4673TIP3    H113964   1.358   4.892   0.090
 4673TIP3    H213965   1.249   4.794   0.123
 4674TIP3   OH213966   6.674   1.026   1.084
 4674TIP3    H113967   6.608   0.958   1.088
 4674TIP3    H213968   6.729   1.012   1.162
 4675TIP3   OH213969   3.716   6.993   3.695
 4675TIP3    H113970   3.759   6.909   3.682
 4675TIP3    H213971   3.784   7.048   3.735
 4676TIP3   OH213972   1.449   1.247   0.534
 4676TIP3    H113973   1.538   1.281   0.547
 4676TIP3    H213974   1.394   1.302   0.589
 4677TIP3   OH213975   5.190   4.341   2.704
 4677TIP3    H113976   5.237   4.258   2.701
 4677TIP3    H213977   5.116   4.325   2.764
 4678TIP3   OH213978   7.795   2.646   4.363
 4678TIP3    H113979   7.793   2.564   4.412
 4678TIP3    H213980   7.886   2.654   4.333
 4679TIP3   OH213981   4.395   3.626   2.630
 4679TIP3    H113982   4.427   3.656   2.715
 4679TIP3    H213983   4.425   3.536   2.623
 4680TIP3   OH213984   5.683   7.253   4.386
 4680TIP3    H113985   5.723   7.166   4.379
 4680TIP3    H213986   5.680   7.271   4.480
 4681TIP3   OH213987   4.515   7.247   1.773
 4681TIP3    H113988   4.544   7.300   1.699
 4681TIP3    H213989   4.419   7.250   1.768
 4682TIP3   OH213990   4.946   4.455   3.578
 4682TIP3    H113991   4.959   4.362   3.561
 4682TIP3    H213992   4.959   4.464   3.672
 4683TIP3   OH213993   6.835   7.277   6.492
 4683TIP3    H113994   6.930   7.273   6.497
 4683TIP3    H213995   6.805   7.259   6.581
 4684TIP3   OH213996   0.304   7.638   5.463
 4684TIP3    H113997   0.350   7.695   5.401
 4684TIP3    H213998   0.212   7.643   5.437
 4685TIP3   OH213999   4.094   5.926   2.321
 4685TIP3    H114000   4.003   5.929   2.351
 4685TIP3    H214001   4.144   5.966   2.392
 4686TIP3   OH214002   2.753   7.040   4.672
 4686TIP3    H114003   2.744   6.970   4.736
 4686TIP3    H214004   2.685   7.023   4.608
 4687TIP3   OH214005   8.356   6.492   4.620
 4687TIP3    H114006   8.277   6.546   4.620
 4687TIP3    H214007   8.323   6.402   4.628
 4688TIP3   OH214008   5.641   5.784   2.345
 4688TIP3    H114009   5.637   5.735   2.427
 4688TIP3    H214010   5.718   5.748   2.300
 4689TIP3   OH214011   1.263   2.099   0.976
 4689TIP3    H114012   1.320   2.170   1.008
 4689TIP3    H214013   1.269   2.105   0.881
 4690TIP3   OH214014   4.142   6.829   4.938
 4690TIP3    H114015   4.062   6.872   4.908
 4690TIP3    H214016   4.205   6.842   4.867
 4691TIP3   OH214017   3.067   2.187   3.297
 4691TIP3    H114018   3.052   2.095   3.318
 4691TIP3    H214019   3.084   2.188   3.202
 4692TIP3   OH214020   0.442   1.778   0.119
 4692TIP3    H114021   0.523   1.826   0.136
 4692TIP3    H214022   0.442   1.707   0.182
 4693TIP3   OH214023   5.968   7.370   4.584
 4693TIP3    H114024   5.949   7.278   4.606
 4693TIP3    H214025   5.899   7.419   4.629
 4694TIP3   OH214026   2.775   0.012   6.734
 4694TIP3    H114027   2.690   0.016   6.690
 4694TIP3    H214028   2.821   0.091   6.705
 4695TIP3   OH214029   4.371   1.065   2.539
 4695TIP3    H114030   4.394   1.130   2.605
 4695TIP3    H214031   4.298   1.017   2.577
 4696TIP3   OH214032   8.203   2.835   4.145
 4696TIP3    H114033   8.110   2.814   4.150
 4696TIP3    H214034   8.214   2.871   4.057
 4697TIP3   OH214035   5.183   4.465   3.208
 4697TIP3    H114036   5.182   4.371   3.189
 4697TIP3    H214037   5.173   4.508   3.123
 4698TIP3   OH214038   1.511   3.774   1.748
 4698TIP3    H114039   1.455   3.844   1.715
 4698TIP3    H214040   1.601   3.807   1.737
 4699TIP3   OH214041   2.134   0.596   4.023
 4699TIP3    H114042   2.102   0.590   4.113
 4699TIP3    H214043   2.097   0.520   3.979
 4700TIP3   OH214044   1.463   1.532   5.012
 4700TIP3    H114045   1.462   1.447   4.968
 4700TIP3    H214046   1.424   1.515   5.098
 4701TIP3   OH214047   6.355   7.589   0.279
 4701TIP3    H114048   6.277   7.579   0.335
 4701TIP3    H214049   6.393   7.672   0.306
 4702TIP3   OH214050   1.909   5.471   1.779
 4702TIP3    H114051   1.905   5.551   1.831
 4702TIP3    H214052   1.832   5.476   1.721
 4703TIP3   OH214053   1.288   4.579   2.713
 4703TIP3    H114054   1.271   4.519   2.641
 4703TIP3    H214055   1.383   4.594   2.710
 4704TIP3   OH214056   4.336   2.177   3.227
 4704TIP3    H114057   4.312   2.251   3.283
 4704TIP3    H214058   4.336   2.212   3.138
 4705TIP3   OH214059   5.144   2.374   6.030
 4705TIP3    H114060   5.238   2.365   6.042
 4705TIP3    H214061   5.105   2.319   6.098
 4706TIP3   OH214062   4.315   1.598   5.553
 4706TIP3    H114063   4.339   1.506   5.568
 4706TIP3    H214064   4.301   1.604   5.459
 4707TIP3   OH214065   3.143   0.747   1.681
 4707TIP3    H114066   3.233   0.734   1.713
 4707TIP3    H214067   3.142   0.703   1.596
 4708TIP3   OH214068   0.142   3.691   4.899
 4708TIP3    H114069   0.198   3.766   4.919
 4708TIP3    H214070   0.121   3.700   4.806
 4709TIP3   OH214071   2.396   4.715   5.976
 4709TIP3    H114072   2.404   4.801   6.015
 4709TIP3    H214073   2.416   4.654   6.047
 4710TIP3   OH214074   5.473   5.772   5.074
 4710TIP3    H114075   5.533   5.843   5.052
 4710TIP3    H214076   5.465   5.721   4.994
 4711TIP3   OH214077   4.520   3.794   0.426
 4711TIP3    H114078   4.438   3.816   0.470
 4711TIP3    H214079   4.501   3.807   0.333
 4712TIP3   OH214080   4.139   7.170   1.930
 4712TIP3    H114081   4.201   7.195   1.999
 4712TIP3    H214082   4.057   7.215   1.954
 4713TIP3   OH214083   5.754   5.481   0.724
 4713TIP3    H114084   5.756   5.567   0.767
 4713TIP3    H214085   5.834   5.480   0.671
 4714TIP3   OH214086   7.868   1.890   4.194
 4714TIP3    H114087   7.840   1.877   4.284
 4714TIP3    H214088   7.907   1.806   4.169
 4715TIP3   OH214089   4.097   0.295   4.517
 4715TIP3    H114090   4.010   0.265   4.544
 4715TIP3    H214091   4.140   0.216   4.484
 4716TIP3   OH214092   4.426   2.946   1.592
 4716TIP3    H114093   4.386   2.934   1.678
 4716TIP3    H214094   4.510   2.902   1.598
 4717TIP3   OH214095   4.226   5.687   5.432
 4717TIP3    H114096   4.250   5.745   5.505
 4717TIP3    H214097   4.133   5.671   5.445
 4718TIP3   OH214098   0.398   3.228   6.529
 4718TIP3    H114099   0.478   3.242   6.477
 4718TIP3    H214100   0.353   3.313   6.527
 4719TIP3   OH214101   0.478   1.977   4.587
 4719TIP3    H114102   0.572   1.995   4.581
 4719TIP3    H214103   0.439   2.060   4.614
 4720TIP3   OH214104   6.835   3.907   3.551
 4720TIP3    H114105   6.869   3.844   3.488
 4720TIP3    H214106   6.879   3.885   3.633
 4721TIP3   OH214107   1.681   5.909   2.945
 4721TIP3    H114108   1.695   5.818   2.969
 4721TIP3    H214109   1.739   5.924   2.870
 4722TIP3   OH214110   5.146   6.167   1.636
 4722TIP3    H114111   5.240   6.161   1.650
 4722TIP3    H214112   5.108   6.155   1.724
 4723TIP3   OH214113   2.011   3.893   2.691
 4723TIP3    H114114   2.089   3.865   2.739
 4723TIP3    H214115   1.973   3.962   2.744
 4724TIP3   OH214116   3.059   3.995   4.080
 4724TIP3    H114117   3.004   4.073   4.092
 4724TIP3    H214118   3.129   4.024   4.023
 4725TIP3   OH214119   8.352   3.692   4.650
 4725TIP3    H114120   8.288   3.628   4.618
 4725TIP3    H214121   8.299   3.764   4.684
 4726TIP3   OH214122   3.556   0.506   3.020
 4726TIP3    H114123   3.633   0.551   3.052
 4726TIP3    H214124   3.501   0.576   2.982
 4727TIP3   OH214125   6.697   1.114  -0.006
 4727TIP3    H114126   6.655   1.180   0.051
 4727TIP3    H214127   6.640   1.038   0.001
 4728TIP3   OH214128   7.543   7.455   5.431
 4728TIP3    H114129   7.497   7.397   5.370
 4728TIP3    H214130   7.633   7.423   5.431
 4729TIP3   OH214131   3.863   0.117   2.276
 4729TIP3    H114132   3.923   0.091   2.345
 4729TIP3    H214133   3.916   0.168   2.215
 4730TIP3   OH214134   2.037   1.215   5.604
 4730TIP3    H114135   2.043   1.158   5.681
 4730TIP3    H214136   2.120   1.203   5.558
 4731TIP3   OH214137   7.789   3.773   0.209
 4731TIP3    H114138   7.706   3.765   0.257
 4731TIP3    H214139   7.784   3.706   0.141
 4732TIP3   OH214140   0.946   7.280   3.134
 4732TIP3    H114141   0.994   7.293   3.052
 4732TIP3    H214142   0.916   7.189   3.130
 4733TIP3   OH214143   2.038   3.701   2.225
 4733TIP3    H114144   2.019   3.787   2.188
 4733TIP3    H214145   2.028   3.713   2.320
 4734TIP3   OH214146   2.997   6.554   3.066
 4734TIP3    H114147   3.011   6.544   3.160
 4734TIP3    H214148   3.041   6.636   3.043
 4735TIP3   OH214149   2.869   5.284   2.428
 4735TIP3    H114150   2.922   5.283   2.508
 4735TIP3    H214151   2.934   5.287   2.357
 4736TIP3   OH214152   6.028   6.916   0.973
 4736TIP3    H114153   6.114   6.943   0.938
 4736TIP3    H214154   6.036   6.822   0.983
 4737TIP3   OH214155   4.227   7.105   0.956
 4737TIP3    H114156   4.238   7.080   1.047
 4737TIP3    H214157   4.140   7.071   0.932
 4738TIP3   OH214158   7.469   2.431   1.168
 4738TIP3    H114159   7.508   2.513   1.196
 4738TIP3    H214160   7.533   2.364   1.192
 4739TIP3   OH214161   4.686   7.268   0.571
 4739TIP3    H114162   4.642   7.188   0.601
 4739TIP3    H214163   4.778   7.242   0.563
 4740TIP3   OH214164   5.942   7.014   3.977
 4740TIP3    H114165   5.876   6.956   3.939
 4740TIP3    H214166   5.898   7.099   3.986
 4741TIP3   OH214167   7.787   2.108   5.310
 4741TIP3    H114168   7.761   2.041   5.373
 4741TIP3    H214169   7.877   2.085   5.286
 4742TIP3   OH214170   7.906   6.785   6.396
 4742TIP3    H114171   7.998   6.757   6.396
 4742TIP3    H214172   7.889   6.812   6.486
 4743TIP3   OH214173   6.973   2.916   4.346
 4743TIP3    H114174   6.894   2.934   4.295
 4743TIP3    H214175   6.973   2.982   4.415
 4744TIP3   OH214176   0.166   7.372   4.163
 4744TIP3    H114177   0.214   7.366   4.081
 4744TIP3    H214178   0.094   7.433   4.144
 4745TIP3   OH214179   0.038   7.779   3.263
 4745TIP3    H114180   0.084   7.780   3.347
 4745TIP3    H214181  -0.032   7.843   3.274
 4746TIP3   OH214182   0.429   2.378   2.634
 4746TIP3    H114183   0.472   2.294   2.620
 4746TIP3    H214184   0.338   2.355   2.652
 4747TIP3   OH214185   1.369   7.105   2.223
 4747TIP3    H114186   1.358   7.103   2.128
 4747TIP3    H214187   1.282   7.086   2.258
 4748TIP3   OH214188   1.680   2.834   0.165
 4748TIP3    H114189   1.752   2.896   0.178
 4748TIP3    H214190   1.668   2.830   0.070
 4749TIP3   OH214191   2.687   3.902   2.321
 4749TIP3    H114192   2.738   3.961   2.266
 4749TIP3    H214193   2.596   3.916   2.294
 4750TIP3   OH214194   4.942   6.852   0.197
 4750TIP3    H114195   4.886   6.926   0.218
 4750TIP3    H214196   4.932   6.840   0.103
 4751TIP3   OH214197   8.343   1.766   3.737
 4751TIP3    H114198   8.330   1.833   3.670
 4751TIP3    H214199   8.288   1.794   3.810
 4752TIP3   OH214200   0.784   5.970   4.916
 4752TIP3    H114201   0.830   6.019   4.984
 4752TIP3    H214202   0.792   5.878   4.942
 4753TIP3   OH214203   4.080   4.364   0.902
 4753TIP3    H114204   4.158   4.308   0.904
 4753TIP3    H214205   4.010   4.310   0.938
 4754TIP3   OH214206   3.788   2.476   4.789
 4754TIP3    H114207   3.697   2.506   4.794
 4754TIP3    H214208   3.803   2.429   4.871
 4755TIP3   OH214209   4.376   2.573   4.502
 4755TIP3    H114210   4.412   2.595   4.417
 4755TIP3    H214211   4.393   2.479   4.512
 4756TIP3   OH214212   6.663   4.998   5.145
 4756TIP3    H114213   6.732   4.960   5.092
 4756TIP3    H214214   6.709   5.039   5.218
 4757TIP3   OH214215   1.874   0.890   5.763
 4757TIP3    H114216   1.904   0.873   5.853
 4757TIP3    H214217   1.798   0.832   5.752
 4758TIP3   OH214218   6.586   1.188   4.196
 4758TIP3    H114219   6.618   1.273   4.165
 4758TIP3    H214220   6.658   1.152   4.247
 4759TIP3   OH214221   1.924   1.800   1.853
 4759TIP3    H114222   1.928   1.818   1.759
 4759TIP3    H214223   2.002   1.844   1.889
 4760TIP3   OH214224   6.397   5.586   3.114
 4760TIP3    H114225   6.467   5.558   3.055
 4760TIP3    H214226   6.345   5.647   3.062
 4761TIP3   OH214227   1.533   3.980   0.448
 4761TIP3    H114228   1.513   4.053   0.389
 4761TIP3    H214229   1.464   3.915   0.430
 4762TIP3   OH214230   3.996   0.707   6.412
 4762TIP3    H114231   3.916   0.655   6.413
 4762TIP3    H214232   4.005   0.735   6.320
 4763TIP3   OH214233   1.963   1.883   0.828
 4763TIP3    H114234   1.935   1.971   0.852
 4763TIP3    H214235   2.053   1.876   0.861
 4764TIP3   OH214236   6.844   4.620   3.886
 4764TIP3    H114237   6.907   4.574   3.941
 4764TIP3    H214238   6.896   4.687   3.842
 4765TIP3   OH214239   4.372   1.879   0.010
 4765TIP3    H114240   4.390   1.788  -0.013
 4765TIP3    H214241   4.452   1.926  -0.016
 4766TIP3   OH214242   2.026   5.335   1.588
 4766TIP3    H114243   1.938   5.301   1.570
 4766TIP3    H214244   2.026   5.351   1.682
 4767TIP3   OH214245   7.480   2.344   6.575
 4767TIP3    H114246   7.533   2.359   6.497
 4767TIP3    H214247   7.472   2.431   6.616
 4768TIP3   OH214248   1.894   6.224   0.483
 4768TIP3    H114249   1.845   6.284   0.426
 4768TIP3    H214250   1.969   6.196   0.431
 4769TIP3   OH214251   5.263   1.282   5.219
 4769TIP3    H114252   5.287   1.219   5.152
 4769TIP3    H214253   5.256   1.231   5.299
 4770TIP3   OH214254   3.230   3.587   1.818
 4770TIP3    H114255   3.192   3.674   1.833
 4770TIP3    H214256   3.154   3.530   1.802
 4771TIP3   OH214257   3.356   6.451   0.148
 4771TIP3    H114258   3.435   6.468   0.096
 4771TIP3    H214259   3.337   6.358   0.132
 4772TIP3   OH214260   3.009   5.909   2.850
 4772TIP3    H114261   3.068   5.834   2.843
 4772TIP3    H214262   2.997   5.939   2.760
 4773TIP3   OH214263   5.280   4.196   6.114
 4773TIP3    H114264   5.361   4.153   6.087
 4773TIP3    H214265   5.232   4.130   6.164
 4774TIP3   OH214266   2.318   7.191   0.519
 4774TIP3    H114267   2.287   7.249   0.589
 4774TIP3    H214268   2.314   7.246   0.440
 4775TIP3   OH214269   3.853   5.245   3.074
 4775TIP3    H114270   3.933   5.194   3.077
 4775TIP3    H214271   3.859   5.303   3.150
 4776TIP3   OH214272   7.342   0.126   6.254
 4776TIP3    H114273   7.256   0.166   6.266
 4776TIP3    H214274   7.389   0.188   6.198
 4777TIP3   OH214275   3.064   5.562   0.753
 4777TIP3    H114276   3.047   5.528   0.841
 4777TIP3    H214277   3.158   5.581   0.753
 4778TIP3   OH214278   7.826   0.154   6.007
 4778TIP3    H114279   7.876   0.221   6.054
 4778TIP3    H214280   7.856   0.162   5.916
 4779TIP3   OH214281   7.754   5.855   3.057
 4779TIP3    H114282   7.820   5.827   3.121
 4779TIP3    H214283   7.759   5.790   2.987
 4780TIP3   OH214284   0.066   0.773   5.105
 4780TIP3    H114285   0.020   0.838   5.052
 4780TIP3    H214286   0.138   0.743   5.050
 4781TIP3   OH214287   2.374   7.328   4.980
 4781TIP3    H114288   2.309   7.388   5.014
 4781TIP3    H214289   2.454   7.349   5.027
 4782TIP3   OH214290   6.687   0.480   4.398
 4782TIP3    H114291   6.674   0.385   4.400
 4782TIP3    H214292   6.764   0.494   4.453
 4783TIP3   OH214293   1.639   2.140   4.431
 4783TIP3    H114294   1.574   2.210   4.420
 4783TIP3    H214295   1.661   2.142   4.524
 4784TIP3   OH214296   1.155   1.368   0.704
 4784TIP3    H114297   1.127   1.459   0.693
 4784TIP3    H214298   1.074   1.320   0.722
 4785TIP3   OH214299   0.336   5.321   4.433
 4785TIP3    H114300   0.257   5.372   4.419
 4785TIP3    H214301   0.312   5.257   4.501
 4786TIP3   OH214302   1.531   4.685   0.276
 4786TIP3    H114303   1.561   4.758   0.223
 4786TIP3    H214304   1.436   4.694   0.278
 4787TIP3   OH214305   3.681   1.458   3.021
 4787TIP3    H114306   3.632   1.415   2.950
 4787TIP3    H214307   3.618   1.517   3.062
 4788TIP3   OH214308   0.582   4.050   5.746
 4788TIP3    H114309   0.621   4.137   5.755
 4788TIP3    H214310   0.644   4.002   5.691
 4789TIP3   OH214311   5.548   4.738   3.527
 4789TIP3    H114312   5.629   4.742   3.577
 4789TIP3    H214313   5.569   4.780   3.443
 4790TIP3   OH214314   6.684   6.207   4.175
 4790TIP3    H114315   6.593   6.237   4.184
 4790TIP3    H214316   6.734   6.264   4.234
 4791TIP3   OH214317   7.739   6.161   0.721
 4791TIP3    H114318   7.798   6.220   0.768
 4791TIP3    H214319   7.769   6.073   0.745
 4792TIP3   OH214320   3.642   2.142   6.014
 4792TIP3    H114321   3.626   2.194   6.092
 4792TIP3    H214322   3.697   2.070   6.044
 4793TIP3   OH214323   3.459   4.469   2.175
 4793TIP3    H114324   3.505   4.550   2.195
 4793TIP3    H214325   3.428   4.436   2.259
 4794TIP3   OH214326   7.831   2.416   2.271
 4794TIP3    H114327   7.794   2.487   2.324
 4794TIP3    H214328   7.848   2.456   2.186
 4795TIP3   OH214329   5.936   0.879   0.976
 4795TIP3    H114330   5.952   0.963   0.934
 4795TIP3    H214331   5.967   0.814   0.913
 4796TIP3   OH214332   3.889   4.547   4.377
 4796TIP3    H114333   3.820   4.611   4.393
 4796TIP3    H214334   3.945   4.552   4.454
 4797TIP3   OH214335   0.602   6.129   1.948
 4797TIP3    H114336   0.649   6.062   1.898
 4797TIP3    H214337   0.645   6.131   2.033
 4798TIP3   OH214338   1.594   2.086   6.506
 4798TIP3    H114339   1.677   2.042   6.524
 4798TIP3    H214340   1.601   2.115   6.415
 4799TIP3   OH214341   2.813   4.616   2.462
 4799TIP3    H114342   2.737   4.587   2.512
 4799TIP3    H214343   2.857   4.680   2.519
 4800TIP3   OH214344   2.871   0.216   0.072
 4800TIP3    H114345   2.792   0.255   0.110
 4800TIP3    H214346   2.895   0.276   0.000
 4801TIP3   OH214347   4.339   5.440   1.113
 4801TIP3    H114348   4.307   5.356   1.146
 4801TIP3    H214349   4.311   5.504   1.179
 4802TIP3   OH214350   6.562   7.752   6.182
 4802TIP3    H114351   6.538   7.679   6.239
 4802TIP3    H214352   6.613   7.811   6.238
 4803TIP3   OH214353   0.150   4.043   0.327
 4803TIP3    H114354   0.202   4.049   0.247
 4803TIP3    H214355   0.060   4.060   0.299
 4804TIP3   OH214356   5.932   5.764   4.356
 4804TIP3    H114357   6.010   5.809   4.322
 4804TIP3    H214358   5.897   5.823   4.422
 4805TIP3   OH214359   6.374   6.803   5.629
 4805TIP3    H114360   6.436   6.742   5.668
 4805TIP3    H214361   6.299   6.748   5.604
 4806TIP3   OH214362   0.886   2.872   2.481
 4806TIP3    H114363   0.980   2.888   2.473
 4806TIP3    H214364   0.878   2.817   2.558
 4807TIP3   OH214365   6.769   3.751   0.041
 4807TIP3    H114366   6.722   3.821  -0.006
 4807TIP3    H214367   6.708   3.677   0.041
 4808TIP3   OH214368   7.375   4.319   3.750
 4808TIP3    H114369   7.333   4.234   3.762
 4808TIP3    H214370   7.342   4.350   3.666
 4809TIP3   OH214371   6.009   6.694   5.956
 4809TIP3    H114372   5.989   6.764   5.893
 4809TIP3    H214373   6.076   6.732   6.012
 4810TIP3   OH214374   6.285   1.511   6.682
 4810TIP3    H114375   6.284   1.415   6.682
 4810TIP3    H214376   6.319   1.535   6.768
 4811TIP3   OH214377   5.807   0.248   1.007
 4811TIP3    H114378   5.803   0.210   1.095
 4811TIP3    H214379   5.814   0.172   0.949
 4812TIP3   OH214380   7.630   1.477   3.172
 4812TIP3    H114381   7.725   1.472   3.163
 4812TIP3    H214382   7.603   1.545   3.111
 4813TIP3   OH214383   5.525   0.570   6.333
 4813TIP3    H114384   5.486   0.538   6.414
 4813TIP3    H214385   5.556   0.491   6.289
 4814TIP3   OH214386   1.681   3.181   4.738
 4814TIP3    H114387   1.769   3.150   4.721
 4814TIP3    H214388   1.691   3.274   4.759
 4815TIP3   OH214389   3.171   4.377   0.122
 4815TIP3    H114390   3.246   4.382   0.062
 4815TIP3    H214391   3.094   4.389   0.065
 4816TIP3   OH214392   6.855   6.784   1.281
 4816TIP3    H114393   6.776   6.770   1.230
 4816TIP3    H214394   6.824   6.809   1.368
 4817TIP3   OH214395   2.969   2.321   4.569
 4817TIP3    H114396   3.013   2.285   4.645
 4817TIP3    H214397   3.016   2.284   4.494
 4818TIP3   OH214398   4.391   6.891   4.823
 4818TIP3    H114399   4.452   6.829   4.863
 4818TIP3    H214400   4.431   6.911   4.738
 4819TIP3   OH214401   2.737   3.602   6.244
 4819TIP3    H114402   2.790   3.524   6.257
 4819TIP3    H214403   2.708   3.626   6.332
 4820TIP3   OH214404   7.602   3.729   4.884
 4820TIP3    H114405   7.609   3.633   4.883
 4820TIP3    H214406   7.538   3.749   4.815
 4821TIP3   OH214407   5.529   5.136   6.023
 4821TIP3    H114408   5.458   5.102   6.078
 4821TIP3    H214409   5.510   5.229   6.015
 4822TIP3   OH214410   0.425   4.196   0.405
 4822TIP3    H114411   0.390   4.253   0.335
 4822TIP3    H214412   0.423   4.108   0.367
 4823TIP3   OH214413   6.030   3.709   4.633
 4823TIP3    H114414   6.059   3.633   4.583
 4823TIP3    H214415   6.002   3.673   4.717
 4824TIP3   OH214416   2.713   1.329   6.163
 4824TIP3    H114417   2.762   1.405   6.193
 4824TIP3    H214418   2.628   1.364   6.136
 4825TIP3   OH214419   1.318   2.997   1.149
 4825TIP3    H114420   1.289   2.955   1.230
 4825TIP3    H214421   1.358   2.927   1.098
 4826TIP3   OH214422   0.231   0.098   1.630
 4826TIP3    H114423   0.184   0.106   1.712
 4826TIP3    H214424   0.164   0.103   1.562
 4827TIP3   OH214425   4.377   6.719   1.354
 4827TIP3    H114426   4.469   6.717   1.382
 4827TIP3    H214427   4.327   6.725   1.436
 4828TIP3   OH214428   5.192   1.974   4.860
 4828TIP3    H114429   5.231   1.902   4.810
 4828TIP3    H214430   5.146   1.932   4.932
 4829TIP3   OH214431   8.146   1.758   2.993
 4829TIP3    H114432   8.059   1.799   2.995
 4829TIP3    H214433   8.171   1.762   2.901
 4830TIP3   OH214434   3.881   0.753   3.845
 4830TIP3    H114435   3.892   0.729   3.937
 4830TIP3    H214436   3.971   0.764   3.813
 4831TIP3   OH214437   3.452   2.670   4.322
 4831TIP3    H114438   3.501   2.600   4.280
 4831TIP3    H214439   3.517   2.720   4.372
 4832TIP3   OH214440   6.397   3.546   2.875
 4832TIP3    H114441   6.356   3.608   2.815
 4832TIP3    H214442   6.427   3.600   2.949
 4833TIP3   OH214443   2.399   1.985   4.136
 4833TIP3    H114444   2.369   2.051   4.074
 4833TIP3    H214445   2.325   1.974   4.196
 4834TIP3   OH214446   0.462   7.152   3.247
 4834TIP3    H114447   0.402   7.085   3.279
 4834TIP3    H214448   0.489   7.200   3.326
 4835TIP3   OH214449   4.141   5.131   0.160
 4835TIP3    H114450   4.219   5.080   0.140
 4835TIP3    H214451   4.169   5.191   0.229
 4836TIP3   OH214452   1.108   1.687   4.020
 4836TIP3    H114453   1.093   1.782   4.027
 4836TIP3    H214454   1.114   1.671   3.926
 4837TIP3   OH214455   7.275   7.414   0.520
 4837TIP3    H114456   7.242   7.466   0.447
 4837TIP3    H214457   7.232   7.451   0.597
 4838TIP3   OH214458   5.428   1.641   6.029
 4838TIP3    H114459   5.422   1.648   5.934
 4838TIP3    H214460   5.482   1.564   6.044
 4839TIP3   OH214461   0.609   5.685   2.037
 4839TIP3    H114462   0.570   5.701   1.951
 4839TIP3    H214463   0.575   5.599   2.062
 4840TIP3   OH214464   0.811   6.391   5.109
 4840TIP3    H114465   0.746   6.455   5.140
 4840TIP3    H214466   0.892   6.441   5.102
 4841TIP3   OH214467   7.298   1.134   6.294
 4841TIP3    H114468   7.314   1.221   6.257
 4841TIP3    H214469   7.203   1.122   6.285
 4842TIP3   OH214470   6.429   2.978   1.979
 4842TIP3    H114471   6.392   3.014   2.059
 4842TIP3    H214472   6.462   2.892   2.005
 4843TIP3   OH214473   6.893   6.902   1.690
 4843TIP3    H114474   6.966   6.872   1.744
 4843TIP3    H214475   6.882   6.995   1.713
 4844TIP3   OH214476   6.555   5.816   4.508
 4844TIP3    H114477   6.567   5.733   4.555
 4844TIP3    H214478   6.643   5.853   4.502
 4845TIP3   OH214479   6.489   2.460   5.022
 4845TIP3    H114480   6.569   2.513   5.031
 4845TIP3    H214481   6.433   2.489   5.095
 4846TIP3   OH214482   7.287   1.720   2.241
 4846TIP3    H114483   7.367   1.763   2.210
 4846TIP3    H214484   7.218   1.757   2.186
 4847TIP3   OH214485   3.940   3.787   3.722
 4847TIP3    H114486   3.875   3.771   3.791
 4847TIP3    H214487   4.011   3.833   3.767
 4848TIP3   OH214488   7.208   5.612   0.653
 4848TIP3    H114489   7.238   5.523   0.669
 4848TIP3    H214490   7.283   5.667   0.672
 4849TIP3   OH214491   3.487   5.347   6.061
 4849TIP3    H114492   3.414   5.286   6.056
 4849TIP3    H214493   3.447   5.432   6.081
 4850TIP3   OH214494   6.946   1.901   0.772
 4850TIP3    H114495   7.015   1.951   0.816
 4850TIP3    H214496   6.935   1.943   0.687
 4851TIP3   OH214497   1.898   4.704   0.960
 4851TIP3    H114498   1.954   4.651   0.904
 4851TIP3    H214499   1.810   4.668   0.947
 4852TIP3   OH214500   3.441   3.184   0.103
 4852TIP3    H114501   3.454   3.100   0.060
 4852TIP3    H214502   3.402   3.240   0.035
 4853TIP3   OH214503   1.909   6.885   1.116
 4853TIP3    H114504   1.971   6.815   1.095
 4853TIP3    H214505   1.889   6.925   1.031
 4854TIP3   OH214506   3.381   6.633   3.793
 4854TIP3    H114507   3.458   6.620   3.738
 4854TIP3    H214508   3.353   6.544   3.817
 4855TIP3   OH214509   6.960   7.234   0.177
 4855TIP3    H114510   7.054   7.236   0.158
 4855TIP3    H214511   6.953   7.182   0.258
 4856TIP3   OH214512   5.508   3.027   3.405
 4856TIP3    H114513   5.483   3.008   3.315
 4856TIP3    H214514   5.597   3.061   3.399
 4857TIP3   OH214515   0.107   2.850   5.085
 4857TIP3    H114516   0.071   2.850   4.996
 4857TIP3    H214517   0.201   2.838   5.072
 4858TIP3   OH214518   2.665   5.167   5.255
 4858TIP3    H114519   2.624   5.126   5.332
 4858TIP3    H214520   2.603   5.150   5.184
 4859TIP3   OH214521   4.488   0.332   2.141
 4859TIP3    H114522   4.484   0.251   2.090
 4859TIP3    H214523   4.467   0.401   2.079
 4860TIP3   OH214524   0.999   2.465   1.468
 4860TIP3    H114525   0.918   2.444   1.422
 4860TIP3    H214526   0.989   2.424   1.554
 4861TIP3   OH214527   2.475   3.981   4.814
 4861TIP3    H114528   2.478   4.043   4.741
 4861TIP3    H214529   2.540   3.914   4.791
 4862TIP3   OH214530   6.322   2.778   5.549
 4862TIP3    H114531   6.365   2.711   5.603
 4862TIP3    H214532   6.229   2.758   5.556
 4863TIP3   OH214533   4.359   4.668   4.660
 4863TIP3    H114534   4.295   4.718   4.610
 4863TIP3    H214535   4.441   4.717   4.651
 4864TIP3   OH214536   3.073   2.493   3.830
 4864TIP3    H114537   3.099   2.402   3.821
 4864TIP3    H214538   3.151   2.538   3.863
 4865TIP3   OH214539   5.263   3.011   6.612
 4865TIP3    H114540   5.264   2.917   6.596
 4865TIP3    H214541   5.292   3.020   6.703
 4866TIP3   OH214542   1.188   0.396   3.584
 4866TIP3    H114543   1.123   0.370   3.649
 4866TIP3    H214544   1.272   0.390   3.630
 4867TIP3   OH214545   5.854   4.816   3.823
 4867TIP3    H114546   5.848   4.876   3.748
 4867TIP3    H214547   5.939   4.836   3.863
 4868TIP3   OH214548   0.188   7.452   2.551
 4868TIP3    H114549   0.212   7.472   2.641
 4868TIP3    H214550   0.239   7.514   2.498
 4869TIP3   OH214551   4.007   3.135   5.549
 4869TIP3    H114552   3.919   3.165   5.524
 4869TIP3    H214553   4.065   3.177   5.487
 4870TIP3   OH214554   2.718   6.466   3.243
 4870TIP3    H114555   2.813   6.462   3.259
 4870TIP3    H214556   2.705   6.412   3.165
 4871TIP3   OH214557   5.406   0.514   5.164
 4871TIP3    H114558   5.432   0.456   5.093
 4871TIP3    H214559   5.467   0.494   5.235
 4872TIP3   OH214560   4.988   3.799   0.990
 4872TIP3    H114561   5.040   3.813   0.911
 4872TIP3    H214562   5.050   3.760   1.053
 4873TIP3   OH214563   3.225   4.136   0.266
 4873TIP3    H114564   3.215   4.203   0.198
 4873TIP3    H214565   3.291   4.076   0.231
 4874TIP3   OH214566   4.605   3.377   6.628
 4874TIP3    H114567   4.649   3.418   6.702
 4874TIP3    H214568   4.666   3.309   6.599
 4875TIP3   OH214569   6.418   4.009   3.779
 4875TIP3    H114570   6.375   3.972   3.856
 4875TIP3    H214571   6.503   4.040   3.810
 4876TIP3   OH214572   3.442   0.143   4.763
 4876TIP3    H114573   3.486   0.218   4.804
 4876TIP3    H214574   3.510   0.076   4.756
 4877TIP3   OH214575   7.452   2.507   4.039
 4877TIP3    H114576   7.480   2.537   3.953
 4877TIP3    H214577   7.492   2.570   4.100
 4878TIP3   OH214578   0.846   6.347   6.088
 4878TIP3    H114579   0.772   6.286   6.085
 4878TIP3    H214580   0.809   6.431   6.062
 4879TIP3   OH214581   6.903   7.658   2.609
 4879TIP3    H114582   6.960   7.732   2.587
 4879TIP3    H214583   6.908   7.601   2.532
 4880TIP3   OH214584   6.541   6.612   0.296
 4880TIP3    H114585   6.613   6.549   0.290
 4880TIP3    H214586   6.509   6.604   0.386
 4881TIP3   OH214587   2.443   6.472   2.941
 4881TIP3    H114588   2.517   6.413   2.928
 4881TIP3    H214589   2.464   6.549   2.889
 4882TIP3   OH214590   6.274   7.737   1.397
 4882TIP3    H114591   6.331   7.710   1.326
 4882TIP3    H214592   6.213   7.799   1.357
 4883TIP3   OH214593   0.544   4.002   2.315
 4883TIP3    H114594   0.469   4.031   2.263
 4883TIP3    H214595   0.613   3.983   2.251
 4884TIP3   OH214596   1.396   6.333   6.273
 4884TIP3    H114597   1.453   6.326   6.349
 4884TIP3    H214598   1.395   6.427   6.252
 4885TIP3   OH214599   7.840   4.215   1.316
 4885TIP3    H114600   7.928   4.238   1.347
 4885TIP3    H214601   7.787   4.208   1.395
 4886TIP3   OH214602   1.272   1.088   1.348
 4886TIP3    H114603   1.343   1.062   1.289
 4886TIP3    H214604   1.302   1.063   1.435
 4887TIP3   OH214605   6.565   5.272   1.996
 4887TIP3    H114606   6.564   5.229   1.910
 4887TIP3    H214607   6.474   5.273   2.024
 4888TIP3   OH214608   5.448   1.050   0.958
 4888TIP3    H114609   5.543   1.038   0.967
 4888TIP3    H214610   5.412   1.016   1.040
 4889TIP3   OH214611   3.408   7.694   5.095
 4889TIP3    H114612   3.313   7.706   5.092
 4889TIP3    H214613   3.438   7.713   5.006
 4890TIP3   OH214614   2.414   4.426   2.844
 4890TIP3    H114615   2.379   4.458   2.761
 4890TIP3    H214616   2.508   4.441   2.838
 4891TIP3   OH214617   2.559   3.780   5.913
 4891TIP3    H114618   2.529   3.711   5.855
 4891TIP3    H214619   2.492   3.849   5.905
 4892TIP3   OH214620   4.802   6.624   0.897
 4892TIP3    H114621   4.868   6.615   0.828
 4892TIP3    H214622   4.769   6.713   0.887
 4893TIP3   OH214623   0.972   2.015   2.626
 4893TIP3    H114624   0.967   1.920   2.635
 4893TIP3    H214625   0.912   2.035   2.553
 4894TIP3   OH214626   5.136   4.007   6.285
 4894TIP3    H114627   5.041   4.014   6.288
 4894TIP3    H214628   5.164   4.020   6.376
 4895TIP3   OH214629   3.798   6.803   5.271
 4895TIP3    H114630   3.891   6.797   5.250
 4895TIP3    H214631   3.795   6.837   5.360
 4896TIP3   OH214632   2.943   4.963   3.375
 4896TIP3    H114633   2.908   4.875   3.387
 4896TIP3    H214634   2.974   4.965   3.284
 4897TIP3   OH214635   0.344   6.830   3.718
 4897TIP3    H114636   0.293   6.910   3.724
 4897TIP3    H214637   0.353   6.800   3.808
 4898TIP3   OH214638   7.565   2.576   5.385
 4898TIP3    H114639   7.605   2.644   5.331
 4898TIP3    H214640   7.485   2.617   5.420
 4899TIP3   OH214641   2.515   7.045   5.533
 4899TIP3    H114642   2.500   7.052   5.627
 4899TIP3    H214643   2.515   6.951   5.515
 4900TIP3   OH214644   2.290   3.158   4.056
 4900TIP3    H114645   2.350   3.138   3.985
 4900TIP3    H214646   2.247   3.240   4.029
 4901TIP3   OH214647   6.537   5.503   4.287
 4901TIP3    H114648   6.531   5.596   4.264
 4901TIP3    H214649   6.631   5.485   4.289
 4902TIP3   OH214650   5.057   4.875   6.157
 4902TIP3    H114651   4.969   4.877   6.194
 4902TIP3    H214652   5.116   4.873   6.232
 4903TIP3   OH214653   7.955   3.780   3.919
 4903TIP3    H114654   7.891   3.850   3.913
 4903TIP3    H214655   8.035   3.823   3.948
 4904TIP3   OH214656   5.115   2.694   5.295
 4904TIP3    H114657   5.127   2.600   5.287
 4904TIP3    H214658   5.043   2.714   5.236
 4905TIP3   OH214659   4.331   7.593   4.150
 4905TIP3    H114660   4.414   7.573   4.193
 4905TIP3    H214661   4.265   7.581   4.219
 4906TIP3   OH214662   8.106   4.676   1.691
 4906TIP3    H114663   8.109   4.752   1.634
 4906TIP3    H214664   8.042   4.618   1.650
 4907TIP3   OH214665   8.163   4.653   2.006
 4907TIP3    H114666   8.110   4.690   2.077
 4907TIP3    H214667   8.165   4.722   1.940
 4908TIP3   OH214668   6.123   1.757   4.353
 4908TIP3    H114669   6.190   1.824   4.353
 4908TIP3    H214670   6.170   1.675   4.336
 4909TIP3   OH214671   4.692   4.323   3.633
 4909TIP3    H114672   4.622   4.331   3.567
 4909TIP3    H214673   4.650   4.347   3.715
 4910TIP3   OH214674   2.455   0.496   6.223
 4910TIP3    H114675   2.550   0.488   6.233
 4910TIP3    H214676   2.441   0.485   6.129
 4911TIP3   OH214677   6.600   1.787   1.363
 4911TIP3    H114678   6.586   1.692   1.362
 4911TIP3    H214679   6.650   1.803   1.443
 4912TIP3   OH214680   4.308   1.918   4.188
 4912TIP3    H114681   4.226   1.902   4.142
 4912TIP3    H214682   4.339   2.002   4.153
 4913TIP3   OH214683   0.137   2.098   5.227
 4913TIP3    H114684   0.088   2.179   5.211
 4913TIP3    H214685   0.164   2.069   5.140
 4914TIP3   OH214686   6.679   1.913   5.827
 4914TIP3    H114687   6.601   1.938   5.877
 4914TIP3    H214688   6.752   1.940   5.883
 4915TIP3   OH214689   3.616   6.253   3.733
 4915TIP3    H114690   3.650   6.164   3.721
 4915TIP3    H214691   3.649   6.302   3.658
 4916TIP3   OH214692   4.401   4.615   1.429
 4916TIP3    H114693   4.447   4.547   1.379
 4916TIP3    H214694   4.347   4.567   1.491
 4917TIP3   OH214695   1.990   6.906   4.770
 4917TIP3    H114696   1.937   6.827   4.758
 4917TIP3    H214697   2.080   6.873   4.774
 4918TIP3   OH214698   4.914   4.186   3.552
 4918TIP3    H114699   4.888   4.094   3.549
 4918TIP3    H214700   4.834   4.233   3.575
 4919TIP3   OH214701   8.014   0.280   6.696
 4919TIP3    H114702   8.084   0.292   6.759
 4919TIP3    H214703   8.021   0.189   6.668
 4920TIP3   OH214704   4.281   0.408   5.877
 4920TIP3    H114705   4.245   0.343   5.817
 4920TIP3    H214706   4.243   0.491   5.848
 4921TIP3   OH214707   5.713   3.737   1.758
 4921TIP3    H114708   5.738   3.778   1.840
 4921TIP3    H214709   5.635   3.687   1.778
 4922TIP3   OH214710   8.165   6.267   2.093
 4922TIP3    H114711   8.159   6.301   2.183
 4922TIP3    H214712   8.256   6.239   2.085
 4923TIP3   OH214713   1.482   1.552   6.646
 4923TIP3    H114714   1.453   1.623   6.589
 4923TIP3    H214715   1.471   1.473   6.593
 4924TIP3   OH214716   1.528   6.651   4.787
 4924TIP3    H114717   1.466   6.685   4.722
 4924TIP3    H214718   1.540   6.560   4.763
 4925TIP3   OH214719   5.826   1.334   2.318
 4925TIP3    H114720   5.841   1.424   2.288
 4925TIP3    H214721   5.806   1.286   2.237
 4926TIP3   OH214722   8.064   3.903   4.507
 4926TIP3    H114723   8.088   3.823   4.461
 4926TIP3    H214724   8.071   3.880   4.600
 4927TIP3   OH214725   4.547   2.995   0.409
 4927TIP3    H114726   4.627   3.036   0.376
 4927TIP3    H214727   4.548   3.013   0.503
 4928TIP3   OH214728   1.646   7.535   2.278
 4928TIP3    H114729   1.708   7.491   2.336
 4928TIP3    H214730   1.641   7.479   2.201
 4929TIP3   OH214731   1.295   6.157   4.564
 4929TIP3    H114732   1.378   6.171   4.518
 4929TIP3    H214733   1.259   6.077   4.524
 4930TIP3   OH214734   0.888   3.927   3.543
 4930TIP3    H114735   0.938   3.855   3.581
 4930TIP3    H214736   0.877   3.903   3.451
 4931TIP3   OH214737   3.248   6.104   5.405
 4931TIP3    H114738   3.190   6.095   5.330
 4931TIP3    H214739   3.313   6.169   5.379
 4932TIP3   OH214740   1.813   3.337   1.657
 4932TIP3    H114741   1.908   3.337   1.651
 4932TIP3    H214742   1.786   3.253   1.619
 4933TIP3   OH214743   2.236   5.019   0.272
 4933TIP3    H114744   2.300   5.064   0.216
 4933TIP3    H214745   2.274   4.932   0.285
 4934TIP3   OH214746   0.912   1.043   5.913
 4934TIP3    H114747   0.994   1.031   5.866
 4934TIP3    H214748   0.933   1.103   5.984
 4935TIP3   OH214749   1.222   1.745   1.877
 4935TIP3    H114750   1.175   1.792   1.945
 4935TIP3    H214751   1.301   1.711   1.920
 4936TIP3   OH214752   1.613   3.898   2.316
 4936TIP3    H114753   1.619   3.808   2.283
 4936TIP3    H214754   1.702   3.933   2.307
 4937TIP3   OH214755   7.569   3.279   3.677
 4937TIP3    H114756   7.480   3.249   3.661
 4937TIP3    H214757   7.624   3.217   3.630
 4938TIP3   OH214758   5.944   3.626   5.839
 4938TIP3    H114759   5.903   3.712   5.836
 4938TIP3    H214760   5.899   3.580   5.910
 4939TIP3   OH214761   4.929   5.454   2.849
 4939TIP3    H114762   4.958   5.449   2.940
 4939TIP3    H214763   4.872   5.378   2.837
 4940TIP3   OH214764   4.975   7.326   5.819
 4940TIP3    H114765   4.935   7.302   5.736
 4940TIP3    H214766   5.065   7.293   5.813
 4941TIP3   OH214767   5.916   3.872   0.362
 4941TIP3    H114768   5.931   3.967   0.359
 4941TIP3    H214769   5.946   3.840   0.277
 4942TIP3   OH214770   5.868   6.450   1.607
 4942TIP3    H114771   5.838   6.364   1.578
 4942TIP3    H214772   5.842   6.509   1.536
 4943TIP3   OH214773   7.995   7.407   3.580
 4943TIP3    H114774   7.962   7.442   3.497
 4943TIP3    H214775   8.002   7.484   3.637
 4944TIP3   OH214776   7.865   6.399   2.315
 4944TIP3    H114777   7.783   6.449   2.310
 4944TIP3    H214778   7.837   6.307   2.316
 4945TIP3   OH214779   6.700   4.998   6.492
 4945TIP3    H114780   6.754   4.996   6.571
 4945TIP3    H214781   6.640   5.072   6.506
 4946TIP3   OH214782   1.845   1.361   2.103
 4946TIP3    H114783   1.842   1.277   2.058
 4946TIP3    H214784   1.832   1.339   2.195
 4947TIP3   OH214785   6.793   0.877   5.099
 4947TIP3    H114786   6.751   0.962   5.103
 4947TIP3    H214787   6.721   0.814   5.102
 4948TIP3   OH214788   0.950   1.658   6.310
 4948TIP3    H114789   0.895   1.602   6.255
 4948TIP3    H214790   0.976   1.729   6.251
 4949TIP3   OH214791   3.720   5.132   4.601
 4949TIP3    H114792   3.783   5.123   4.529
 4949TIP3    H214793   3.710   5.043   4.636
 4950TIP3   OH214794   1.972   5.750   2.393
 4950TIP3    H114795   1.994   5.687   2.462
 4950TIP3    H214796   2.038   5.819   2.401
 4951TIP3   OH214797   6.754   0.906   2.338
 4951TIP3    H114798   6.690   0.972   2.363
 4951TIP3    H214799   6.799   0.883   2.420
 4952TIP3   OH214800   3.315   7.057   4.268
 4952TIP3    H114801   3.227   7.037   4.301
 4952TIP3    H214802   3.371   7.051   4.345
 4953TIP3   OH214803   5.566   5.909   6.385
 4953TIP3    H114804   5.495   5.932   6.325
 4953TIP3    H214805   5.583   5.817   6.367
 4954TIP3   OH214806   1.777   2.431   4.610
 4954TIP3    H114807   1.747   2.340   4.608
 4954TIP3    H214808   1.757   2.464   4.522
 4955TIP3   OH214809   5.179   0.613   2.278
 4955TIP3    H114810   5.219   0.527   2.288
 4955TIP3    H214811   5.224   0.651   2.202
 4956TIP3   OH214812   4.901   1.829   1.216
 4956TIP3    H114813   4.959   1.860   1.286
 4956TIP3    H214814   4.847   1.905   1.195
 4957TIP3   OH214815   4.045   6.230   2.400
 4957TIP3    H114816   4.137   6.205   2.398
 4957TIP3    H214817   4.020   6.236   2.308
 4958TIP3   OH214818   1.129   5.067   6.007
 4958TIP3    H114819   1.052   5.072   6.062
 4958TIP3    H214820   1.095   5.066   5.918
 4959TIP3   OH214821   6.976   0.128   6.170
 4959TIP3    H114822   7.011   0.041   6.154
 4959TIP3    H214823   6.929   0.121   6.254
 4960TIP3   OH214824   7.821   5.139   5.294
 4960TIP3    H114825   7.882   5.090   5.349
 4960TIP3    H214826   7.757   5.175   5.355
 4961TIP3   OH214827   7.857   7.385   6.462
 4961TIP3    H114828   7.832   7.298   6.428
 4961TIP3    H214829   7.849   7.443   6.386
 4962TIP3   OH214830   5.537   4.965   6.677
 4962TIP3    H114831   5.533   4.945   6.771
 4962TIP3    H214832   5.627   4.995   6.663
 4963TIP3   OH214833   6.395   5.145   5.212
 4963TIP3    H114834   6.475   5.120   5.167
 4963TIP3    H214835   6.382   5.237   5.188
 4964TIP3   OH214836   6.405   6.978   6.305
 4964TIP3    H114837   6.473   7.028   6.350
 4964TIP3    H214838   6.429   6.984   6.213
 4965TIP3   OH214839   5.431   2.727   4.366
 4965TIP3    H114840   5.389   2.743   4.451
 4965TIP3    H214841   5.423   2.810   4.320
 4966TIP3   OH214842   5.505   1.828   2.939
 4966TIP3    H114843   5.466   1.754   2.892
 4966TIP3    H214844   5.545   1.788   3.016
 4967TIP3   OH214845   1.855   6.827   4.070
 4967TIP3    H114846   1.895   6.893   4.013
 4967TIP3    H214847   1.836   6.875   4.151
 4968TIP3   OH214848   2.837   3.467   3.512
 4968TIP3    H114849   2.843   3.472   3.416
 4968TIP3    H214850   2.777   3.394   3.528
 4969TIP3   OH214851   1.320   1.935   3.728
 4969TIP3    H114852   1.362   2.021   3.729
 4969TIP3    H214853   1.365   1.885   3.795
 4970TIP3   OH214854   3.417   6.200   6.490
 4970TIP3    H114855   3.351   6.197   6.421
 4970TIP3    H214856   3.394   6.277   6.542
 4971TIP3   OH214857   0.278   6.061   4.972
 4971TIP3    H114858   0.370   6.043   4.954
 4971TIP3    H214859   0.233   5.981   4.946
 4972TIP3   OH214860   4.094   4.417   2.148
 4972TIP3    H114861   4.166   4.374   2.102
 4972TIP3    H214862   4.132   4.497   2.183
 4973TIP3   OH214863   3.384   4.490   0.620
 4973TIP3    H114864   3.306   4.506   0.567
 4973TIP3    H214865   3.352   4.451   0.701
 4974TIP3   OH214866   4.949   6.934   4.398
 4974TIP3    H114867   4.914   6.952   4.485
 4974TIP3    H214868   5.007   6.858   4.411
 4975TIP3   OH214869   2.589   5.792   5.850
 4975TIP3    H114870   2.566   5.719   5.792
 4975TIP3    H214871   2.657   5.840   5.803
 4976TIP3   OH214872   4.669   0.289   1.766
 4976TIP3    H114873   4.728   0.364   1.758
 4976TIP3    H214874   4.721   0.213   1.740
 4977TIP3   OH214875   2.364   5.984   4.682
 4977TIP3    H114876   2.350   5.997   4.776
 4977TIP3    H214877   2.282   5.946   4.651
 4978TIP3   OH214878   0.130   5.424   3.671
 4978TIP3    H114879   0.171   5.360   3.612
 4978TIP3    H214880   0.080   5.371   3.733
 4979TIP3   OH214881   5.912   1.909   6.677
 4979TIP3    H114882   5.860   1.848   6.624
 4979TIP3    H214883   5.959   1.853   6.739
 4980TIP3   OH214884   6.777   0.194   0.556
 4980TIP3    H114885   6.863   0.183   0.516
 4980TIP3    H214886   6.794   0.203   0.650
 4981TIP3   OH214887   5.963   7.044   6.510
 4981TIP3    H114888   5.989   6.953   6.495
 4981TIP3    H214889   5.867   7.043   6.505
 4982TIP3   OH214890   1.394   7.410   6.264
 4982TIP3    H114891   1.310   7.368   6.284
 4982TIP3    H214892   1.450   7.339   6.234
 4983TIP3   OH214893   8.195   4.157   5.153
 4983TIP3    H114894   8.144   4.145   5.233
 4983TIP3    H214895   8.285   4.138   5.179
 4984TIP3   OH214896   7.131   3.590   6.693
 4984TIP3    H114897   7.036   3.598   6.684
 4984TIP3    H214898   7.147   3.595   6.787
 4985TIP3   OH214899   3.399   0.217   5.181
 4985TIP3    H114900   3.454   0.164   5.123
 4985TIP3    H214901   3.460   0.254   5.245
 4986TIP3   OH214902   1.691   5.717   5.752
 4986TIP3    H114903   1.738   5.795   5.723
 4986TIP3    H214904   1.706   5.653   5.682
 4987TIP3   OH214905   6.397   0.413   5.217
 4987TIP3    H114906   6.469   0.476   5.224
 4987TIP3    H214907   6.401   0.362   5.298
 4988TIP3   OH214908   8.235   2.582   0.029
 4988TIP3    H114909   8.258   2.596  -0.063
 4988TIP3    H214910   8.296   2.514   0.059
 4989TIP3   OH214911   0.600   3.362   4.489
 4989TIP3    H114912   0.552   3.441   4.466
 4989TIP3    H214913   0.533   3.293   4.492
 4990TIP3   OH214914   3.807   2.671   5.142
 4990TIP3    H114915   3.880   2.633   5.191
 4990TIP3    H214916   3.733   2.613   5.161
 4991TIP3   OH214917   4.668   3.110   0.896
 4991TIP3    H114918   4.713   3.155   0.967
 4991TIP3    H214919   4.725   3.121   0.820
 4992TIP3   OH214920   5.780   7.007   4.270
 4992TIP3    H114921   5.758   6.953   4.194
 4992TIP3    H214922   5.876   7.007   4.271
 4993TIP3   OH214923   6.839   5.269   4.885
 4993TIP3    H114924   6.931   5.290   4.898
 4993TIP3    H214925   6.833   5.247   4.792
 4994TIP3   OH214926   1.631   0.905   6.665
 4994TIP3    H114927   1.702   0.900   6.601
 4994TIP3    H214928   1.621   0.815   6.697
 4995TIP3   OH214929   0.761   1.455   4.130
 4995TIP3    H114930   0.687   1.395   4.125
 4995TIP3    H214931   0.815   1.432   4.055
 4996TIP3   OH214932   3.908   2.235   3.624
 4996TIP3    H114933   3.946   2.183   3.553
 4996TIP3    H214934   3.814   2.216   3.620
 4997TIP3   OH214935   3.049   0.493   4.494
 4997TIP3    H114936   3.081   0.543   4.569
 4997TIP3    H214937   3.057   0.552   4.420
 4998TIP3   OH214938   2.536   1.590   1.184
 4998TIP3    H114939   2.448   1.579   1.220
 4998TIP3    H214940   2.591   1.608   1.261
 4999TIP3   OH214941   3.309   4.234   5.108
 4999TIP3    H114942   3.291   4.163   5.046
 4999TIP3    H214943   3.249   4.304   5.082
 5000TIP3   OH214944   6.377   4.861   0.285
 5000TIP3    H114945   6.297   4.914   0.285
 5000TIP3    H214946   6.412   4.872   0.196
 5001TIP3   OH214947   7.295   1.964   1.259
 5001TIP3    H114948   7.360   1.982   1.191
 5001TIP3    H214949   7.345   1.922   1.329
 5002TIP3   OH214950   1.770   0.200   2.347
 5002TIP3    H114951   1.698   0.264   2.350
 5002TIP3    H214952   1.730   0.118   2.377
 5003TIP3   OH214953   6.280   1.243   4.312
 5003TIP3    H114954   6.347   1.291   4.265
 5003TIP3    H214955   6.327   1.175   4.360
 5004TIP3   OH214956   3.150   4.846   4.045
 5004TIP3    H114957   3.239   4.880   4.055
 5004TIP3    H214958   3.161   4.768   3.991
 5005TIP3   OH214959   4.407   2.781   5.008
 5005TIP3    H114960   4.460   2.758   4.932
 5005TIP3    H214961   4.326   2.816   4.971
 5006TIP3   OH214962   0.984   1.491   1.051
 5006TIP3    H114963   1.071   1.463   1.021
 5006TIP3    H214964   0.933   1.411   1.056
 5007TIP3   OH214965   4.930   0.664   0.122
 5007TIP3    H114966   4.938   0.754   0.152
 5007TIP3    H214967   5.000   0.617   0.168
 5008TIP3   OH214968   6.282   0.099   6.214
 5008TIP3    H114969   6.335   0.049   6.277
 5008TIP3    H214970   6.198   0.052   6.212
 5009TIP3   OH214971   5.386   2.573   0.462
 5009TIP3    H114972   5.423   2.639   0.402
 5009TIP3    H214973   5.444   2.575   0.538
 5010TIP3   OH214974   1.885   5.881   5.468
 5010TIP3    H114975   1.871   5.940   5.543
 5010TIP3    H214976   1.805   5.888   5.417
 5011TIP3   OH214977   4.108   2.082   5.756
 5011TIP3    H114978   4.177   2.073   5.822
 5011TIP3    H214979   4.144   2.039   5.678
 5012TIP3   OH214980   7.959   4.162   6.671
 5012TIP3    H114981   7.972   4.134   6.762
 5012TIP3    H214982   8.048   4.165   6.634
 5013TIP3   OH214983   6.680   0.418   3.224
 5013TIP3    H114984   6.769   0.382   3.224
 5013TIP3    H214985   6.623   0.342   3.233
 5014TIP3   OH214986   2.988   6.717   4.296
 5014TIP3    H114987   3.010   6.744   4.207
 5014TIP3    H214988   3.031   6.631   4.306
 5015TIP3   OH214989   3.334   5.786   4.768
 5015TIP3    H114990   3.383   5.706   4.785
 5015TIP3    H214991   3.283   5.800   4.848
 5016TIP3   OH214992   1.627   0.598   5.058
 5016TIP3    H114993   1.627   0.506   5.031
 5016TIP3    H214994   1.692   0.603   5.128
 5017TIP3   OH214995   5.966   5.647   2.520
 5017TIP3    H114996   5.946   5.733   2.485
 5017TIP3    H214997   5.912   5.639   2.598
 5018TIP3   OH214998   7.988   4.430   3.408
 5018TIP3    H114999   8.003   4.413   3.315
 5018TIP3    H215000   7.991   4.344   3.450
 5019TIP3   OH215001   6.950   0.692   1.063
 5019TIP3    H115002   6.937   0.697   0.968
 5019TIP3    H215003   6.869   0.653   1.096
 5020TIP3   OH215004   1.203   4.459   1.910
 5020TIP3    H115005   1.190   4.541   1.862
 5020TIP3    H215006   1.295   4.460   1.936
 5021TIP3   OH215007   5.190   2.620   2.405
 5021TIP3    H115008   5.096   2.614   2.418
 5021TIP3    H215009   5.202   2.698   2.350
 5022TIP3   OH215010   7.145   5.356   0.134
 5022TIP3    H115011   7.163   5.278   0.082
 5022TIP3    H215012   7.179   5.428   0.081
 5023TIP3   OH215013   1.739   3.284   4.361
 5023TIP3    H115014   1.651   3.310   4.388
 5023TIP3    H215015   1.736   3.189   4.359
 5024TIP3   OH215016   8.213   3.455   4.180
 5024TIP3    H115017   8.202   3.361   4.197
 5024TIP3    H215018   8.158   3.498   4.246
 5025TIP3   OH215019   2.957   0.455   1.758
 5025TIP3    H115020   2.992   0.493   1.677
 5025TIP3    H215021   2.863   0.465   1.750
 5026TIP3   OH215022   6.999   3.894   5.109
 5026TIP3    H115023   6.928   3.893   5.044
 5026TIP3    H215024   6.977   3.966   5.167
 5027TIP3   OH215025   3.216   3.854   4.679
 5027TIP3    H115026   3.219   3.808   4.763
 5027TIP3    H215027   3.277   3.807   4.623
 5028TIP3   OH215028   1.170   5.499   6.595
 5028TIP3    H115029   1.091   5.540   6.560
 5028TIP3    H215030   1.210   5.455   6.520
 5029TIP3   OH215031   1.491   5.792   1.158
 5029TIP3    H115032   1.529   5.840   1.084
 5029TIP3    H215033   1.534   5.707   1.156
 5030TIP3   OH215034   1.773   0.514   4.598
 5030TIP3    H115035   1.868   0.512   4.588
 5030TIP3    H215036   1.758   0.568   4.675
 5031TIP3   OH215037   5.424   3.729   4.567
 5031TIP3    H115038   5.341   3.777   4.557
 5031TIP3    H215039   5.449   3.706   4.478
 5032TIP3   OH215040   0.425   6.218   1.274
 5032TIP3    H115041   0.426   6.163   1.195
 5032TIP3    H215042   0.504   6.272   1.266
 5033TIP3   OH215043   3.913   6.851   1.599
 5033TIP3    H115044   3.819   6.856   1.615
 5033TIP3    H215045   3.930   6.922   1.536
 5034TIP3   OH215046   2.231   2.387   2.885
 5034TIP3    H115047   2.311   2.388   2.937
 5034TIP3    H215048   2.239   2.462   2.826
 5035TIP3   OH215049   6.496   7.695   3.366
 5035TIP3    H115050   6.546   7.749   3.427
 5035TIP3    H215051   6.478   7.752   3.292
 5036TIP3   OH215052   7.183   0.534   3.454
 5036TIP3    H115053   7.197   0.597   3.524
 5036TIP3    H215054   7.253   0.552   3.391
 5037TIP3   OH215055   5.735   4.951   2.782
 5037TIP3    H115056   5.805   5.002   2.821
 5037TIP3    H215057   5.666   4.950   2.848
 5038TIP3   OH215058   0.806   5.383   6.018
 5038TIP3    H115059   0.763   5.468   6.026
 5038TIP3    H215060   0.765   5.329   6.085
 5039TIP3   OH215061   1.840   3.007   1.876
 5039TIP3    H115062   1.803   3.055   1.803
 5039TIP3    H215063   1.881   2.930   1.836
 5040TIP3   OH215064   7.997   3.917   5.845
 5040TIP3    H115065   7.950   3.877   5.771
 5040TIP3    H215066   7.984   4.011   5.834
 5041TIP3   OH215067   4.932   7.757   2.684
 5041TIP3    H115068   4.880   7.790   2.610
 5041TIP3    H215069   4.999   7.823   2.697
 5042TIP3   OH215070   3.127   7.685   3.115
 5042TIP3    H115071   3.146   7.675   3.209
 5042TIP3    H215072   3.149   7.776   3.096
 5043TIP3   OH215073   4.452   5.833   0.559
 5043TIP3    H115074   4.454   5.828   0.464
 5043TIP3    H215075   4.485   5.748   0.588
 5044TIP3   OH215076   0.494   3.598   6.091
 5044TIP3    H115077   0.508   3.521   6.146
 5044TIP3    H215078   0.578   3.611   6.047
 5045TIP3   OH215079   3.981   3.053   0.466
 5045TIP3    H115080   3.962   2.975   0.519
 5045TIP3    H215081   4.001   3.120   0.531
 5046TIP3   OH215082   3.400   2.697   6.362
 5046TIP3    H115083   3.347   2.619   6.375
 5046TIP3    H215084   3.435   2.718   6.448
 5047TIP3   OH215085   6.997   1.693   4.483
 5047TIP3    H115086   6.958   1.607   4.467
 5047TIP3    H215087   7.066   1.701   4.417
 5048TIP3   OH215088   1.124   4.900   2.185
 5048TIP3    H115089   1.194   4.850   2.144
 5048TIP3    H215090   1.090   4.842   2.254
 5049TIP3   OH215091   4.536   2.102   6.249
 5049TIP3    H115092   4.594   2.028   6.266
 5049TIP3    H215093   4.467   2.093   6.315
 5050TIP3   OH215094   3.536   3.039   4.183
 5050TIP3    H115095   3.623   3.017   4.215
 5050TIP3    H215096   3.552   3.106   4.115
 5051TIP3   OH215097   5.007   4.697   3.463
 5051TIP3    H115098   5.102   4.694   3.473
 5051TIP3    H215099   4.974   4.632   3.524
 5052TIP3   OH215100   6.713   3.896   6.301
 5052TIP3    H115101   6.782   3.904   6.367
 5052TIP3    H215102   6.754   3.921   6.219
 5053TIP3   OH215103   0.779   6.558   5.930
 5053TIP3    H115104   0.864   6.566   5.888
 5053TIP3    H215105   0.724   6.512   5.866
 5054TIP3   OH215106   1.065   1.344   6.539
 5054TIP3    H115107   1.003   1.280   6.504
 5054TIP3    H215108   1.111   1.297   6.609
 5055TIP3   OH215109   6.044   3.612   2.629
 5055TIP3    H115110   5.995   3.671   2.573
 5055TIP3    H215111   6.135   3.643   2.623
 5056TIP3   OH215112   5.669   2.470   3.680
 5056TIP3    H115113   5.575   2.458   3.671
 5056TIP3    H215114   5.706   2.435   3.599
 5057TIP3   OH215115   2.653   5.054   0.228
 5057TIP3    H115116   2.728   5.102   0.193
 5057TIP3    H215117   2.691   4.975   0.268
 5058TIP3   OH215118   5.865   3.166   4.882
 5058TIP3    H115119   5.788   3.222   4.881
 5058TIP3    H215120   5.841   3.090   4.828
 5059TIP3   OH215121   3.604   0.691   5.592
 5059TIP3    H115122   3.549   0.713   5.517
 5059TIP3    H215123   3.595   0.766   5.651
 5060TIP3   OH215124   7.145   1.717   4.728
 5060TIP3    H115125   7.095   1.682   4.655
 5060TIP3    H215126   7.214   1.769   4.687
 5061TIP3   OH215127   3.064   0.220   2.457
 5061TIP3    H115128   3.047   0.185   2.544
 5061TIP3    H215129   3.132   0.162   2.421
 5062TIP3   OH215130   3.578   5.164   6.537
 5062TIP3    H115131   3.570   5.239   6.479
 5062TIP3    H215132   3.496   5.117   6.528
 5063TIP3   OH215133   0.744   1.321   1.314
 5063TIP3    H115134   0.771   1.382   1.383
 5063TIP3    H215135   0.820   1.265   1.300
 5064TIP3   OH215136   1.572   2.339   6.266
 5064TIP3    H115137   1.592   2.394   6.190
 5064TIP3    H215138   1.616   2.256   6.248
 5065TIP3   OH215139   4.118   6.064   0.819
 5065TIP3    H115140   4.214   6.065   0.822
 5065TIP3    H215141   4.093   6.153   0.842
 5066TIP3   OH215142   7.185   6.348   3.424
 5066TIP3    H115143   7.279   6.363   3.428
 5066TIP3    H215144   7.147   6.433   3.399
 5067TIP3   OH215145   4.418   6.593   0.028
 5067TIP3    H115146   4.477   6.650  -0.022
 5067TIP3    H215147   4.471   6.563   0.102
 5068TIP3   OH215148   5.406   7.070   5.554
 5068TIP3    H115149   5.335   7.100   5.611
 5068TIP3    H215150   5.471   7.140   5.558
 5069TIP3   OH215151   2.826   4.701   1.342
 5069TIP3    H115152   2.789   4.784   1.311
 5069TIP3    H215153   2.921   4.715   1.341
 5070TIP3   OH215154   7.143   3.907   1.549
 5070TIP3    H115155   7.225   3.922   1.597
 5070TIP3    H215156   7.169   3.900   1.458
 5071TIP3   OH215157   6.651   2.869   4.702
 5071TIP3    H115158   6.590   2.840   4.770
 5071TIP3    H215159   6.701   2.940   4.743
 5072TIP3   OH215160   0.861   1.960   5.248
 5072TIP3    H115161   0.875   1.875   5.206
 5072TIP3    H215162   0.874   1.943   5.341
 5073TIP3   OH215163   2.707   2.464   1.168
 5073TIP3    H115164   2.658   2.514   1.103
 5073TIP3    H215165   2.693   2.372   1.144
 5074TIP3   OH215166   2.773   3.431   1.350
 5074TIP3    H115167   2.863   3.445   1.319
 5074TIP3    H215168   2.736   3.519   1.357
 5075TIP3   OH215169   6.119   5.171   3.793
 5075TIP3    H115170   6.057   5.205   3.728
 5075TIP3    H215171   6.205   5.199   3.762
 5076TIP3   OH215172   8.294   0.776   5.614
 5076TIP3    H115173   8.231   0.848   5.625
 5076TIP3    H215174   8.345   0.801   5.537
 5077TIP3   OH215175   4.576   0.932   0.932
 5077TIP3    H115176   4.652   0.905   0.983
 5077TIP3    H215177   4.589   0.892   0.845
 5078TIP3   OH215178   1.265   6.982   3.962
 5078TIP3    H115179   1.247   6.909   4.021
 5078TIP3    H215180   1.321   7.041   4.013
 5079TIP3   OH215181   3.103   0.818   0.767
 5079TIP3    H115182   3.091   0.793   0.859
 5079TIP3    H215183   3.039   0.887   0.753
 5080TIP3   OH215184   1.492   7.654   5.333
 5080TIP3    H115185   1.532   7.576   5.371
 5080TIP3    H215186   1.400   7.630   5.319
 5081TIP3   OH215187   7.285   6.968   6.662
 5081TIP3    H115188   7.259   6.878   6.644
 5081TIP3    H215189   7.302   6.969   6.757
 5082TIP3   OH215190   5.638   0.166   4.608
 5082TIP3    H115191   5.585   0.156   4.687
 5082TIP3    H215192   5.593   0.233   4.557
 5083TIP3   OH215193   4.886   5.503   5.631
 5083TIP3    H115194   4.834   5.460   5.563
 5083TIP3    H215195   4.837   5.582   5.653
 5084TIP3   OH215196   5.159   4.110   3.445
 5084TIP3    H115197   5.147   4.095   3.352
 5084TIP3    H215198   5.071   4.125   3.480
 5085TIP3   OH215199   0.385   7.806   2.607
 5085TIP3    H115200   0.389   7.739   2.539
 5085TIP3    H215201   0.464   7.857   2.596
 5086TIP3   OH215202   2.506   3.641   1.634
 5086TIP3    H115203   2.511   3.546   1.629
 5086TIP3    H215204   2.586   3.666   1.680
 5087TIP3   OH215205   7.711   7.175   5.706
 5087TIP3    H115206   7.734   7.101   5.651
 5087TIP3    H215207   7.675   7.136   5.786
 5088TIP3   OH215208   4.062   0.818   1.935
 5088TIP3    H115209   4.157   0.823   1.924
 5088TIP3    H215210   4.035   0.745   1.878
 5089TIP3   OH215211   4.584   6.516   0.241
 5089TIP3    H115212   4.617   6.441   0.291
 5089TIP3    H215213   4.597   6.591   0.300
 5090TIP3   OH215214   5.402   5.107   0.002
 5090TIP3    H115215   5.392   5.097   0.096
 5090TIP3    H215216   5.315   5.133  -0.029
 5091TIP3   OH215217   6.477   0.311   1.537
 5091TIP3    H115218   6.467   0.391   1.589
 5091TIP3    H215219   6.545   0.261   1.581
 5092TIP3   OH215220   4.168   2.035   2.315
 5092TIP3    H115221   4.206   2.081   2.240
 5092TIP3    H215222   4.183   2.092   2.389
 5093TIP3   OH215223   0.203   3.678   1.199
 5093TIP3    H115224   0.139   3.747   1.217
 5093TIP3    H215225   0.237   3.698   1.112
 5094TIP3   OH215226   0.917   1.680   1.944
 5094TIP3    H115227   0.966   1.761   1.958
 5094TIP3    H215228   0.840   1.707   1.894
 5095TIP3   OH215229   7.808   5.784   4.434
 5095TIP3    H115230   7.728   5.744   4.470
 5095TIP3    H215231   7.874   5.768   4.501
 5096TIP3   OH215232   2.376   0.498   1.773
 5096TIP3    H115233   2.281   0.505   1.758
 5096TIP3    H215234   2.415   0.548   1.701
 5097TIP3   OH215235   1.416   6.157   6.027
 5097TIP3    H115236   1.390   6.226   6.088
 5097TIP3    H215237   1.497   6.190   5.987
 5098TIP3   OH215238   3.329   5.822   5.519
 5098TIP3    H115239   3.267   5.881   5.475
 5098TIP3    H215240   3.345   5.865   5.603
 5099TIP3   OH215241   6.756   0.358   3.665
 5099TIP3    H115242   6.755   0.277   3.715
 5099TIP3    H215243   6.715   0.423   3.722
 5100TIP3   OH215244   0.059   1.703   0.799
 5100TIP3    H115245   0.029   1.787   0.834
 5100TIP3    H215246   0.038   1.640   0.867
 5101TIP3   OH215247   3.970   6.169   4.683
 5101TIP3    H115248   3.915   6.242   4.655
 5101TIP3    H215249   3.921   6.127   4.753
 5102TIP3   OH215250   2.938   2.918   5.460
 5102TIP3    H115251   2.861   2.880   5.417
 5102TIP3    H215252   2.903   2.963   5.536
 5103TIP3   OH215253   5.977   3.137   6.617
 5103TIP3    H115254   5.928   3.194   6.676
 5103TIP3    H215255   6.064   3.132   6.655
 5104TIP3   OH215256   5.144   5.668   5.031
 5104TIP3    H115257   5.187   5.652   5.114
 5104TIP3    H215258   5.131   5.763   5.029
 5105TIP3   OH215259   5.193   3.611   2.150
 5105TIP3    H115260   5.147   3.539   2.108
 5105TIP3    H215261   5.285   3.593   2.136
 5106TIP3   OH215262   3.986   3.440   1.629
 5106TIP3    H115263   3.995   3.370   1.564
 5106TIP3    H215264   4.004   3.397   1.713
 5107TIP3   OH215265   6.557   3.830   1.706
 5107TIP3    H115266   6.583   3.850   1.616
 5107TIP3    H215267   6.539   3.736   1.705
 5108TIP3   OH215268   2.424   5.897   0.825
 5108TIP3    H115269   2.423   5.943   0.741
 5108TIP3    H215270   2.471   5.816   0.808
 5109TIP3   OH215271   5.332   6.092   4.369
 5109TIP3    H115272   5.398   6.130   4.311
 5109TIP3    H215273   5.308   6.009   4.328
 5110TIP3   OH215274   5.987   2.767   1.947
 5110TIP3    H115275   6.049   2.750   1.877
 5110TIP3    H215276   6.022   2.844   1.993
 5111TIP3   OH215277   5.585   0.018   2.528
 5111TIP3    H115278   5.635   0.011   2.446
 5111TIP3    H215279   5.494   0.027   2.500
 5112TIP3   OH215280   2.475   5.969   0.564
 5112TIP3    H115281   2.570   5.959   0.568
 5112TIP3    H215282   2.461   6.058   0.531
 5113TIP3   OH215283   1.079   3.093   2.237
 5113TIP3    H115284   1.158   3.107   2.185
 5113TIP3    H215285   1.065   3.177   2.281
 5114TIP3   OH215286   0.029   0.850   1.258
 5114TIP3    H115287   0.077   0.918   1.304
 5114TIP3    H215288   0.018   0.780   1.322
 5115TIP3   OH215289   2.002   2.630   3.371
 5115TIP3    H115290   2.074   2.578   3.405
 5115TIP3    H215291   2.043   2.688   3.307
 5116TIP3   OH215292   2.443   1.444   4.884
 5116TIP3    H115293   2.385   1.508   4.925
 5116TIP3    H215294   2.494   1.496   4.822
 5117TIP3   OH215295   0.964   0.286   1.862
 5117TIP3    H115296   0.941   0.286   1.769
 5117TIP3    H215297   0.906   0.351   1.901
 5118TIP3   OH215298   7.535   3.393   0.299
 5118TIP3    H115299   7.569   3.456   0.363
 5118TIP3    H215300   7.595   3.397   0.225
 5119TIP3   OH215301   3.174   3.372   4.157
 5119TIP3    H115302   3.186   3.289   4.204
 5119TIP3    H215303   3.213   3.357   4.071
 5120TIP3   OH215304   1.452   1.073   6.507
 5120TIP3    H115305   1.359   1.047   6.505
 5120TIP3    H215306   1.498   0.993   6.532
 5121TIP3   OH215307   5.196   5.609   0.919
 5121TIP3    H115308   5.213   5.702   0.936
 5121TIP3    H215309   5.106   5.606   0.889
 5122TIP3   OH215310   5.832   5.660   2.787
 5122TIP3    H115311   5.928   5.662   2.792
 5122TIP3    H215312   5.803   5.697   2.870
 5123TIP3   OH215313   5.297   7.004   3.605
 5123TIP3    H115314   5.280   7.070   3.537
 5123TIP3    H215315   5.220   7.008   3.661
 5124TIP3   OH215316   5.211   4.630   2.993
 5124TIP3    H115317   5.253   4.689   2.929
 5124TIP3    H215318   5.131   4.675   3.018
 5125TIP3   OH215319   5.118   6.908   6.339
 5125TIP3    H115320   5.156   6.978   6.285
 5125TIP3    H215321   5.138   6.828   6.291
 5126TIP3   OH215322   1.104   7.564   2.726
 5126TIP3    H115323   1.095   7.660   2.722
 5126TIP3    H215324   1.032   7.532   2.671
 5127TIP3   OH215325   5.229   4.747   6.319
 5127TIP3    H115326   5.322   4.762   6.333
 5127TIP3    H215327   5.225   4.682   6.249
 5128TIP3   OH215328   2.248   1.866   2.870
 5128TIP3    H115329   2.198   1.844   2.948
 5128TIP3    H215330   2.292   1.784   2.847
 5129TIP3   OH215331   4.598   1.513   2.609
 5129TIP3    H115332   4.636   1.500   2.522
 5129TIP3    H215333   4.600   1.608   2.622
 5130TIP3   OH215334   1.607   6.355   5.932
 5130TIP3    H115335   1.603   6.445   5.965
 5130TIP3    H215336   1.696   6.348   5.897
 5131TIP3   OH215337   6.168   0.171   4.176
 5131TIP3    H115338   6.201   0.110   4.110
 5131TIP3    H215339   6.078   0.189   4.150
 5132TIP3   OH215340   6.066   2.432   0.903
 5132TIP3    H115341   6.052   2.340   0.925
 5132TIP3    H215342   6.072   2.434   0.808
 5133TIP3   OH215343   6.315   5.935   6.665
 5133TIP3    H115344   6.326   6.030   6.661
 5133TIP3    H215345   6.220   5.923   6.676
 5134TIP3   OH215346   4.296   7.386   2.771
 5134TIP3    H115347   4.371   7.366   2.714
 5134TIP3    H215348   4.220   7.364   2.717
 5135TIP3   OH215349   6.875   4.167   6.442
 5135TIP3    H115350   6.921   4.249   6.458
 5135TIP3    H215351   6.902   4.109   6.513
 5136TIP3   OH215352   0.821   6.743   6.129
 5136TIP3    H115353   0.793   6.686   6.057
 5136TIP3    H215354   0.739   6.771   6.170
 5137TIP3   OH215355   3.343   5.321   3.420
 5137TIP3    H115356   3.433   5.340   3.447
 5137TIP3    H215357   3.319   5.243   3.470
 5138TIP3   OH215358   6.098   3.163   3.839
 5138TIP3    H115359   6.079   3.222   3.913
 5138TIP3    H215360   6.062   3.209   3.763
 5139TIP3   OH215361   6.714   1.544   2.213
 5139TIP3    H115362   6.752   1.506   2.292
 5139TIP3    H215363   6.662   1.473   2.175
 5140TIP3   OH215364   3.673   6.349   3.480
 5140TIP3    H115365   3.766   6.349   3.458
 5140TIP3    H215366   3.629   6.333   3.396
 5141TIP3   OH215367   7.466   2.517   5.731
 5141TIP3    H115368   7.465   2.612   5.717
 5141TIP3    H215369   7.533   2.503   5.798
 5142TIP3   OH215370   7.176   5.534   6.238
 5142TIP3    H115371   7.174   5.584   6.319
 5142TIP3    H215372   7.251   5.476   6.247
 5143TIP3   OH215373   0.290   2.944   2.712
 5143TIP3    H115374   0.368   2.909   2.670
 5143TIP3    H215375   0.311   3.035   2.731
 5144TIP3   OH215376   4.284   5.901   5.574
 5144TIP3    H115377   4.351   5.928   5.637
 5144TIP3    H215378   4.202   5.930   5.614
 5145TIP3   OH215379   0.592   4.960   0.576
 5145TIP3    H115380   0.598   5.055   0.585
 5145TIP3    H215381   0.575   4.946   0.483
 5146TIP3   OH215382   4.213   6.070   2.031
 5146TIP3    H115383   4.237   5.984   1.998
 5146TIP3    H215384   4.222   6.063   2.126
 5147TIP3   OH215385   1.271   2.881   5.138
 5147TIP3    H115386   1.285   2.804   5.193
 5147TIP3    H215387   1.351   2.888   5.086
 5148TIP3   OH215388   2.018   3.523   1.441
 5148TIP3    H115389   2.024   3.540   1.535
 5148TIP3    H215390   1.975   3.601   1.405
 5149TIP3   OH215391   2.174   4.283   5.918
 5149TIP3    H115392   2.128   4.258   5.998
 5149TIP3    H215393   2.136   4.227   5.850
 5150TIP3   OH215394   7.436   7.247   4.262
 5150TIP3    H115395   7.356   7.225   4.311
 5150TIP3    H215396   7.463   7.164   4.223
 5151TIP3   OH215397   8.038   2.427   3.040
 5151TIP3    H115398   8.081   2.484   3.104
 5151TIP3    H215399   8.025   2.483   2.963
 5152TIP3   OH215400   5.277   3.712   3.568
 5152TIP3    H115401   5.232   3.632   3.543
 5152TIP3    H215402   5.301   3.699   3.660
 5153TIP3   OH215403   1.550   7.350   3.553
 5153TIP3    H115404   1.523   7.280   3.613
 5153TIP3    H215405   1.562   7.305   3.469
 5154TIP3   OH215406   3.148   2.954   3.995
 5154TIP3    H115407   3.071   2.902   4.016
 5154TIP3    H215408   3.122   3.006   3.919
 5155TIP3   OH215409   5.095   2.184   4.016
 5155TIP3    H115410   5.168   2.147   4.066
 5155TIP3    H215411   5.108   2.150   3.927
 5156TIP3   OH215412   5.742   5.904   2.675
 5156TIP3    H115413   5.785   5.821   2.697
 5156TIP3    H215414   5.671   5.911   2.739
 5157TIP3   OH215415   4.687   6.691   5.071
 5157TIP3    H115416   4.675   6.619   5.010
 5157TIP3    H215417   4.598   6.717   5.096
 5158TIP3   OH215418   2.380   7.487   6.662
 5158TIP3    H115419   2.311   7.431   6.696
 5158TIP3    H215420   2.435   7.507   6.738
 5159TIP3   OH215421   3.081   5.048   3.099
 5159TIP3    H115422   3.149   5.002   3.149
 5159TIP3    H215423   3.051   4.984   3.035
 5160TIP3   OH215424   5.467   7.349   3.051
 5160TIP3    H115425   5.553   7.373   3.086
 5160TIP3    H215426   5.461   7.254   3.067
 5161TIP3   OH215427   1.317   5.321   1.051
 5161TIP3    H115428   1.375   5.247   1.036
 5161TIP3    H215429   1.302   5.321   1.146
 5162TIP3   OH215430   0.628   3.184   1.009
 5162TIP3    H115431   0.594   3.161   1.095
 5162TIP3    H215432   0.639   3.279   1.011
 5163TIP3   OH215433   0.745   6.028   0.734
 5163TIP3    H115434   0.771   5.964   0.668
 5163TIP3    H215435   0.762   6.113   0.693
 5164TIP3   OH215436   5.937   0.841   6.172
 5164TIP3    H115437   5.984   0.859   6.253
 5164TIP3    H215438   5.867   0.781   6.198
 5165TIP3   OH215439   7.641   0.876   5.791
 5165TIP3    H115440   7.551   0.866   5.762
 5165TIP3    H215441   7.664   0.967   5.772
 5166TIP3   OH215442   5.576   3.443   4.226
 5166TIP3    H115443   5.621   3.492   4.294
 5166TIP3    H215444   5.504   3.399   4.273
 5167TIP3   OH215445   6.977   0.561   5.302
 5167TIP3    H115446   6.903   0.511   5.269
 5167TIP3    H215447   6.972   0.551   5.397
 5168TIP3   OH215448   7.939   6.553   3.578
 5168TIP3    H115449   8.034   6.561   3.568
 5168TIP3    H215450   7.905   6.636   3.544
 5169TIP3   OH215451   7.700   6.303   2.017
 5169TIP3    H115452   7.741   6.313   1.931
 5169TIP3    H215453   7.734   6.220   2.051
 5170TIP3   OH215454   1.595   2.684   3.608
 5170TIP3    H115455   1.676   2.724   3.576
 5170TIP3    H215456   1.571   2.622   3.540
 5171TIP3   OH215457   1.055   6.217   5.957
 5171TIP3    H115458   1.080   6.265   5.878
 5171TIP3    H215459   0.969   6.253   5.980
 5172TIP3   OH215460   5.846   4.555   2.754
 5172TIP3    H115461   5.873   4.646   2.761
 5172TIP3    H215462   5.795   4.538   2.833
 5173TIP3   OH215463   3.723   5.041   5.324
 5173TIP3    H115464   3.640   5.005   5.357
 5173TIP3    H215465   3.787   4.971   5.338
 5174TIP3   OH215466   3.957   5.568   5.816
 5174TIP3    H115467   3.894   5.516   5.865
 5174TIP3    H215468   3.910   5.648   5.794
 5175TIP3   OH215469   6.122   5.827   4.856
 5175TIP3    H115470   6.167   5.744   4.869
 5175TIP3    H215471   6.029   5.805   4.861
 5176TIP3   OH215472   5.404   3.356   1.333
 5176TIP3    H115473   5.332   3.336   1.274
 5176TIP3    H215474   5.465   3.283   1.323
 5177TIP3   OH215475   6.489   6.712   6.594
 5177TIP3    H115476   6.433   6.705   6.517
 5177TIP3    H215477   6.457   6.790   6.640
 5178TIP3   OH215478   3.767   5.170   1.631
 5178TIP3    H115479   3.827   5.244   1.634
 5178TIP3    H215480   3.724   5.170   1.717
 5179TIP3   OH215481   1.689   3.582   4.531
 5179TIP3    H115482   1.676   3.670   4.566
 5179TIP3    H215483   1.642   3.582   4.448
 5180TIP3   OH215484   5.758   7.588   3.579
 5180TIP3    H115485   5.737   7.673   3.618
 5180TIP3    H215486   5.683   7.568   3.524
 5181TIP3   OH215487   0.501   4.044   0.983
 5181TIP3    H115488   0.467   3.955   0.989
 5181TIP3    H215489   0.458   4.081   0.906
 5182TIP3   OH215490   7.889   3.405   6.570
 5182TIP3    H115491   7.972   3.447   6.546
 5182TIP3    H215492   7.850   3.380   6.486
 5183TIP3   OH215493   0.052   5.457   1.288
 5183TIP3    H115494   0.060   5.395   1.216
 5183TIP3    H215495   0.139   5.495   1.297
 5184TIP3   OH215496   7.709   7.477   1.548
 5184TIP3    H115497   7.665   7.501   1.466
 5184TIP3    H215498   7.796   7.446   1.521
 5185TIP3   OH215499   1.285   0.517   1.746
 5185TIP3    H115500   1.260   0.525   1.838
 5185TIP3    H215501   1.370   0.562   1.741
 5186TIP3   OH215502   4.923   5.087   1.532
 5186TIP3    H115503   4.945   5.127   1.616
 5186TIP3    H215504   4.971   5.139   1.468
 5187TIP3   OH215505   5.317   6.461   2.578
 5187TIP3    H115506   5.243   6.470   2.518
 5187TIP3    H215507   5.334   6.549   2.610
 5188TIP3   OH215508   5.463   3.697   4.308
 5188TIP3    H115509   5.517   3.762   4.263
 5188TIP3    H215510   5.466   3.620   4.251
 5189TIP3   OH215511   8.203   3.950   6.392
 5189TIP3    H115512   8.144   3.910   6.456
 5189TIP3    H215513   8.241   3.876   6.344
 5190TIP3   OH215514   0.019   0.183   2.367
 5190TIP3    H115515  -0.003   0.232   2.288
 5190TIP3    H215516   0.049   0.250   2.429
 5191TIP3   OH215517   2.215   6.965   3.483
 5191TIP3    H115518   2.281   6.964   3.413
 5191TIP3    H215519   2.134   6.941   3.439
 5192TIP3   OH215520   5.542   1.330   4.149
 5192TIP3    H115521   5.509   1.387   4.079
 5192TIP3    H215522   5.556   1.245   4.106
 5193TIP3   OH215523   4.520   3.980   2.844
 5193TIP3    H115524   4.606   3.996   2.883
 5193TIP3    H215525   4.508   3.885   2.850
 5194TIP3   OH215526   2.285   3.775   5.727
 5194TIP3    H115527   2.270   3.842   5.661
 5194TIP3    H215528   2.250   3.695   5.689
 5195TIP3   OH215529   6.633   3.456   3.226
 5195TIP3    H115530   6.676   3.378   3.260
 5195TIP3    H215531   6.580   3.488   3.300
 5196TIP3   OH215532   4.082   1.487   2.387
 5196TIP3    H115533   4.086   1.495   2.482
 5196TIP3    H215534   4.014   1.549   2.361
 5197TIP3   OH215535   8.181   4.651   0.475
 5197TIP3    H115536   8.185   4.720   0.409
 5197TIP3    H215537   8.244   4.679   0.543
 5198TIP3   OH215538   2.478   2.510   3.596
 5198TIP3    H115539   2.557   2.483   3.645
 5198TIP3    H215540   2.445   2.585   3.645
 5199TIP3   OH215541   5.005   3.248   4.785
 5199TIP3    H115542   5.096   3.230   4.807
 5199TIP3    H215543   4.961   3.163   4.794
 5200TIP3   OH215544   3.867   4.238   4.658
 5200TIP3    H115545   3.883   4.276   4.572
 5200TIP3    H215546   3.908   4.299   4.720
 5201TIP3   OH215547   7.038   6.986   4.807
 5201TIP3    H115548   7.020   6.893   4.795
 5201TIP3    H215549   6.952   7.026   4.814
 5202TIP3   OH215550   7.215   1.858   2.536
 5202TIP3    H115551   7.189   1.766   2.533
 5202TIP3    H215552   7.292   1.863   2.480
 5203TIP3   OH215553   1.098   0.189   2.098
 5203TIP3    H115554   1.048   0.235   2.030
 5203TIP3    H215555   1.153   0.127   2.049
 5204TIP3   OH215556   3.932   1.598   3.025
 5204TIP3    H115557   3.922   1.644   3.108
 5204TIP3    H215558   3.847   1.556   3.010
 5205TIP3   OH215559   6.130   1.628   0.078
 5205TIP3    H115560   6.127   1.547   0.028
 5205TIP3    H215561   6.044   1.669   0.063
 5206TIP3   OH215562   7.253   7.252   2.944
 5206TIP3    H115563   7.319   7.190   2.914
 5206TIP3    H215564   7.302   7.330   2.970
 5207TIP3   OH215565   3.065   5.394   0.107
 5207TIP3    H115566   3.091   5.461   0.170
 5207TIP3    H215567   3.146   5.351   0.082
 5208TIP3   OH215568   1.815   4.791   6.630
 5208TIP3    H115569   1.908   4.768   6.622
 5208TIP3    H215570   1.770   4.726   6.576
 5209TIP3   OH215571   4.049   5.970   2.619
 5209TIP3    H115572   4.107   6.034   2.660
 5209TIP3    H215573   4.058   5.892   2.672
 5210TIP3   OH215574   6.658   6.378   5.523
 5210TIP3    H115575   6.703   6.345   5.445
 5210TIP3    H215576   6.709   6.345   5.596
 5211TIP3   OH215577   7.376   6.219   2.601
 5211TIP3    H115578   7.359   6.253   2.514
 5211TIP3    H215579   7.355   6.291   2.660
 5212TIP3   OH215580   2.364   5.210   0.554
 5212TIP3    H115581   2.284   5.251   0.520
 5212TIP3    H215582   2.435   5.254   0.507
 5213TIP3   OH215583   4.166   5.362   3.758
 5213TIP3    H115584   4.187   5.367   3.664
 5213TIP3    H215585   4.238   5.311   3.795
 5214TIP3   OH215586   0.056   1.077   3.931
 5214TIP3    H115587   0.125   1.026   3.888
 5214TIP3    H215588   0.021   1.019   3.998
 5215TIP3   OH215589   3.158   0.016   5.242
 5215TIP3    H115590   3.185  -0.023   5.160
 5215TIP3    H215591   3.210   0.096   5.249
 5216TIP3   OH215592   7.477   5.803   1.150
 5216TIP3    H115593   7.543   5.735   1.159
 5216TIP3    H215594   7.456   5.828   1.240
 5217TIP3   OH215595   2.803   6.285   1.919
 5217TIP3    H115596   2.877   6.322   1.968
 5217TIP3    H215597   2.838   6.207   1.877
 5218TIP3   OH215598   0.034   3.941   3.571
 5218TIP3    H115599   0.001   4.030   3.563
 5218TIP3    H215600   0.109   3.949   3.630
 5219TIP3   OH215601   5.339   1.958   1.049
 5219TIP3    H115602   5.369   1.913   1.128
 5219TIP3    H215603   5.414   2.012   1.023
 5220TIP3   OH215604   6.041   7.537   6.665
 5220TIP3    H115605   6.016   7.618   6.710
 5220TIP3    H215606   6.022   7.553   6.573
 5221TIP3   OH215607   2.874   7.271   6.528
 5221TIP3    H115608   2.816   7.339   6.494
 5221TIP3    H215609   2.821   7.223   6.591
 5222TIP3   OH215610   7.409   0.827   1.680
 5222TIP3    H115611   7.353   0.765   1.634
 5222TIP3    H215612   7.403   0.907   1.628
 5223TIP3   OH215613   2.840   5.933   6.373
 5223TIP3    H115614   2.883   5.927   6.459
 5223TIP3    H215615   2.812   5.844   6.354
 5224TIP3   OH215616   0.330   7.440   2.118
 5224TIP3    H115617   0.298   7.404   2.201
 5224TIP3    H215618   0.255   7.488   2.083
 5225TIP3   OH215619   6.573   7.305   3.980
 5225TIP3    H115620   6.538   7.242   4.043
 5225TIP3    H215621   6.663   7.277   3.966
 5226TIP3   OH215622   2.147   1.977   1.304
 5226TIP3    H115623   2.202   1.972   1.381
 5226TIP3    H215624   2.077   2.038   1.328
 5227TIP3   OH215625   5.927   6.278   4.991
 5227TIP3    H115626   6.000   6.266   4.930
 5227TIP3    H215627   5.906   6.371   4.985
 5228TIP3   OH215628   3.754   5.294   2.263
 5228TIP3    H115629   3.830   5.346   2.237
 5228TIP3    H215630   3.778   5.259   2.349
 5229TIP3   OH215631   6.033   0.039   4.689
 5229TIP3    H115632   6.097  -0.011   4.740
 5229TIP3    H215633   6.080   0.067   4.611
 5230TIP3   OH215634   1.494   6.792   1.953
 5230TIP3    H115635   1.463   6.801   1.863
 5230TIP3    H215636   1.505   6.882   1.983
 5231TIP3   OH215637   5.977   0.320   1.652
 5231TIP3    H115638   5.962   0.294   1.561
 5231TIP3    H215639   6.065   0.289   1.672
 5232TIP3   OH215640   7.707   0.031   4.980
 5232TIP3    H115641   7.725   0.124   4.968
 5232TIP3    H215642   7.707  -0.005   4.891
 5233TIP3   OH215643   6.966   2.826   0.536
 5233TIP3    H115644   7.006   2.813   0.622
 5233TIP3    H215645   7.039   2.845   0.478
 5234TIP3   OH215646   2.857   3.432   5.236
 5234TIP3    H115647   2.763   3.444   5.254
 5234TIP3    H215648   2.862   3.347   5.192
 5235TIP3   OH215649   0.237   0.816   3.856
 5235TIP3    H115650   0.162   0.823   3.798
 5235TIP3    H215651   0.294   0.752   3.814
 5236TIP3   OH215652   2.191   1.489   5.587
 5236TIP3    H115653   2.117   1.544   5.616
 5236TIP3    H215654   2.152   1.427   5.526
 5237TIP3   OH215655   0.161   1.705   4.692
 5237TIP3    H115656   0.233   1.644   4.674
 5237TIP3    H215657   0.159   1.762   4.616
 5238TIP3   OH215658   2.225   1.278   5.362
 5238TIP3    H115659   2.134   1.253   5.350
 5238TIP3    H215660   2.239   1.348   5.298
 5239TIP3   OH215661   6.415   6.069   5.398
 5239TIP3    H115662   6.448   6.033   5.480
 5239TIP3    H215663   6.344   6.127   5.424
 5240TIP3   OH215664   5.610   1.024   1.668
 5240TIP3    H115665   5.675   0.997   1.603
 5240TIP3    H215666   5.624   1.118   1.678
 5241TIP3   OH215667   5.238   5.519   5.256
 5241TIP3    H115668   5.328   5.517   5.289
 5241TIP3    H215669   5.216   5.427   5.242
 5242TIP3   OH215670   7.680   3.096   5.883
 5242TIP3    H115671   7.629   3.025   5.923
 5242TIP3    H215672   7.678   3.166   5.948
 5243TIP3   OH215673   3.554   3.151   0.761
 5243TIP3    H115674   3.530   3.164   0.669
 5243TIP3    H215675   3.520   3.065   0.782
 5244TIP3   OH215676   7.058   2.054   4.508
 5244TIP3    H115677   7.006   2.076   4.585
 5244TIP3    H215678   7.144   2.093   4.524
 5245TIP3   OH215679   5.259   5.459   2.535
 5245TIP3    H115680   5.243   5.476   2.443
 5245TIP3    H215681   5.224   5.536   2.581
 5246TIP3   OH215682   1.931   3.150   2.365
 5246TIP3    H115683   1.847   3.137   2.322
 5246TIP3    H215684   1.973   3.064   2.361
 5247TIP3   OH215685   7.554   4.793   5.974
 5247TIP3    H115686   7.565   4.840   5.891
 5247TIP3    H215687   7.641   4.792   6.012
 5248TIP3   OH215688   0.129   0.515   3.593
 5248TIP3    H115689   0.040   0.549   3.588
 5248TIP3    H215690   0.141   0.465   3.512
 5249TIP3   OH215691   2.681   1.717   6.465
 5249TIP3    H115692   2.672   1.787   6.400
 5249TIP3    H215693   2.688   1.762   6.549
 5250TIP3   OH215694   4.815   1.230   4.533
 5250TIP3    H115695   4.818   1.201   4.624
 5250TIP3    H215696   4.852   1.318   4.534
 5251TIP3   OH215697   3.959   4.762   4.805
 5251TIP3    H115698   3.935   4.852   4.783
 5251TIP3    H215699   4.054   4.762   4.807
 5252TIP3   OH215700   1.581   5.792   2.515
 5252TIP3    H115701   1.612   5.790   2.424
 5252TIP3    H215702   1.487   5.807   2.507
 5253TIP3   OH215703   6.246   3.358   0.784
 5253TIP3    H115704   6.215   3.345   0.873
 5253TIP3    H215705   6.173   3.328   0.729
 5254TIP3   OH215706   2.083   7.345   3.176
 5254TIP3    H115707   2.045   7.432   3.179
 5254TIP3    H215708   2.013   7.288   3.144
 5255TIP3   OH215709   0.351   3.824   4.770
 5255TIP3    H115710   0.412   3.897   4.782
 5255TIP3    H215711   0.399   3.761   4.716
 5256TIP3   OH215712   0.447   2.845   1.291
 5256TIP3    H115713   0.471   2.937   1.299
 5256TIP3    H215714   0.518   2.798   1.334
 5257TIP3   OH215715   5.393   2.047   1.981
 5257TIP3    H115716   5.482   2.016   1.961
 5257TIP3    H215717   5.368   2.001   2.060
 5258TIP3   OH215718   4.143   3.245   5.319
 5258TIP3    H115719   4.138   3.308   5.247
 5258TIP3    H215720   4.159   3.161   5.276
 5259TIP3   OH215721   0.477   3.339   1.361
 5259TIP3    H115722   0.392   3.349   1.316
 5259TIP3    H215723   0.465   3.383   1.445
 5260TIP3   OH215724   4.967   4.219   4.867
 5260TIP3    H115725   4.909   4.146   4.847
 5260TIP3    H215726   5.032   4.218   4.796
 5261TIP3   OH215727   4.804   5.159   2.270
 5261TIP3    H115728   4.870   5.212   2.225
 5261TIP3    H215729   4.723   5.178   2.223
 5262TIP3   OH215730   5.891   6.029   5.732
 5262TIP3    H115731   5.806   6.072   5.743
 5262TIP3    H215732   5.944   6.063   5.804
 5263TIP3   OH215733   3.327   4.886   1.224
 5263TIP3    H115734   3.363   4.972   1.248
 5263TIP3    H215735   3.401   4.839   1.185
 5264TIP3   OH215736   0.326   6.484   5.570
 5264TIP3    H115737   0.263   6.449   5.507
 5264TIP3    H215738   0.274   6.507   5.647
 5265TIP3   OH215739   5.699   7.785   6.755
 5265TIP3    H115740   5.691   7.732   6.676
 5265TIP3    H215741   5.718   7.873   6.722
 5266TIP3   OH215742   1.247   6.463   0.891
 5266TIP3    H115743   1.318   6.436   0.949
 5266TIP3    H215744   1.213   6.382   0.854
 5267TIP3   OH215745   7.342   0.587   4.672
 5267TIP3    H115746   7.419   0.638   4.646
 5267TIP3    H215747   7.331   0.523   4.601
 5268TIP3   OH215748   6.108   6.609   5.204
 5268TIP3    H115749   6.140   6.682   5.152
 5268TIP3    H215750   6.028   6.642   5.245
 5269TIP3   OH215751   7.220   6.131   0.182
 5269TIP3    H115752   7.283   6.165   0.119
 5269TIP3    H215753   7.236   6.181   0.262
 5270TIP3   OH215754   7.444   0.198   0.998
 5270TIP3    H115755   7.440   0.169   1.089
 5270TIP3    H215756   7.437   0.118   0.947
 5271TIP3   OH215757   6.826   2.128   2.907
 5271TIP3    H115758   6.883   2.096   2.837
 5271TIP3    H215759   6.742   2.141   2.865
 5272TIP3   OH215760   6.571   1.490   3.296
 5272TIP3    H115761   6.523   1.524   3.371
 5272TIP3    H215762   6.627   1.562   3.268
 5273TIP3   OH215763   4.124   0.168   0.927
 5273TIP3    H115764   4.068   0.155   1.003
 5273TIP3    H215765   4.091   0.107   0.862
 5274TIP3   OH215766   6.342   5.056   0.996
 5274TIP3    H115767   6.284   5.091   1.064
 5274TIP3    H215768   6.293   4.984   0.957
 5275TIP3   OH215769   7.866   6.531   5.386
 5275TIP3    H115770   7.830   6.603   5.439
 5275TIP3    H215771   7.822   6.453   5.418
 5276TIP3   OH215772   3.131   4.846   0.113
 5276TIP3    H115773   3.048   4.833   0.067
 5276TIP3    H215774   3.123   4.791   0.191
 5277TIP3   OH215775   3.122   7.445   5.575
 5277TIP3    H115776   3.176   7.484   5.506
 5277TIP3    H215777   3.041   7.497   5.574
 5278TIP3   OH215778   1.270   7.796   2.522
 5278TIP3    H115779   1.308   7.785   2.609
 5278TIP3    H215780   1.344   7.792   2.462
 5279TIP3   OH215781   0.981   6.816   4.459
 5279TIP3    H115782   1.051   6.789   4.519
 5279TIP3    H215783   0.960   6.906   4.485
 5280TIP3   OH215784   4.436   2.394   6.339
 5280TIP3    H115785   4.509   2.395   6.276
 5280TIP3    H215786   4.471   2.348   6.415
 5281TIP3   OH215787   7.949   7.350   6.735
 5281TIP3    H115788   7.915   7.368   6.647
 5281TIP3    H215789   7.880   7.297   6.776
 5282TIP3   OH215790   0.699   3.026   6.486
 5282TIP3    H115791   0.774   2.966   6.483
 5282TIP3    H215792   0.695   3.064   6.399
 5283TIP3   OH215793   1.494   2.335   1.604
 5283TIP3    H115794   1.581   2.296   1.616
 5283TIP3    H215795   1.454   2.284   1.533
 5284TIP3   OH215796   0.552   7.092   2.753
 5284TIP3    H115797   0.483   7.137   2.704
 5284TIP3    H215798   0.534   7.112   2.845
 5285TIP3   OH215799   3.726   0.313   6.589
 5285TIP3    H115800   3.721   0.369   6.511
 5285TIP3    H215801   3.640   0.321   6.630
 5286TIP3   OH215802   6.478   7.033   5.463
 5286TIP3    H115803   6.417   7.078   5.405
 5286TIP3    H215804   6.424   6.970   5.510
 5287TIP3   OH215805   6.293   0.915   3.227
 5287TIP3    H115806   6.356   0.982   3.203
 5287TIP3    H215807   6.346   0.839   3.250
 5288TIP3   OH215808   4.177   7.683   5.142
 5288TIP3    H115809   4.119   7.607   5.140
 5288TIP3    H215810   4.155   7.732   5.063
 5289TIP3   OH215811   5.704   0.429   1.431
 5289TIP3    H115812   5.719   0.337   1.457
 5289TIP3    H215813   5.610   0.434   1.415
 5290TIP3   OH215814   4.087   4.460   2.471
 5290TIP3    H115815   4.128   4.378   2.443
 5290TIP3    H215816   4.130   4.527   2.418
 5291TIP3   OH215817   1.696   2.701   1.908
 5291TIP3    H115818   1.603   2.722   1.897
 5291TIP3    H215819   1.740   2.743   1.834
 5292TIP3   OH215820   4.060   7.470   0.938
 5292TIP3    H115821   4.091   7.557   0.961
 5292TIP3    H215822   3.999   7.447   1.008
 5293TIP3   OH215823   5.247   4.509   6.639
 5293TIP3    H115824   5.290   4.469   6.564
 5293TIP3    H215825   5.319   4.541   6.694
 5294TIP3   OH215826   7.853   3.683   1.945
 5294TIP3    H115827   7.786   3.653   2.006
 5294TIP3    H215828   7.934   3.682   1.996
 5295TIP3   OH215829   2.888   7.449   5.962
 5295TIP3    H115830   2.903   7.464   6.055
 5295TIP3    H215831   2.799   7.481   5.946
 5296TIP3   OH215832   0.454   6.666   5.400
 5296TIP3    H115833   0.410   6.622   5.473
 5296TIP3    H215834   0.386   6.718   5.359
 5297TIP3   OH215835   4.224   7.347   4.485
 5297TIP3    H115836   4.247   7.277   4.425
 5297TIP3    H215837   4.181   7.303   4.559
 5298TIP3   OH215838   2.385   2.147   0.423
 5298TIP3    H115839   2.454   2.098   0.469
 5298TIP3    H215840   2.311   2.147   0.483
 5299TIP3   OH215841   4.469   3.303   2.643
 5299TIP3    H115842   4.526   3.232   2.672
 5299TIP3    H215843   4.529   3.365   2.600
 5300TIP3   OH215844   3.058   4.086   1.960
 5300TIP3    H115845   3.114   4.009   1.946
 5300TIP3    H215846   2.989   4.078   1.894
 5301TIP3   OH215847   6.619   2.406   6.497
 5301TIP3    H115848   6.526   2.428   6.496
 5301TIP3    H215849   6.621   2.311   6.506
 5302TIP3   OH215850   4.453   2.090   5.660
 5302TIP3    H115851   4.428   2.151   5.730
 5302TIP3    H215852   4.400   2.117   5.585
 5303TIP3   OH215853   7.262   6.277   0.431
 5303TIP3    H115854   7.204   6.314   0.497
 5303TIP3    H215855   7.337   6.244   0.480
 5304TIP3   OH215856   3.447   7.163   6.681
 5304TIP3    H115857   3.541   7.167   6.663
 5304TIP3    H215858   3.408   7.141   6.596
 5305TIP3   OH215859   1.725   0.742   1.984
 5305TIP3    H115860   1.815   0.758   1.954
 5305TIP3    H215861   1.718   0.646   1.988
 5306TIP3   OH215862   6.974   1.001   3.861
 5306TIP3    H115863   7.041   1.043   3.914
 5306TIP3    H215864   6.917   1.072   3.831
 5307TIP3   OH215865   1.578   2.817   5.524
 5307TIP3    H115866   1.556   2.727   5.548
 5307TIP3    H215867   1.633   2.808   5.446
 5308TIP3   OH215868   0.085   0.139   5.130
 5308TIP3    H115869  -0.003   0.100   5.138
 5308TIP3    H215870   0.073   0.211   5.069
 5309TIP3   OH215871   0.517   4.743   6.259
 5309TIP3    H115872   0.505   4.814   6.322
 5309TIP3    H215873   0.555   4.671   6.310
 5310TIP3   OH215874   1.960   5.838   5.186
 5310TIP3    H115875   2.055   5.828   5.189
 5310TIP3    H215876   1.932   5.822   5.276
 5311TIP3   OH215877   1.475   1.208   5.416
 5311TIP3    H115878   1.395   1.231   5.371
 5311TIP3    H215879   1.489   1.115   5.395
 5312TIP3   OH215880   3.621   0.738   3.804
 5312TIP3    H115881   3.715   0.729   3.823
 5312TIP3    H215882   3.616   0.815   3.749
 5313TIP3   OH215883   3.173   2.207   3.767
 5313TIP3    H115884   3.164   2.112   3.760
 5313TIP3    H215885   3.264   2.221   3.792
 5314TIP3   OH215886   0.735   7.160   4.800
 5314TIP3    H115887   0.657   7.212   4.820
 5314TIP3    H215888   0.705   7.069   4.806
 5315TIP3   OH215889   2.706   4.200   0.090
 5315TIP3    H115890   2.649   4.220   0.164
 5315TIP3    H215891   2.767   4.134   0.124
 5316TIP3   OH215892   0.619   3.441   0.239
 5316TIP3    H115893   0.526   3.425   0.257
 5316TIP3    H215894   0.622   3.456   0.144
 5317TIP3   OH215895   7.616   3.278   3.975
 5317TIP3    H115896   7.643   3.289   3.884
 5317TIP3    H215897   7.542   3.339   3.985
 5318TIP3   OH215898   1.396   1.849   6.734
 5318TIP3    H115899   1.386   1.910   6.807
 5318TIP3    H215900   1.346   1.772   6.761
 5319TIP3   OH215901   6.832   4.147   0.575
 5319TIP3    H115902   6.917   4.139   0.532
 5319TIP3    H215903   6.845   4.106   0.660
 5320TIP3   OH215904   6.220   5.038   2.459
 5320TIP3    H115905   6.168   5.067   2.533
 5320TIP3    H215906   6.201   4.944   2.451
 5321TIP3   OH215907   4.647   2.363   2.580
 5321TIP3    H115908   4.732   2.391   2.547
 5321TIP3    H215909   4.647   2.390   2.672
 5322TIP3   OH215910   0.643   6.183   6.066
 5322TIP3    H115911   0.576   6.245   6.038
 5322TIP3    H215912   0.597   6.121   6.122
 5323TIP3   OH215913   4.799   6.485   1.540
 5323TIP3    H115914   4.798   6.578   1.519
 5323TIP3    H215915   4.713   6.452   1.513
 5324TIP3   OH215916   2.661   6.556   4.532
 5324TIP3    H115917   2.619   6.611   4.466
 5324TIP3    H215918   2.705   6.488   4.482
 5325TIP3   OH215919   2.388   0.484   4.882
 5325TIP3    H115920   2.467   0.520   4.844
 5325TIP3    H215921   2.361   0.415   4.822
 5326TIP3   OH215922   8.040   1.591   4.892
 5326TIP3    H115923   8.100   1.597   4.818
 5326TIP3    H215924   8.094   1.610   4.968
 5327TIP3   OH215925   5.546   1.241   5.013
 5327TIP3    H115926   5.461   1.204   5.039
 5327TIP3    H215927   5.581   1.177   4.951
 5328TIP3   OH215928   1.550   3.131   0.654
 5328TIP3    H115929   1.515   3.049   0.620
 5328TIP3    H215930   1.576   3.180   0.575
 5329TIP3   OH215931   2.833   1.623   5.929
 5329TIP3    H115932   2.926   1.605   5.933
 5329TIP3    H215933   2.825   1.696   5.868
 5330TIP3   OH215934   6.518   2.177   5.160
 5330TIP3    H115935   6.454   2.233   5.115
 5330TIP3    H215936   6.475   2.092   5.167
 5331TIP3   OH215937   1.445   4.457   4.042
 5331TIP3    H115938   1.406   4.444   4.128
 5331TIP3    H215939   1.389   4.408   3.982
 5332TIP3   OH215940   1.470   7.006   5.854
 5332TIP3    H115941   1.403   6.973   5.913
 5332TIP3    H215942   1.422   7.059   5.790
 5333TIP3   OH215943   0.469   6.558   6.678
 5333TIP3    H115944   0.504   6.470   6.664
 5333TIP3    H215945   0.499   6.608   6.602
 5334TIP3   OH215946   1.203   0.747   3.249
 5334TIP3    H115947   1.250   0.820   3.290
 5334TIP3    H215948   1.144   0.715   3.317
 5335TIP3   OH215949   4.275   1.010   5.905
 5335TIP3    H115950   4.342   0.976   5.965
 5335TIP3    H215951   4.254   1.097   5.940
 5336TIP3   OH215952   5.292   0.794   5.011
 5336TIP3    H115953   5.375   0.787   4.964
 5336TIP3    H215954   5.227   0.809   4.942
 5337TIP3   OH215955   0.295   0.100   3.996
 5337TIP3    H115956   0.235   0.122   3.925
 5337TIP3    H215957   0.382   0.118   3.961
 5338TIP3   OH215958   1.937   2.909   0.226
 5338TIP3    H115959   2.028   2.882   0.215
 5338TIP3    H215960   1.943   3.000   0.256
 5339TIP3   OH215961   3.634   6.062   1.154
 5339TIP3    H115962   3.723   6.093   1.143
 5339TIP3    H215963   3.585   6.104   1.084
 5340TIP3   OH215964   5.955   4.640   5.222
 5340TIP3    H115965   5.937   4.553   5.185
 5340TIP3    H215966   5.922   4.635   5.311
 5341TIP3   OH215967   2.798   6.945   5.614
 5341TIP3    H115968   2.753   7.029   5.603
 5341TIP3    H215969   2.871   6.949   5.552
 5342TIP3   OH215970   3.559   4.008   1.632
 5342TIP3    H115971   3.465   4.001   1.619
 5342TIP3    H215972   3.575   4.102   1.639
 5343TIP3   OH215973   6.129   5.930   4.329
 5343TIP3    H115974   6.210   5.954   4.285
 5343TIP3    H215975   6.157   5.899   4.415
 5344TIP3   OH215976   1.534   5.856   4.614
 5344TIP3    H115977   1.462   5.898   4.661
 5344TIP3    H215978   1.591   5.929   4.587
 5345TIP3   OH215979   1.805   1.525   6.430
 5345TIP3    H115980   1.831   1.463   6.362
 5345TIP3    H215981   1.719   1.557   6.403
 5346TIP3   OH215982   3.055   0.070   1.455
 5346TIP3    H115983   3.059   0.103   1.545
 5346TIP3    H215984   3.145   0.045   1.435
 5347TIP3   OH215985   0.566   6.813   6.560
 5347TIP3    H115986   0.645   6.762   6.541
 5347TIP3    H215987   0.588   6.863   6.638
 5348TIP3   OH215988   0.608   4.779   2.108
 5348TIP3    H115989   0.574   4.866   2.128
 5348TIP3    H215990   0.545   4.719   2.149
 5349TIP3   OH215991   6.836   6.449   2.222
 5349TIP3    H115992   6.864   6.367   2.264
 5349TIP3    H215993   6.746   6.462   2.252
 5350TIP3   OH215994   1.215   3.666   0.805
 5350TIP3    H115995   1.263   3.601   0.754
 5350TIP3    H215996   1.199   3.738   0.744
 5351TIP3   OH215997   8.073   4.909   4.503
 5351TIP3    H115998   8.010   4.969   4.464
 5351TIP3    H215999   8.158   4.952   4.491
 5352TIP3   OH216000   5.425   2.594   4.946
 5352TIP3    H116001   5.419   2.689   4.956
 5352TIP3    H216002   5.334   2.564   4.949
 5353TIP3   OH216003   1.863   0.910   6.510
 5353TIP3    H116004   1.909   0.849   6.453
 5353TIP3    H216005   1.909   0.903   6.594
 5354TIP3   OH216006   7.940   5.071   3.403
 5354TIP3    H116007   7.997   5.120   3.343
 5354TIP3    H216008   7.930   4.985   3.360
 5355TIP3   OH216009   4.299   7.594   2.552
 5355TIP3    H116010   4.335   7.678   2.581
 5355TIP3    H216011   4.343   7.576   2.469
 5356TIP3   OH216012   6.807   7.109   5.777
 5356TIP3    H116013   6.898   7.080   5.775
 5356TIP3    H216014   6.797   7.150   5.863
 5357TIP3   OH216015   4.218   1.913   3.167
 5357TIP3    H116016   4.265   1.984   3.210
 5357TIP3    H216017   4.195   1.949   3.081
 5358TIP3   OH216018   7.619   6.031   6.564
 5358TIP3    H116019   7.626   5.963   6.498
 5358TIP3    H216020   7.603   6.112   6.514
 5359TIP3   OH216021   7.391   1.578   4.519
 5359TIP3    H116022   7.387   1.661   4.567
 5359TIP3    H216023   7.339   1.592   4.440
 5360TIP3   OH216024   3.681   1.189   0.027
 5360TIP3    H116025   3.696   1.174   0.120
 5360TIP3    H216026   3.689   1.284   0.016
 5361TIP3   OH216027   8.267   1.420   4.782
 5361TIP3    H116028   8.325   1.381   4.716
 5361TIP3    H216029   8.241   1.504   4.743
 5362TIP3   OH216030   7.646   2.974   3.376
 5362TIP3    H116031   7.679   2.956   3.287
 5362TIP3    H216032   7.589   2.900   3.395
 5363TIP3   OH216033   6.550   5.902   5.570
 5363TIP3    H116034   6.529   5.852   5.648
 5363TIP3    H216035   6.646   5.908   5.569
 5364TIP3   OH216036   7.200   1.122   1.250
 5364TIP3    H116037   7.214   1.066   1.173
 5364TIP3    H216038   7.114   1.162   1.236
 5365TIP3   OH216039   2.674   5.036   2.533
 5365TIP3    H116040   2.748   5.052   2.474
 5365TIP3    H216041   2.598   5.074   2.488
 5366TIP3   OH216042   1.702   6.321   1.734
 5366TIP3    H116043   1.725   6.412   1.755
 5366TIP3    H216044   1.744   6.269   1.803
 5367TIP3   OH216045   5.682   6.688   5.548
 5367TIP3    H116046   5.610   6.738   5.588
 5367TIP3    H216047   5.645   6.655   5.466
 5368TIP3   OH216048   6.465   0.953   6.134
 5368TIP3    H116049   6.516   0.873   6.121
 5368TIP3    H216050   6.410   0.934   6.210
 5369TIP3   OH216051   3.729   5.024   0.888
 5369TIP3    H116052   3.777   5.101   0.918
 5369TIP3    H216053   3.689   5.051   0.806
 5370TIP3   OH216054   7.760   2.567   0.389
 5370TIP3    H116055   7.771   2.617   0.470
 5370TIP3    H216056   7.711   2.490   0.415
 5371TIP3   OH216057   8.189   7.717   1.688
 5371TIP3    H116058   8.235   7.801   1.694
 5371TIP3    H216059   8.121   7.721   1.755
 5372TIP3   OH216060   4.579   3.371   0.179
 5372TIP3    H116061   4.585   3.301   0.114
 5372TIP3    H216062   4.643   3.349   0.246
 5373TIP3   OH216063   8.267   0.573   0.343
 5373TIP3    H116064   8.313   0.655   0.324
 5373TIP3    H216065   8.175   0.593   0.325
 5374TIP3   OH216066   1.486   0.829   2.070
 5374TIP3    H116067   1.578   0.804   2.069
 5374TIP3    H216068   1.474   0.869   2.156
 5375TIP3   OH216069   3.328   4.071   3.983
 5375TIP3    H116070   3.297   4.116   4.062
 5375TIP3    H216071   3.368   3.990   4.015
 5376TIP3   OH216072   5.386   3.808   5.111
 5376TIP3    H116073   5.304   3.837   5.150
 5376TIP3    H216074   5.366   3.721   5.075
 5377TIP3   OH216075   3.540   4.494   0.295
 5377TIP3    H116076   3.448   4.512   0.274
 5377TIP3    H216077   3.583   4.492   0.210
 5378TIP3   OH216078   1.163   4.463   0.775
 5378TIP3    H116079   1.146   4.375   0.742
 5378TIP3    H216080   1.238   4.494   0.724
 5379TIP3   OH216081   1.602   1.560   4.164
 5379TIP3    H116082   1.507   1.559   4.177
 5379TIP3    H216083   1.636   1.604   4.243
 5380TIP3   OH216084   2.550   7.240   0.801
 5380TIP3    H116085   2.557   7.291   0.881
 5380TIP3    H216086   2.635   7.251   0.758
 5381TIP3   OH216087   3.259   0.266   2.759
 5381TIP3    H116088   3.340   0.218   2.776
 5381TIP3    H216089   3.286   0.357   2.748
 5382TIP3   OH216090   6.983   3.884   4.308
 5382TIP3    H116091   7.056   3.883   4.246
 5382TIP3    H216092   7.018   3.842   4.387
 5383TIP3   OH216093   4.890   4.617   5.878
 5383TIP3    H116094   4.941   4.580   5.950
 5383TIP3    H216095   4.801   4.583   5.891
 5384TIP3   OH216096   7.136   4.706   0.872
 5384TIP3    H116097   7.044   4.693   0.851
 5384TIP3    H216098   7.142   4.799   0.895
 5385TIP3   OH216099   5.026   6.535   6.750
 5385TIP3    H116100   5.077   6.517   6.829
 5385TIP3    H216101   5.089   6.532   6.679
 5386TIP3   OH216102   6.666   3.155   0.868
 5386TIP3    H116103   6.689   3.182   0.779
 5386TIP3    H216104   6.665   3.237   0.917
 5387TIP3   OH216105   2.756   3.984   3.212
 5387TIP3    H116106   2.797   4.041   3.147
 5387TIP3    H216107   2.697   3.928   3.161
 5388TIP3   OH216108   2.371   1.651   5.785
 5388TIP3    H116109   2.310   1.596   5.736
 5388TIP3    H216110   2.404   1.594   5.854
 5389TIP3   OH216111   6.853   2.701   0.951
 5389TIP3    H116112   6.760   2.680   0.938
 5389TIP3    H216113   6.852   2.791   0.983
 5390TIP3   OH216114   8.187   3.376   1.003
 5390TIP3    H116115   8.157   3.464   1.029
 5390TIP3    H216116   8.112   3.320   1.017
 5391TIP3   OH216117   3.695   1.481   2.737
 5391TIP3    H116118   3.768   1.429   2.770
 5391TIP3    H216119   3.733   1.567   2.719
 5392TIP3   OH216120   2.346   5.677   2.664
 5392TIP3    H116121   2.326   5.736   2.737
 5392TIP3    H216122   2.391   5.603   2.704
 5393TIP3   OH216123   6.187   7.335   2.585
 5393TIP3    H116124   6.204   7.250   2.626
 5393TIP3    H216125   6.251   7.340   2.514
 5394TIP3   OH216126   4.273   5.618   0.357
 5394TIP3    H116127   4.362   5.631   0.325
 5394TIP3    H216128   4.282   5.610   0.452
 5395TIP3   OH216129   6.048   7.110   3.078
 5395TIP3    H116130   6.136   7.126   3.046
 5395TIP3    H216131   6.024   7.025   3.040
 5396TIP3   OH216132   2.117   5.899   4.600
 5396TIP3    H116133   2.105   5.877   4.692
 5396TIP3    H216134   2.028   5.900   4.564
 5397TIP3   OH216135   5.681   6.087   0.399
 5397TIP3    H116136   5.771   6.117   0.389
 5397TIP3    H216137   5.640   6.108   0.315
 5398TIP3   OH216138   3.486   2.710   3.211
 5398TIP3    H116139   3.543   2.702   3.135
 5398TIP3    H216140   3.545   2.711   3.286
 5399TIP3   OH216141   4.824   5.677   0.347
 5399TIP3    H116142   4.913   5.642   0.340
 5399TIP3    H216143   4.818   5.709   0.437
 5400TIP3   OH216144   7.251   7.087   0.953
 5400TIP3    H116145   7.206   7.138   1.021
 5400TIP3    H216146   7.189   7.082   0.881
 5401TIP3   OH216147   0.196   4.276   3.132
 5401TIP3    H116148   0.232   4.230   3.208
 5401TIP3    H216149   0.112   4.233   3.115
 5402TIP3   OH216150   1.703   3.934   1.009
 5402TIP3    H116151   1.776   3.974   0.962
 5402TIP3    H216152   1.744   3.870   1.067
 5403TIP3   OH216153   0.290   0.575   2.954
 5403TIP3    H116154   0.262   0.489   2.922
 5403TIP3    H216155   0.233   0.591   3.030
 5404TIP3   OH216156   7.353   3.355   2.622
 5404TIP3    H116157   7.380   3.430   2.568
 5404TIP3    H216158   7.260   3.368   2.637
 5405TIP3   OH216159   1.905   5.147   5.783
 5405TIP3    H116160   1.816   5.156   5.817
 5405TIP3    H216161   1.895   5.156   5.688
 5406TIP3   OH216162   5.378   1.788   5.224
 5406TIP3    H116163   5.464   1.811   5.260
 5406TIP3    H216164   5.391   1.703   5.183
 5407TIP3   OH216165   2.915   5.825   5.922
 5407TIP3    H116166   2.876   5.738   5.916
 5407TIP3    H216167   2.944   5.832   6.013
 5408TIP3   OH216168   4.323   3.001   1.842
 5408TIP3    H116169   4.244   3.038   1.803
 5408TIP3    H216170   4.310   2.906   1.837
 5409TIP3   OH216171   0.985   5.741   1.532
 5409TIP3    H116172   1.026   5.773   1.613
 5409TIP3    H216173   1.010   5.649   1.528
 5410TIP3   OH216174   0.369   5.365   0.411
 5410TIP3    H116175   0.448   5.352   0.358
 5410TIP3    H216176   0.300   5.320   0.362
 5411TIP3   OH216177   4.806   0.491   3.895
 5411TIP3    H116178   4.759   0.419   3.854
 5411TIP3    H216179   4.780   0.568   3.844
 5412TIP3   OH216180   6.517   2.150   2.834
 5412TIP3    H116181   6.526   2.221   2.770
 5412TIP3    H216182   6.424   2.127   2.832
 5413TIP3   OH216183   1.371   2.278   5.140
 5413TIP3    H116184   1.376   2.184   5.162
 5413TIP3    H216185   1.380   2.280   5.044
 5414TIP3   OH216186   3.357   3.460   5.163
 5414TIP3    H116187   3.301   3.430   5.235
 5414TIP3    H216188   3.298   3.465   5.087
 5415TIP3   OH216189   3.612   4.007   3.630
 5415TIP3    H116190   3.588   3.933   3.687
 5415TIP3    H216191   3.556   3.997   3.553
 5416TIP3   OH216192   0.302   5.383   2.228
 5416TIP3    H116193   0.246   5.443   2.179
 5416TIP3    H216194   0.338   5.437   2.299
 5417TIP3   OH216195   3.889   2.949   4.506
 5417TIP3    H116196   3.926   3.031   4.541
 5417TIP3    H216197   3.903   2.885   4.576
 5418TIP3   OH216198   2.661   7.835   6.261
 5418TIP3    H116199   2.722   7.771   6.298
 5418TIP3    H216200   2.583   7.784   6.239
 5419TIP3   OH216201   4.667   3.584   3.445
 5419TIP3    H116202   4.742   3.534   3.415
 5419TIP3    H216203   4.591   3.539   3.407
 5420TIP3   OH216204   3.987   1.372   1.662
 5420TIP3    H116205   3.967   1.401   1.573
 5420TIP3    H216206   4.074   1.332   1.655
 5421TIP3   OH216207   6.615   7.480   5.501
 5421TIP3    H116208   6.653   7.394   5.522
 5421TIP3    H216209   6.598   7.476   5.407
 5422TIP3   OH216210   3.049   6.014   5.220
 5422TIP3    H116211   3.091   5.948   5.166
 5422TIP3    H216212   2.980   6.050   5.164
 5423TIP3   OH216213   3.766   0.677   3.524
 5423TIP3    H116214   3.739   0.747   3.584
 5423TIP3    H216215   3.861   0.686   3.518
 5424TIP3   OH216216   8.088   4.003   1.446
 5424TIP3    H116217   7.995   3.987   1.463
 5424TIP3    H216218   8.115   4.062   1.516
 5425TIP3   OH216219   4.672   3.819   3.285
 5425TIP3    H116220   4.683   3.768   3.205
 5425TIP3    H216221   4.661   3.754   3.354
 5426TIP3   OH216222   4.996   4.462   6.077
 5426TIP3    H116223   4.928   4.394   6.082
 5426TIP3    H216224   4.980   4.517   6.154
 5427TIP3   OH216225   7.256   0.868   6.364
 5427TIP3    H116226   7.282   0.959   6.352
 5427TIP3    H216227   7.293   0.822   6.288
 5428TIP3   OH216228   3.665   7.069   1.391
 5428TIP3    H116229   3.753   7.106   1.398
 5428TIP3    H216230   3.610   7.128   1.442
 5429TIP3   OH216231   7.965   2.217   5.607
 5429TIP3    H116232   7.882   2.247   5.569
 5429TIP3    H216233   8.028   2.286   5.584
 5430TIP3   OH216234   0.287   1.078   1.275
 5430TIP3    H116235   0.254   1.135   1.206
 5430TIP3    H216236   0.381   1.073   1.258
 5431TIP3   OH216237   0.638   4.453   3.285
 5431TIP3    H116238   0.690   4.380   3.253
 5431TIP3    H216239   0.611   4.500   3.206
 5432TIP3   OH216240   3.802   0.783   5.862
 5432TIP3    H116241   3.887   0.778   5.820
 5432TIP3    H216242   3.756   0.853   5.816
 5433TIP3   OH216243   2.583   2.109   2.715
 5433TIP3    H116244   2.570   2.203   2.699
 5433TIP3    H216245   2.586   2.101   2.810
 5434TIP3   OH216246   2.082   6.287   1.740
 5434TIP3    H116247   2.141   6.278   1.814
 5434TIP3    H216248   2.096   6.375   1.707
 5435TIP3   OH216249   3.366   7.172   5.815
 5435TIP3    H116250   3.329   7.258   5.832
 5435TIP3    H216251   3.456   7.189   5.788
 5436TIP3   OH216252   3.167   2.701   0.930
 5436TIP3    H116253   3.100   2.736   0.871
 5436TIP3    H216254   3.119   2.678   1.009
 5437TIP3   OH216255   0.597   1.321   5.219
 5437TIP3    H116256   0.654   1.377   5.270
 5437TIP3    H216257   0.508   1.345   5.246
 5438TIP3   OH216258   7.983   5.824   3.235
 5438TIP3    H116259   8.056   5.885   3.242
 5438TIP3    H216260   8.020   5.747   3.191
 5439TIP3   OH216261   8.288   2.186   5.632
 5439TIP3    H116262   8.246   2.272   5.634
 5439TIP3    H216263   8.281   2.153   5.721
 5440TIP3   OH216264   1.338   4.413   5.040
 5440TIP3    H116265   1.271   4.466   4.996
 5440TIP3    H216266   1.303   4.324   5.038
 5441TIP3   OH216267   7.970   0.369   6.132
 5441TIP3    H116268   7.956   0.404   6.221
 5441TIP3    H216269   8.051   0.411   6.103
 5442TIP3   OH216270   3.948   0.941   3.124
 5442TIP3    H116271   3.957   1.004   3.195
 5442TIP3    H216272   3.853   0.935   3.109
 5443TIP3   OH216273   1.764   1.059   0.228
 5443TIP3    H116274   1.701   1.037   0.296
 5443TIP3    H216275   1.720   1.125   0.175
 5444TIP3   OH216276   7.731   7.645   5.138
 5444TIP3    H116277   7.710   7.737   5.154
 5444TIP3    H216278   7.768   7.645   5.050
 5445TIP3   OH216279   5.805   1.332   6.215
 5445TIP3    H116280   5.734   1.284   6.173
 5445TIP3    H216281   5.875   1.332   6.150
 5446TIP3   OH216282   0.861   7.232   6.729
 5446TIP3    H116283   0.944   7.198   6.696
 5446TIP3    H216284   0.823   7.279   6.655
 5447TIP3   OH216285   2.919   0.264   1.276
 5447TIP3    H116286   2.907   0.194   1.340
 5447TIP3    H216287   2.863   0.335   1.306
 5448TIP3   OH216288   6.829   5.116   5.332
 5448TIP3    H116289   6.898   5.051   5.349
 5448TIP3    H216290   6.781   5.122   5.414
 5449TIP3   OH216291   6.198   7.839   1.873
 5449TIP3    H116292   6.239   7.852   1.788
 5449TIP3    H216293   6.213   7.746   1.892
 5450TIP3   OH216294   4.256   7.868   5.611
 5450TIP3    H116295   4.331   7.819   5.578
 5450TIP3    H216296   4.180   7.816   5.586
 5451TIP3   OH216297   7.112   5.007   1.470
 5451TIP3    H116298   7.146   4.923   1.498
 5451TIP3    H216299   7.083   4.993   1.380
 5452TIP3   OH216300   6.321   6.073   3.169
 5452TIP3    H116301   6.380   6.000   3.152
 5452TIP3    H216302   6.367   6.149   3.133
 5453TIP3   OH216303   5.146   0.333   2.690
 5453TIP3    H116304   5.080   0.390   2.651
 5453TIP3    H216305   5.176   0.380   2.768
 5454TIP3   OH216306   8.071   2.608   5.839
 5454TIP3    H116307   8.042   2.517   5.838
 5454TIP3    H216308   7.990   2.660   5.839
 5455TIP3   OH216309   6.785   1.075   2.825
 5455TIP3    H116310   6.821   1.040   2.907
 5455TIP3    H216311   6.699   1.109   2.849
 5456TIP3   OH216312   6.858   2.204   6.292
 5456TIP3    H116313   6.827   2.294   6.281
 5456TIP3    H216314   6.791   2.162   6.346
 5457TIP3   OH216315   1.970   2.102   1.625
 5457TIP3    H116316   1.959   2.127   1.534
 5457TIP3    H216317   2.065   2.108   1.641
 5458TIP3   OH216318   7.955   6.262   2.628
 5458TIP3    H116319   7.990   6.213   2.702
 5458TIP3    H216320   7.861   6.269   2.646
 5459TIP3   OH216321   4.461   0.649   2.488
 5459TIP3    H116322   4.382   0.703   2.490
 5459TIP3    H216323   4.489   0.652   2.397
 5460TIP3   OH216324   5.520   3.070   4.874
 5460TIP3    H116325   5.553   3.160   4.873
 5460TIP3    H216326   5.517   3.045   4.782
 5461TIP3   OH216327   2.956   0.256   3.688
 5461TIP3    H116328   3.000   0.189   3.636
 5461TIP3    H216329   2.966   0.228   3.779
 5462TIP3   OH216330   3.492   4.678   0.045
 5462TIP3    H116331   3.427   4.706  -0.020
 5462TIP3    H216332   3.576   4.682  -0.002
 5463TIP3   OH216333   4.476   1.066   3.937
 5463TIP3    H116334   4.483   1.069   4.033
 5463TIP3    H216335   4.543   1.003   3.910
 5464TIP3   OH216336   2.377   6.929   6.444
 5464TIP3    H116337   2.431   6.963   6.372
 5464TIP3    H216338   2.382   6.997   6.511
 5465TIP3   OH216339   6.018   1.173   5.764
 5465TIP3    H116340   6.032   1.268   5.762
 5465TIP3    H216341   6.066   1.140   5.688
 5466TIP3   OH216342   6.624   2.916   0.564
 5466TIP3    H116343   6.631   3.010   0.580
 5466TIP3    H216344   6.530   2.898   0.566
 5467TIP3   OH216345   1.451   6.997   1.316
 5467TIP3    H116346   1.359   7.015   1.294
 5467TIP3    H216347   1.470   6.914   1.273
 5468TIP3   OH216348   5.799  -0.014   5.430
 5468TIP3    H116349   5.719  -0.067   5.430
 5468TIP3    H216350   5.799   0.027   5.343
 5469TIP3   OH216351   1.190   6.033   2.899
 5469TIP3    H116352   1.140   6.070   2.826
 5469TIP3    H216353   1.210   6.109   2.954
 5470TIP3   OH216354   6.138   4.190   3.028
 5470TIP3    H116355   6.179   4.107   3.053
 5470TIP3    H216356   6.156   4.249   3.102
 5471TIP3   OH216357   5.672   5.272   4.355
 5471TIP3    H116358   5.694   5.362   4.331
 5471TIP3    H216359   5.725   5.218   4.297
 5472TIP3   OH216360   6.612   4.988   3.200
 5472TIP3    H116361   6.704   5.013   3.207
 5472TIP3    H216362   6.613   4.902   3.158
 5473TIP3   OH216363   5.986   4.898   5.650
 5473TIP3    H116364   5.989   4.977   5.704
 5473TIP3    H216365   6.049   4.915   5.580
 5474TIP3   OH216366   0.759   5.451   1.656
 5474TIP3    H116367   0.684   5.503   1.683
 5474TIP3    H216368   0.820   5.455   1.730
 5475TIP3   OH216369   5.511   7.510   6.318
 5475TIP3    H116370   5.429   7.479   6.280
 5475TIP3    H216371   5.546   7.435   6.365
 5476TIP3   OH216372   2.298   0.919   0.691
 5476TIP3    H116373   2.257   0.836   0.664
 5476TIP3    H216374   2.224   0.979   0.702
 5477TIP3   OH216375   0.673   2.804   1.686
 5477TIP3    H116376   0.670   2.888   1.732
 5477TIP3    H216377   0.581   2.781   1.672
 5478TIP3   OH216378   6.491   4.381   0.622
 5478TIP3    H116379   6.422   4.329   0.664
 5478TIP3    H216380   6.544   4.413   0.695
 5479TIP3   OH216381   1.709   4.448   4.070
 5479TIP3    H116382   1.717   4.359   4.036
 5479TIP3    H216383   1.615   4.463   4.080
 5480TIP3   OH216384   4.069   5.069   6.436
 5480TIP3    H116385   3.991   5.060   6.491
 5480TIP3    H216386   4.141   5.076   6.498
 5481TIP3   OH216387   4.432   3.479   4.641
 5481TIP3    H116388   4.365   3.493   4.575
 5481TIP3    H216389   4.383   3.456   4.720
 5482TIP3   OH216390   1.860   4.284   3.748
 5482TIP3    H116391   1.909   4.300   3.667
 5482TIP3    H216392   1.922   4.307   3.817
 5483TIP3   OH216393   5.622   5.500   5.523
 5483TIP3    H116394   5.714   5.474   5.515
 5483TIP3    H216395   5.596   5.524   5.434
 5484TIP3   OH216396   4.534   2.560   4.240
 5484TIP3    H116397   4.521   2.546   4.146
 5484TIP3    H216398   4.600   2.494   4.264
 5485TIP3   OH216399   5.552   5.124   2.977
 5485TIP3    H116400   5.482   5.183   3.004
 5485TIP3    H216401   5.529   5.040   3.017
 5486TIP3   OH216402   3.659   6.501   0.715
 5486TIP3    H116403   3.651   6.555   0.636
 5486TIP3    H216404   3.719   6.431   0.691
 5487TIP3   OH216405   3.346   6.569   1.102
 5487TIP3    H116406   3.262   6.534   1.129
 5487TIP3    H216407   3.326   6.654   1.063
 5488TIP3   OH216408   5.913   7.375   2.568
 5488TIP3    H116409   6.007   7.367   2.554
 5488TIP3    H216410   5.888   7.293   2.609
 5489TIP3   OH216411   3.730   6.474   1.369
 5489TIP3    H116412   3.797   6.408   1.352
 5489TIP3    H216413   3.713   6.515   1.284
 5490TIP3   OH216414   4.255   4.898   1.226
 5490TIP3    H116415   4.341   4.886   1.266
 5490TIP3    H216416   4.194   4.856   1.287
 5491TIP3   OH216417   6.512   6.248   3.482
 5491TIP3    H116418   6.506   6.262   3.388
 5491TIP3    H216419   6.593   6.293   3.507
 5492TIP3   OH216420   1.286   7.504   5.225
 5492TIP3    H116421   1.229   7.432   5.254
 5492TIP3    H216422   1.232   7.552   5.162
 5493TIP3   OH216423   1.351   6.912   4.353
 5493TIP3    H116424   1.313   6.884   4.269
 5493TIP3    H216425   1.445   6.895   4.343
 5494TIP3   OH216426   4.981   0.073   6.399
 5494TIP3    H116427   5.042   0.017   6.446
 5494TIP3    H216428   4.904   0.017   6.384
 5495TIP3   OH216429   7.049   6.810   5.060
 5495TIP3    H116430   6.992   6.744   5.099
 5495TIP3    H216431   6.998   6.891   5.061
 5496TIP3   OH216432   6.576   6.449   4.697
 5496TIP3    H116433   6.659   6.496   4.691
 5496TIP3    H216434   6.531   6.471   4.616
 5497TIP3   OH216435   0.709   2.557   1.801
 5497TIP3    H116436   0.642   2.504   1.758
 5497TIP3    H216437   0.688   2.647   1.775
 5498TIP3   OH216438   5.328   1.071   5.048
 5498TIP3    H116439   5.294   1.051   4.961
 5498TIP3    H216440   5.323   0.988   5.095
 5499TIP3   OH216441   1.415   3.252   4.682
 5499TIP3    H116442   1.432   3.171   4.634
 5499TIP3    H216443   1.486   3.259   4.746
 5500TIP3   OH216444   8.201   6.964   2.395
 5500TIP3    H116445   8.195   6.877   2.355
 5500TIP3    H216446   8.168   6.952   2.484
 5501TIP3   OH216447   6.287   3.734   2.736
 5501TIP3    H116448   6.213   3.789   2.760
 5501TIP3    H216449   6.337   3.787   2.674
 5502TIP3   OH216450   6.602   1.070   5.229
 5502TIP3    H116451   6.610   1.129   5.304
 5502TIP3    H216452   6.522   1.098   5.185
 5503TIP3   OH216453   0.866   3.433   0.373
 5503TIP3    H116454   0.838   3.353   0.417
 5503TIP3    H216455   0.794   3.454   0.313
 5504TIP3   OH216456   1.845   0.880   0.006
 5504TIP3    H116457   1.831   0.940   0.080
 5504TIP3    H216458   1.940   0.878  -0.006
 5505TIP3   OH216459   6.401   0.995   6.591
 5505TIP3    H116460   6.400   0.920   6.650
 5505TIP3    H216461   6.461   1.057   6.633
 5506TIP3   OH216462   6.463   6.919   0.549
 5506TIP3    H116463   6.418   6.926   0.633
 5506TIP3    H216464   6.467   6.824   0.532
 5507TIP3   OH216465   6.192   1.555   6.159
 5507TIP3    H116466   6.280   1.518   6.163
 5507TIP3    H216467   6.167   1.569   6.250
 5508TIP3   OH216468   6.140   4.824   4.929
 5508TIP3    H116469   6.166   4.876   5.005
 5508TIP3    H216470   6.167   4.876   4.853
 5509TIP3   OH216471   1.092   4.225   4.093
 5509TIP3    H116472   1.006   4.241   4.053
 5509TIP3    H216473   1.091   4.133   4.117
 5510TIP3   OH216474   5.689   5.362   0.079
 5510TIP3    H116475   5.612   5.320   0.041
 5510TIP3    H216476   5.745   5.289   0.106
 5511TIP3   OH216477   3.462   2.082   6.564
 5511TIP3    H116478   3.547   2.114   6.533
 5511TIP3    H216479   3.476   2.063   6.657
 5512TIP3   OH216480   3.159   3.159   5.588
 5512TIP3    H116481   3.197   3.238   5.626
 5512TIP3    H216482   3.230   3.120   5.538
 5513TIP3   OH216483   3.584   2.955   1.115
 5513TIP3    H116484   3.577   3.045   1.148
 5513TIP3    H216485   3.672   2.950   1.078
 5514TIP3   OH216486   6.179   7.687   4.605
 5514TIP3    H116487   6.113   7.634   4.561
 5514TIP3    H216488   6.176   7.772   4.560
 5515TIP3   OH216489   5.809   0.645   1.300
 5515TIP3    H116490   5.788   0.571   1.356
 5515TIP3    H216491   5.755   0.632   1.222
 5516TIP3   OH216492   6.140   7.511   0.784
 5516TIP3    H116493   6.125   7.576   0.854
 5516TIP3    H216494   6.057   7.507   0.737
 5517TIP3   OH216495   7.057   5.291   1.427
 5517TIP3    H116496   7.060   5.196   1.441
 5517TIP3    H216497   6.979   5.320   1.473
 5518TIP3   OH216498   8.027   4.146   5.347
 5518TIP3    H116499   7.935   4.137   5.322
 5518TIP3    H216500   8.042   4.076   5.411
 5519TIP3   OH216501   0.335   4.411   0.517
 5519TIP3    H116502   0.387   4.331   0.507
 5519TIP3    H216503   0.288   4.419   0.434
 5520TIP3   OH216504   7.524   6.182   4.941
 5520TIP3    H116505   7.619   6.194   4.952
 5520TIP3    H216506   7.493   6.266   4.907
 5521TIP3   OH216507   5.042   3.586   5.111
 5521TIP3    H116508   4.968   3.531   5.138
 5521TIP3    H216509   5.106   3.525   5.075
 5522TIP3   OH216510   6.752   2.820   2.808
 5522TIP3    H116511   6.844   2.807   2.786
 5522TIP3    H216512   6.714   2.859   2.729
 5523TIP3   OH216513   3.390   7.168   0.601
 5523TIP3    H116514   3.472   7.119   0.607
 5523TIP3    H216515   3.325   7.102   0.575
 5524TIP3   OH216516   2.136   1.991   1.903
 5524TIP3    H116517   2.227   1.984   1.874
 5524TIP3    H216518   2.132   2.075   1.949
 5525TIP3   OH216519   0.303   5.496   2.600
 5525TIP3    H116520   0.262   5.552   2.535
 5525TIP3    H216521   0.394   5.526   2.603
 5526TIP3   OH216522   2.127   1.545   0.947
 5526TIP3    H116523   2.135   1.492   0.868
 5526TIP3    H216524   2.214   1.583   0.960
 5527TIP3   OH216525   1.398   1.011   2.942
 5527TIP3    H116526   1.463   1.046   2.881
 5527TIP3    H216527   1.348   1.088   2.970
 5528TIP3   OH216528   5.699   0.479   6.787
 5528TIP3    H116529   5.792   0.458   6.796
 5528TIP3    H216530   5.697   0.565   6.744
 5529TIP3   OH216531   5.927   3.098   3.447
 5529TIP3    H116532   5.982   3.122   3.373
 5529TIP3    H216533   5.941   3.004   3.459
 5530TIP3   OH216534   4.133   3.588   4.250
 5530TIP3    H116535   4.161   3.617   4.163
 5530TIP3    H216536   4.038   3.601   4.250
 5531TIP3   OH216537   0.115   0.494   4.757
 5531TIP3    H116538   0.128   0.571   4.812
 5531TIP3    H216539   0.143   0.421   4.812
 5532TIP3   OH216540   3.300   4.201   1.287
 5532TIP3    H116541   3.334   4.164   1.206
 5532TIP3    H216542   3.296   4.127   1.347
 5533TIP3   OH216543   0.521   5.218   3.360
 5533TIP3    H116544   0.476   5.140   3.391
 5533TIP3    H216545   0.579   5.186   3.291
 5534TIP3   OH216546   6.717   6.782   5.666
 5534TIP3    H116547   6.743   6.858   5.719
 5534TIP3    H216548   6.705   6.712   5.730
 5535TIP3   OH216549   5.451   7.088   3.072
 5535TIP3    H116550   5.410   7.041   3.000
 5535TIP3    H216551   5.463   7.022   3.140
 5536TIP3   OH216552   3.350   0.344   3.699
 5536TIP3    H116553   3.359   0.371   3.790
 5536TIP3    H216554   3.270   0.291   3.697
 5537TIP3   OH216555   0.199   6.488   1.400
 5537TIP3    H116556   0.289   6.499   1.431
 5537TIP3    H216557   0.174   6.575   1.369
 5538TIP3   OH216558   6.946   6.981   3.928
 5538TIP3    H116559   6.884   6.975   3.856
 5538TIP3    H216560   6.966   7.074   3.935
 5539TIP3   OH216561   1.313   6.103   4.927
 5539TIP3    H116562   1.320   6.105   5.022
 5539TIP3    H216563   1.400   6.075   4.897
 5540TIP3   OH216564   0.858   1.408   3.877
 5540TIP3    H116565   0.841   1.344   3.808
 5540TIP3    H216566   0.951   1.429   3.867
 5541TIP3   OH216567   6.879   0.659   2.848
 5541TIP3    H116568   6.811   0.604   2.886
 5541TIP3    H216569   6.955   0.646   2.905
 5542TIP3   OH216570   0.737   1.245   3.501
 5542TIP3    H116571   0.832   1.254   3.506
 5542TIP3    H216572   0.703   1.330   3.527
 5543TIP3   OH216573   4.787   4.835  -0.020
 5543TIP3    H116574   4.762   4.873   0.064
 5543TIP3    H216575   4.878   4.807  -0.008
 5544TIP3   OH216576   3.395   6.957   0.283
 5544TIP3    H116577   3.464   7.008   0.241
 5544TIP3    H216578   3.440   6.902   0.346
 5545TIP3   OH216579   0.411   5.726   1.655
 5545TIP3    H116580   0.479   5.666   1.685
 5545TIP3    H216581   0.451   5.813   1.665
 5546TIP3   OH216582   1.971   7.322   4.565
 5546TIP3    H116583   2.054   7.277   4.553
 5546TIP3    H216584   1.918   7.261   4.617
 5547TIP3   OH216585   3.019   6.862   6.224
 5547TIP3    H116586   3.059   6.949   6.233
 5547TIP3    H216587   2.971   6.849   6.306
 5548TIP3   OH216588   1.043   1.129   3.258
 5548TIP3    H116589   0.953   1.158   3.247
 5548TIP3    H216590   1.037   1.058   3.323
 5549TIP3   OH216591   2.828   2.597   5.680
 5549TIP3    H116592   2.841   2.592   5.586
 5549TIP3    H216593   2.916   2.589   5.717
 5550TIP3   OH216594   6.598   4.195   2.214
 5550TIP3    H116595   6.553   4.226   2.293
 5550TIP3    H216596   6.532   4.201   2.145
 5551TIP3   OH216597   2.412   6.046   4.962
 5551TIP3    H116598   2.341   6.085   5.013
 5551TIP3    H216599   2.489   6.098   4.984
 5552TIP3   OH216600   0.988   0.981   3.485
 5552TIP3    H116601   1.029   0.910   3.535
 5552TIP3    H216602   0.974   1.051   3.549
 5553TIP3   OH216603   7.586   2.690   0.216
 5553TIP3    H116604   7.568   2.599   0.192
 5553TIP3    H216605   7.664   2.685   0.270
 5554TIP3   OH216606   6.945   1.781   6.412
 5554TIP3    H116607   6.854   1.789   6.442
 5554TIP3    H216608   6.983   1.867   6.428
 5555TIP3   OH216609   4.709   1.210   0.910
 5555TIP3    H116610   4.678   1.170   0.991
 5555TIP3    H216611   4.741   1.296   0.937
 5556TIP3   OH216612   4.407   7.838   0.899
 5556TIP3    H116613   4.501   7.833   0.882
 5556TIP3    H216614   4.370   7.765   0.850
 5557TIP3   OH216615   4.681   1.133   6.398
 5557TIP3    H116616   4.678   1.038   6.409
 5557TIP3    H216617   4.773   1.156   6.407
 5558TIP3   OH216618   3.760   2.195   0.127
 5558TIP3    H116619   3.771   2.105   0.097
 5558TIP3    H216620   3.706   2.236   0.059
 5559TIP3   OH216621   7.477   7.674   1.585
 5559TIP3    H116622   7.482   7.662   1.490
 5559TIP3    H216623   7.500   7.589   1.621
 5560TIP3   OH216624   4.684   3.554   4.706
 5560TIP3    H116625   4.709   3.527   4.795
 5560TIP3    H216626   4.593   3.527   4.698
 5561TIP3   OH216627   2.048   1.168   6.601
 5561TIP3    H116628   2.062   1.093   6.660
 5561TIP3    H216629   1.959   1.197   6.620
 5562TIP3   OH216630   0.395   6.266   1.822
 5562TIP3    H116631   0.453   6.199   1.857
 5562TIP3    H216632   0.351   6.302   1.900
 5563TIP3   OH216633   7.900   3.643   4.720
 5563TIP3    H116634   7.873   3.558   4.685
 5563TIP3    H216635   7.832   3.704   4.689
 5564TIP3   OH216636   4.380   5.506   6.231
 5564TIP3    H116637   4.435   5.582   6.213
 5564TIP3    H216638   4.345   5.480   6.146
 5565TIP3   OH216639   3.116   0.452   1.217
 5565TIP3    H116640   3.063   0.384   1.258
 5565TIP3    H216641   3.074   0.468   1.132
 5566TIP3   OH216642   2.841   3.200   6.788
 5566TIP3    H116643   2.929   3.165   6.795
 5566TIP3    H216644   2.851   3.280   6.737
 5567TIP3   OH216645   2.260   4.833   3.820
 5567TIP3    H116646   2.290   4.918   3.853
 5567TIP3    H216647   2.285   4.771   3.889
 5568TIP3   OH216648   2.834   2.964   1.716
 5568TIP3    H116649   2.862   2.940   1.628
 5568TIP3    H216650   2.888   3.040   1.739
 5569TIP3   OH216651   7.940   7.006   3.350
 5569TIP3    H116652   7.857   7.047   3.324
 5569TIP3    H216653   7.968   7.056   3.427
 5570TIP3   OH216654   0.524   6.149   5.652
 5570TIP3    H116655   0.436   6.177   5.679
 5570TIP3    H216656   0.553   6.216   5.590
 5571TIP3   OH216657   5.921   4.252   5.462
 5571TIP3    H116658   5.996   4.308   5.484
 5571TIP3    H216659   5.863   4.259   5.537
 5572TIP3   OH216660   3.229   1.471   1.565
 5572TIP3    H116661   3.155   1.528   1.584
 5572TIP3    H216662   3.214   1.394   1.620
 5573TIP3   OH216663   2.629   6.282   6.494
 5573TIP3    H116664   2.546   6.241   6.519
 5573TIP3    H216665   2.664   6.226   6.425
 5574TIP3   OH216666   5.665   0.724   2.691
 5574TIP3    H116667   5.706   0.665   2.754
 5574TIP3    H216668   5.715   0.805   2.698
 5575TIP3   OH216669   4.545   1.447   4.703
 5575TIP3    H116670   4.592   1.530   4.706
 5575TIP3    H216671   4.461   1.468   4.664
 5576TIP3   OH216672   5.701   7.103   0.298
 5576TIP3    H116673   5.644   7.074   0.227
 5576TIP3    H216674   5.747   7.179   0.261
 5577TIP3   OH216675   0.571   2.063   3.416
 5577TIP3    H116676   0.563   2.158   3.419
 5577TIP3    H216677   0.480   2.032   3.419
 5578TIP3   OH216678   3.601   3.901   0.662
 5578TIP3    H116679   3.629   3.811   0.646
 5578TIP3    H216680   3.541   3.921   0.589
 5579TIP3   OH216681   4.556   1.731   5.958
 5579TIP3    H116682   4.552   1.690   5.872
 5579TIP3    H216683   4.513   1.668   6.017
 5580TIP3   OH216684   5.530   5.577   5.258
 5580TIP3    H116685   5.584   5.511   5.213
 5580TIP3    H216686   5.496   5.632   5.188
 5581TIP3   OH216687   5.555   6.159   6.508
 5581TIP3    H116688   5.551   6.077   6.460
 5581TIP3    H216689   5.530   6.135   6.598
 5582TIP3   OH216690   8.153   6.953   6.272
 5582TIP3    H116691   8.142   6.862   6.247
 5582TIP3    H216692   8.193   6.994   6.194
 5583TIP3   OH216693   0.358   6.188   6.309
 5583TIP3    H116694   0.273   6.208   6.350
 5583TIP3    H216695   0.421   6.241   6.357
 5584TIP3   OH216696   8.091   2.252   0.650
 5584TIP3    H116697   8.124   2.325   0.597
 5584TIP3    H216698   8.154   2.181   0.634
 5585TIP3   OH216699   5.355   2.641   6.072
 5585TIP3    H116700   5.374   2.548   6.090
 5585TIP3    H216701   5.267   2.654   6.107
 5586TIP3   OH216702   2.157   7.077   4.887
 5586TIP3    H116703   2.084   7.043   4.836
 5586TIP3    H216704   2.193   7.001   4.931
 5587TIP3   OH216705   6.192   1.178   6.211
 5587TIP3    H116706   6.218   1.115   6.278
 5587TIP3    H216707   6.165   1.256   6.261
 5588TIP3   OH216708   0.238   3.470   2.439
 5588TIP3    H116709   0.210   3.402   2.378
 5588TIP3    H216710   0.196   3.550   2.407
 5589TIP3   OH216711   7.276   0.560   2.286
 5589TIP3    H116712   7.224   0.583   2.363
 5589TIP3    H216713   7.349   0.508   2.320
 5590TIP3   OH216714   2.633   7.553   5.066
 5590TIP3    H116715   2.700   7.518   5.008
 5590TIP3    H216716   2.569   7.593   5.007
 5591TIP3   OH216717   7.191   4.835   5.327
 5591TIP3    H116718   7.135   4.758   5.322
 5591TIP3    H216719   7.280   4.799   5.331
 5592TIP3   OH216720   7.381   5.349   6.560
 5592TIP3    H116721   7.433   5.403   6.500
 5592TIP3    H216722   7.437   5.337   6.636
 5593TIP3   OH216723   3.729   1.907   2.813
 5593TIP3    H116724   3.774   1.983   2.776
 5593TIP3    H216725   3.748   1.836   2.752
 5594TIP3   OH216726   6.278   2.947   2.582
 5594TIP3    H116727   6.366   2.950   2.544
 5594TIP3    H216728   6.240   3.031   2.561
 5595TIP3   OH216729   2.727   0.748   0.608
 5595TIP3    H116730   2.781   0.675   0.578
 5595TIP3    H216731   2.786   0.823   0.609
 5596TIP3   OH216732   2.316   6.570   3.421
 5596TIP3    H116733   2.288   6.586   3.331
 5596TIP3    H216734   2.409   6.593   3.422
 5597TIP3   OH216735   0.858   0.110   3.589
 5597TIP3    H116736   0.821   0.196   3.607
 5597TIP3    H216737   0.937   0.128   3.539
 5598TIP3   OH216738   2.589   7.456   2.776
 5598TIP3    H116739   2.516   7.496   2.729
 5598TIP3    H216740   2.662   7.517   2.764
 5599TIP3   OH216741   0.084   5.473   4.818
 5599TIP3    H116742   0.085   5.439   4.907
 5599TIP3    H216743   0.175   5.494   4.799
 5600TIP3   OH216744   1.445   6.397   4.772
 5600TIP3    H116745   1.412   6.332   4.710
 5600TIP3    H216746   1.498   6.347   4.834
 5601TIP3   OH216747   3.225   6.811   0.132
 5601TIP3    H116748   3.248   6.866   0.057
 5601TIP3    H216749   3.274   6.847   0.205
 5602TIP3   OH216750   1.636   4.637   3.186
 5602TIP3    H116751   1.561   4.618   3.243
 5602TIP3    H216752   1.596   4.661   3.103
 5603TIP3   OH216753   7.507   7.591   1.317
 5603TIP3    H116754   7.588   7.632   1.288
 5603TIP3    H216755   7.438   7.642   1.275
 5604TIP3   OH216756   1.186   6.439   3.984
 5604TIP3    H116757   1.264   6.490   3.961
 5604TIP3    H216758   1.121   6.465   3.919
 5605TIP3   OH216759   0.988  -0.013   1.850
 5605TIP3    H116760   0.918  -0.014   1.785
 5605TIP3    H216761   1.024   0.076   1.846
 5606TIP3   OH216762   5.214   3.552   6.668
 5606TIP3    H116763   5.238   3.460   6.661
 5606TIP3    H216764   5.297   3.599   6.658
 5607TIP3   OH216765   1.782   7.147   0.938
 5607TIP3    H116766   1.785   7.185   1.026
 5607TIP3    H216767   1.786   7.222   0.879
 5608TIP3   OH216768   2.874   0.595   3.928
 5608TIP3    H116769   2.913   0.669   3.975
 5608TIP3    H216770   2.885   0.520   3.986
 5609TIP3   OH216771   2.423   0.320   6.515
 5609TIP3    H116772   2.358   0.358   6.574
 5609TIP3    H216773   2.466   0.395   6.474
 5610TIP3   OH216774   7.318   2.800   4.947
 5610TIP3    H116775   7.358   2.803   4.860
 5610TIP3    H216776   7.224   2.807   4.931
 5611TIP3   OH216777   3.068   3.083   3.272
 5611TIP3    H116778   3.046   2.991   3.261
 5611TIP3    H216779   3.153   3.093   3.230
 5612TIP3   OH216780   7.100   1.203   5.615
 5612TIP3    H116781   7.112   1.297   5.602
 5612TIP3    H216782   7.112   1.190   5.709
 5613TIP3   OH216783   8.258   4.669   6.106
 5613TIP3    H116784   8.342   4.635   6.135
 5613TIP3    H216785   8.223   4.602   6.048
 5614TIP3   OH216786   2.510   0.446   0.614
 5614TIP3    H116787   2.520   0.363   0.566
 5614TIP3    H216788   2.595   0.488   0.606
 5615TIP3   OH216789   1.342   2.379   1.041
 5615TIP3    H116790   1.270   2.442   1.044
 5615TIP3    H216791   1.420   2.431   1.060
 5616TIP3   OH216792   0.142   0.513   1.801
 5616TIP3    H116793   0.208   0.477   1.743
 5616TIP3    H216794   0.175   0.496   1.889
 5617TIP3   OH216795   2.149   0.922   6.289
 5617TIP3    H116796   2.231   0.874   6.280
 5617TIP3    H216797   2.171   0.998   6.344
 5618TIP3   OH216798   7.562   5.401   6.118
 5618TIP3    H116799   7.510   5.332   6.076
 5618TIP3    H216800   7.613   5.356   6.184
 5619TIP3   OH216801   0.384   7.330   5.090
 5619TIP3    H116802   0.304   7.337   5.039
 5619TIP3    H216803   0.450   7.376   5.037
 5620TIP3   OH216804   6.575   6.997   3.082
 5620TIP3    H116805   6.559   7.006   3.176
 5620TIP3    H216806   6.637   7.067   3.061
 5621TIP3   OH216807   4.945   5.527   5.296
 5621TIP3    H116808   4.933   5.433   5.305
 5621TIP3    H216809   5.036   5.538   5.270
 5622TIP3   OH216810   4.810   2.259   4.061
 5622TIP3    H116811   4.791   2.243   3.968
 5622TIP3    H216812   4.891   2.211   4.077
 5623TIP3   OH216813   1.652   6.390   0.360
 5623TIP3    H116814   1.631   6.307   0.319
 5623TIP3    H216815   1.627   6.456   0.295
 5624TIP3   OH216816   5.302   1.086   5.422
 5624TIP3    H116817   5.388   1.120   5.448
 5624TIP3    H216818   5.248   1.093   5.500
 5625TIP3   OH216819   3.628   6.989   0.633
 5625TIP3    H116820   3.704   7.015   0.582
 5625TIP3    H216821   3.660   6.988   0.724
 5626TIP3   OH216822   5.050   3.434   2.008
 5626TIP3    H116823   5.021   3.476   1.926
 5626TIP3    H216824   4.977   3.378   2.033
 5627TIP3   OH216825   3.048   4.442   4.389
 5627TIP3    H116826   3.005   4.431   4.475
 5627TIP3    H216827   2.982   4.486   4.335
 5628TIP3   OH216828   7.566   7.698   6.077
 5628TIP3    H116829   7.519   7.617   6.053
 5628TIP3    H216830   7.498   7.765   6.078
 5629TIP3   OH216831   7.999   0.631   2.103
 5629TIP3    H116832   7.966   0.720   2.110
 5629TIP3    H216833   7.963   0.599   2.020
 5630TIP3   OH216834   2.748   0.895   1.134
 5630TIP3    H116835   2.841   0.895   1.158
 5630TIP3    H216836   2.742   0.828   1.066
 5631TIP3   OH216837   1.518   4.075   6.228
 5631TIP3    H116838   1.489   3.986   6.206
 5631TIP3    H216839   1.614   4.071   6.223
 5632TIP3   OH216840   5.209   5.089   4.766
 5632TIP3    H116841   5.267   5.024   4.725
 5632TIP3    H216842   5.267   5.162   4.788
 5633TIP3   OH216843   2.863   7.497   5.357
 5633TIP3    H116844   2.902   7.418   5.319
 5633TIP3    H216845   2.874   7.485   5.452
 5634TIP3   OH216846   3.996   5.063   4.740
 5634TIP3    H116847   4.078   5.035   4.700
 5634TIP3    H216848   4.015   5.149   4.776
 5635TIP3   OH216849   4.129   6.723   1.703
 5635TIP3    H116850   4.051   6.757   1.660
 5635TIP3    H216851   4.153   6.791   1.766
 5636TIP3   OH216852   7.435   3.483   3.991
 5636TIP3    H116853   7.468   3.573   3.993
 5636TIP3    H216854   7.347   3.489   4.027
 5637TIP3   OH216855   8.135   2.930   3.871
 5637TIP3    H116856   8.050   2.972   3.882
 5637TIP3    H216857   8.191   2.997   3.831
 5638TIP3   OH216858   4.047   5.432   4.874
 5638TIP3    H116859   4.057   5.519   4.914
 5638TIP3    H216860   3.958   5.433   4.838
 5639TIP3   OH216861   4.387   5.536   1.644
 5639TIP3    H116862   4.421   5.624   1.633
 5639TIP3    H216863   4.356   5.534   1.735
 5640TIP3   OH216864   4.925   6.857   1.322
 5640TIP3    H116865   4.917   6.944   1.361
 5640TIP3    H216866   4.951   6.873   1.231
 5641TIP3   OH216867   0.976   6.638   5.513
 5641TIP3    H116868   0.950   6.559   5.467
 5641TIP3    H216869   1.053   6.612   5.564
 5642TIP3   OH216870   0.149   0.068   5.656
 5642TIP3    H116871   0.189  -0.019   5.658
 5642TIP3    H216872   0.163   0.099   5.567
 5643TIP3   OH216873   3.801   5.514   1.473
 5643TIP3    H116874   3.749   5.573   1.528
 5643TIP3    H216875   3.852   5.462   1.534
 5644TIP3   OH216876   4.662   7.706   0.109
 5644TIP3    H116877   4.729   7.648   0.144
 5644TIP3    H216878   4.708   7.787   0.089
 5645TIP3   OH216879   5.484   7.252   2.379
 5645TIP3    H116880   5.459   7.337   2.417
 5645TIP3    H216881   5.432   7.188   2.427
 5646TIP3   OH216882   6.917   0.264   4.558
 5646TIP3    H116883   6.916   0.197   4.491
 5646TIP3    H216884   6.834   0.254   4.604
 5647TIP3   OH216885   6.120   0.978   4.704
 5647TIP3    H116886   6.144   1.049   4.763
 5647TIP3    H216887   6.114   1.020   4.618
 5648TIP3   OH216888   2.709   2.226   4.657
 5648TIP3    H116889   2.689   2.282   4.732
 5648TIP3    H216890   2.797   2.252   4.631
 5649TIP3   OH216891   3.628   1.643   5.057
 5649TIP3    H116892   3.634   1.594   4.975
 5649TIP3    H216893   3.684   1.719   5.043
 5650TIP3   OH216894   5.837   0.294   3.454
 5650TIP3    H116895   5.888   0.357   3.404
 5650TIP3    H216896   5.885   0.212   3.445
 5651TIP3   OH216897   5.295   0.021   2.030
 5651TIP3    H116898   5.282   0.089   2.096
 5651TIP3    H216899   5.226  -0.043   2.047
 5652TIP3   OH216900   3.578   7.300   3.574
 5652TIP3    H116901   3.494   7.335   3.545
 5652TIP3    H216902   3.634   7.303   3.497
 5653TIP3   OH216903   6.057   1.488   4.535
 5653TIP3    H116904   6.025   1.450   4.617
 5653TIP3    H216905   5.978   1.516   4.488
 5654TIP3   OH216906   2.853   5.360   5.602
 5654TIP3    H116907   2.899   5.428   5.554
 5654TIP3    H216908   2.922   5.302   5.633
 5655TIP3   OH216909   2.401   2.455   3.081
 5655TIP3    H116910   2.412   2.403   3.160
 5655TIP3    H216911   2.410   2.546   3.110
 5656TIP3   OH216912   7.172   5.299   2.467
 5656TIP3    H116913   7.228   5.320   2.392
 5656TIP3    H216914   7.162   5.204   2.464
 5657TIP3   OH216915   6.344   2.937   0.537
 5657TIP3    H116916   6.266   2.935   0.593
 5657TIP3    H216917   6.319   2.992   0.463
 5658TIP3   OH216918   0.468   1.643   4.413
 5658TIP3    H116919   0.488   1.549   4.409
 5658TIP3    H216920   0.480   1.665   4.505
 5659TIP3   OH216921   7.048   3.151   2.221
 5659TIP3    H116922   7.013   3.238   2.205
 5659TIP3    H216923   7.109   3.162   2.294
 5660TIP3   OH216924   7.629   6.802   3.126
 5660TIP3    H116925   7.686   6.770   3.196
 5660TIP3    H216926   7.687   6.810   3.050
 5661TIP3   OH216927   1.424   4.194   3.890
 5661TIP3    H116928   1.344   4.223   3.846
 5661TIP3    H216929   1.484   4.172   3.819
 5662TIP3   OH216930   2.964   2.100   6.662
 5662TIP3    H116931   2.938   2.105   6.570
 5662TIP3    H216932   3.023   2.175   6.674
 5663TIP3   OH216933   4.061   4.690   1.850
 5663TIP3    H116934   4.105   4.621   1.900
 5663TIP3    H216935   4.123   4.712   1.780
 5664TIP3   OH216936   1.222   6.826   4.808
 5664TIP3    H116937   1.271   6.799   4.730
 5664TIP3    H216938   1.194   6.744   4.848
 5665TIP3   OH216939   6.674   0.205   1.685
 5665TIP3    H116940   6.717   0.123   1.659
 5665TIP3    H216941   6.684   0.208   1.781
 5666TIP3   OH216942   0.474   0.634   3.463
 5666TIP3    H116943   0.464   0.575   3.388
 5666TIP3    H216944   0.420   0.711   3.440
 5667TIP3   OH216945   1.342   0.154   0.743
 5667TIP3    H116946   1.284   0.094   0.697
 5667TIP3    H216947   1.370   0.217   0.676
 5668TIP3   OH216948   6.244   6.194   6.329
 5668TIP3    H116949   6.281   6.262   6.385
 5668TIP3    H216950   6.153   6.186   6.357
 5669TIP3   OH216951   0.529   4.559   2.346
 5669TIP3    H116952   0.459   4.536   2.284
 5669TIP3    H216953   0.503   4.518   2.428
 5670TIP3   OH216954   3.845   6.277   0.249
 5670TIP3    H116955   3.820   6.215   0.180
 5670TIP3    H216956   3.770   6.278   0.308
 5671TIP3   OH216957   1.043   6.547   5.120
 5671TIP3    H116958   1.072   6.609   5.187
 5671TIP3    H216959   1.077   6.583   5.038
 5672TIP3   OH216960   3.091   1.724   3.206
 5672TIP3    H116961   3.145   1.781   3.150
 5672TIP3    H216962   3.036   1.676   3.145
 5673TIP3   OH216963   0.554   5.505   4.364
 5673TIP3    H116964   0.466   5.470   4.363
 5673TIP3    H216965   0.578   5.514   4.271
 5674TIP3   OH216966   5.610   2.116   2.547
 5674TIP3    H116967   5.563   2.121   2.631
 5674TIP3    H216968   5.540   2.115   2.481
 5675TIP3   OH216969   5.411   6.031   2.177
 5675TIP3    H116970   5.327   6.076   2.182
 5675TIP3    H216971   5.390   5.946   2.138
 5676TIP3   OH216972   8.042   7.781   0.636
 5676TIP3    H116973   8.021   7.862   0.589
 5676TIP3    H216974   8.000   7.712   0.585
 5677TIP3   OH216975   6.358   1.484   2.398
 5677TIP3    H116976   6.352   1.436   2.315
 5677TIP3    H216977   6.446   1.523   2.397
 5678TIP3   OH216978   5.239   0.981   3.235
 5678TIP3    H116979   5.239   0.925   3.157
 5678TIP3    H216980   5.324   1.025   3.233
 5679TIP3   OH216981   6.301   1.956   3.188
 5679TIP3    H116982   6.261   1.889   3.133
 5679TIP3    H216983   6.263   2.039   3.158
 5680TIP3   OH216984   6.182   4.272   2.143
 5680TIP3    H116985   6.161   4.347   2.087
 5680TIP3    H216986   6.275   4.256   2.128
 5681TIP3   OH216987   4.116   0.425   1.061
 5681TIP3    H116988   4.096   0.382   0.978
 5681TIP3    H216989   4.157   0.508   1.036
 5682TIP3   OH216990   2.904   3.412   6.559
 5682TIP3    H116991   2.961   3.477   6.518
 5682TIP3    H216992   2.892   3.345   6.492
 5683TIP3   OH216993   4.453   3.775   1.670
 5683TIP3    H116994   4.470   3.750   1.761
 5683TIP3    H216995   4.358   3.770   1.661
 5684TIP3   OH216996   7.154   2.183   0.641
 5684TIP3    H116997   7.147   2.268   0.598
 5684TIP3    H216998   7.152   2.120   0.569
 5685TIP3   OH216999   3.393   4.028   6.646
 5685TIP3    H117000   3.300   4.017   6.629
 5685TIP3    H217001   3.436   3.983   6.573
 5686TIP3   OH217002   1.531   7.484   6.508
 5686TIP3    H117003   1.524   7.401   6.555
 5686TIP3    H217004   1.510   7.462   6.417
 5687TIP3   OH217005   1.515   4.891   6.590
 5687TIP3    H117006   1.587   4.936   6.546
 5687TIP3    H217007   1.437   4.941   6.566
 5688TIP3   OH217008   2.272   2.621   6.119
 5688TIP3    H117009   2.247   2.589   6.032
 5688TIP3    H217010   2.368   2.623   6.116
 5689TIP3   OH217011   7.170   3.569   2.725
 5689TIP3    H117012   7.135   3.646   2.680
 5689TIP3    H217013   7.194   3.601   2.812
 5690TIP3   OH217014   4.785   2.446   3.569
 5690TIP3    H117015   4.801   2.532   3.608
 5690TIP3    H217016   4.700   2.454   3.526
 5691TIP3   OH217017   1.571   6.686   2.220
 5691TIP3    H117018   1.526   6.690   2.135
 5691TIP3    H217019   1.660   6.716   2.201
 5692TIP3   OH217020   1.199   4.399   2.525
 5692TIP3    H117021   1.119   4.349   2.509
 5692TIP3    H217022   1.243   4.402   2.440
 5693TIP3   OH217023   6.268   6.852   5.094
 5693TIP3    H117024   6.290   6.933   5.049
 5693TIP3    H217025   6.287   6.783   5.031
 5694TIP3   OH217026   5.213   0.150   4.857
 5694TIP3    H117027   5.186   0.088   4.790
 5694TIP3    H217028   5.135   0.204   4.873
 5695TIP3   OH217029   8.266   7.512   3.333
 5695TIP3    H117030   8.303   7.596   3.305
 5695TIP3    H217031   8.195   7.536   3.392
 5696TIP3   OH217032   6.578   7.582   2.949
 5696TIP3    H117033   6.640   7.637   2.997
 5696TIP3    H217034   6.596   7.600   2.857
 5697TIP3   OH217035   7.701   2.293   5.499
 5697TIP3    H117036   7.702   2.226   5.431
 5697TIP3    H217037   7.641   2.360   5.467
 5698TIP3   OH217038   1.361   7.482   3.245
 5698TIP3    H117039   1.404   7.473   3.330
 5698TIP3    H217040   1.279   7.527   3.264
 5699TIP3   OH217041   1.554   5.074   2.750
 5699TIP3    H117042   1.596   4.996   2.786
 5699TIP3    H217043   1.546   5.055   2.656
 5700TIP3   OH217044   5.116   5.366   0.180
 5700TIP3    H117045   5.102   5.272   0.174
 5700TIP3    H217046   5.156   5.390   0.096
 5701TIP3   OH217047   1.621   3.806   4.252
 5701TIP3    H117048   1.543   3.797   4.306
 5701TIP3    H217049   1.596   3.868   4.183
 5702TIP3   OH217050   8.117   1.237   1.016
 5702TIP3    H117051   8.136   1.149   0.984
 5702TIP3    H217052   8.026   1.253   0.991
 5703TIP3   OH217053   5.592   5.474   1.090
 5703TIP3    H117054   5.498   5.453   1.090
 5703TIP3    H217055   5.598   5.559   1.048
 5704TIP3   OH217056   4.870   2.909   3.115
 5704TIP3    H117057   4.938   2.872   3.059
 5704TIP3    H217058   4.878   2.860   3.197
 5705TIP3   OH217059   3.952   0.104   4.161
 5705TIP3    H117060   3.908   0.028   4.123
 5705TIP3    H217061   4.034   0.069   4.195
 5706TIP3   OH217062   4.228   1.608   3.881
 5706TIP3    H117063   4.295   1.600   3.950
 5706TIP3    H217064   4.145   1.594   3.927
 5707TIP3   OH217065   4.246   2.358   0.754
 5707TIP3    H117066   4.260   2.289   0.690
 5707TIP3    H217067   4.278   2.322   0.836
 5708TIP3   OH217068   2.321   4.920   5.208
 5708TIP3    H117069   2.368   4.848   5.252
 5708TIP3    H217070   2.309   4.986   5.277
 5709TIP3   OH217071   4.493   3.265   0.573
 5709TIP3    H117072   4.575   3.258   0.525
 5709TIP3    H217073   4.500   3.347   0.622
 5710TIP3   OH217074   0.639   1.420   0.825
 5710TIP3    H117075   0.653   1.514   0.838
 5710TIP3    H217076   0.591   1.413   0.743
 5711TIP3   OH217077   4.167   2.654   4.678
 5711TIP3    H117078   4.096   2.601   4.642
 5711TIP3    H217079   4.246   2.618   4.637
 5712TIP3   OH217080   5.085   0.393   6.582
 5712TIP3    H117081   5.058   0.393   6.491
 5712TIP3    H217082   5.178   0.412   6.580
 5713TIP3   OH217083   4.418   7.863   6.703
 5713TIP3    H117084   4.470   7.795   6.746
 5713TIP3    H217085   4.446   7.861   6.612
 5714TIP3   OH217086   8.103   0.174   0.693
 5714TIP3    H117087   8.089   0.268   0.705
 5714TIP3    H217088   8.050   0.133   0.761
 5715TIP3   OH217089   4.799   0.192   3.963
 5715TIP3    H117090   4.724   0.218   4.017
 5715TIP3    H217091   4.759   0.162   3.881
 5716TIP3   OH217092   5.086   6.889   2.717
 5716TIP3    H117093   5.087   6.980   2.687
 5716TIP3    H217094   4.996   6.860   2.701
 5717TIP3   OH217095   5.107   0.101   4.550
 5717TIP3    H117096   5.026   0.052   4.538
 5717TIP3    H217097   5.087   0.189   4.518
 5718TIP3   OH217098   7.975   2.471   0.042
 5718TIP3    H117099   8.049   2.498   0.095
 5718TIP3    H217100   7.963   2.541  -0.022
 5719TIP3   OH217101   2.286   1.403   2.061
 5719TIP3    H117102   2.226   1.328   2.062
 5719TIP3    H217103   2.251   1.462   2.128
 5720TIP3   OH217104   4.363   6.871   1.617
 5720TIP3    H117105   4.370   6.864   1.712
 5720TIP3    H217106   4.285   6.924   1.602
 5721TIP3   OH217107   3.026   1.434   0.264
 5721TIP3    H117108   2.955   1.482   0.222
 5721TIP3    H217109   3.105   1.480   0.237
 5722TIP3   OH217110   1.877   0.434   0.492
 5722TIP3    H117111   1.907   0.390   0.572
 5722TIP3    H217112   1.952   0.485   0.463
 5723TIP3   OH217113   0.548   7.750   0.071
 5723TIP3    H117114   0.622   7.764   0.011
 5723TIP3    H217115   0.585   7.697   0.142
 5724TIP3   OH217116   4.489   0.256   5.988
 5724TIP3    H117117   4.417   0.306   5.950
 5724TIP3    H217118   4.446   0.183   6.033
 5725TIP3   OH217119   5.081   2.133   1.118
 5725TIP3    H117120   5.151   2.193   1.144
 5725TIP3    H217121   5.124   2.049   1.106
 5726TIP3   OH217122   7.802   5.984   3.933
 5726TIP3    H117123   7.894   5.960   3.945
 5726TIP3    H217124   7.805   6.063   3.880
 5727TIP3   OH217125   6.187   6.651   5.476
 5727TIP3    H117126   6.117   6.641   5.541
 5727TIP3    H217127   6.172   6.580   5.414
 5728TIP3   OH217128   4.800   1.800   0.727
 5728TIP3    H117129   4.844   1.822   0.809
 5728TIP3    H217130   4.825   1.710   0.709
 5729TIP3   OH217131   4.058   2.827   1.967
 5729TIP3    H117132   4.080   2.887   2.038
 5729TIP3    H217133   4.123   2.757   1.974
 5730TIP3   OH217134   0.799   5.537   4.505
 5730TIP3    H117135   0.837   5.512   4.421
 5730TIP3    H217136   0.704   5.535   4.489
 5731TIP3   OH217137   4.238   2.524   4.023
 5731TIP3    H117138   4.331   2.521   3.998
 5731TIP3    H217139   4.207   2.608   3.990
 5732TIP3   OH217140   3.322   0.693   6.783
 5732TIP3    H117141   3.359   0.664   6.700
 5732TIP3    H217142   3.267   0.767   6.761
 5733TIP3   OH217143   4.562   0.542   5.009
 5733TIP3    H117144   4.490   0.591   5.048
 5733TIP3    H217145   4.581   0.473   5.072
 5734TIP3   OH217146   4.914   2.751   2.048
 5734TIP3    H117147   4.873   2.701   1.977
 5734TIP3    H217148   4.842   2.769   2.109
 5735TIP3   OH217149   8.029   0.961   3.344
 5735TIP3    H117150   7.978   1.015   3.284
 5735TIP3    H217151   8.038   0.877   3.299
 5736TIP3   OH217152   3.631   2.721   2.091
 5736TIP3    H117153   3.564   2.783   2.061
 5736TIP3    H217154   3.622   2.721   2.186
 5737TIP3   OH217155   1.757   0.028   1.324
 5737TIP3    H117156   1.836   0.041   1.376
 5737TIP3    H217157   1.723   0.116   1.309
 5738TIP3   OH217158   0.586   0.767   4.641
 5738TIP3    H117159   0.623   0.853   4.621
 5738TIP3    H217160   0.640   0.706   4.589
 5739TIP3   OH217161   6.951   0.616   1.905
 5739TIP3    H117162   6.975   0.683   1.841
 5739TIP3    H217163   7.019   0.622   1.973
 5740TIP3   OH217164   0.717   5.754   1.613
 5740TIP3    H117165   0.812   5.749   1.624
 5740TIP3    H217166   0.704   5.756   1.518
 5741TIP3   OH217167   6.340   7.724   3.060
 5741TIP3    H117168   6.321   7.803   3.009
 5741TIP3    H217169   6.411   7.681   3.011
 5742TIP3   OH217170   4.946   4.269   4.107
 5742TIP3    H117171   5.036   4.283   4.078
 5742TIP3    H217172   4.903   4.354   4.093
 5743TIP3   OH217173   1.168   7.615   0.738
 5743TIP3    H117174   1.152   7.531   0.695
 5743TIP3    H217175   1.145   7.600   0.830
 5744TIP3   OH217176   6.761   2.267   5.001
 5744TIP3    H117177   6.752   2.180   4.961
 5744TIP3    H217178   6.691   2.270   5.067
 5745TIP3   OH217179   3.764   3.684   3.535
 5745TIP3    H117180   3.732   3.643   3.616
 5745TIP3    H217181   3.849   3.721   3.559
 5746TIP3   OH217182   6.549   4.560   5.403
 5746TIP3    H117183   6.538   4.516   5.488
 5746TIP3    H217184   6.461   4.559   5.365
 5747TIP3   OH217185   1.049   6.750   0.473
 5747TIP3    H117186   1.095   6.684   0.422
 5747TIP3    H217187   1.079   6.738   0.563
 5748TIP3   OH217188   6.411   3.481   6.736
 5748TIP3    H117189   6.367   3.489   6.651
 5748TIP3    H217190   6.344   3.450   6.796
 5749TIP3   OH217191   7.363   1.546   1.226
 5749TIP3    H117192   7.345   1.556   1.133
 5749TIP3    H217193   7.458   1.555   1.233
 5750TIP3   OH217194   6.328   1.121   0.906
 5750TIP3    H117195   6.372   1.157   0.983
 5750TIP3    H217196   6.267   1.189   0.879
 5751TIP3   OH217197   4.013   2.881   4.086
 5751TIP3    H117198   4.061   2.963   4.094
 5751TIP3    H217199   4.066   2.827   4.027
 5752TIP3   OH217200   3.089   6.080   0.140
 5752TIP3    H117201   2.994   6.078   0.134
 5752TIP3    H217202   3.117   6.136   0.067
 5753TIP3   OH217203   0.359   7.214   1.955
 5753TIP3    H117204   0.363   7.284   2.021
 5753TIP3    H217205   0.359   7.260   1.871
 5754TIP3   OH217206   3.631   1.648   0.343
 5754TIP3    H117207   3.561   1.705   0.375
 5754TIP3    H217208   3.657   1.598   0.420
 5755TIP3   OH217209   3.898   0.815   1.675
 5755TIP3    H117210   3.935   0.896   1.640
 5755TIP3    H217211   3.921   0.749   1.609
 5756TIP3   OH217212   7.973   7.787   1.853
 5756TIP3    H117213   7.962   7.880   1.832
 5756TIP3    H217214   7.885   7.757   1.874
 5757TIP3   OH217215   7.163   4.285   1.401
 5757TIP3    H117216   7.138   4.213   1.343
 5757TIP3    H217217   7.259   4.279   1.406
 5758TIP3   OH217218   4.713   5.545   1.879
 5758TIP3    H117219   4.783   5.566   1.940
 5758TIP3    H217220   4.694   5.628   1.834
 5759TIP3   OH217221   6.856   1.496   3.488
 5759TIP3    H117222   6.803   1.557   3.538
 5759TIP3    H217223   6.914   1.552   3.436
 5760TIP3   OH217224   6.433   7.178   6.004
 5760TIP3    H117225   6.412   7.117   5.934
 5760TIP3    H217226   6.498   7.238   5.966
 5761TIP3   OH217227   2.761   7.342   0.140
 5761TIP3    H117228   2.782   7.325   0.048
 5761TIP3    H217229   2.703   7.419   0.137
 5762TIP3   OH217230   2.053   2.437   2.484
 5762TIP3    H117231   2.027   2.483   2.404
 5762TIP3    H217232   2.144   2.461   2.497
 5763TIP3   OH217233   7.613   6.821   5.404
 5763TIP3    H117234   7.593   6.728   5.387
 5763TIP3    H217235   7.559   6.869   5.342
 5764TIP3   OH217236   0.283   1.048   6.249
 5764TIP3    H117237   0.223   0.977   6.224
 5764TIP3    H217238   0.249   1.080   6.332
 5765TIP3   OH217239   0.556   4.070   2.597
 5765TIP3    H117240   0.541   4.051   2.504
 5765TIP3    H217241   0.635   4.022   2.619
 5766TIP3   OH217242   5.854   3.171   5.394
 5766TIP3    H117243   5.760   3.166   5.410
 5766TIP3    H217244   5.861   3.196   5.302
 5767TIP3   OH217245   2.341   4.107   6.695
 5767TIP3    H117246   2.318   4.185   6.746
 5767TIP3    H217247   2.317   4.034   6.751
 5768TIP3   OH217248   1.971   5.858   0.986
 5768TIP3    H117249   1.973   5.899   0.900
 5768TIP3    H217250   2.064   5.850   1.010
 5769TIP3   OH217251   6.940   1.206   1.262
 5769TIP3    H117252   6.885   1.215   1.340
 5769TIP3    H217253   6.934   1.291   1.219
 5770TIP3   OH217254   1.510   4.387   1.432
 5770TIP3    H117255   1.469   4.454   1.487
 5770TIP3    H217256   1.543   4.436   1.356
 5771TIP3   OH217257   0.511   0.883   6.658
 5771TIP3    H117258   0.442   0.917   6.714
 5771TIP3    H217259   0.528   0.954   6.596
 5772TIP3   OH217260   5.413   2.492   3.567
 5772TIP3    H117261   5.386   2.584   3.565
 5772TIP3    H217262   5.351   2.449   3.626
 5773TIP3   OH217263   3.023   2.243   2.533
 5773TIP3    H117264   3.001   2.193   2.611
 5773TIP3    H217265   3.101   2.293   2.558
 5774TIP3   OH217266   0.264   6.801   0.687
 5774TIP3    H117267   0.174   6.781   0.713
 5774TIP3    H217268   0.312   6.808   0.770
 5775TIP3   OH217269   5.954   4.415   2.342
 5775TIP3    H117270   6.018   4.455   2.402
 5775TIP3    H217271   6.003   4.401   2.261
 5776TIP3   OH217272   3.278   6.470   2.793
 5776TIP3    H117273   3.294   6.456   2.699
 5776TIP3    H217274   3.218   6.400   2.818
 5777TIP3   OH217275   1.385   7.759   6.554
 5777TIP3    H117276   1.417   7.668   6.554
 5777TIP3    H217277   1.441   7.803   6.490
 5778TIP3   OH217278   8.125   3.196   4.198
 5778TIP3    H117279   8.156   3.222   4.112
 5778TIP3    H217280   8.073   3.117   4.182
 5779TIP3   OH217281   2.153   2.890   4.682
 5779TIP3    H117282   2.146   2.917   4.590
 5779TIP3    H217283   2.067   2.853   4.702
 5780TIP3   OH217284   0.150   1.276   0.759
 5780TIP3    H117285   0.211   1.337   0.719
 5780TIP3    H217286   0.069   1.326   0.768
 5781TIP3   OH217287   1.483   7.797   2.314
 5781TIP3    H117288   1.528   7.733   2.259
 5781TIP3    H217289   1.537   7.875   2.308
 5782TIP3   OH217290   7.429   0.945   3.130
 5782TIP3    H117291   7.447   1.007   3.202
 5782TIP3    H217292   7.454   0.992   3.051
 5783TIP3   OH217293   0.491   1.391   3.776
 5783TIP3    H117294   0.550   1.463   3.756
 5783TIP3    H217295   0.538   1.312   3.748
 5784TIP3   OH217296   3.587   4.236   5.569
 5784TIP3    H117297   3.671   4.279   5.581
 5784TIP3    H217298   3.561   4.258   5.480
 5785TIP3   OH217299   4.524   1.031   5.074
 5785TIP3    H117300   4.585   0.959   5.057
 5785TIP3    H217301   4.536   1.090   5.000
 5786TIP3   OH217302   0.539   7.238   6.055
 5786TIP3    H117303   0.491   7.315   6.025
 5786TIP3    H217304   0.621   7.240   6.006
 5787TIP3   OH217305   5.416   6.884   1.365
 5787TIP3    H117306   5.386   6.868   1.275
 5787TIP3    H217307   5.508   6.856   1.365
 5788TIP3   OH217308   7.552   3.384   4.921
 5788TIP3    H117309   7.557   3.293   4.891
 5788TIP3    H217310   7.642   3.415   4.916
 5789TIP3   OH217311   3.857   4.382   0.293
 5789TIP3    H117312   3.795   4.456   0.293
 5789TIP3    H217313   3.842   4.339   0.377
 5790TIP3   OH217314   7.360   6.608   3.998
 5790TIP3    H117315   7.284   6.550   4.000
 5790TIP3    H217316   7.377   6.622   3.905
 5791TIP3   OH217317   0.070   4.067   5.646
 5791TIP3    H117318   0.092   4.021   5.565
 5791TIP3    H217319   0.143   4.048   5.705
 5792TIP3   OH217320   2.995   3.313   5.844
 5792TIP3    H117321   2.920   3.269   5.885
 5792TIP3    H217322   3.070   3.260   5.870
 5793TIP3   OH217323   3.785   0.599   1.969
 5793TIP3    H117324   3.767   0.507   1.989
 5793TIP3    H217325   3.871   0.599   1.927
 5794TIP3   OH217326   8.148   4.121   2.128
 5794TIP3    H117327   8.101   4.196   2.091
 5794TIP3    H217328   8.080   4.061   2.157
 5795TIP3   OH217329   7.895   4.521   6.172
 5795TIP3    H117330   7.942   4.437   6.180
 5795TIP3    H217331   7.826   4.503   6.108
 5796TIP3   OH217332   3.254   2.424   0.429
 5796TIP3    H117333   3.247   2.511   0.388
 5796TIP3    H217334   3.295   2.442   0.514
 5797TIP3   OH217335   4.556   7.777   5.632
 5797TIP3    H117336   4.621   7.846   5.641
 5797TIP3    H217337   4.606   7.698   5.613
 5798TIP3   OH217338   5.245   2.186   5.422
 5798TIP3    H117339   5.165   2.162   5.468
 5798TIP3    H217340   5.310   2.121   5.448
 5799TIP3   OH217341   3.980   4.213   2.276
 5799TIP3    H117342   3.913   4.280   2.290
 5799TIP3    H217343   4.045   4.255   2.220
 5800TIP3   OH217344   6.545   5.769   4.192
 5800TIP3    H117345   6.597   5.791   4.115
 5800TIP3    H217346   6.516   5.853   4.227
 5801TIP3   OH217347   0.561   6.757   3.189
 5801TIP3    H117348   0.571   6.848   3.217
 5801TIP3    H217349   0.645   6.716   3.211
 5802TIP3   OH217350   5.454   4.944   3.155
 5802TIP3    H117351   5.380   4.974   3.208
 5802TIP3    H217352   5.427   4.858   3.123
 5803TIP3   OH217353   7.279   4.382   5.124
 5803TIP3    H117354   7.230   4.447   5.074
 5803TIP3    H217355   7.362   4.425   5.145
 5804TIP3   OH217356   6.446   7.404   0.904
 5804TIP3    H117357   6.389   7.436   0.833
 5804TIP3    H217358   6.389   7.402   0.981
 5805TIP3   OH217359   4.935   6.642   4.762
 5805TIP3    H117360   4.940   6.674   4.852
 5805TIP3    H217361   5.026   6.626   4.738
 5806TIP3   OH217362   1.841   1.135   0.936
 5806TIP3    H117363   1.760   1.179   0.911
 5806TIP3    H217364   1.813   1.047   0.962
 5807TIP3   OH217365   4.780   7.496   2.288
 5807TIP3    H117366   4.802   7.437   2.359
 5807TIP3    H217367   4.752   7.439   2.216
 5808TIP3   OH217368   5.198   0.405   6.248
 5808TIP3    H117369   5.247   0.348   6.307
 5808TIP3    H217370   5.106   0.388   6.268
 5809TIP3   OH217371   7.339   4.430   5.694
 5809TIP3    H117372   7.329   4.449   5.601
 5809TIP3    H217373   7.263   4.376   5.716
 5810TIP3   OH217374   1.669   7.075   3.902
 5810TIP3    H117375   1.690   7.163   3.872
 5810TIP3    H217376   1.755   7.035   3.920
 5811TIP3   OH217377   3.541   2.907   6.176
 5811TIP3    H117378   3.509   2.926   6.087
 5811TIP3    H217379   3.470   2.857   6.216
 5812TIP3   OH217380   6.291   2.460   3.633
 5812TIP3    H117381   6.365   2.405   3.659
 5812TIP3    H217382   6.234   2.460   3.710
 5813TIP3   OH217383   1.569   3.392   5.307
 5813TIP3    H117384   1.582   3.388   5.401
 5813TIP3    H217385   1.658   3.401   5.271
 5814TIP3   OH217386   4.328   7.371   0.982
 5814TIP3    H117387   4.312   7.278   0.969
 5814TIP3    H217388   4.247   7.414   0.953
 5815TIP3   OH217389   8.102   2.602   0.839
 5815TIP3    H117390   8.173   2.570   0.895
 5815TIP3    H217391   8.130   2.689   0.812
 5816TIP3   OH217392   0.618   6.334   6.732
 5816TIP3    H117393   0.621   6.404   6.797
 5816TIP3    H217394   0.703   6.289   6.741
 5817TIP3   OH217395   6.496   3.696   3.999
 5817TIP3    H117396   6.581   3.735   4.019
 5817TIP3    H217397   6.489   3.701   3.904
 5818TIP3   OH217398   5.260   1.003   2.401
 5818TIP3    H117399   5.220   1.078   2.358
 5818TIP3    H217400   5.258   1.024   2.495
 5819TIP3   OH217401   6.299   4.278   1.005
 5819TIP3    H117402   6.277   4.362   0.965
 5819TIP3    H217403   6.320   4.300   1.096
 5820TIP3   OH217404   3.554   0.401   4.860
 5820TIP3    H117405   3.470   0.424   4.900
 5820TIP3    H217406   3.619   0.420   4.928
 5821TIP3   OH217407   2.711   1.690   0.502
 5821TIP3    H117408   2.710   1.714   0.409
 5821TIP3    H217409   2.662   1.607   0.505
 5822TIP3   OH217410   6.950   4.094   6.705
 5822TIP3    H117411   6.983   4.064   6.790
 5822TIP3    H217412   6.980   4.184   6.698
 5823TIP3   OH217413   3.929   4.623   0.013
 5823TIP3    H117414   3.858   4.653  -0.043
 5823TIP3    H217415   3.949   4.698   0.069
 5824TIP3   OH217416   0.940   0.052   5.955
 5824TIP3    H117417   0.952  -0.026   6.009
 5824TIP3    H217418   1.017   0.055   5.899
 5825TIP3   OH217419   7.406   4.624   4.306
 5825TIP3    H117420   7.471   4.675   4.356
 5825TIP3    H217421   7.441   4.535   4.306
 5826TIP3   OH217422   4.373   5.343   5.065
 5826TIP3    H117423   4.433   5.373   5.134
 5826TIP3    H217424   4.343   5.423   5.023
 5827TIP3   OH217425   6.571   7.635   0.826
 5827TIP3    H117426   6.630   7.604   0.758
 5827TIP3    H217427   6.565   7.562   0.888
 5828TIP3   OH217428   6.459   3.452   2.449
 5828TIP3    H117429   6.406   3.525   2.417
 5828TIP3    H217430   6.516   3.429   2.375
 5829TIP3   OH217431   4.914   7.238   0.372
 5829TIP3    H117432   4.871   7.168   0.322
 5829TIP3    H217433   4.944   7.195   0.452
 5830TIP3   OH217434   2.129   1.595   2.251
 5830TIP3    H117435   2.153   1.636   2.334
 5830TIP3    H217436   2.040   1.627   2.234
 5831TIP3   OH217437   4.542   5.202   6.128
 5831TIP3    H117438   4.486   5.228   6.054
 5831TIP3    H217439   4.490   5.220   6.206
 5832TIP3   OH217440   4.303   3.177   6.608
 5832TIP3    H117441   4.285   3.238   6.680
 5832TIP3    H217442   4.249   3.100   6.627
 5833TIP3   OH217443   2.295   4.273   1.984
 5833TIP3    H117444   2.356   4.340   2.012
 5833TIP3    H217445   2.350   4.199   1.958
 5834TIP3   OH217446   8.294   3.226   2.888
 5834TIP3    H117447   8.255   3.302   2.930
 5834TIP3    H217448   8.219   3.182   2.847
 5835TIP3   OH217449   3.595   5.627   0.657
 5835TIP3    H117450   3.653   5.561   0.620
 5835TIP3    H217451   3.578   5.688   0.586
 5836TIP3   OH217452   4.069   6.562   5.654
 5836TIP3    H117453   4.106   6.650   5.646
 5836TIP3    H217454   3.993   6.574   5.712
 5837TIP3   OH217455   1.056   6.831   1.331
 5837TIP3    H117456   1.092   6.765   1.389
 5837TIP3    H217457   1.089   6.808   1.244
 5838TIP3   OH217458   6.120   2.649   0.164
 5838TIP3    H117459   6.047   2.634   0.103
 5838TIP3    H217460   6.153   2.736   0.140
 5839TIP3   OH217461   2.313   0.257   3.127
 5839TIP3    H117462   2.286   0.169   3.151
 5839TIP3    H217463   2.370   0.245   3.051
 5840TIP3   OH217464   6.772   5.666   4.664
 5840TIP3    H117465   6.817   5.628   4.740
 5840TIP3    H217466   6.805   5.756   4.660
 5841TIP3   OH217467   1.400   4.033   2.423
 5841TIP3    H117468   1.474   3.989   2.379
 5841TIP3    H217469   1.439   4.075   2.500
 5842TIP3   OH217470   2.250   0.076   3.923
 5842TIP3    H117471   2.239   0.118   4.008
 5842TIP3    H217472   2.194   0.127   3.864
 5843TIP3   OH217473   0.500   4.720   6.749
 5843TIP3    H117474   0.456   4.676   6.821
 5843TIP3    H217475   0.572   4.768   6.790
 5844TIP3   OH217476   6.945   3.131   4.513
 5844TIP3    H117477   6.997   3.151   4.591
 5844TIP3    H217478   6.854   3.139   4.542
 5845TIP3   OH217479   7.769   4.458   2.457
 5845TIP3    H117480   7.738   4.377   2.497
 5845TIP3    H217481   7.821   4.430   2.382
 5846TIP3   OH217482   4.167   3.342   3.397
 5846TIP3    H117483   4.110   3.377   3.466
 5846TIP3    H217484   4.124   3.261   3.369
 5847TIP3   OH217485   1.725   7.724   3.247
 5847TIP3    H117486   1.745   7.810   3.210
 5847TIP3    H217487   1.667   7.743   3.321
 5848TIP3   OH217488   3.497   2.843   0.267
 5848TIP3    H117489   3.537   2.775   0.213
 5848TIP3    H217490   3.563   2.913   0.270
 5849TIP3   OH217491   3.876   7.606   5.318
 5849TIP3    H117492   3.901   7.522   5.281
 5849TIP3    H217493   3.786   7.620   5.289
 5850TIP3   OH217494   1.567   6.237   4.485
 5850TIP3    H117495   1.628   6.232   4.559
 5850TIP3    H217496   1.614   6.198   4.412
 5851TIP3   OH217497   5.301   4.605   1.997
 5851TIP3    H117498   5.245   4.662   2.050
 5851TIP3    H217499   5.385   4.605   2.042
 5852TIP3   OH217500   0.544   5.286   4.674
 5852TIP3    H117501   0.544   5.197   4.639
 5852TIP3    H217502   0.478   5.332   4.622
 5853TIP3   OH217503   6.073   5.472   1.120
 5853TIP3    H117504   6.030   5.408   1.177
 5853TIP3    H217505   6.005   5.535   1.098
 5854TIP3   OH217506   4.802   6.743   5.648
 5854TIP3    H117507   4.830   6.659   5.611
 5854TIP3    H217508   4.750   6.784   5.578
 5855TIP3   OH217509   0.261   3.609   3.013
 5855TIP3    H117510   0.266   3.699   3.043
 5855TIP3    H217511   0.352   3.585   2.994
 5856TIP3   OH217512   1.636   5.578   5.220
 5856TIP3    H117513   1.573   5.569   5.149
 5856TIP3    H217514   1.698   5.507   5.206
 5857TIP3   OH217515   4.046   6.862   4.380
 5857TIP3    H117516   4.096   6.785   4.409
 5857TIP3    H217517   3.961   6.827   4.355
 5858TIP3   OH217518   3.950   4.181   2.555
 5858TIP3    H117519   4.028   4.127   2.546
 5858TIP3    H217520   3.921   4.198   2.466
 5859TIP3   OH217521   1.737   4.313   0.968
 5859TIP3    H117522   1.669   4.260   0.928
 5859TIP3    H217523   1.815   4.257   0.966
 5860TIP3   OH217524   0.148   4.473   3.729
 5860TIP3    H117525   0.171   4.386   3.761
 5860TIP3    H217526   0.069   4.461   3.677
 5861TIP3   OH217527   2.296   6.411   0.285
 5861TIP3    H117528   2.336   6.340   0.235
 5861TIP3    H217529   2.295   6.379   0.376
 5862TIP3   OH217530   2.219   0.111   3.371
 5862TIP3    H117531   2.220   0.069   3.457
 5862TIP3    H217532   2.170   0.050   3.315
 5863TIP3   OH217533   8.224   3.429   2.468
 5863TIP3    H117534   8.133   3.404   2.479
 5863TIP3    H217535   8.244   3.410   2.376
 5864TIP3   OH217536   3.964   6.265   6.142
 5864TIP3    H117537   3.981   6.291   6.233
 5864TIP3    H217538   4.044   6.221   6.114
 5865TIP3   OH217539   1.779   5.575   6.664
 5865TIP3    H117540   1.870   5.546   6.664
 5865TIP3    H217541   1.744   5.545   6.580
 5866TIP3   OH217542   0.092   7.271   0.312
 5866TIP3    H117543   0.150   7.315   0.374
 5866TIP3    H217544   0.011   7.257   0.361
 5867TIP3   OH217545   6.473   1.011   1.469
 5867TIP3    H117546   6.476   1.058   1.553
 5867TIP3    H217547   6.562   0.979   1.457
 5868TIP3   OH217548   7.139   2.431   3.221
 5868TIP3    H117549   7.110   2.344   3.249
 5868TIP3    H217550   7.222   2.415   3.177
 5869TIP3   OH217551   8.016   6.697   1.736
 5869TIP3    H117552   8.057   6.642   1.802
 5869TIP3    H217553   7.952   6.749   1.784
 5870TIP3   OH217554   6.548   1.761   3.837
 5870TIP3    H117555   6.519   1.672   3.858
 5870TIP3    H217556   6.540   1.809   3.920
 5871TIP3   OH217557   1.925   5.630   0.295
 5871TIP3    H117558   1.927   5.686   0.218
 5871TIP3    H217559   1.937   5.690   0.369
 5872TIP3   OH217560   3.025   6.944   2.519
 5872TIP3    H117561   2.990   6.893   2.445
 5872TIP3    H217562   2.950   6.994   2.551
 5873TIP3   OH217563   5.350   2.776   6.523
 5873TIP3    H117564   5.368   2.686   6.549
 5873TIP3    H217565   5.392   2.786   6.438
 5874TIP3   OH217566   6.871   0.326   0.800
 5874TIP3    H117567   6.947   0.268   0.806
 5874TIP3    H217568   6.905   0.407   0.763
 5875TIP3   OH217569   2.770   6.833   4.855
 5875TIP3    H117570   2.780   6.817   4.949
 5875TIP3    H217571   2.823   6.766   4.814
 5876TIP3   OH217572   4.063   4.444   3.350
 5876TIP3    H117573   4.037   4.519   3.297
 5876TIP3    H217574   4.090   4.378   3.285
 5877TIP3   OH217575   7.707   0.317   5.706
 5877TIP3    H117576   7.713   0.369   5.786
 5877TIP3    H217577   7.720   0.380   5.635
 5878TIP3   OH217578   2.013   6.504   0.924
 5878TIP3    H117579   2.100   6.503   0.884
 5878TIP3    H217580   2.008   6.589   0.967
 5879TIP3   OH217581   6.945   3.591   0.356
 5879TIP3    H117582   7.007   3.600   0.283
 5879TIP3    H217583   6.906   3.677   0.366
 5880TIP3   OH217584   2.910   5.558   0.493
 5880TIP3    H117585   2.818   5.536   0.506
 5880TIP3    H217586   2.949   5.552   0.580
 5881TIP3   OH217587   2.630   2.753   2.265
 5881TIP3    H117588   2.638   2.756   2.169
 5881TIP3    H217589   2.721   2.755   2.296
 5882TIP3   OH217590   8.001   2.822   0.196
 5882TIP3    H117591   7.924   2.768   0.177
 5882TIP3    H217592   7.988   2.901   0.144
 5883TIP3   OH217593   4.417   7.058   2.237
 5883TIP3    H117594   4.386   6.979   2.192
 5883TIP3    H217595   4.414   7.035   2.330
 5884TIP3   OH217596   6.943   4.364   3.398
 5884TIP3    H117597   6.908   4.319   3.321
 5884TIP3    H217598   6.974   4.294   3.455
 5885TIP3   OH217599   0.768   1.721   3.885
 5885TIP3    H117600   0.791   1.745   3.796
 5885TIP3    H217601   0.830   1.652   3.909
 5886TIP3   OH217602   7.475   6.881   0.176
 5886TIP3    H117603   7.393   6.849   0.213
 5886TIP3    H217604   7.490   6.966   0.217
 5887TIP3   OH217605   2.706   2.897   2.793
 5887TIP3    H117606   2.652   2.935   2.723
 5887TIP3    H217607   2.784   2.865   2.747
 5888TIP3   OH217608   2.402   2.569   1.498
 5888TIP3    H117609   2.417   2.474   1.503
 5888TIP3    H217610   2.356   2.590   1.580
 5889TIP3   OH217611   1.070   3.989   4.842
 5889TIP3    H117612   1.052   3.916   4.903
 5889TIP3    H217613   1.043   4.067   4.890
 5890TIP3   OH217614   0.796   3.192   1.554
 5890TIP3    H117615   0.741   3.249   1.608
 5890TIP3    H217616   0.869   3.167   1.611
 5891TIP3   OH217617   6.907   3.102   3.015
 5891TIP3    H117618   6.956   3.035   3.063
 5891TIP3    H217619   6.820   3.102   3.056
 5892TIP3   OH217620   2.727   2.265   1.992
 5892TIP3    H117621   2.632   2.260   1.999
 5892TIP3    H217622   2.754   2.314   2.069
 5893TIP3   OH217623   5.264   1.611   0.039
 5893TIP3    H117624   5.281   1.519   0.061
 5893TIP3    H217625   5.291   1.660   0.117
 5894TIP3   OH217626   5.569   5.204   1.609
 5894TIP3    H117627   5.662   5.180   1.611
 5894TIP3    H217628   5.561   5.265   1.536
 5895TIP3   OH217629   6.818   4.645   1.367
 5895TIP3    H117630   6.828   4.647   1.462
 5895TIP3    H217631   6.907   4.645   1.333
 5896TIP3   OH217632   4.751   5.532   6.191
 5896TIP3    H117633   4.804   5.456   6.170
 5896TIP3    H217634   4.711   5.558   6.108
 5897TIP3   OH217635   0.884   3.311   2.896
 5897TIP3    H117636   0.811   3.329   2.956
 5897TIP3    H217637   0.961   3.311   2.953
 5898TIP3   OH217638   6.786   1.398   2.441
 5898TIP3    H117639   6.721   1.464   2.464
 5898TIP3    H217640   6.769   1.325   2.501
 5899TIP3   OH217641   0.060   4.051   2.318
 5899TIP3    H117642   0.006   3.994   2.373
 5899TIP3    H217643   0.013   4.053   2.234
 5900TIP3   OH217644   6.270   6.711   3.705
 5900TIP3    H117645   6.327   6.675   3.637
 5900TIP3    H217646   6.323   6.708   3.785
 5901TIP3   OH217647   6.699   5.066   5.597
 5901TIP3    H117648   6.687   5.041   5.688
 5901TIP3    H217649   6.615   5.046   5.555
 5902TIP3   OH217650   6.409   7.787   2.588
 5902TIP3    H117651   6.485   7.747   2.630
 5902TIP3    H217652   6.363   7.714   2.547
 5903TIP3   OH217653   6.185   4.724   6.413
 5903TIP3    H117654   6.162   4.723   6.320
 5903TIP3    H217655   6.281   4.725   6.413
 5904TIP3   OH217656   4.041   0.487   2.476
 5904TIP3    H117657   3.999   0.401   2.475
 5904TIP3    H217658   4.111   0.480   2.411
 5905TIP3   OH217659   1.259   1.395   2.826
 5905TIP3    H117660   1.293   1.484   2.831
 5905TIP3    H217661   1.286   1.354   2.908
 5906TIP3   OH217662   5.524   1.239   1.302
 5906TIP3    H117663   5.535   1.155   1.348
 5906TIP3    H217664   5.468   1.290   1.360
 5907TIP3   OH217665   7.423   6.307   4.512
 5907TIP3    H117666   7.403   6.361   4.435
 5907TIP3    H217667   7.350   6.323   4.572
 5908TIP3   OH217668   2.881   0.428   4.160
 5908TIP3    H117669   2.955   0.481   4.190
 5908TIP3    H217670   2.877   0.356   4.223
 5909TIP3   OH217671   6.881   6.816   2.358
 5909TIP3    H117672   6.866   6.858   2.443
 5909TIP3    H217673   6.799   6.771   2.338
 5910TIP3   OH217674   4.798   5.312   4.609
 5910TIP3    H117675   4.852   5.380   4.570
 5910TIP3    H217676   4.844   5.230   4.587
 5911TIP3   OH217677   5.004   1.469   0.125
 5911TIP3    H117678   5.060   1.407   0.078
 5911TIP3    H217679   5.059   1.546   0.138
 5912TIP3   OH217680   6.771   0.719   0.052
 5912TIP3    H117681   6.752   0.681  -0.034
 5912TIP3    H217682   6.865   0.734   0.051
 5913TIP3   OH217683   4.274   4.972   3.663
 5913TIP3    H117684   4.295   4.952   3.572
 5913TIP3    H217685   4.356   5.004   3.700
 5914TIP3   OH217686   5.776   3.086   1.717
 5914TIP3    H117687   5.828   3.154   1.673
 5914TIP3    H217688   5.688   3.123   1.723
 5915TIP3   OH217689   6.041  -0.016   5.879
 5915TIP3    H117690   6.042   0.064   5.827
 5915TIP3    H217691   5.948  -0.035   5.893
 5916TIP3   OH217692   5.934   3.313   5.996
 5916TIP3    H117693   5.911   3.316   5.903
 5916TIP3    H217694   5.933   3.219   6.017
 5917TIP3   OH217695   5.166   0.563   3.595
 5917TIP3    H117696   5.211   0.642   3.564
 5917TIP3    H217697   5.167   0.504   3.520
 5918TIP3   OH217698   2.081   0.745   5.559
 5918TIP3    H117699   2.130   0.786   5.630
 5918TIP3    H217700   2.073   0.812   5.492
 5919TIP3   OH217701   0.265   0.251   4.640
 5919TIP3    H117702   0.278   0.296   4.724
 5919TIP3    H217703   0.215   0.173   4.662
 5920TIP3   OH217704   1.478   1.611   0.614
 5920TIP3    H117705   1.568   1.600   0.643
 5920TIP3    H217706   1.438   1.669   0.679
 5921TIP3   OH217707   7.577   0.121   0.063
 5921TIP3    H117708   7.633   0.124  -0.015
 5921TIP3    H217709   7.552   0.213   0.078
 5922TIP3   OH217710  -0.017   5.463   6.320
 5922TIP3    H117711   0.033   5.504   6.390
 5922TIP3    H217712   0.046   5.445   6.251
 5923TIP3   OH217713   4.691   6.543   4.076
 5923TIP3    H117714   4.738   6.618   4.112
 5923TIP3    H217715   4.701   6.475   4.142
 5924TIP3   OH217716   6.624   2.979   2.617
 5924TIP3    H117717   6.610   3.032   2.695
 5924TIP3    H217718   6.660   3.040   2.552
 5925TIP3   OH217719   4.228   1.976   2.632
 5925TIP3    H117720   4.216   1.893   2.586
 5925TIP3    H217721   4.177   1.965   2.713
 5926TIP3   OH217722   4.956   7.012   6.720
 5926TIP3    H117723   4.932   6.949   6.787
 5926TIP3    H217724   4.952   7.097   6.765
 5927TIP3   OH217725   5.922   1.527   2.148
 5927TIP3    H117726   5.994   1.585   2.125
 5927TIP3    H217727   5.913   1.469   2.073
 5928TIP3   OH217728   1.638   6.022   2.104
 5928TIP3    H117729   1.555   5.999   2.146
 5928TIP3    H217730   1.678   6.086   2.162
 5929TIP3   OH217731   4.076   2.552   2.239
 5929TIP3    H117732   4.125   2.534   2.159
 5929TIP3    H217733   4.053   2.466   2.274
 5930TIP3   OH217734   3.159   7.690   4.069
 5930TIP3    H117735   3.135   7.604   4.035
 5930TIP3    H217736   3.089   7.712   4.129
 5931TIP3   OH217737   6.492   4.924   3.983
 5931TIP3    H117738   6.432   4.883   4.045
 5931TIP3    H217739   6.453   4.907   3.897
 5932TIP3   OH217740   4.050   3.531   2.099
 5932TIP3    H117741   4.061   3.496   2.187
 5932TIP3    H217742   4.115   3.601   2.092
 5933TIP3   OH217743   7.325   3.382   6.155
 5933TIP3    H117744   7.388   3.405   6.087
 5933TIP3    H217745   7.267   3.458   6.161
 5934TIP3   OH217746   3.783   5.830   4.675
 5934TIP3    H117747   3.736   5.750   4.649
 5934TIP3    H217748   3.714   5.892   4.696
 5935TIP3   OH217749   0.320   5.723   6.223
 5935TIP3    H117750   0.400   5.772   6.207
 5935TIP3    H217751   0.253   5.791   6.239
 5936TIP3   OH217752   4.641   0.469   1.100
 5936TIP3    H117753   4.648   0.523   1.021
 5936TIP3    H217754   4.645   0.379   1.068
 5937TIP3   OH217755   0.825   7.500   4.979
 5937TIP3    H117756   0.756   7.466   4.922
 5937TIP3    H217757   0.807   7.462   5.065
 5938TIP3   OH217758   8.176   5.021   1.394
 5938TIP3    H117759   8.240   5.045   1.461
 5938TIP3    H217760   8.136   5.104   1.368
 5939TIP3   OH217761   5.481   5.134   4.113
 5939TIP3    H117762   5.436   5.144   4.029
 5939TIP3    H217763   5.566   5.096   4.090
 5940TIP3   OH217764   4.084   3.530   5.152
 5940TIP3    H117765   4.120   3.608   5.194
 5940TIP3    H217766   4.007   3.561   5.104
 5941TIP3   OH217767   7.914   6.258   4.240
 5941TIP3    H117768   7.853   6.198   4.283
 5941TIP3    H217769   8.001   6.222   4.260
 5942TIP3   OH217770   6.171   7.504   3.216
 5942TIP3    H117771   6.199   7.595   3.225
 5942TIP3    H217772   6.171   7.488   3.122
 5943TIP3   OH217773   2.254   1.481   5.203
 5943TIP3    H117774   2.345   1.497   5.179
 5943TIP3    H217775   2.210   1.464   5.120
 5944TIP3   OH217776   6.284   6.096   5.698
 5944TIP3    H117777   6.276   6.002   5.712
 5944TIP3    H217778   6.243   6.111   5.613
 5945TIP3   OH217779   0.731   6.124   2.174
 5945TIP3    H117780   0.770   6.062   2.236
 5945TIP3    H217781   0.744   6.210   2.215
 5946TIP3   OH217782   3.813   6.298   0.586
 5946TIP3    H117783   3.749   6.267   0.522
 5946TIP3    H217784   3.884   6.234   0.583
 5947TIP3   OH217785   5.759   1.324   4.512
 5947TIP3    H117786   5.852   1.336   4.533
 5947TIP3    H217787   5.751   1.354   4.422
 5948TIP3   OH217788   7.622   0.832   0.702
 5948TIP3    H117789   7.581   0.853   0.786
 5948TIP3    H217790   7.698   0.890   0.698
 5949TIP3   OH217791   7.744   4.869   6.389
 5949TIP3    H117792   7.724   4.962   6.395
 5949TIP3    H217793   7.806   4.853   6.461
 5950TIP3   OH217794   6.403   2.406   1.801
 5950TIP3    H117795   6.361   2.420   1.716
 5950TIP3    H217796   6.497   2.415   1.783
 5951TIP3   OH217797   2.119   4.242   0.233
 5951TIP3    H117798   2.059   4.246   0.307
 5951TIP3    H217799   2.175   4.167   0.251
 5952TIP3   OH217800   3.019   6.163   4.766
 5952TIP3    H117801   2.987   6.113   4.691
 5952TIP3    H217802   3.017   6.254   4.737
 5953TIP3   OH217803   4.835   2.505   4.928
 5953TIP3    H117804   4.925   2.476   4.912
 5953TIP3    H217805   4.784   2.424   4.929
 5954TIP3   OH217806   4.540   3.742   3.625
 5954TIP3    H117807   4.448   3.728   3.603
 5954TIP3    H217808   4.587   3.672   3.579
 5955TIP3   OH217809   6.366   4.020   1.831
 5955TIP3    H117810   6.331   3.942   1.874
 5955TIP3    H217811   6.434   3.987   1.772
 5956TIP3   OH217812   6.031   4.062   0.083
 5956TIP3    H117813   6.011   4.113   0.162
 5956TIP3    H217814   5.988   4.109   0.012
 5957TIP3   OH217815   5.724   1.545   2.774
 5957TIP3    H117816   5.659   1.483   2.740
 5957TIP3    H217817   5.806   1.518   2.731
 5958TIP3   OH217818   7.485   4.219   3.338
 5958TIP3    H117819   7.471   4.249   3.248
 5958TIP3    H217820   7.524   4.294   3.383
 5959TIP3   OH217821   2.278   1.025   3.116
 5959TIP3    H117822   2.352   0.982   3.074
 5959TIP3    H217823   2.217   0.954   3.137
 5960TIP3   OH217824   3.429   3.399   3.575
 5960TIP3    H117825   3.459   3.472   3.631
 5960TIP3    H217826   3.336   3.390   3.597
 5961TIP3   OH217827   3.713   4.238   4.903
 5961TIP3    H117828   3.653   4.163   4.898
 5961TIP3    H217829   3.747   4.247   4.814
 5962TIP3   OH217830   7.133   4.384   6.297
 5962TIP3    H117831   7.221   4.420   6.309
 5962TIP3    H217832   7.133   4.350   6.208
 5963TIP3   OH217833   8.042   2.715   4.667
 5963TIP3    H117834   7.967   2.749   4.716
 5963TIP3    H217835   8.019   2.732   4.575
 5964TIP3   OH217836   0.859   3.652   6.484
 5964TIP3    H117837   0.898   3.641   6.571
 5964TIP3    H217838   0.932   3.679   6.429
 5965TIP3   OH217839   8.175   5.914   2.372
 5965TIP3    H117840   8.119   5.992   2.364
 5965TIP3    H217841   8.250   5.944   2.422
 5966TIP3   OH217842   0.117   2.000   5.482
 5966TIP3    H117843   0.107   2.038   5.395
 5966TIP3    H217844   0.075   2.063   5.541
 5967TIP3   OH217845   1.616   0.524   0.065
 5967TIP3    H117846   1.687   0.542   0.126
 5967TIP3    H217847   1.619   0.597   0.002
 5968TIP3   OH217848   3.440   4.113   1.065
 5968TIP3    H117849   3.404   4.158   0.988
 5968TIP3    H217850   3.533   4.133   1.062
 5969TIP3   OH217851   6.681   0.076   2.947
 5969TIP3    H117852   6.741   0.042   3.013
 5969TIP3    H217853   6.734   0.137   2.895
 5970TIP3   OH217854   5.420   7.520   2.398
 5970TIP3    H117855   5.468   7.523   2.481
 5970TIP3    H217856   5.455   7.593   2.347
 5971TIP3   OH217857   8.317   0.866   3.707
 5971TIP3    H117858   8.242   0.903   3.753
 5971TIP3    H217859   8.336   0.927   3.636
 5972TIP3   OH217860   6.012   3.888   1.291
 5972TIP3    H117861   5.966   3.857   1.213
 5972TIP3    H217862   6.082   3.824   1.305
 5973TIP3   OH217863   3.971   3.966   6.449
 5973TIP3    H117864   3.901   3.910   6.484
 5973TIP3    H217865   3.971   3.946   6.355
 5974TIP3   OH217866   1.138   3.341   3.045
 5974TIP3    H117867   1.220   3.338   2.995
 5974TIP3    H217868   1.161   3.386   3.126
 5975TIP3   OH217869   0.400   6.181   4.492
 5975TIP3    H117870   0.371   6.100   4.534
 5975TIP3    H217871   0.421   6.156   4.403
 5976TIP3   OH217872   6.369   5.411   6.716
 5976TIP3    H117873   6.333   5.395   6.803
 5976TIP3    H217874   6.293   5.416   6.659
 5977TIP3   OH217875   7.476   0.317   4.929
 5977TIP3    H117876   7.458   0.411   4.931
 5977TIP3    H217877   7.571   0.310   4.937
 5978TIP3   OH217878   8.198   0.822   2.012
 5978TIP3    H117879   8.135   0.870   2.065
 5978TIP3    H217880   8.149   0.745   1.980
 5979TIP3   OH217881   3.385   4.900   4.170
 5979TIP3    H117882   3.408   4.899   4.077
 5979TIP3    H217883   3.457   4.853   4.212
 5980TIP3   OH217884   5.608   5.712   0.964
 5980TIP3    H117885   5.528   5.745   0.923
 5980TIP3    H217886   5.673   5.713   0.894
 5981TIP3   OH217887   3.067   7.239   3.778
 5981TIP3    H117888   3.049   7.230   3.685
 5981TIP3    H217889   3.032   7.325   3.801
 5982TIP3   OH217890   4.695   4.956   4.575
 5982TIP3    H117891   4.669   4.964   4.667
 5982TIP3    H217892   4.778   5.004   4.570
 5983TIP3   OH217893   0.238   1.253   1.036
 5983TIP3    H117894   0.230   1.264   0.941
 5983TIP3    H217895   0.323   1.291   1.057
 5984TIP3   OH217896   4.889   3.079   4.491
 5984TIP3    H117897   4.843   2.997   4.505
 5984TIP3    H217898   4.942   3.091   4.570
 5985TIP3   OH217899   0.034   2.831   3.549
 5985TIP3    H117900  -0.041   2.889   3.561
 5985TIP3    H217901   0.076   2.863   3.469
 5986TIP3   OH217902   0.863   0.981   1.204
 5986TIP3    H117903   0.805   1.008   1.133
 5986TIP3    H217904   0.826   0.898   1.235
 5987TIP3   OH217905   4.839   6.159   2.616
 5987TIP3    H117906   4.826   6.094   2.685
 5987TIP3    H217907   4.927   6.194   2.633
 5988TIP3   OH217908   4.385   0.757   6.502
 5988TIP3    H117909   4.352   0.697   6.436
 5988TIP3    H217910   4.475   0.775   6.476
 5989TIP3   OH217911   3.882   1.407   6.085
 5989TIP3    H117912   3.937   1.427   6.010
 5989TIP3    H217913   3.794   1.433   6.058
 5990TIP3   OH217914   5.271   1.009   2.691
 5990TIP3    H117915   5.313   1.050   2.767
 5990TIP3    H217916   5.305   0.920   2.690
 5991TIP3   OH217917   4.377   7.102   3.057
 5991TIP3    H117918   4.320   7.174   3.086
 5991TIP3    H217919   4.466   7.133   3.078
 5992TIP3   OH217920   4.731   7.180   2.860
 5992TIP3    H117921   4.689   7.174   2.946
 5992TIP3    H217922   4.704   7.100   2.815
 5993TIP3   OH217923   2.319   5.229   2.141
 5993TIP3    H117924   2.238   5.191   2.176
 5993TIP3    H217925   2.322   5.198   2.051
 5994TIP3   OH217926   1.394   4.887   1.032
 5994TIP3    H117927   1.396   4.874   0.937
 5994TIP3    H217928   1.450   4.963   1.047
 5995TIP3   OH217929   0.818   7.659   2.930
 5995TIP3    H117930   0.809   7.566   2.908
 5995TIP3    H217931   0.738   7.681   2.977
 5996TIP3   OH217932   8.134   4.322   1.611
 5996TIP3    H117933   8.199   4.252   1.615
 5996TIP3    H217934   8.151   4.374   1.689
 5997TIP3   OH217935   3.456   5.196   4.815
 5997TIP3    H117936   3.493   5.284   4.815
 5997TIP3    H217937   3.490   5.155   4.894
 5998TIP3   OH217938   6.464   0.342   2.814
 5998TIP3    H117939   6.535   0.384   2.863
 5998TIP3    H217940   6.472   0.379   2.726
 5999TIP3   OH217941   4.348   1.034   5.501
 5999TIP3    H117942   4.294   1.001   5.573
 5999TIP3    H217943   4.422   1.076   5.543
 6000TIP3   OH217944   7.670   6.536   5.748
 6000TIP3    H117945   7.721   6.528   5.828
 6000TIP3    H217946   7.732   6.570   5.683
 6001TIP3   OH217947   5.306   3.146   4.573
 6001TIP3    H117948   5.355   3.070   4.605
 6001TIP3    H217949   5.282   3.194   4.653
 6002TIP3   OH217950   7.056   4.015   1.300
 6002TIP3    H117951   7.035   3.927   1.271
 6002TIP3    H217952   7.122   4.047   1.239
 6003TIP3   OH217953   3.854   5.859   2.037
 6003TIP3    H117954   3.837   5.952   2.051
 6003TIP3    H217955   3.770   5.816   2.056
 6004TIP3   OH217956   4.883   4.032   2.644
 6004TIP3    H117957   4.829   4.067   2.573
 6004TIP3    H217958   4.888   3.938   2.626
 6005TIP3   OH217959   0.340   3.011   1.547
 6005TIP3    H117960   0.254   2.986   1.513
 6005TIP3    H217961   0.321   3.063   1.625
 6006TIP3   OH217962   1.688   2.150   3.249
 6006TIP3    H117963   1.774   2.171   3.214
 6006TIP3    H217964   1.694   2.058   3.274
 6007TIP3   OH217965   3.307   0.157   2.030
 6007TIP3    H117966   3.391   0.143   1.987
 6007TIP3    H217967   3.266   0.228   1.980
 6008TIP3   OH217968   5.190   1.043   4.820
 6008TIP3    H117969   5.226   1.053   4.732
 6008TIP3    H217970   5.096   1.031   4.808
 6009TIP3   OH217971   1.237   6.047   5.197
 6009TIP3    H117972   1.189   6.026   5.276
 6009TIP3    H217973   1.246   6.142   5.199
 6010TIP3   OH217974   4.922   6.095   6.499
 6010TIP3    H117975   4.932   6.138   6.584
 6010TIP3    H217976   4.867   6.155   6.448
 6011TIP3   OH217977   5.711   5.707   6.585
 6011TIP3    H117978   5.739   5.731   6.497
 6011TIP3    H217979   5.703   5.612   6.583
 6012TIP3   OH217980   5.846   6.605   2.311
 6012TIP3    H117981   5.809   6.602   2.223
 6012TIP3    H217982   5.780   6.648   2.365
 6013TIP3   OH217983   5.171   5.255   2.294
 6013TIP3    H117984   5.098   5.269   2.353
 6013TIP3    H217985   5.213   5.175   2.326
 6014TIP3   OH217986   3.836   2.529   0.385
 6014TIP3    H117987   3.889   2.467   0.334
 6014TIP3    H217988   3.900   2.585   0.429
 6015TIP3   OH217989   2.580   3.348   0.256
 6015TIP3    H117990   2.535   3.269   0.227
 6015TIP3    H217991   2.597   3.333   0.350
 6016TIP3   OH217992   6.676   2.022   3.994
 6016TIP3    H117993   6.707   1.989   3.909
 6016TIP3    H217994   6.624   2.100   3.971
 6017TIP3   OH217995   1.357   7.080   1.949
 6017TIP3    H117996   1.446   7.100   1.918
 6017TIP3    H217997   1.305   7.077   1.869
 6018TIP3   OH217998   3.526   5.110   0.686
 6018TIP3    H117999   3.457   5.063   0.732
 6018TIP3    H218000   3.538   5.061   0.604
 6019TIP3   OH218001   0.874   7.058   2.173
 6019TIP3    H118002   0.831   7.076   2.257
 6019TIP3    H218003   0.861   6.964   2.160
 6020TIP3   OH218004   0.738   2.549   3.232
 6020TIP3    H118005   0.668   2.614   3.237
 6020TIP3    H218006   0.766   2.536   3.322
 6021TIP3   OH218007   7.587   0.958   4.161
 6021TIP3    H118008   7.570   1.038   4.111
 6021TIP3    H218009   7.593   0.987   4.252
 6022TIP3   OH218010   1.813   0.373   3.585
 6022TIP3    H118011   1.896   0.346   3.545
 6022TIP3    H218012   1.839   0.426   3.660
 6023TIP3   OH218013   6.440   6.499   1.659
 6023TIP3    H118014   6.354   6.463   1.639
 6023TIP3    H218015   6.443   6.502   1.755
 6024TIP3   OH218016   5.252   7.438   6.076
 6024TIP3    H118017   5.162   7.406   6.089
 6024TIP3    H218018   5.241   7.524   6.035
 6025TIP3   OH218019   2.552   1.538   5.140
 6025TIP3    H118020   2.564   1.517   5.233
 6025TIP3    H218021   2.634   1.509   5.099
 6026TIP3   OH218022   7.308   4.243   4.804
 6026TIP3    H118023   7.364   4.237   4.881
 6026TIP3    H218024   7.223   4.272   4.838
 6027TIP3   OH218025   0.167   1.435   3.393
 6027TIP3    H118026   0.203   1.371   3.455
 6027TIP3    H218027   0.147   1.384   3.315
 6028TIP3   OH218028   7.129   5.428   0.923
 6028TIP3    H118029   7.179   5.509   0.935
 6028TIP3    H218030   7.098   5.432   0.832
 6029TIP3   OH218031   0.684   4.034   1.629
 6029TIP3    H118032   0.592   4.026   1.603
 6029TIP3    H218033   0.727   3.961   1.584
 6030TIP3   OH218034   0.141   7.780   5.932
 6030TIP3    H118035   0.052   7.783   5.897
 6030TIP3    H218036   0.133   7.817   6.020
 6031TIP3   OH218037   6.802   1.641   5.936
 6031TIP3    H118038   6.780   1.731   5.912
 6031TIP3    H218039   6.883   1.649   5.987
 6032TIP3   OH218040   7.296   5.536   3.109
 6032TIP3    H118041   7.220   5.589   3.088
 6032TIP3    H218042   7.260   5.458   3.153
 6033TIP3   OH218043   5.992   5.584   3.144
 6033TIP3    H118044   5.995   5.660   3.202
 6033TIP3    H218045   5.979   5.510   3.203
 6034TIP3   OH218046   5.972   3.301   0.572
 6034TIP3    H118047   5.880   3.313   0.551
 6034TIP3    H218048   6.013   3.278   0.488
 6035TIP3   OH218049   5.735   2.785   5.429
 6035TIP3    H118050   5.828   2.775   5.449
 6035TIP3    H218051   5.701   2.696   5.427
 6036TIP3   OH218052   3.504   0.254   0.475
 6036TIP3    H118053   3.435   0.244   0.410
 6036TIP3    H218054   3.459   0.243   0.559
 6037TIP3   OH218055   6.347   0.674   3.579
 6037TIP3    H118056   6.281   0.692   3.647
 6037TIP3    H218057   6.430   0.701   3.619
 6038TIP3   OH218058   7.277   7.134   4.483
 6038TIP3    H118059   7.361   7.119   4.526
 6038TIP3    H218060   7.231   7.050   4.488
 6039TIP3   OH218061   7.431   3.794   5.503
 6039TIP3    H118062   7.458   3.782   5.412
 6039TIP3    H218063   7.341   3.828   5.497
 6040TIP3   OH218064   5.546   6.696   1.612
 6040TIP3    H118065   5.485   6.751   1.662
 6040TIP3    H218066   5.620   6.682   1.672
 6041TIP3   OH218067   4.410   4.420   1.881
 6041TIP3    H118068   4.384   4.334   1.846
 6041TIP3    H218069   4.413   4.407   1.976
 6042TIP3   OH218070   0.310   2.618   1.530
 6042TIP3    H118071   0.376   2.579   1.472
 6042TIP3    H218072   0.251   2.666   1.471
 6043TIP3   OH218073   4.822   4.240   3.208
 6043TIP3    H118074   4.865   4.155   3.222
 6043TIP3    H218075   4.730   4.224   3.232
 6044TIP3   OH218076   3.250   3.735   3.474
 6044TIP3    H118077   3.196   3.717   3.551
 6044TIP3    H218078   3.307   3.658   3.466
 6045TIP3   OH218079   2.413   4.644   4.850
 6045TIP3    H118080   2.345   4.616   4.911
 6045TIP3    H218081   2.469   4.703   4.901
 6046TIP3   OH218082   1.859   4.945   1.158
 6046TIP3    H118083   1.877   4.928   1.250
 6046TIP3    H218084   1.764   4.961   1.155
 6047TIP3   OH218085   5.525   1.328   3.579
 6047TIP3    H118086   5.572   1.274   3.516
 6047TIP3    H218087   5.521   1.415   3.539
 6048TIP3   OH218088   2.248   3.559   4.703
 6048TIP3    H118089   2.218   3.595   4.619
 6048TIP3    H218090   2.196   3.480   4.715
 6049TIP3   OH218091   8.062   7.587   5.704
 6049TIP3    H118092   8.010   7.512   5.673
 6049TIP3    H218093   8.031   7.661   5.651
 6050TIP3   OH218094   1.125   2.731   0.728
 6050TIP3    H118095   1.056   2.689   0.677
 6050TIP3    H218096   1.204   2.682   0.707
 6051TIP3   OH218097   6.581   3.119   2.317
 6051TIP3    H118098   6.576   3.186   2.384
 6051TIP3    H218099   6.674   3.098   2.311
 6052TIP3   OH218100   4.976   1.903   5.394
 6052TIP3    H118101   4.885   1.905   5.363
 6052TIP3    H218102   4.973   1.943   5.481
 6053TIP3   OH218103   8.205   2.165   3.655
 6053TIP3    H118104   8.151   2.173   3.734
 6053TIP3    H218105   8.184   2.242   3.603
 6054TIP3   OH218106   1.677   1.887   6.752
 6054TIP3    H118107   1.591   1.884   6.709
 6054TIP3    H218108   1.687   1.800   6.791
 6055TIP3   OH218109   3.770   1.770   0.808
 6055TIP3    H118110   3.725   1.721   0.877
 6055TIP3    H218111   3.761   1.862   0.832
 6056TIP3   OH218112   3.853   4.863   2.380
 6056TIP3    H118113   3.937   4.821   2.398
 6056TIP3    H218114   3.809   4.865   2.465
 6057TIP3   OH218115   1.805   3.001   2.894
 6057TIP3    H118116   1.828   3.076   2.839
 6057TIP3    H218117   1.864   3.007   2.969
 6058TIP3   OH218118   1.750   1.764   6.134
 6058TIP3    H118119   1.818   1.706   6.099
 6058TIP3    H218120   1.750   1.839   6.075
 6059TIP3   OH218121   7.079   5.000   2.135
 6059TIP3    H118122   7.080   5.011   2.230
 6059TIP3    H218123   7.167   4.967   2.114
 6060TIP3   OH218124   4.638   6.992   2.666
 6060TIP3    H118125   4.543   6.996   2.672
 6060TIP3    H218126   4.661   6.907   2.703
 6061TIP3   OH218127   3.028   3.411   2.077
 6061TIP3    H118128   2.948   3.359   2.081
 6061TIP3    H218129   3.094   3.356   2.119
 6062TIP3   OH218130   0.966   0.697   0.184
 6062TIP3    H118131   1.004   0.758   0.121
 6062TIP3    H218132   1.012   0.716   0.266
 6063TIP3   OH218133   8.258   7.447   5.457
 6063TIP3    H118134   8.281   7.529   5.414
 6063TIP3    H218135   8.179   7.469   5.508
 6064TIP3   OH218136   2.544   3.952   0.483
 6064TIP3    H118137   2.548   3.867   0.528
 6064TIP3    H218138   2.494   4.008   0.541
 6065TIP3   OH218139   3.420   7.628   6.373
 6065TIP3    H118140   3.391   7.541   6.400
 6065TIP3    H218141   3.367   7.648   6.296
 6066TIP3   OH218142   0.146   7.279   6.670
 6066TIP3    H118143   0.192   7.197   6.652
 6066TIP3    H218144   0.054   7.260   6.653
 6067TIP3   OH218145   7.439   3.819   4.655
 6067TIP3    H118146   7.417   3.912   4.650
 6067TIP3    H218147   7.375   3.776   4.598
 6068TIP3   OH218148   7.517   3.488   5.814
 6068TIP3    H118149   7.475   3.554   5.869
 6068TIP3    H218150   7.574   3.440   5.874
 6069TIP3   OH218151   6.151   0.534   6.374
 6069TIP3    H118152   6.205   0.580   6.310
 6069TIP3    H218153   6.107   0.465   6.323
 6070TIP3   OH218154   7.321   1.893   0.290
 6070TIP3    H118155   7.246   1.898   0.231
 6070TIP3    H218156   7.292   1.835   0.361
 6071TIP3   OH218157   4.248   6.006   4.893
 6071TIP3    H118158   4.170   5.962   4.858
 6071TIP3    H218159   4.272   5.954   4.970
 6072TIP3   OH218160   6.238   4.189   4.679
 6072TIP3    H118161   6.188   4.271   4.682
 6072TIP3    H218162   6.174   4.123   4.652
 6073TIP3   OH218163   5.408   0.112   0.712
 6073TIP3    H118164   5.401   0.063   0.630
 6073TIP3    H218165   5.469   0.183   0.693
 6074TIP3   OH218166   3.462   1.353   2.709
 6074TIP3    H118167   3.463   1.302   2.790
 6074TIP3    H218168   3.549   1.392   2.704
 6075TIP3   OH218169   7.218   2.532   0.050
 6075TIP3    H118170   7.163   2.556   0.125
 6075TIP3    H218171   7.187   2.587  -0.021
 6076TIP3   OH218172   6.635   4.921   6.178
 6076TIP3    H118173   6.636   4.966   6.262
 6076TIP3    H218174   6.656   4.830   6.199
 6077TIP3   OH218175   8.260   6.223   4.679
 6077TIP3    H118176   8.319   6.169   4.627
 6077TIP3    H218177   8.173   6.189   4.659
 6078TIP3   OH218178   5.179   3.102   6.361
 6078TIP3    H118179   5.247   3.079   6.424
 6078TIP3    H218180   5.100   3.061   6.396
 6079TIP3   OH218181   2.579   5.190   4.779
 6079TIP3    H118182   2.566   5.147   4.694
 6079TIP3    H218183   2.569   5.284   4.759
 6080TIP3   OH218184   2.832   6.085   5.457
 6080TIP3    H118185   2.765   6.055   5.396
 6080TIP3    H218186   2.914   6.077   5.409
 6081TIP3   OH218187   7.633   2.658   6.066
 6081TIP3    H118188   7.581   2.725   6.110
 6081TIP3    H218189   7.707   2.642   6.124
 6082TIP3   OH218190   1.678   2.202   4.957
 6082TIP3    H118191   1.591   2.172   4.931
 6082TIP3    H218192   1.705   2.140   5.026
 6083TIP3   OH218193   2.807   0.691   2.344
 6083TIP3    H118194   2.841   0.683   2.254
 6083TIP3    H218195   2.777   0.782   2.350
 6084TIP3   OH218196   3.967   7.388   0.667
 6084TIP3    H118197   4.034   7.409   0.732
 6084TIP3    H218198   3.885   7.420   0.705
 6085TIP3   OH218199   7.789   5.674   2.833
 6085TIP3    H118200   7.838   5.634   2.761
 6085TIP3    H218201   7.697   5.658   2.810
 6086TIP3   OH218202   2.281   5.137   2.612
 6086TIP3    H118203   2.299   5.175   2.698
 6086TIP3    H218204   2.199   5.089   2.624
 6087TIP3   OH218205   2.278   5.640   1.179
 6087TIP3    H118206   2.207   5.588   1.142
 6087TIP3    H218207   2.279   5.721   1.128
 6088TIP3   OH218208   1.042   5.209   0.596
 6088TIP3    H118209   1.091   5.133   0.627
 6088TIP3    H218210   1.059   5.277   0.661
 6089TIP3   OH218211   1.185   6.272   5.398
 6089TIP3    H118212   1.223   6.205   5.455
 6089TIP3    H218213   1.255   6.292   5.336
 6090TIP3   OH218214   1.658   1.980   5.118
 6090TIP3    H118215   1.584   1.968   5.178
 6090TIP3    H218216   1.680   1.891   5.090
 6091TIP3   OH218217   5.124   1.404   4.840
 6091TIP3    H118218   5.049   1.366   4.886
 6091TIP3    H218219   5.108   1.498   4.839
 6092TIP3   OH218220   2.695   2.564   2.570
 6092TIP3    H118221   2.790   2.554   2.567
 6092TIP3    H218222   2.674   2.620   2.496
 6093TIP3   OH218223   2.506   4.385   1.455
 6093TIP3    H118224   2.588   4.420   1.488
 6093TIP3    H218225   2.531   4.329   1.382
 6094TIP3   OH218226   0.997   7.239   4.760
 6094TIP3    H118227   1.032   7.177   4.825
 6094TIP3    H218228   0.903   7.223   4.761
 6095TIP3   OH218229   6.909   1.724   5.576
 6095TIP3    H118230   6.942   1.679   5.498
 6095TIP3    H218231   6.814   1.731   5.561
 6096TIP3   OH218232   5.813   2.299   6.357
 6096TIP3    H118233   5.837   2.224   6.303
 6096TIP3    H218234   5.842   2.275   6.445
 6097TIP3   OH218235   4.247   7.269   1.692
 6097TIP3    H118236   4.225   7.219   1.613
 6097TIP3    H218237   4.199   7.226   1.762
 6098TIP3   OH218238   2.038   7.297   1.445
 6098TIP3    H118239   2.023   7.348   1.366
 6098TIP3    H218240   2.017   7.357   1.517
 6099TIP3   OH218241   5.630   2.040   4.729
 6099TIP3    H118242   5.658   1.982   4.658
 6099TIP3    H218243   5.547   2.077   4.699
 6100TIP3   OH218244   0.308   6.677   0.470
 6100TIP3    H118245   0.314   6.713   0.558
 6100TIP3    H218246   0.215   6.687   0.447
 6101TIP3   OH218247   7.630   7.712   3.274
 6101TIP3    H118248   7.535   7.714   3.285
 6101TIP3    H218249   7.643   7.658   3.196
 6102TIP3   OH218250   0.532   0.400   3.807
 6102TIP3    H118251   0.474   0.470   3.777
 6102TIP3    H218252   0.488   0.319   3.781
 6103TIP3   OH218253   1.419   5.640   0.869
 6103TIP3    H118254   1.459   5.612   0.951
 6103TIP3    H218255   1.326   5.649   0.890
 6104TIP3   OH218256   2.608   7.832   3.389
 6104TIP3    H118257   2.521   7.872   3.390
 6104TIP3    H218258   2.592   7.740   3.367
 6105TIP3   OH218259   6.406   5.040   1.876
 6105TIP3    H118260   6.434   5.001   1.793
 6105TIP3    H218261   6.315   5.066   1.861
 6106TIP3   OH218262   1.672   6.896   3.591
 6106TIP3    H118263   1.610   6.889   3.663
 6106TIP3    H218264   1.702   6.987   3.593
 6107TIP3   OH218265   6.954   0.452   3.079
 6107TIP3    H118266   7.036   0.442   3.030
 6107TIP3    H218267   6.977   0.427   3.169
 6108TIP3   OH218268   7.201   7.469   1.672
 6108TIP3    H118269   7.241   7.460   1.759
 6108TIP3    H218270   7.153   7.552   1.677
 6109TIP3   OH218271   3.988   1.014   6.585
 6109TIP3    H118272   3.991   0.930   6.631
 6109TIP3    H218273   3.947   0.994   6.501
 6110TIP3   OH218274   4.222   0.143   3.252
 6110TIP3    H118275   4.130   0.169   3.244
 6110TIP3    H218276   4.262   0.171   3.169
 6111TIP3   OH218277   1.004   4.673   1.887
 6111TIP3    H118278   0.917   4.648   1.856
 6111TIP3    H218279   0.992   4.687   1.981
 6112TIP3   OH218280   5.676   1.996   5.662
 6112TIP3    H118281   5.761   2.041   5.650
 6112TIP3    H218282   5.664   1.994   5.757
 6113TIP3   OH218283   5.584   0.907   1.350
 6113TIP3    H118284   5.601   0.931   1.259
 6113TIP3    H218285   5.649   0.840   1.370
 6114TIP3   OH218286   3.638   3.862   5.382
 6114TIP3    H118287   3.547   3.851   5.354
 6114TIP3    H218288   3.636   3.849   5.476
 6115TIP3   OH218289   7.248   2.223   6.002
 6115TIP3    H118290   7.213   2.173   5.928
 6115TIP3    H218291   7.172   2.269   6.038
 6116TIP3   OH218292   4.921   4.842   2.657
 6116TIP3    H118293   4.897   4.911   2.720
 6116TIP3    H218294   4.925   4.762   2.710
 6117TIP3   OH218295   7.753   1.910   6.601
 6117TIP3    H118296   7.727   1.921   6.692
 6117TIP3    H218297   7.737   1.996   6.561
 6118TIP3   OH218298   5.957   4.125   3.283
 6118TIP3    H118299   5.949   4.212   3.323
 6118TIP3    H218300   6.016   4.078   3.342
 6119TIP3   OH218301   4.226   2.836   0.599
 6119TIP3    H118302   4.321   2.837   0.612
 6119TIP3    H218303   4.210   2.903   0.533
 6120TIP3   OH218304   7.281   4.753   0.173
 6120TIP3    H118305   7.351   4.805   0.134
 6120TIP3    H218306   7.240   4.707   0.100
 6121TIP3   OH218307   0.681   1.335   4.948
 6121TIP3    H118308   0.646   1.338   5.038
 6121TIP3    H218309   0.618   1.386   4.897
 6122TIP3   OH218310   1.270   3.212   3.245
 6122TIP3    H118311   1.257   3.299   3.283
 6122TIP3    H218312   1.203   3.206   3.176
 6123TIP3   OH218313   7.957   3.029   2.520
 6123TIP3    H118314   7.966   2.943   2.561
 6123TIP3    H218315   7.892   3.075   2.572
 6124TIP3   OH218316   5.857   7.529   4.120
 6124TIP3    H118317   5.872   7.443   4.158
 6124TIP3    H218318   5.866   7.515   4.025
 6125TIP3   OH218319   4.492   6.164   4.917
 6125TIP3    H118320   4.405   6.128   4.900
 6125TIP3    H218321   4.489   6.188   5.010
 6126TIP3   OH218322   0.980   0.459   0.017
 6126TIP3    H118323   0.952   0.463  -0.075
 6126TIP3    H218324   0.975   0.550   0.047
 6127TIP3   OH218325   2.254   5.173   3.193
 6127TIP3    H118326   2.334   5.120   3.189
 6127TIP3    H218327   2.183   5.109   3.188
 6128TIP3   OH218328   4.854   4.692   2.882
 6128TIP3    H118329   4.897   4.731   2.958
 6128TIP3    H218330   4.793   4.628   2.919
 6129TIP3   OH218331   0.166   4.954   0.582
 6129TIP3    H118332   0.125   5.040   0.589
 6129TIP3    H218333   0.242   4.959   0.640
 6130TIP3   OH218334   5.742   7.602   6.149
 6130TIP3    H118335   5.668   7.569   6.201
 6130TIP3    H218336   5.701   7.656   6.081
 6131TIP3   OH218337   7.944   0.258   3.552
 6131TIP3    H118338   8.005   0.296   3.489
 6131TIP3    H218339   7.888   0.331   3.578
 6132TIP3   OH218340   5.540   7.535   3.431
 6132TIP3    H118341   5.461   7.553   3.481
 6132TIP3    H218342   5.527   7.449   3.393
 6133TIP3   OH218343   8.185   4.909   0.331
 6133TIP3    H118344   8.141   4.948   0.407
 6133TIP3    H218345   8.263   4.964   0.319
 6134TIP3   OH218346   3.879   2.751   0.192
 6134TIP3    H118347   3.869   2.846   0.187
 6134TIP3    H218348   3.805   2.716   0.143
 6135TIP3   OH218349   0.359   5.500   5.495
 6135TIP3    H118350   0.338   5.504   5.401
 6135TIP3    H218351   0.356   5.407   5.517
 6136TIP3   OH218352   6.163   4.375   3.244
 6136TIP3    H118353   6.184   4.455   3.293
 6136TIP3    H218354   6.150   4.309   3.312
 6137TIP3   OH218355   5.428   3.206   0.482
 6137TIP3    H118356   5.390   3.286   0.446
 6137TIP3    H218357   5.516   3.203   0.446
 6138TIP3   OH218358   1.259   6.879   5.532
 6138TIP3    H118359   1.185   6.901   5.589
 6138TIP3    H218360   1.274   6.957   5.480
 6139TIP3   OH218361   4.986   2.635   6.436
 6139TIP3    H118362   5.054   2.568   6.435
 6139TIP3    H218363   4.905   2.587   6.451
 6140TIP3   OH218364   1.909   3.838   3.143
 6140TIP3    H118365   1.905   3.806   3.053
 6140TIP3    H218366   1.831   3.800   3.185
 6141TIP3   OH218367   3.862   4.508   2.009
 6141TIP3    H118368   3.943   4.485   2.054
 6141TIP3    H218369   3.797   4.448   2.046
 6142TIP3   OH218370   5.277   3.537   3.340
 6142TIP3    H118371   5.222   3.459   3.342
 6142TIP3    H218372   5.302   3.546   3.248
 6143TIP3   OH218373   4.013   4.111   0.505
 6143TIP3    H118374   4.021   4.069   0.420
 6143TIP3    H218375   3.932   4.161   0.500
 6144TIP3   OH218376   2.718   2.942   6.592
 6144TIP3    H118377   2.688   3.009   6.530
 6144TIP3    H218378   2.747   2.991   6.669
 6145TIP3   OH218379   5.078   0.886   1.298
 6145TIP3    H118380   5.089   0.868   1.391
 6145TIP3    H218381   5.014   0.958   1.294
 6146TIP3   OH218382   7.288   3.818   1.290
 6146TIP3    H118383   7.346   3.885   1.253
 6146TIP3    H218384   7.245   3.780   1.213
 6147TIP3   OH218385   2.305   3.064   4.847
 6147TIP3    H118386   2.272   3.021   4.767
 6147TIP3    H218387   2.227   3.093   4.893
 6148TIP3   OH218388   5.655   1.863   0.442
 6148TIP3    H118389   5.687   1.942   0.484
 6148TIP3    H218390   5.632   1.805   0.515
 6149TIP3   OH218391   3.929   3.611   1.200
 6149TIP3    H118392   4.008   3.641   1.246
 6149TIP3    H218393   3.911   3.681   1.137
 6150TIP3   OH218394   0.759   1.972   4.536
 6150TIP3    H118395   0.844   1.996   4.573
 6150TIP3    H218396   0.780   1.909   4.467
 6151TIP3   OH218397   5.193   5.984   1.890
 6151TIP3    H118398   5.269   6.019   1.844
 6151TIP3    H218399   5.147   6.061   1.923
 6152TIP3   OH218400   7.014   4.156   1.904
 6152TIP3    H118401   7.004   4.214   1.828
 6152TIP3    H218402   6.944   4.092   1.894
 6153TIP3   OH218403   4.590   5.392   5.240
 6153TIP3    H118404   4.571   5.459   5.306
 6153TIP3    H218405   4.605   5.312   5.291
 6154TIP3   OH218406   7.588   6.991   5.916
 6154TIP3    H118407   7.518   7.022   5.973
 6154TIP3    H218408   7.620   6.912   5.958
 6155TIP3   OH218409   8.114   4.162   4.774
 6155TIP3    H118410   8.115   4.226   4.845
 6155TIP3    H218411   8.055   4.093   4.804
 6156TIP3   OH218412   7.239   6.453   3.721
 6156TIP3    H118413   7.288   6.419   3.647
 6156TIP3    H218414   7.256   6.547   3.720
 6157TIP3   OH218415   8.276   6.491   0.317
 6157TIP3    H118416   8.283   6.579   0.353
 6157TIP3    H218417   8.271   6.504   0.222
 6158TIP3   OH218418   1.845   5.127   2.138
 6158TIP3    H118419   1.822   5.064   2.071
 6158TIP3    H218420   1.906   5.187   2.095
 6159TIP3   OH218421   4.223   0.413   2.305
 6159TIP3    H118422   4.288   0.372   2.363
 6159TIP3    H218423   4.276   0.460   2.240
 6160TIP3   OH218424   4.451   6.063   1.006
 6160TIP3    H118425   4.524   6.122   0.988
 6160TIP3    H218426   4.377   6.122   1.023
 6161TIP3   OH218427   1.272   3.270   3.938
 6161TIP3    H118428   1.199   3.283   3.999
 6161TIP3    H218429   1.345   3.244   3.993
 6162TIP3   OH218430   7.997   0.283   4.691
 6162TIP3    H118431   8.067   0.289   4.627
 6162TIP3    H218432   8.040   0.295   4.776
 6163TIP3   OH218433   3.381   0.615   1.755
 6163TIP3    H118434   3.469   0.611   1.717
 6163TIP3    H218435   3.395   0.631   1.848
 6164TIP3   OH218436   7.203   6.332   1.467
 6164TIP3    H118437   7.194   6.323   1.372
 6164TIP3    H218438   7.293   6.362   1.481
 6165TIP3   OH218439   5.950   3.089   1.369
 6165TIP3    H118440   5.915   3.043   1.293
 6165TIP3    H218441   5.895   3.167   1.377
 6166TIP3   OH218442   4.605   7.311   0.089
 6166TIP3    H118443   4.540   7.326   0.159
 6166TIP3    H218444   4.604   7.391   0.037
 6167TIP3   OH218445   7.518   2.616   6.615
 6167TIP3    H118446   7.612   2.616   6.634
 6167TIP3    H218447   7.479   2.661   6.691
 6168TIP3   OH218448   8.291   1.244   5.001
 6168TIP3    H118449   8.226   1.244   5.071
 6168TIP3    H218450   8.255   1.302   4.934
 6169TIP3   OH218451   5.672   0.432   0.447
 6169TIP3    H118452   5.750   0.381   0.471
 6169TIP3    H218453   5.650   0.402   0.359
 6170TIP3   OH218454   1.537   2.590   5.872
 6170TIP3    H118455   1.588   2.602   5.793
 6170TIP3    H218456   1.597   2.611   5.944
 6171TIP3   OH218457   0.266   7.281   2.354
 6171TIP3    H118458   0.212   7.211   2.318
 6171TIP3    H218459   0.215   7.316   2.427
 6172TIP3   OH218460   2.362   4.467   3.386
 6172TIP3    H118461   2.287   4.480   3.443
 6172TIP3    H218462   2.373   4.372   3.383
 6173TIP3   OH218463   6.038   6.728   3.823
 6173TIP3    H118464   6.128   6.728   3.792
 6173TIP3    H218465   6.036   6.662   3.892
 6174TIP3   OH218466   3.164   6.718   1.952
 6174TIP3    H118467   3.248   6.736   1.909
 6174TIP3    H218468   3.171   6.627   1.979
 6175TIP3   OH218469   7.160   3.448   3.850
 6175TIP3    H118470   7.175   3.540   3.872
 6175TIP3    H218471   7.165   3.402   3.934
 6176TIP3   OH218472   2.625   1.517   1.777
 6176TIP3    H118473   2.689   1.448   1.761
 6176TIP3    H218474   2.657   1.562   1.856
 6177TIP3   OH218475   4.377   1.736   2.612
 6177TIP3    H118476   4.473   1.734   2.604
 6177TIP3    H218477   4.347   1.673   2.547
 6178TIP3   OH218478   0.218   7.142   1.548
 6178TIP3    H118479   0.160   7.067   1.567
 6178TIP3    H218480   0.182   7.213   1.600
 6179TIP3   OH218481   1.646   0.986   4.528
 6179TIP3    H118482   1.703   1.041   4.581
 6179TIP3    H218483   1.683   0.898   4.535
 6180TIP3   OH218484   7.891   7.542   2.747
 6180TIP3    H118485   7.938   7.558   2.665
 6180TIP3    H218486   7.834   7.468   2.728
 6181TIP3   OH218487   5.504   6.077   1.141
 6181TIP3    H118488   5.475   6.098   1.052
 6181TIP3    H218489   5.448   6.005   1.169
 6182TIP3   OH218490   2.420   4.549   6.180
 6182TIP3    H118491   2.504   4.574   6.218
 6182TIP3    H218492   2.395   4.469   6.227
 6183TIP3   OH218493   6.165   1.272   5.034
 6183TIP3    H118494   6.190   1.231   5.117
 6183TIP3    H218495   6.075   1.299   5.047
 6184TIP3   OH218496   6.179   5.431   3.505
 6184TIP3    H118497   6.180   5.384   3.422
 6184TIP3    H218498   6.269   5.426   3.537
 6185TIP3   OH218499   0.738   0.539   0.295
 6185TIP3    H118500   0.688   0.610   0.255
 6185TIP3    H218501   0.826   0.547   0.259
 6186TIP3   OH218502   2.240   3.724   6.008
 6186TIP3    H118503   2.169   3.660   6.004
 6186TIP3    H218504   2.260   3.743   5.916
 6187TIP3   OH218505   5.537   3.917   1.558
 6187TIP3    H118506   5.583   3.849   1.607
 6187TIP3    H218507   5.475   3.869   1.503
 6188TIP3   OH218508   3.295   5.482   3.108
 6188TIP3    H118509   3.309   5.387   3.109
 6188TIP3    H218510   3.201   5.493   3.094
 6189TIP3   OH218511   2.327   3.859   0.680
 6189TIP3    H118512   2.321   3.780   0.626
 6189TIP3    H218513   2.284   3.927   0.628
 6190TIP3   OH218514   0.425   7.066   1.362
 6190TIP3    H118515   0.467   6.983   1.386
 6190TIP3    H218516   0.344   7.067   1.412
 6191TIP3   OH218517   0.127   0.187   2.866
 6191TIP3    H118518   0.165   0.256   2.812
 6191TIP3    H218519   0.095   0.122   2.804
 6192TIP3   OH218520   1.322   7.557   4.887
 6192TIP3    H118521   1.255   7.557   4.955
 6192TIP3    H218522   1.279   7.520   4.811
 6193TIP3   OH218523   5.051   0.934   5.100
 6193TIP3    H118524   5.110   0.862   5.078
 6193TIP3    H218525   5.045   0.931   5.196
 6194TIP3   OH218526   6.120   6.970   2.334
 6194TIP3    H118527   6.101   7.027   2.259
 6194TIP3    H218528   6.204   7.001   2.367
 6195TIP3   OH218529   8.131   7.203   0.445
 6195TIP3    H118530   8.153   7.117   0.481
 6195TIP3    H218531   8.098   7.253   0.520
 6196TIP3   OH218532   1.096   4.061   5.255
 6196TIP3    H118533   1.185   4.090   5.233
 6196TIP3    H218534   1.078   3.991   5.192
 6197TIP3   OH218535   0.702   7.577   2.349
 6197TIP3    H118536   0.758   7.503   2.325
 6197TIP3    H218537   0.761   7.653   2.346
 6198TIP3   OH218538   5.129   6.265   3.334
 6198TIP3    H118539   5.085   6.274   3.419
 6198TIP3    H218540   5.113   6.174   3.309
 6199TIP3   OH218541   0.132   0.445   6.324
 6199TIP3    H118542   0.128   0.366   6.270
 6199TIP3    H218543   0.086   0.421   6.404
 6200TIP3   OH218544   6.586   4.852   4.275
 6200TIP3    H118545   6.646   4.881   4.344
 6200TIP3    H218546   6.642   4.807   4.212
 6201TIP3   OH218547   1.977   2.502   6.132
 6201TIP3    H118548   2.008   2.470   6.047
 6201TIP3    H218549   2.049   2.485   6.193
 6202TIP3   OH218550   5.397   3.900   1.977
 6202TIP3    H118551   5.433   3.830   1.924
 6202TIP3    H218552   5.397   3.977   1.920
 6203TIP3   OH218553   2.843   3.416   2.943
 6203TIP3    H118554   2.836   3.371   3.027
 6203TIP3    H218555   2.853   3.508   2.966
 6204TIP3   OH218556   6.603   2.737  -0.054
 6204TIP3    H118557   6.560   2.713   0.028
 6204TIP3    H218558   6.624   2.830  -0.044
 6205TIP3   OH218559   7.969   7.118   2.559
 6205TIP3    H118560   8.017   7.041   2.590
 6205TIP3    H218561   8.014   7.143   2.478
 6206TIP3   OH218562   3.672   7.274   4.391
 6206TIP3    H118563   3.616   7.199   4.409
 6206TIP3    H218564   3.727   7.282   4.469
 6207TIP3   OH218565   7.483   4.288   3.033
 6207TIP3    H118566   7.574   4.310   3.052
 6207TIP3    H218567   7.437   4.372   3.038
 6208TIP3   OH218568   5.594   0.081   3.225
 6208TIP3    H118569   5.518   0.075   3.283
 6208TIP3    H218570   5.611   0.175   3.218
 6209TIP3   OH218571   4.247   3.454   6.255
 6209TIP3    H118572   4.160   3.428   6.223
 6209TIP3    H218573   4.271   3.384   6.316
 6210TIP3   OH218574   0.477   7.516   4.105
 6210TIP3    H118575   0.548   7.552   4.051
 6210TIP3    H218576   0.450   7.437   4.059
 6211TIP3   OH218577   5.904   6.429   2.946
 6211TIP3    H118578   5.991   6.432   2.988
 6211TIP3    H218579   5.897   6.511   2.898
 6212TIP3   OH218580   2.132   0.979   4.630
 6212TIP3    H118581   2.202   0.950   4.688
 6212TIP3    H218582   2.149   1.073   4.616
 6213TIP3   OH218583   1.936   0.752   2.942
 6213TIP3    H118584   1.954   0.665   2.977
 6213TIP3    H218585   2.022   0.785   2.916
 6214TIP3   OH218586   0.257   0.476   1.144
 6214TIP3    H118587   0.265   0.563   1.106
 6214TIP3    H218588   0.163   0.463   1.156
 6215TIP3   OH218589   0.704   5.359   3.814
 6215TIP3    H118590   0.800   5.363   3.811
 6215TIP3    H218591   0.679   5.328   3.726
 6216TIP3   OH218592   1.723   1.679   4.388
 6216TIP3    H118593   1.779   1.667   4.464
 6216TIP3    H218594   1.783   1.713   4.320
 6217TIP3   OH218595   3.825   0.580   2.273
 6217TIP3    H118596   3.825   0.502   2.217
 6217TIP3    H218597   3.896   0.634   2.238
 6218TIP3   OH218598   4.506   7.444   0.468
 6218TIP3    H118599   4.587   7.398   0.493
 6218TIP3    H218600   4.474   7.395   0.392
 6219TIP3   OH218601   0.883   5.364   0.450
 6219TIP3    H118602   0.892   5.447   0.497
 6219TIP3    H218603   0.931   5.301   0.504
 6220TIP3   OH218604   0.693   1.101   3.019
 6220TIP3    H118605   0.748   1.034   3.060
 6220TIP3    H218606   0.690   1.172   3.084
 6221TIP3   OH218607   2.133   2.555   4.811
 6221TIP3    H118608   2.136   2.550   4.907
 6221TIP3    H218609   2.048   2.593   4.792
 6222TIP3   OH218610   4.515   2.489   3.960
 6222TIP3    H118611   4.574   2.414   3.953
 6222TIP3    H218612   4.543   2.547   3.889
 6223TIP3   OH218613   6.428   4.603   4.385
 6223TIP3    H118614   6.505   4.548   4.402
 6223TIP3    H218615   6.464   4.687   4.356
 6224TIP3   OH218616   7.165   3.652   1.093
 6224TIP3    H118617   7.167   3.648   0.997
 6224TIP3    H218618   7.166   3.561   1.121
 6225TIP3   OH218619   6.499   6.358   1.182
 6225TIP3    H118620   6.513   6.279   1.130
 6225TIP3    H218621   6.453   6.328   1.260
 6226TIP3   OH218622   7.863   1.939   2.342
 6226TIP3    H118623   7.798   1.997   2.303
 6226TIP3    H218624   7.867   1.864   2.284
 6227TIP3   OH218625   7.021   4.189   3.877
 6227TIP3    H118626   6.952   4.202   3.943
 6227TIP3    H218627   7.002   4.253   3.809
 6228TIP3   OH218628   7.320   4.566   0.992
 6228TIP3    H118629   7.377   4.526   0.927
 6228TIP3    H218630   7.251   4.608   0.940
 6229TIP3   OH218631   0.230   5.873   3.446
 6229TIP3    H118632   0.179   5.815   3.502
 6229TIP3    H218633   0.274   5.933   3.506
 6230TIP3   OH218634   7.627   1.049   1.470
 6230TIP3    H118635   7.531   1.050   1.474
 6230TIP3    H218636   7.649   1.117   1.405
 6231TIP3   OH218637   3.821   7.240   1.088
 6231TIP3    H118638   3.784   7.318   1.128
 6231TIP3    H218639   3.757   7.171   1.105
 6232TIP3   OH218640   7.537   2.452   2.725
 6232TIP3    H118641   7.571   2.542   2.731
 6232TIP3    H218642   7.517   2.440   2.632
 6233TIP3   OH218643   4.398   7.577   0.729
 6233TIP3    H118644   4.452   7.611   0.658
 6233TIP3    H218645   4.415   7.483   0.730
 6234TIP3   OH218646   1.788   4.828   2.527
 6234TIP3    H118647   1.759   4.810   2.616
 6234TIP3    H218648   1.718   4.880   2.488
 6235TIP3   OH218649   4.699   4.006   0.906
 6235TIP3    H118650   4.756   4.017   0.982
 6235TIP3    H218651   4.631   3.946   0.936
 6236TIP3   OH218652   6.779   2.532   2.000
 6236TIP3    H118653   6.819   2.612   1.967
 6236TIP3    H218654   6.765   2.478   1.922
 6237TIP3   OH218655   3.463   0.872   2.202
 6237TIP3    H118656   3.524   0.844   2.133
 6237TIP3    H218657   3.450   0.966   2.186
 6238TIP3   OH218658   2.361   3.315   3.606
 6238TIP3    H118659   2.305   3.239   3.622
 6238TIP3    H218660   2.317   3.363   3.536
 6239TIP3   OH218661   3.130   4.910   1.452
 6239TIP3    H118662   3.186   4.914   1.375
 6239TIP3    H218663   3.135   4.819   1.481
 6240TIP3   OH218664   6.181   2.220   5.293
 6240TIP3    H118665   6.158   2.213   5.200
 6240TIP3    H218666   6.100   2.249   5.335
 6241TIP3   OH218667   6.959   2.415   0.981
 6241TIP3    H118668   6.996   2.461   1.057
 6241TIP3    H218669   6.866   2.403   1.004
 6242TIP3   OH218670   7.480   2.331   3.440
 6242TIP3    H118671   7.488   2.426   3.433
 6242TIP3    H218672   7.386   2.315   3.448
 6243TIP3   OH218673   5.526   2.342   5.008
 6243TIP3    H118674   5.484   2.428   5.008
 6243TIP3    H218675   5.475   2.290   5.070
 6244TIP3   OH218676   8.016   4.493   3.145
 6244TIP3    H118677   8.029   4.483   3.051
 6244TIP3    H218678   7.935   4.544   3.153
 6245TIP3   OH218679   8.056   3.534   0.588
 6245TIP3    H118680   8.062   3.602   0.656
 6245TIP3    H218681   7.982   3.480   0.615
 6246TIP3   OH218682   7.127   7.479   0.737
 6246TIP3    H118683   7.174   7.402   0.768
 6246TIP3    H218684   7.095   7.521   0.817
 6247TIP3   OH218685   5.246   2.139   1.477
 6247TIP3    H118686   5.292   2.143   1.561
 6247TIP3    H218687   5.314   2.149   1.411
 6248TIP3   OH218688   2.753   3.089   1.072
 6248TIP3    H118689   2.838   3.087   1.029
 6248TIP3    H218690   2.762   3.029   1.147
 6249TIP3   OH218691   6.189   2.990   4.594
 6249TIP3    H118692   6.151   2.908   4.564
 6249TIP3    H218693   6.196   2.981   4.689
 6250TIP3   OH218694   6.231   0.421   0.462
 6250TIP3    H118695   6.156   0.443   0.406
 6250TIP3    H218696   6.238   0.496   0.521
 6251TIP3   OH218697   3.689   3.306   0.151
 6251TIP3    H118698   3.611   3.255   0.128
 6251TIP3    H218699   3.689   3.380   0.090
 6252TIP3   OH218700   2.494   0.226   1.506
 6252TIP3    H118701   2.420   0.280   1.535
 6252TIP3    H218702   2.460   0.136   1.506
 6253TIP3   OH218703   8.303   2.306   5.080
 6253TIP3    H118704   8.318   2.279   4.989
 6253TIP3    H218705   8.224   2.360   5.077
 6254TIP3   OH218706   1.156   7.511   0.398
 6254TIP3    H118707   1.090   7.518   0.328
 6254TIP3    H218708   1.115   7.457   0.464
 6255TIP3   OH218709   0.259   1.645   5.475
 6255TIP3    H118710   0.287   1.731   5.442
 6255TIP3    H218711   0.207   1.608   5.403
 6256TIP3   OH218712   5.804   2.450   2.124
 6256TIP3    H118713   5.772   2.499   2.049
 6256TIP3    H218714   5.728   2.402   2.157
 6257TIP3   OH218715   7.392   7.848   5.812
 6257TIP3    H118716   7.302   7.857   5.784
 6257TIP3    H218717   7.413   7.755   5.800
 6258TIP3   OH218718   4.920   1.194   5.024
 6258TIP3    H118719   4.913   1.252   5.099
 6258TIP3    H218720   4.970   1.119   5.057
 6259TIP3   OH218721   5.650   2.160   1.741
 6259TIP3    H118722   5.708   2.158   1.817
 6259TIP3    H218723   5.708   2.145   1.666
 6260TIP3   OH218724   7.232   4.803   4.640
 6260TIP3    H118725   7.157   4.836   4.590
 6260TIP3    H218726   7.307   4.817   4.582
 6261TIP3   OH218727   4.439   2.319   4.587
 6261TIP3    H118728   4.437   2.284   4.676
 6261TIP3    H218729   4.436   2.243   4.530
 6262TIP3   OH218730   0.712   2.735   1.416
 6262TIP3    H118731   0.719   2.763   1.508
 6262TIP3    H218732   0.788   2.774   1.373
 6263TIP3   OH218733   8.240   6.616   3.106
 6263TIP3    H118734   8.262   6.523   3.096
 6263TIP3    H218735   8.150   6.615   3.139
 6264TIP3   OH218736   4.694   7.351   6.662
 6264TIP3    H118737   4.612   7.320   6.701
 6264TIP3    H218738   4.667   7.409   6.592
 6265TIP3   OH218739   0.875   3.319   4.417
 6265TIP3    H118740   0.865   3.288   4.327
 6265TIP3    H218741   0.788   3.351   4.441
 6266TIP3   OH218742   3.810   5.661   3.452
 6266TIP3    H118743   3.859   5.726   3.503
 6266TIP3    H218744   3.765   5.609   3.518
 6267TIP3   OH218745   7.238   7.558   6.069
 6267TIP3    H118746   7.241   7.625   6.137
 6267TIP3    H218747   7.158   7.576   6.021
 6268TIP3   OH218748   4.232   1.946   3.888
 6268TIP3    H118749   4.192   1.933   3.802
 6268TIP3    H218750   4.205   2.033   3.915
 6269TIP3   OH218751   0.120   7.730   2.615
 6269TIP3    H118752   0.202   7.778   2.603
 6269TIP3    H218753   0.101   7.738   2.709
 6270TIP3   OH218754   2.381   7.504   4.376
 6270TIP3    H118755   2.322   7.443   4.332
 6270TIP3    H218756   2.466   7.459   4.375
 6271TIP3   OH218757   8.085   2.847   4.421
 6271TIP3    H118758   8.106   2.895   4.340
 6271TIP3    H218759   8.053   2.914   4.481
 6272TIP3   OH218760   5.898   1.308   1.962
 6272TIP3    H118761   5.891   1.325   1.868
 6272TIP3    H218762   5.828   1.245   1.980
 6273TIP3   OH218763   1.968   5.762   0.034
 6273TIP3    H118764   1.918   5.695  -0.012
 6273TIP3    H218765   1.987   5.828  -0.033
 6274TIP3   OH218766   1.996   5.273   2.921
 6274TIP3    H118767   1.930   5.250   2.987
 6274TIP3    H218768   1.982   5.366   2.903
 6275TIP3   OH218769   2.715   6.620   6.214
 6275TIP3    H118770   2.746   6.533   6.188
 6275TIP3    H218771   2.717   6.618   6.310
 6276TIP3   OH218772   5.481   0.500   3.058
 6276TIP3    H118773   5.511   0.590   3.039
 6276TIP3    H218774   5.562   0.452   3.076
 6277TIP3   OH218775   0.760   2.264   2.171
 6277TIP3    H118776   0.690   2.314   2.130
 6277TIP3    H218777   0.785   2.199   2.105
 6278TIP3   OH218778   5.824   3.017   3.737
 6278TIP3    H118779   5.853   2.992   3.649
 6278TIP3    H218780   5.897   2.991   3.794
 6279TIP3   OH218781   6.621   7.122   5.030
 6279TIP3    H118782   6.539   7.145   4.986
 6279TIP3    H218783   6.615   7.166   5.115
 6280TIP3   OH218784   7.989   7.799   6.135
 6280TIP3    H118785   8.002   7.728   6.198
 6280TIP3    H218786   8.058   7.786   6.070
 6281TIP3   OH218787   3.243   2.479   6.357
 6281TIP3    H118788   3.151   2.506   6.353
 6281TIP3    H218789   3.255   2.449   6.447
 6282TIP3   OH218790   8.164   4.639   1.206
 6282TIP3    H118791   8.113   4.719   1.215
 6282TIP3    H218792   8.215   4.634   1.287
 6283TIP3   OH218793   7.466   1.379   3.347
 6283TIP3    H118794   7.385   1.429   3.336
 6283TIP3    H218795   7.530   1.426   3.293
 6284TIP3   OH218796   5.872   2.319   2.769
 6284TIP3    H118797   5.935   2.390   2.757
 6284TIP3    H218798   5.802   2.338   2.706
 6285TIP3   OH218799   7.049   6.647   2.808
 6285TIP3    H118800   7.027   6.595   2.730
 6285TIP3    H218801   7.072   6.733   2.773
 6286TIP3   OH218802   0.701   1.677   0.863
 6286TIP3    H118803   0.696   1.685   0.958
 6286TIP3    H218804   0.688   1.766   0.831
 6287TIP3   OH218805   6.643   6.059   4.422
 6287TIP3    H118806   6.610   6.107   4.347
 6287TIP3    H218807   6.580   5.988   4.435
 6288TIP3   OH218808   0.650   1.747   2.399
 6288TIP3    H118809   0.584   1.714   2.460
 6288TIP3    H218810   0.675   1.671   2.347
 6289TIP3   OH218811   4.594   0.804   4.643
 6289TIP3    H118812   4.604   0.874   4.579
 6289TIP3    H218813   4.643   0.730   4.606
 6290TIP3   OH218814   3.361   5.722   2.894
 6290TIP3    H118815   3.308   5.677   2.828
 6290TIP3    H218816   3.440   5.749   2.847
 6291TIP3   OH218817   5.344   6.278   0.250
 6291TIP3    H118818   5.399   6.352   0.226
 6291TIP3    H218819   5.384   6.242   0.328
 6292TIP3   OH218820   8.304   2.287   2.227
 6292TIP3    H118821   8.221   2.258   2.265
 6292TIP3    H218822   8.298   2.382   2.226
 6293TIP3   OH218823   4.408   2.389   1.814
 6293TIP3    H118824   4.439   2.333   1.743
 6293TIP3    H218825   4.461   2.469   1.807
 6294TIP3   OH218826   1.892   6.657   5.927
 6294TIP3    H118827   1.952   6.599   5.974
 6294TIP3    H218828   1.950   6.722   5.886
 6295TIP3   OH218829   4.875   1.183   5.472
 6295TIP3    H118830   4.829   1.109   5.432
 6295TIP3    H218831   4.844   1.259   5.422
 6296TIP3   OH218832   6.103   3.225   2.713
 6296TIP3    H118833   6.036   3.287   2.685
 6296TIP3    H218834   6.055   3.144   2.730
 6297TIP3   OH218835   3.812   7.115   5.999
 6297TIP3    H118836   3.794   7.159   6.082
 6297TIP3    H218837   3.905   7.133   5.982
 6298TIP3   OH218838   5.263   6.865   0.557
 6298TIP3    H118839   5.264   6.861   0.652
 6298TIP3    H218840   5.355   6.868   0.532
 6299TIP3   OH218841   1.269   4.264   5.991
 6299TIP3    H118842   1.228   4.330   6.046
 6299TIP3    H218843   1.229   4.181   6.018
 6300TIP3   OH218844   2.729   4.949   1.285
 6300TIP3    H118845   2.681   4.968   1.365
 6300TIP3    H218846   2.758   5.034   1.253
 6301TIP3   OH218847   1.082   4.100   1.679
 6301TIP3    H118848   1.030   4.093   1.600
 6301TIP3    H218849   1.050   4.178   1.723
 6302TIP3   OH218850   5.589   4.091   4.044
 6302TIP3    H118851   5.494   4.095   4.032
 6302TIP3    H218852   5.623   4.158   3.985
 6303TIP3   OH218853   5.123   3.063   3.240
 6303TIP3    H118854   5.056   3.027   3.182
 6303TIP3    H218855   5.142   2.993   3.302
 6304TIP3   OH218856   5.761   0.659   6.235
 6304TIP3    H118857   5.780   0.576   6.191
 6304TIP3    H218858   5.703   0.635   6.307
 6305TIP3   OH218859   4.438   1.313   2.701
 6305TIP3    H118860   4.478   1.284   2.783
 6305TIP3    H218861   4.494   1.384   2.671
 6306TIP3   OH218862   0.242   1.086   2.063
 6306TIP3    H118863   0.259   1.024   2.134
 6306TIP3    H218864   0.250   1.033   1.983
 6307TIP3   OH218865   5.906   6.275   6.133
 6307TIP3    H118866   5.875   6.186   6.120
 6307TIP3    H218867   5.987   6.280   6.083
 6308TIP3   OH218868   1.036   6.110   1.737
 6308TIP3    H118869   1.041   6.015   1.742
 6308TIP3    H218870   1.078   6.132   1.654
 6309TIP3   OH218871   5.993   4.796   2.843
 6309TIP3    H118872   6.084   4.808   2.814
 6309TIP3    H218873   5.965   4.882   2.873
 6310TIP3   OH218874   2.897   1.636   2.989
 6310TIP3    H118875   2.944   1.572   2.937
 6310TIP3    H218876   2.840   1.680   2.927
 6311TIP3   OH218877   6.645   5.617   2.625
 6311TIP3    H118878   6.715   5.656   2.572
 6311TIP3    H218879   6.565   5.636   2.576
 6312TIP3   OH218880   5.453   2.946   4.221
 6312TIP3    H118881   5.516   3.017   4.230
 6312TIP3    H218882   5.453   2.926   4.127
 6313TIP3   OH218883   1.495   3.269   4.985
 6313TIP3    H118884   1.563   3.213   5.021
 6313TIP3    H218885   1.507   3.353   5.030
 6314TIP3   OH218886   0.141   5.292   1.062
 6314TIP3    H118887   0.195   5.232   1.113
 6314TIP3    H218888   0.069   5.237   1.030
 6315TIP3   OH218889   7.272   6.542   2.544
 6315TIP3    H118890   7.206   6.593   2.496
 6315TIP3    H218891   7.223   6.501   2.615
 6316TIP3   OH218892   0.565   5.709   4.689
 6316TIP3    H118893   0.551   5.744   4.601
 6316TIP3    H218894   0.659   5.720   4.705
 6317TIP3   OH218895   1.376   0.636   6.613
 6317TIP3    H118896   1.464   0.632   6.651
 6317TIP3    H218897   1.322   0.675   6.682
 6318TIP3   OH218898   5.457   6.806   6.172
 6318TIP3    H118899   5.384   6.748   6.151
 6318TIP3    H218900   5.511   6.756   6.233
 6319TIP3   OH218901   5.603   3.300   5.420
 6319TIP3    H118902   5.577   3.302   5.513
 6319TIP3    H218903   5.533   3.348   5.376
 6320TIP3   OH218904   4.115   1.174   0.221
 6320TIP3    H118905   4.063   1.205   0.295
 6320TIP3    H218906   4.191   1.133   0.261
 6321TIP3   OH218907   0.951   5.073   0.330
 6321TIP3    H118908   0.973   5.133   0.401
 6321TIP3    H218909   0.924   4.992   0.374
 6322TIP3   OH218910   5.982   2.248   1.318
 6322TIP3    H118911   6.011   2.196   1.242
 6322TIP3    H218912   5.905   2.296   1.285
 6323TIP3   OH218913   6.328   6.778   2.487
 6323TIP3    H118914   6.274   6.758   2.564
 6323TIP3    H218915   6.273   6.755   2.413
 6324TIP3   OH218916   0.195   7.499   3.642
 6324TIP3    H118917   0.239   7.417   3.619
 6324TIP3    H218918   0.116   7.471   3.689
 6325TIP3   OH218919   0.785   4.415   2.351
 6325TIP3    H118920   0.830   4.434   2.269
 6325TIP3    H218921   0.697   4.451   2.339
 6326TIP3   OH218922   4.405   0.428   1.666
 6326TIP3    H118923   4.373   0.470   1.586
 6326TIP3    H218924   4.489   0.389   1.641
 6327TIP3   OH218925   6.756   7.787   3.014
 6327TIP3    H118926   6.820   7.725   2.980
 6327TIP3    H218927   6.739   7.847   2.941
 6328TIP3   OH218928   3.456   5.363   2.884
 6328TIP3    H118929   3.413   5.434   2.932
 6328TIP3    H218930   3.521   5.408   2.829
 6329TIP3   OH218931   8.006   2.066   1.976
 6329TIP3    H118932   7.945   2.058   2.049
 6329TIP3    H218933   7.995   2.157   1.946
 6330TIP3   OH218934   0.294   0.616   5.421
 6330TIP3    H118935   0.339   0.599   5.503
 6330TIP3    H218936   0.284   0.711   5.418
 6331TIP3   OH218937   8.004   6.588   2.153
 6331TIP3    H118938   7.921   6.609   2.109
 6331TIP3    H218939   7.981   6.516   2.213
 6332TIP3   OH218940   7.166   0.871   1.133
 6332TIP3    H118941   7.168   0.832   1.221
 6332TIP3    H218942   7.111   0.811   1.082
 6333TIP3   OH218943   0.923   6.370   1.858
 6333TIP3    H118944   0.959   6.288   1.822
 6333TIP3    H218945   0.875   6.409   1.785
 6334TIP3   OH218946   4.936   6.612   6.415
 6334TIP3    H118947   4.967   6.560   6.341
 6334TIP3    H218948   5.014   6.626   6.468
 6335TIP3   OH218949   3.495   7.369   6.117
 6335TIP3    H118950   3.416   7.415   6.145
 6335TIP3    H218951   3.567   7.414   6.162
 6336TIP3   OH218952   1.769   0.657   4.819
 6336TIP3    H118953   1.733   0.619   4.900
 6336TIP3    H218954   1.831   0.723   4.849
 6337TIP3   OH218955   1.336   0.232   2.591
 6337TIP3    H118956   1.292   0.199   2.514
 6337TIP3    H218957   1.418   0.270   2.558
 6338TIP3   OH218958   2.434   5.994   5.581
 6338TIP3    H118959   2.371   5.929   5.610
 6338TIP3    H218960   2.385   6.048   5.519
 6339TIP3   OH218961   7.815   0.312   6.483
 6339TIP3    H118962   7.829   0.302   6.577
 6339TIP3    H218963   7.884   0.373   6.455
 6340TIP3   OH218964   5.805   7.636   5.737
 6340TIP3    H118965   5.893   7.635   5.700
 6340TIP3    H218966   5.812   7.584   5.818
 6341TIP3   OH218967   6.823   6.165   5.734
 6341TIP3    H118968   6.815   6.088   5.790
 6341TIP3    H218969   6.907   6.154   5.690
 6342TIP3   OH218970   6.791   7.739   1.401
 6342TIP3    H118971   6.873   7.785   1.380
 6342TIP3    H218972   6.786   7.743   1.497
 6343TIP3   OH218973   4.286   5.165   5.947
 6343TIP3    H118974   4.335   5.097   5.901
 6343TIP3    H218975   4.206   5.176   5.896
 6344TIP3   OH218976   7.924   0.908   5.013
 6344TIP3    H118977   7.907   0.871   4.926
 6344TIP3    H218978   7.872   0.989   5.016
 6345TIP3   OH218979   3.762   3.414   3.417
 6345TIP3    H118980   3.734   3.339   3.468
 6345TIP3    H218981   3.755   3.489   3.477
 6346TIP3   OH218982   0.736   1.040   5.689
 6346TIP3    H118983   0.797   1.082   5.628
 6346TIP3    H218984   0.783   1.039   5.772
 6347TIP3   OH218985   2.145   4.039   0.588
 6347TIP3    H118986   2.087   4.067   0.659
 6347TIP3    H218987   2.089   3.988   0.529
 6348TIP3   OH218988   1.644   0.506   1.676
 6348TIP3    H118989   1.713   0.567   1.649
 6348TIP3    H218990   1.597   0.553   1.745
 6349TIP3   OH218991   7.123   1.637   2.805
 6349TIP3    H118992   7.171   1.637   2.888
 6349TIP3    H218993   7.177   1.584   2.746
 6350TIP3   OH218994   3.699   6.880   2.944
 6350TIP3    H118995   3.793   6.895   2.951
 6350TIP3    H218996   3.691   6.803   2.888
 6351TIP3   OH218997   4.614   4.303   0.350
 6351TIP3    H118998   4.585   4.276   0.437
 6351TIP3    H218999   4.707   4.277   0.347
 6352TIP3   OH219000   2.986   2.843   6.151
 6352TIP3    H119001   2.942   2.885   6.225
 6352TIP3    H219002   2.933   2.765   6.133
 6353TIP3   OH219003   6.555   2.362   3.991
 6353TIP3    H119004   6.553   2.328   4.080
 6353TIP3    H219005   6.540   2.456   4.001
 6354TIP3   OH219006   1.812   1.310   6.612
 6354TIP3    H119007   1.745   1.268   6.558
 6354TIP3    H219008   1.818   1.399   6.578
 6355TIP3   OH219009   5.387   1.374   1.524
 6355TIP3    H119010   5.291   1.378   1.530
 6355TIP3    H219011   5.414   1.464   1.504
 6356TIP3   OH219012   7.343   5.674   3.507
 6356TIP3    H119013   7.294   5.741   3.460
 6356TIP3    H219014   7.433   5.684   3.474
 6357TIP3   OH219015   2.330   1.380   2.861
 6357TIP3    H119016   2.320   1.445   2.791
 6357TIP3    H219017   2.340   1.297   2.816
 6358TIP3   OH219018   0.102   6.045   4.544
 6358TIP3    H119019   0.159   5.968   4.546
 6358TIP3    H219020   0.136   6.099   4.472
 6359TIP3   OH219021   3.976   7.318   3.494
 6359TIP3    H119022   4.020   7.312   3.579
 6359TIP3    H219023   4.033   7.268   3.435
 6360TIP3   OH219024   0.672   3.807   4.533
 6360TIP3    H119025   0.664   3.896   4.567
 6360TIP3    H219026   0.757   3.806   4.488
 6361TIP3   OH219027   6.932   1.424   3.895
 6361TIP3    H119028   6.864   1.488   3.878
 6361TIP3    H219029   7.014   1.473   3.890
 6362TIP3   OH219030   0.856   7.138   4.269
 6362TIP3    H119031   0.903   7.113   4.189
 6362TIP3    H219032   0.833   7.055   4.310
 6363TIP3   OH219033   6.457   7.628   4.676
 6363TIP3    H119034   6.454   7.685   4.753
 6363TIP3    H219035   6.368   7.631   4.640
 6364TIP3   OH219036   5.309   5.444   3.196
 6364TIP3    H119037   5.366   5.518   3.174
 6364TIP3    H219038   5.237   5.482   3.246
 6365TIP3   OH219039   1.627   2.260   2.063
 6365TIP3    H119040   1.611   2.168   2.086
 6365TIP3    H219041   1.641   2.304   2.147
 6366TIP3   OH219042   6.841   3.953   1.550
 6366TIP3    H119043   6.936   3.948   1.542
 6366TIP3    H219044   6.815   4.020   1.486
 6367TIP3   OH219045   1.520   1.436   3.563
 6367TIP3    H119046   1.589   1.443   3.498
 6367TIP3    H219047   1.551   1.486   3.638
 6368TIP3   OH219048  -0.016   1.151   5.420
 6368TIP3    H119049  -0.025   1.235   5.375
 6368TIP3    H219050   0.065   1.114   5.384
 6369TIP3   OH219051   2.999   7.053   4.994
 6369TIP3    H119052   2.912   7.072   4.957
 6369TIP3    H219053   3.036   6.987   4.936
 6370TIP3   OH219054   1.835   6.427   4.578
 6370TIP3    H119055   1.786   6.506   4.552
 6370TIP3    H219056   1.907   6.460   4.631
 6371TIP3   OH219057   1.669   3.643   6.028
 6371TIP3    H119058   1.595   3.584   6.013
 6371TIP3    H219059   1.655   3.715   5.966
 6372TIP3   OH219060   5.676   3.530   5.153
 6372TIP3    H119061   5.692   3.622   5.133
 6372TIP3    H219062   5.581   3.522   5.152
 6373TIP3   OH219063   8.225   3.113   2.476
 6373TIP3    H119064   8.227   3.065   2.394
 6373TIP3    H219065   8.136   3.099   2.510
 6374TIP3   OH219066   4.336   2.220   3.555
 6374TIP3    H119067   4.274   2.147   3.545
 6374TIP3    H219068   4.283   2.293   3.585
 6375TIP3   OH219069   6.632   2.329   2.654
 6375TIP3    H119070   6.613   2.420   2.679
 6375TIP3    H219071   6.617   2.326   2.559
 6376TIP3   OH219072   4.557   1.242   5.440
 6376TIP3    H119073   4.623   1.174   5.423
 6376TIP3    H219074   4.548   1.287   5.356
 6377TIP3   OH219075   7.639   0.559   6.166
 6377TIP3    H119076   7.616   0.480   6.215
 6377TIP3    H219077   7.692   0.610   6.227
 6378TIP3   OH219078   2.192   2.372   5.976
 6378TIP3    H119079   2.221   2.282   5.991
 6378TIP3    H219080   2.271   2.418   5.949
 6379TIP3   OH219081   3.792   4.255   1.334
 6379TIP3    H119082   3.823   4.181   1.281
 6379TIP3    H219083   3.824   4.332   1.287
 6380TIP3   OH219084   1.666   6.789   1.195
 6380TIP3    H119085   1.755   6.824   1.191
 6380TIP3    H219086   1.676   6.703   1.236
 6381TIP3   OH219087   2.770   4.762   4.870
 6381TIP3    H119088   2.694   4.818   4.855
 6381TIP3    H219089   2.752   4.718   4.953
 6382TIP3   OH219090   4.547   1.633   5.695
 6382TIP3    H119091   4.617   1.597   5.642
 6382TIP3    H219092   4.467   1.611   5.648
 6383TIP3   OH219093   2.279   4.895   1.556
 6383TIP3    H119094   2.259   4.958   1.486
 6383TIP3    H219095   2.195   4.855   1.577
 6384TIP3   OH219096   3.376   6.232   1.538
 6384TIP3    H119097   3.447   6.170   1.524
 6384TIP3    H219098   3.334   6.240   1.452
 6385TIP3   OH219099   0.070   4.695   1.634
 6385TIP3    H119100   0.083   4.769   1.694
 6385TIP3    H219101  -0.019   4.665   1.652
 6386TIP3   OH219102   7.710   4.226   2.223
 6386TIP3    H119103   7.623   4.188   2.215
 6386TIP3    H219104   7.764   4.156   2.261
 6387TIP3   OH219105   0.886   7.182   3.472
 6387TIP3    H119106   0.954   7.238   3.435
 6387TIP3    H219107   0.917   7.093   3.455
 6388TIP3   OH219108   1.813   6.172   4.746
 6388TIP3    H119109   1.748   6.208   4.807
 6388TIP3    H219110   1.854   6.249   4.707
 6389TIP3   OH219111   6.009   1.834   6.049
 6389TIP3    H119112   5.937   1.894   6.026
 6389TIP3    H219113   6.024   1.850   6.142
 6390TIP3   OH219114   2.675   5.480   4.088
 6390TIP3    H119115   2.593   5.505   4.046
 6390TIP3    H219116   2.702   5.400   4.042
 6391TIP3   OH219117   8.214   7.162   2.066
 6391TIP3    H119118   8.247   7.177   1.977
 6391TIP3    H219119   8.199   7.068   2.071
 6392TIP3   OH219120   4.342   4.956   0.107
 6392TIP3    H119121   4.424   4.932   0.151
 6392TIP3    H219122   4.358   4.935   0.015
 6393TIP3   OH219123   6.882   0.103   5.872
 6393TIP3    H119124   6.948   0.090   5.805
 6393TIP3    H219125   6.927   0.149   5.943
 6394TIP3   OH219126   3.146   6.758   0.988
 6394TIP3    H119127   3.092   6.828   1.022
 6394TIP3    H219128   3.166   6.784   0.898
 6395TIP3   OH219129   4.303   3.648   0.761
 6395TIP3    H119130   4.322   3.660   0.854
 6395TIP3    H219131   4.373   3.591   0.729
 6396TIP3   OH219132   3.328   4.496   1.268
 6396TIP3    H119133   3.341   4.401   1.257
 6396TIP3    H219134   3.406   4.535   1.229
 6397TIP3   OH219135   1.543   1.596   6.048
 6397TIP3    H119136   1.590   1.666   6.092
 6397TIP3    H219137   1.612   1.536   6.018
 6398TIP3   OH219138   1.082   5.356   6.033
 6398TIP3    H119139   0.987   5.347   6.035
 6398TIP3    H219140   1.114   5.269   6.008
 6399TIP3   OH219141   2.103   5.039   2.220
 6399TIP3    H119142   2.012   5.038   2.192
 6399TIP3    H219143   2.100   5.022   2.314
 6400TIP3   OH219144   1.928   4.420   4.280
 6400TIP3    H119145   1.855   4.419   4.218
 6400TIP3    H219146   1.886   4.431   4.366
 6401TIP3   OH219147   7.733   7.690   3.577
 6401TIP3    H119148   7.803   7.654   3.631
 6401TIP3    H219149   7.722   7.627   3.506
 6402TIP3   OH219150   4.110   1.579   3.604
 6402TIP3    H119151   4.144   1.604   3.691
 6402TIP3    H219152   4.016   1.567   3.618
 6403TIP3   OH219153   2.409   4.888   1.823
 6403TIP3    H119154   2.380   4.861   1.736
 6403TIP3    H219155   2.499   4.916   1.811
 6404TIP3   OH219156   7.563   6.640   0.957
 6404TIP3    H119157   7.496   6.691   0.912
 6404TIP3    H219158   7.514   6.578   1.012
 6405TIP3   OH219159   3.612   6.710   0.539
 6405TIP3    H119160   3.583   6.713   0.448
 6405TIP3    H219161   3.601   6.799   0.572
 6406TIP3   OH219162   8.162   6.162   3.777
 6406TIP3    H119163   8.186   6.132   3.689
 6406TIP3    H219164   8.119   6.246   3.762
 6407TIP3   OH219165   5.226   5.973   2.547
 6407TIP3    H119166   5.172   5.937   2.617
 6407TIP3    H219167   5.264   6.053   2.584
 6408TIP3   OH219168   3.553   0.881   4.746
 6408TIP3    H119169   3.507   0.898   4.828
 6408TIP3    H219170   3.533   0.958   4.692
 6409TIP3   OH219171   5.195   7.815   4.732
 6409TIP3    H119172   5.249   7.895   4.729
 6409TIP3    H219173   5.237   7.755   4.670
 6410TIP3   OH219174   4.485   4.929   1.782
 6410TIP3    H119175   4.576   4.915   1.808
 6410TIP3    H219176   4.434   4.872   1.841
 6411TIP3   OH219177   1.482   0.377   3.241
 6411TIP3    H119178   1.457   0.442   3.175
 6411TIP3    H219179   1.498   0.297   3.190
 6412TIP3   OH219180   1.150   4.063   2.739
 6412TIP3    H119181   1.103   4.064   2.656
 6412TIP3    H219182   1.111   3.990   2.788
 6413TIP3   OH219183   4.623   7.783   1.176
 6413TIP3    H119184   4.553   7.786   1.241
 6413TIP3    H219185   4.601   7.709   1.119
 6414TIP3   OH219186   6.121   5.356   5.368
 6414TIP3    H119187   6.168   5.439   5.373
 6414TIP3    H219188   6.036   5.374   5.409
 6415TIP3   OH219189   7.989   6.673   1.213
 6415TIP3    H119190   8.032   6.588   1.225
 6415TIP3    H219191   7.994   6.715   1.299
 6416TIP3   OH219192   0.405   6.403   1.585
 6416TIP3    H119193   0.498   6.425   1.581
 6416TIP3    H219194   0.394   6.359   1.669
 6417TIP3   OH219195   7.954   2.396   3.534
 6417TIP3    H119196   7.888   2.435   3.592
 6417TIP3    H219197   8.026   2.458   3.535
 6418TIP3   OH219198   2.079   3.480   2.589
 6418TIP3    H119199   1.983   3.484   2.584
 6418TIP3    H219200   2.107   3.571   2.580
 6419TIP3   OH219201   3.567   1.002   6.365
 6419TIP3    H119202   3.511   1.069   6.403
 6419TIP3    H219203   3.656   1.031   6.385
 6420TIP3   OH219204   3.769   3.306   1.847
 6420TIP3    H119205   3.772   3.384   1.901
 6420TIP3    H219206   3.810   3.237   1.900
 6421TIP3   OH219207   3.807   1.747   3.224
 6421TIP3    H119208   3.881   1.735   3.283
 6421TIP3    H219209   3.731   1.719   3.275
 6422TIP3   OH219210   4.352   0.616   5.185
 6422TIP3    H119211   4.343   0.706   5.217
 6422TIP3    H219212   4.368   0.564   5.263
 6423TIP3   OH219213   5.770   3.811   4.929
 6423TIP3    H119214   5.724   3.864   4.863
 6423TIP3    H219215   5.724   3.831   5.011
 6424TIP3   OH219216   2.742   4.928   6.237
 6424TIP3    H119217   2.741   4.954   6.145
 6424TIP3    H219218   2.831   4.946   6.266
 6425TIP3   OH219219   3.351   6.995   2.094
 6425TIP3    H119220   3.302   7.021   2.172
 6425TIP3    H219221   3.432   6.959   2.128
 6426TIP3   OH219222   0.625   3.585   1.510
 6426TIP3    H119223   0.575   3.540   1.579
 6426TIP3    H219224   0.560   3.638   1.465
 6427TIP3   OH219225   7.536   6.952   5.164
 6427TIP3    H119226   7.613   6.990   5.121
 6427TIP3    H219227   7.472   6.942   5.094
 6428TIP3   OH219228   3.765   5.667   2.295
 6428TIP3    H119229   3.694   5.670   2.231
 6428TIP3    H219230   3.806   5.753   2.290
 6429TIP3   OH219231   3.937   0.310   5.475
 6429TIP3    H119232   3.848   0.277   5.483
 6429TIP3    H219233   3.980   0.249   5.415
 6430TIP3   OH219234   7.659   0.789   0.255
 6430TIP3    H119235   7.701   0.799   0.170
 6430TIP3    H219236   7.567   0.809   0.239
 6431TIP3   OH219237   1.538   5.946   3.458
 6431TIP3    H119238   1.548   5.851   3.457
 6431TIP3    H219239   1.535   5.971   3.366
 6432TIP3   OH219240   0.975   4.425   2.087
 6432TIP3    H119241   0.952   4.517   2.099
 6432TIP3    H219242   1.053   4.427   2.032
 6433TIP3   OH219243   1.596   7.258   0.469
 6433TIP3    H119244   1.592   7.292   0.558
 6433TIP3    H219245   1.514   7.288   0.429
 6434TIP3   OH219246   2.149   0.877   0.153
 6434TIP3    H119247   2.143   0.821   0.231
 6434TIP3    H219248   2.219   0.837   0.101
 6435TIP3   OH219249   0.843   2.386   5.637
 6435TIP3    H119250   0.874   2.442   5.566
 6435TIP3    H219251   0.875   2.299   5.615
 6436TIP3   OH219252   5.380   1.827   3.237
 6436TIP3    H119253   5.471   1.798   3.243
 6436TIP3    H219254   5.383   1.904   3.181
 6437TIP3   OH219255   1.010   3.599   5.235
 6437TIP3    H119256   0.983   3.597   5.327
 6437TIP3    H219257   0.961   3.528   5.194
 6438TIP3   OH219258   5.547   2.427   5.729
 6438TIP3    H119259   5.627   2.471   5.757
 6438TIP3    H219260   5.567   2.393   5.642
 6439TIP3   OH219261   6.701   7.708   0.140
 6439TIP3    H119262   6.792   7.710   0.111
 6439TIP3    H219263   6.697   7.771   0.212
 6440TIP3   OH219264   1.021   6.378   0.332
 6440TIP3    H119265   1.077   6.395   0.408
 6440TIP3    H219266   0.932   6.382   0.367
 6441TIP3   OH219267   6.997   7.628   0.937
 6441TIP3    H119268   6.999   7.615   1.032
 6441TIP3    H219269   7.051   7.706   0.923
 6442TIP3   OH219270   5.689   3.248   3.372
 6442TIP3    H119271   5.777   3.211   3.379
 6442TIP3    H219272   5.692   3.328   3.425
 6443TIP3   OH219273   5.432   4.578   4.693
 6443TIP3    H119274   5.419   4.627   4.774
 6443TIP3    H219275   5.520   4.601   4.664
 6444TIP3   OH219276   5.550   2.938   6.647
 6444TIP3    H119277   5.534   3.020   6.602
 6444TIP3    H219278   5.481   2.879   6.617
 6445TIP3   OH219279   1.557   1.339   1.825
 6445TIP3    H119280   1.499   1.306   1.894
 6445TIP3    H219281   1.591   1.422   1.860
 6446TIP3   OH219282   6.353   7.370   2.313
 6446TIP3    H119283   6.340   7.276   2.303
 6446TIP3    H219284   6.345   7.405   2.225
 6447TIP3   OH219285   8.228   6.808   5.191
 6447TIP3    H119286   8.305   6.751   5.180
 6447TIP3    H219287   8.186   6.777   5.271
 6448TIP3   OH219288   8.039   4.423   2.885
 6448TIP3    H119289   8.081   4.503   2.852
 6448TIP3    H219290   8.031   4.367   2.808
 6449TIP3   OH219291   8.032   7.499   2.477
 6449TIP3    H119292   8.052   7.420   2.426
 6449TIP3    H219293   8.100   7.561   2.452
 6450TIP3   OH219294   8.262   7.054   3.549
 6450TIP3    H119295   8.242   6.961   3.541
 6450TIP3    H219296   8.187   7.091   3.596
 6451TIP3   OH219297   5.600   2.242   2.224
 6451TIP3    H119298   5.601   2.158   2.179
 6451TIP3    H219299   5.545   2.227   2.301
 6452TIP3   OH219300   3.632   7.780   1.692
 6452TIP3    H119301   3.690   7.762   1.618
 6452TIP3    H219302   3.550   7.736   1.669
 6453TIP3   OH219303   1.617   0.604   1.040
 6453TIP3    H119304   1.590   0.513   1.030
 6453TIP3    H219305   1.558   0.641   1.105
 6454TIP3   OH219306   0.678   7.111   0.627
 6454TIP3    H119307   0.719   7.186   0.670
 6454TIP3    H219308   0.586   7.116   0.652
 6455TIP3   OH219309   2.803   4.479   5.964
 6455TIP3    H119310   2.749   4.472   6.042
 6455TIP3    H219311   2.841   4.567   5.968
 6456TIP3   OH219312   3.676   0.067   6.424
 6456TIP3    H119313   3.695   0.138   6.484
 6456TIP3    H219314   3.580   0.066   6.416
 6457TIP3   OH219315   7.168   5.707   6.023
 6457TIP3    H119316   7.262   5.711   6.007
 6457TIP3    H219317   7.157   5.632   6.082
 6458TIP3   OH219318   4.886   1.966   4.276
 6458TIP3    H119319   4.897   1.906   4.350
 6458TIP3    H219320   4.918   2.050   4.309
 6459TIP3   OH219321   2.090   3.489   0.717
 6459TIP3    H119322   2.081   3.397   0.741
 6459TIP3    H219323   2.041   3.537   0.783
 6460TIP3   OH219324   1.136   3.694   4.097
 6460TIP3    H119325   1.109   3.785   4.108
 6460TIP3    H219326   1.209   3.697   4.036
 6461TIP3   OH219327   7.294   5.059   0.671
 6461TIP3    H119328   7.362   5.103   0.722
 6461TIP3    H219329   7.240   5.015   0.736
 6462TIP3   OH219330   2.729   0.719   0.919
 6462TIP3    H119331   2.728   0.626   0.941
 6462TIP3    H219332   2.751   0.722   0.826
 6463TIP3   OH219333   3.616   6.060   6.610
 6463TIP3    H119334   3.552   6.119   6.569
 6463TIP3    H219335   3.676   6.036   6.539
 6464TIP3   OH219336   6.301   5.680   0.156
 6464TIP3    H119337   6.251   5.710   0.232
 6464TIP3    H219338   6.276   5.589   0.145
 6465TIP3   OH219339   1.458   6.468   2.399
 6465TIP3    H119340   1.543   6.454   2.442
 6465TIP3    H219341   1.480   6.512   2.317
 6466TIP3   OH219342   5.367   6.167   0.013
 6466TIP3    H119343   5.292   6.117  -0.019
 6466TIP3    H219344   5.341   6.196   0.100
 6467TIP3   OH219345   6.900   3.342   0.184
 6467TIP3    H119346   6.869   3.378   0.267
 6467TIP3    H219347   6.902   3.247   0.197
 6468TIP3   OH219348   6.071   5.270   3.055
 6468TIP3    H119349   6.074   5.224   3.139
 6468TIP3    H219350   6.013   5.345   3.070
 6469TIP3   OH219351   6.819   6.203   0.796
 6469TIP3    H119352   6.894   6.147   0.815
 6469TIP3    H219353   6.764   6.150   0.738
 6470TIP3   OH219354   3.126   2.198   4.771
 6470TIP3    H119355   3.166   2.168   4.853
 6470TIP3    H219356   3.199   2.198   4.708
 6471TIP3   OH219357   2.232   2.570   3.484
 6471TIP3    H119358   2.327   2.575   3.471
 6471TIP3    H219359   2.221   2.514   3.560
 6472TIP3   OH219360   2.156   1.850   4.701
 6472TIP3    H119361   2.111   1.774   4.739
 6472TIP3    H219362   2.223   1.812   4.644
 6473TIP3   OH219363   7.364   5.593   1.825
 6473TIP3    H119364   7.444   5.540   1.826
 6473TIP3    H219365   7.376   5.653   1.752
 6474TIP3   OH219366   1.824   0.669   0.192
 6474TIP3    H119367   1.816   0.745   0.135
 6474TIP3    H219368   1.908   0.630   0.169
 6475TIP3   OH219369   5.110   4.006   1.349
 6475TIP3    H119370   5.035   3.948   1.338
 6475TIP3    H219371   5.080   4.074   1.408
 6476TIP3   OH219372   0.928   1.319   5.105
 6476TIP3    H119373   0.972   1.264   5.040
 6476TIP3    H219374   0.834   1.307   5.087
 6477TIP3   OH219375   8.148   6.539   1.932
 6477TIP3    H119376   8.206   6.464   1.942
 6477TIP3    H219377   8.108   6.551   2.018
 6478TIP3   OH219378   6.939   5.885   4.624
 6478TIP3    H119379   6.961   5.901   4.532
 6478TIP3    H219380   7.019   5.904   4.672
 6479TIP3   OH219381   4.343   7.050   6.484
 6479TIP3    H119382   4.338   7.027   6.576
 6479TIP3    H219383   4.408   6.990   6.448
 6480TIP3   OH219384   3.037   1.875   1.276
 6480TIP3    H119385   3.113   1.825   1.247
 6480TIP3    H219386   3.072   1.960   1.301
 6481TIP3   OH219387   3.958   2.052   0.533
 6481TIP3    H119388   3.863   2.061   0.538
 6481TIP3    H219389   3.992   2.127   0.582
 6482TIP3   OH219390   2.193   6.582   2.590
 6482TIP3    H119391   2.281   6.548   2.608
 6482TIP3    H219392   2.186   6.659   2.646
 6483TIP3   OH219393   1.888   4.325   1.378
 6483TIP3    H119394   1.796   4.301   1.390
 6483TIP3    H219395   1.886   4.389   1.306
 6484TIP3   OH219396   1.322   4.847   2.509
 6484TIP3    H119397   1.291   4.760   2.481
 6484TIP3    H219398   1.260   4.908   2.469
 6485TIP3   OH219399   5.356   5.001   3.472
 6485TIP3    H119400   5.438   4.977   3.515
 6485TIP3    H219401   5.334   5.087   3.509
 6486TIP3   OH219402   4.135   4.547   0.463
 6486TIP3    H119403   4.116   4.517   0.552
 6486TIP3    H219404   4.056   4.594   0.436
 6487TIP3   OH219405   5.328   3.039   0.647
 6487TIP3    H119406   5.396   3.052   0.713
 6487TIP3    H219407   5.359   3.088   0.570
 6488TIP3   OH219408   5.884   7.325   0.214
 6488TIP3    H119409   5.835   7.373   0.281
 6488TIP3    H219410   5.965   7.298   0.258
 6489TIP3   OH219411   7.846   6.302   0.941
 6489TIP3    H119412   7.859   6.395   0.922
 6489TIP3    H219413   7.904   6.284   1.015
 6490TIP3   OH219414   4.789   3.889   6.341
 6490TIP3    H119415   4.792   3.977   6.378
 6490TIP3    H219416   4.725   3.894   6.270
 6491TIP3   OH219417   1.777   3.558   5.740
 6491TIP3    H119418   1.734   3.509   5.670
 6491TIP3    H219419   1.757   3.509   5.820
 6492TIP3   OH219420   3.353   4.996   0.162
 6492TIP3    H119421   3.401   4.957   0.089
 6492TIP3    H219422   3.262   4.968   0.148
 6493TIP3   OH219423   1.038   3.256   0.136
 6493TIP3    H119424   1.006   3.269   0.047
 6493TIP3    H219425   1.038   3.344   0.174
 6494TIP3   OH219426   5.536   3.615   3.411
 6494TIP3    H119427   5.441   3.605   3.412
 6494TIP3    H219428   5.553   3.692   3.465
 6495TIP3   OH219429   1.366   2.841   3.632
 6495TIP3    H119430   1.452   2.810   3.606
 6495TIP3    H219431   1.334   2.890   3.556
 6496TIP3   OH219432   4.543   5.815   1.980
 6496TIP3    H119433   4.477   5.747   1.969
 6496TIP3    H219434   4.529   5.848   2.069
 6497TIP3   OH219435   5.607   7.634   6.542
 6497TIP3    H119436   5.689   7.630   6.494
 6497TIP3    H219437   5.543   7.591   6.486
 6498TIP3   OH219438   4.903   2.975   4.785
 6498TIP3    H119439   4.823   3.028   4.791
 6498TIP3    H219440   4.871   2.885   4.781
 6499TIP3   OH219441   0.581   2.742   5.214
 6499TIP3    H119442   0.579   2.694   5.132
 6499TIP3    H219443   0.624   2.825   5.193
 6500TIP3   OH219444   6.154   5.354   1.764
 6500TIP3    H119445   6.219   5.398   1.708
 6500TIP3    H219446   6.070   5.386   1.732
 6501TIP3   OH219447   4.488   5.308   4.164
 6501TIP3    H119448   4.554   5.324   4.096
 6501TIP3    H219449   4.454   5.394   4.186
 6502TIP3   OH219450   0.944   0.311   5.721
 6502TIP3    H119451   0.978   0.371   5.654
 6502TIP3    H219452   0.994   0.332   5.800
 6503TIP3   OH219453   5.717   2.990   0.112
 6503TIP3    H119454   5.637   3.042   0.121
 6503TIP3    H219455   5.750   3.013   0.025
 6504TIP3   OH219456   4.980   4.195   4.584
 6504TIP3    H119457   4.976   4.287   4.560
 6504TIP3    H219458   5.043   4.156   4.523
 6505TIP3   OH219459   4.110   5.260   0.683
 6505TIP3    H119460   4.171   5.312   0.736
 6505TIP3    H219461   4.162   5.233   0.607
 6506TIP3   OH219462   1.272   0.135   4.208
 6506TIP3    H119463   1.317   0.068   4.157
 6506TIP3    H219464   1.299   0.118   4.298
 6507TIP3   OH219465   2.006   5.664   6.431
 6507TIP3    H119466   1.960   5.591   6.472
 6507TIP3    H219467   1.938   5.729   6.414
 6508TIP3   OH219468   1.483   5.260   4.454
 6508TIP3    H119469   1.446   5.194   4.512
 6508TIP3    H219470   1.446   5.240   4.368
 6509TIP3   OH219471   4.697   0.803   5.864
 6509TIP3    H119472   4.783   0.835   5.894
 6509TIP3    H219473   4.690   0.836   5.774
 6510TIP3   OH219474   5.097   1.189   5.619
 6510TIP3    H119475   5.145   1.267   5.590
 6510TIP3    H219476   5.024   1.182   5.557
 6511TIP3   OH219477   4.684   0.160   3.164
 6511TIP3    H119478   4.617   0.169   3.096
 6511TIP3    H219479   4.752   0.105   3.125
 6512TIP3   OH219480   6.805   3.971   4.080
 6512TIP3    H119481   6.748   3.894   4.073
 6512TIP3    H219482   6.841   3.966   4.169
 6513TIP3   OH219483   4.645   4.182   2.243
 6513TIP3    H119484   4.623   4.107   2.299
 6513TIP3    H219485   4.717   4.225   2.289
 6514TIP3   OH219486   2.274   2.741   2.272
 6514TIP3    H119487   2.223   2.660   2.270
 6514TIP3    H219488   2.336   2.732   2.199
 6515TIP3   OH219489   7.707   1.473   0.577
 6515TIP3    H119490   7.798   1.491   0.555
 6515TIP3    H219491   7.711   1.441   0.668
 6516TIP3   OH219492   4.385   0.912   1.197
 6516TIP3    H119493   4.455   0.848   1.212
 6516TIP3    H219494   4.333   0.873   1.127
 6517TIP3   OH219495   1.383   1.505   3.897
 6517TIP3    H119496   1.419   1.536   3.980
 6517TIP3    H219497   1.458   1.502   3.838
 6518TIP3   OH219498   3.826   0.499   1.060
 6518TIP3    H119499   3.918   0.512   1.085
 6518TIP3    H219500   3.831   0.455   0.975
 6519TIP3   OH219501   7.659   7.622   3.891
 6519TIP3    H119502   7.686   7.711   3.914
 6519TIP3    H219503   7.697   7.607   3.805
 6520TIP3   OH219504   7.799   1.476   5.359
 6520TIP3    H119505   7.732   1.543   5.346
 6520TIP3    H219506   7.827   1.453   5.271
 6521TIP3   OH219507   7.449   2.148   2.190
 6521TIP3    H119508   7.384   2.147   2.260
 6521TIP3    H219509   7.401   2.178   2.113
 6522TIP3   OH219510   5.646   7.270   1.460
 6522TIP3    H119511   5.618   7.313   1.379
 6522TIP3    H219512   5.590   7.308   1.527
 6523TIP3   OH219513   4.799   3.756   2.291
 6523TIP3    H119514   4.864   3.821   2.319
 6523TIP3    H219515   4.851   3.677   2.274
 6524TIP3   OH219516   7.815   2.078   2.955
 6524TIP3    H119517   7.774   2.023   2.888
 6524TIP3    H219518   7.805   2.167   2.922
 6525TIP3   OH219519   5.648   3.836   5.148
 6525TIP3    H119520   5.683   3.839   5.237
 6525TIP3    H219521   5.553   3.829   5.159
 6526TIP3   OH219522   2.084   3.231   0.876
 6526TIP3    H119523   2.092   3.200   0.966
 6526TIP3    H219524   2.007   3.287   0.876
 6527TIP3   OH219525   8.119   1.958   3.248
 6527TIP3    H119526   8.106   2.040   3.201
 6527TIP3    H219527   8.085   1.890   3.190
 6528TIP3   OH219528   5.851   6.671   5.304
 6528TIP3    H119529   5.785   6.604   5.284
 6528TIP3    H219530   5.801   6.742   5.344
 6529TIP3   OH219531   4.038   1.802   1.861
 6529TIP3    H119532   3.984   1.870   1.820
 6529TIP3    H219533   4.061   1.838   1.946
 6530TIP3   OH219534   7.595   4.755   4.449
 6530TIP3    H119535   7.665   4.752   4.514
 6530TIP3    H219536   7.566   4.846   4.449
 6531TIP3   OH219537   6.625   2.978   0.094
 6531TIP3    H119538   6.626   3.044   0.163
 6531TIP3    H219539   6.583   2.902   0.134
 6532TIP3   OH219540   1.201   0.166   2.814
 6532TIP3    H119541   1.144   0.241   2.829
 6532TIP3    H219542   1.258   0.193   2.741
 6533TIP3   OH219543   7.264   5.453   5.665
 6533TIP3    H119544   7.213   5.378   5.696
 6533TIP3    H219545   7.351   5.440   5.703
 6534TIP3   OH219546   6.231   1.635   1.387
 6534TIP3    H119547   6.164   1.607   1.448
 6534TIP3    H219548   6.255   1.556   1.339
 6535TIP3   OH219549   8.095   3.283   3.947
 6535TIP3    H119550   8.035   3.217   3.912
 6535TIP3    H219551   8.041   3.362   3.957
 6536TIP3   OH219552   0.216   5.670   0.365
 6536TIP3    H119553   0.192   5.638   0.452
 6536TIP3    H219554   0.133   5.675   0.318
 6537TIP3   OH219555   3.746   0.685   1.297
 6537TIP3    H119556   3.710   0.676   1.209
 6537TIP3    H219557   3.833   0.723   1.284
 6538TIP3   OH219558   8.198   1.224   5.697
 6538TIP3    H119559   8.236   1.174   5.624
 6538TIP3    H219560   8.245   1.192   5.774
 6539TIP3   OH219561   2.545   3.309   3.834
 6539TIP3    H119562   2.580   3.222   3.815
 6539TIP3    H219563   2.504   3.337   3.752
 6540TIP3   OH219564   1.224   6.588   6.095
 6540TIP3    H119565   1.189   6.505   6.127
 6540TIP3    H219566   1.168   6.611   6.022
 6541TIP3   OH219567   3.103   1.607   6.610
 6541TIP3    H119568   3.026   1.579   6.560
 6541TIP3    H219569   3.085   1.698   6.633
 6542TIP3   OH219570   6.267   6.306   2.490
 6542TIP3    H119571   6.295   6.289   2.400
 6542TIP3    H219572   6.231   6.395   2.487
 6543TIP3   OH219573   0.469   3.144   0.565
 6543TIP3    H119574   0.472   3.103   0.479
 6543TIP3    H219575   0.557   3.179   0.578
 6544TIP3   OH219576   5.824   5.955   3.988
 6544TIP3    H119577   5.747   5.899   3.987
 6544TIP3    H219578   5.892   5.903   4.029
 6545TIP3   OH219579   2.834   4.962   6.799
 6545TIP3    H119580   2.914   5.000   6.761
 6545TIP3    H219581   2.766   5.027   6.781
 6546TIP3   OH219582   0.105   0.978   2.605
 6546TIP3    H119583   0.108   0.911   2.673
 6546TIP3    H219584   0.172   1.041   2.630
 6547TIP3   OH219585   3.699   2.243   5.314
 6547TIP3    H119586   3.604   2.240   5.327
 6547TIP3    H219587   3.726   2.152   5.310
 6548TIP3   OH219588   2.435   6.769   5.633
 6548TIP3    H119589   2.389   6.714   5.698
 6548TIP3    H219590   2.424   6.858   5.666
 6549TIP3   OH219591   1.088   2.754   0.131
 6549TIP3    H119592   1.011   2.761   0.074
 6549TIP3    H219593   1.054   2.767   0.219
 6550TIP3   OH219594   1.763   5.365   1.055
 6550TIP3    H119595   1.744   5.409   0.972
 6550TIP3    H219596   1.853   5.333   1.044
 6551TIP3   OH219597   2.202   7.419   6.090
 6551TIP3    H119598   2.113   7.447   6.113
 6551TIP3    H219599   2.250   7.420   6.173
 6552TIP3   OH219600   5.150   2.750   1.472
 6552TIP3    H119601   5.177   2.835   1.437
 6552TIP3    H219602   5.167   2.688   1.401
 6553TIP3   OH219603   4.397   6.815   6.637
 6553TIP3    H119604   4.310   6.778   6.626
 6553TIP3    H219605   4.451   6.769   6.573
 6554TIP3   OH219606   4.054   2.150   4.568
 6554TIP3    H119607   4.118   2.088   4.603
 6554TIP3    H219608   3.977   2.139   4.624
 6555TIP3   OH219609   3.611   0.179   3.678
 6555TIP3    H119610   3.549   0.203   3.608
 6555TIP3    H219611   3.665   0.257   3.690
 6556TIP3   OH219612   0.597   1.289   6.083
 6556TIP3    H119613   0.604   1.195   6.095
 6556TIP3    H219614   0.507   1.303   6.055
 6557TIP3   OH219615   7.895   0.921   0.761
 6557TIP3    H119616   7.920   0.905   0.852
 6557TIP3    H219617   7.944   1.000   0.737
 6558TIP3   OH219618   6.420   3.029   4.052
 6558TIP3    H119619   6.344   3.003   4.105
 6558TIP3    H219620   6.492   2.977   4.088
 6559TIP3   OH219621   6.516   5.784   5.808
 6559TIP3    H119622   6.520   5.690   5.824
 6559TIP3    H219623   6.519   5.824   5.896
 6560TIP3   OH219624   2.462   7.648   0.752
 6560TIP3    H119625   2.553   7.633   0.726
 6560TIP3    H219626   2.424   7.697   0.679
 6561TIP3   OH219627   5.746   2.013   4.314
 6561TIP3    H119628   5.799   2.039   4.389
 6561TIP3    H219629   5.806   1.961   4.260
 6562TIP3   OH219630   4.485   6.939   3.312
 6562TIP3    H119631   4.401   6.971   3.347
 6562TIP3    H219632   4.537   6.919   3.390
 6563TIP3   OH219633   6.795   1.372   6.031
 6563TIP3    H119634   6.869   1.365   6.091
 6563TIP3    H219635   6.821   1.441   5.969
 6564TIP3   OH219636   7.322   0.237   4.017
 6564TIP3    H119637   7.417   0.223   4.027
 6564TIP3    H219638   7.287   0.227   4.106
 6565TIP3   OH219639   2.199   2.739   2.854
 6565TIP3    H119640   2.250   2.706   2.780
 6565TIP3    H219641   2.251   2.812   2.888
 6566TIP3   OH219642   0.521   5.838   5.954
 6566TIP3    H119643   0.597   5.870   5.905
 6566TIP3    H219644   0.534   5.873   6.043
 6567TIP3   OH219645   1.294   2.934   3.892
 6567TIP3    H119646   1.299   2.906   3.801
 6567TIP3    H219647   1.201   2.931   3.914
 6568TIP3   OH219648   5.314   0.195   1.817
 6568TIP3    H119649   5.314   0.129   1.887
 6568TIP3    H219650   5.229   0.238   1.824
 6569TIP3   OH219651   1.660   6.480   2.597
 6569TIP3    H119652   1.703   6.546   2.651
 6569TIP3    H219653   1.730   6.422   2.569
 6570TIP3   OH219654   5.377   1.755   2.588
 6570TIP3    H119655   5.460   1.801   2.604
 6570TIP3    H219656   5.359   1.709   2.670
 6571TIP3   OH219657   5.996   0.511   0.320
 6571TIP3    H119658   5.964   0.554   0.240
 6571TIP3    H219659   5.971   0.419   0.309
 6572TIP3   OH219660   4.210   2.953   0.966
 6572TIP3    H119661   4.239   3.018   1.030
 6572TIP3    H219662   4.290   2.922   0.925
 6573TIP3   OH219663   0.004   7.151   3.147
 6573TIP3    H119664  -0.021   7.219   3.083
 6573TIP3    H219665   0.081   7.109   3.109
 6574TIP3   OH219666   2.965   6.967   1.058
 6574TIP3    H119667   3.018   7.017   1.120
 6574TIP3    H219668   2.899   7.029   1.029
 6575TIP3   OH219669   6.461   1.857   0.226
 6575TIP3    H119670   6.554   1.847   0.204
 6575TIP3    H219671   6.414   1.821   0.151
 6576TIP3   OH219672   1.739   4.157   4.292
 6576TIP3    H119673   1.654   4.189   4.322
 6576TIP3    H219674   1.772   4.104   4.365
 6577TIP3   OH219675   1.127   0.818   6.254
 6577TIP3    H119676   1.057   0.755   6.241
 6577TIP3    H219677   1.197   0.768   6.296
 6578TIP3   OH219678   2.998   3.960   2.634
 6578TIP3    H119679   2.976   4.027   2.569
 6578TIP3    H219680   2.914   3.922   2.658
 6579TIP3   OH219681   6.975   1.672   6.164
 6579TIP3    H119682   6.942   1.700   6.249
 6579TIP3    H219683   7.064   1.708   6.160
 6580TIP3   OH219684   5.316   1.363   0.141
 6580TIP3    H119685   5.289   1.273   0.162
 6580TIP3    H219686   5.410   1.356   0.127
 6581TIP3   OH219687   6.677   5.236   0.635
 6581TIP3    H119688   6.695   5.163   0.576
 6581TIP3    H219689   6.686   5.314   0.581
 6582TIP3   OH219690   5.702   4.929   0.025
 6582TIP3    H119691   5.668   4.967  -0.056
 6582TIP3    H219692   5.624   4.916   0.079
 6583TIP3   OH219693   0.408   7.570   0.896
 6583TIP3    H119694   0.467   7.602   0.964
 6583TIP3    H219695   0.453   7.495   0.857
 6584TIP3   OH219696   2.277   0.326   4.670
 6584TIP3    H119697   2.316   0.363   4.591
 6584TIP3    H219698   2.313   0.237   4.676
 6585TIP3   OH219699   7.180   7.419   1.411
 6585TIP3    H119700   7.187   7.442   1.504
 6585TIP3    H219701   7.110   7.354   1.407
 6586TIP3   OH219702   7.133   3.687   3.001
 6586TIP3    H119703   7.179   3.688   3.085
 6586TIP3    H219704   7.052   3.735   3.017
 6587TIP3   OH219705   5.799   4.639   1.320
 6587TIP3    H119706   5.895   4.639   1.320
 6587TIP3    H219707   5.775   4.728   1.345
 6588TIP3   OH219708   1.560   4.092   1.224
 6588TIP3    H119709   1.481   4.116   1.176
 6588TIP3    H219710   1.620   4.060   1.156
 6589TIP3   OH219711   1.427   3.856   4.620
 6589TIP3    H119712   1.344   3.810   4.628
 6589TIP3    H219713   1.404   3.940   4.580
 6590TIP3   OH219714   1.636   3.845   5.861
 6590TIP3    H119715   1.706   3.908   5.879
 6590TIP3    H219716   1.637   3.834   5.766
 6591TIP3   OH219717   1.975   7.360   5.649
 6591TIP3    H119718   1.895   7.405   5.674
 6591TIP3    H219719   2.045   7.423   5.664
 6592TIP3   OH219720   2.174   7.092   1.590
 6592TIP3    H119721   2.146   7.010   1.548
 6592TIP3    H219722   2.135   7.161   1.537
 6593TIP3   OH219723   3.829   3.094   4.951
 6593TIP3    H119724   3.757   3.155   4.936
 6593TIP3    H219725   3.857   3.112   5.041
 6594TIP3   OH219726   5.938   7.495   3.842
 6594TIP3    H119727   5.995   7.418   3.849
 6594TIP3    H219728   5.964   7.536   3.759
 6595TIP3   OH219729   5.043   0.007   2.421
 6595TIP3    H119730   4.982   0.075   2.393
 6595TIP3    H219731   4.987  -0.066   2.448
 6596TIP3   OH219732   5.251   2.371   1.247
 6596TIP3    H119733   5.314   2.300   1.250
 6596TIP3    H219734   5.290   2.435   1.187
 6597TIP3   OH219735   4.472   0.851   6.021
 6597TIP3    H119736   4.436   0.762   6.024
 6597TIP3    H219737   4.559   0.840   5.980
 6598TIP3   OH219738   8.015   0.294   2.591
 6598TIP3    H119739   8.070   0.340   2.527
 6598TIP3    H219740   7.982   0.218   2.543
 6599TIP3   OH219741   0.875   6.129   5.162
 6599TIP3    H119742   0.866   6.221   5.138
 6599TIP3    H219743   0.969   6.112   5.156
 6600TIP3   OH219744   1.689   1.360   0.674
 6600TIP3    H119745   1.693   1.311   0.756
 6600TIP3    H219746   1.713   1.449   0.698
 6601TIP3   OH219747   4.573   4.954   4.033
 6601TIP3    H119748   4.499   5.012   4.055
 6601TIP3    H219749   4.637   4.972   4.102
 6602TIP3   OH219750   0.496   4.667   5.069
 6602TIP3    H119751   0.459   4.695   4.985
 6602TIP3    H219752   0.577   4.621   5.045
 6603TIP3   OH219753   4.524   4.182   6.457
 6603TIP3    H119754   4.547   4.274   6.443
 6603TIP3    H219755   4.501   4.177   6.550
 6604TIP3   OH219756   6.815   1.553   4.708
 6604TIP3    H119757   6.794   1.518   4.621
 6604TIP3    H219758   6.835   1.645   4.693
 6605TIP3   OH219759   6.147   2.763   0.761
 6605TIP3    H119760   6.171   2.671   0.744
 6605TIP3    H219761   6.137   2.801   0.673
 6606TIP3   OH219762   7.448   6.348   3.451
 6606TIP3    H119763   7.487   6.261   3.454
 6606TIP3    H219764   7.523   6.408   3.456
 6607TIP3   OH219765   1.896   3.124   3.568
 6607TIP3    H119766   1.920   3.057   3.631
 6607TIP3    H219767   1.813   3.096   3.531
 6608TIP3   OH219768   4.009   1.025   1.531
 6608TIP3    H119769   3.961   1.088   1.479
 6608TIP3    H219770   4.089   1.008   1.481
 6609TIP3   OH219771   6.727   3.996   5.269
 6609TIP3    H119772   6.816   3.975   5.299
 6609TIP3    H219773   6.670   3.971   5.342
 6610TIP3   OH219774   1.737   3.588   2.599
 6610TIP3    H119775   1.717   3.509   2.651
 6610TIP3    H219776   1.682   3.656   2.637
 6611TIP3   OH219777   2.123   7.045   6.042
 6611TIP3    H119778   2.147   6.997   6.121
 6611TIP3    H219779   2.096   6.976   5.980
 6612TIP3   OH219780   6.663   3.140   3.576
 6612TIP3    H119781   6.598   3.131   3.646
 6612TIP3    H219782   6.699   3.052   3.565
 6613TIP3   OH219783   6.294   3.495   0.514
 6613TIP3    H119784   6.346   3.575   0.516
 6613TIP3    H219785   6.212   3.520   0.471
 6614TIP3   OH219786   2.742   7.135   3.411
 6614TIP3    H119787   2.725   7.226   3.435
 6614TIP3    H219788   2.819   7.111   3.462
 6615TIP3   OH219789   0.566   7.835   6.112
 6615TIP3    H119790   0.480   7.813   6.075
 6615TIP3    H219791   0.624   7.769   6.076
 6616TIP3   OH219792   7.598   1.231   4.059
 6616TIP3    H119793   7.661   1.294   4.094
 6616TIP3    H219794   7.626   1.218   3.968
 6617TIP3   OH219795   3.221   3.853   1.922
 6617TIP3    H119796   3.199   3.846   2.015
 6617TIP3    H219797   3.316   3.857   1.920
 6618TIP3   OH219798   5.974   3.745   6.394
 6618TIP3    H119799   5.928   3.777   6.316
 6618TIP3    H219800   5.970   3.818   6.456
 6619TIP3   OH219801   1.611   5.297   4.981
 6619TIP3    H119802   1.677   5.358   4.947
 6619TIP3    H219803   1.539   5.303   4.918
 6620TIP3   OH219804   4.279   4.435   1.622
 6620TIP3    H119805   4.314   4.482   1.698
 6620TIP3    H219806   4.184   4.436   1.636
 6621TIP3   OH219807   4.649   6.884   0.870
 6621TIP3    H119808   4.601   6.962   0.841
 6621TIP3    H219809   4.602   6.855   0.948
 6622TIP3   OH219810   8.139   6.459   5.965
 6622TIP3    H119811   8.109   6.453   6.056
 6622TIP3    H219812   8.129   6.551   5.943
 6623TIP3   OH219813   8.114   5.824   4.516
 6623TIP3    H119814   8.174   5.760   4.555
 6623TIP3    H219815   8.152   5.844   4.430
 6624TIP3   OH219816   6.777   1.777   2.617
 6624TIP3    H119817   6.854   1.788   2.672
 6624TIP3    H219818   6.707   1.821   2.664
 6625TIP3   OH219819   6.640   4.442   1.333
 6625TIP3    H119820   6.583   4.447   1.256
 6625TIP3    H219821   6.702   4.514   1.321
 6626TIP3   OH219822   4.221   2.166   2.071
 6626TIP3    H119823   4.289   2.125   2.018
 6626TIP3    H219824   4.167   2.214   2.008
 6627TIP3   OH219825   5.300   5.697   0.211
 6627TIP3    H119826   5.363   5.762   0.242
 6627TIP3    H219827   5.354   5.622   0.186
 6628TIP3   OH219828   7.443   2.459   0.201
 6628TIP3    H119829   7.404   2.373   0.186
 6628TIP3    H219830   7.386   2.519   0.154
 6629TIP3   OH219831   5.537   4.799   6.128
 6629TIP3    H119832   5.594   4.826   6.200
 6629TIP3    H219833   5.594   4.802   6.051
 6630TIP3   OH219834   6.285   0.249   2.050
 6630TIP3    H119835   6.224   0.319   2.026
 6630TIP3    H219836   6.371   0.282   2.025
 6631TIP3   OH219837   7.347   4.677   2.209
 6631TIP3    H119838   7.314   4.602   2.158
 6631TIP3    H219839   7.431   4.647   2.243
 6632TIP3   OH219840   2.448   2.210   2.056
 6632TIP3    H119841   2.431   2.301   2.031
 6632TIP3    H219842   2.377   2.187   2.115
 6633TIP3   OH219843   2.875   1.615   0.128
 6633TIP3    H119844   2.942   1.683   0.124
 6633TIP3    H219845   2.798   1.661   0.163
 6634TIP3   OH219846   7.897   0.647   2.599
 6634TIP3    H119847   7.875   0.578   2.662
 6634TIP3    H219848   7.972   0.691   2.638
 6635TIP3   OH219849   5.845   7.689   2.807
 6635TIP3    H119850   5.849   7.724   2.718
 6635TIP3    H219851   5.913   7.737   2.854
 6636TIP3   OH219852   1.670   6.950   6.139
 6636TIP3    H119853   1.732   6.960   6.066
 6636TIP3    H219854   1.621   6.871   6.117
 6637TIP3   OH219855   1.426   4.668   1.600
 6637TIP3    H119856   1.348   4.674   1.655
 6637TIP3    H219857   1.495   4.639   1.659
 6638TIP3   OH219858   2.563   5.054   6.385
 6638TIP3    H119859   2.658   5.043   6.380
 6638TIP3    H219860   2.548   5.146   6.365
 6639TIP3   OH219861   4.020   3.555   0.516
 6639TIP3    H119862   4.070   3.477   0.494
 6639TIP3    H219863   3.932   3.537   0.481
 6640TIP3   OH219864   7.429   3.942   5.718
 6640TIP3    H119865   7.446   3.881   5.646
 6640TIP3    H219866   7.514   3.983   5.735
 6641TIP3   OH219867   8.134   2.357   6.585
 6641TIP3    H119868   8.170   2.271   6.608
 6641TIP3    H219869   8.187   2.386   6.511
 6642TIP3   OH219870   7.198   2.226   0.353
 6642TIP3    H119871   7.114   2.194   0.318
 6642TIP3    H219872   7.180   2.316   0.380
 6643TIP3   OH219873   3.379   0.921   0.780
 6643TIP3    H119874   3.439   0.921   0.705
 6643TIP3    H219875   3.294   0.943   0.742
 6644TIP3   OH219876   4.060   0.856   5.171
 6644TIP3    H119877   4.149   0.868   5.139
 6644TIP3    H219878   4.071   0.833   5.264
 6645TIP3   OH219879   2.629   4.883   2.255
 6645TIP3    H119880   2.616   4.837   2.172
 6645TIP3    H219881   2.710   4.933   2.242
 6646TIP3   OH219882   0.741   1.819   0.135
 6646TIP3    H119883   0.796   1.853   0.064
 6646TIP3    H219884   0.744   1.724   0.124
 6647TIP3   OH219885   6.461   3.017   4.996
 6647TIP3    H119886   6.469   3.005   5.091
 6647TIP3    H219887   6.381   3.067   4.984
 6648TIP3   OH219888   1.213   0.730   3.624
 6648TIP3    H119889   1.145   0.709   3.688
 6648TIP3    H219890   1.186   0.683   3.545
 6649TIP3   OH219891   1.111   1.828   6.115
 6649TIP3    H119892   1.054   1.778   6.056
 6649TIP3    H219893   1.196   1.785   6.108
 6650TIP3   OH219894   6.665   2.560   0.184
 6650TIP3    H119895   6.615   2.478   0.184
 6650TIP3    H219896   6.740   2.542   0.127
 6651TIP3   OH219897   3.080   6.576   2.227
 6651TIP3    H119898   3.060   6.488   2.259
 6651TIP3    H219899   3.166   6.568   2.187
 6652TIP3   OH219900   0.212   4.617   6.167
 6652TIP3    H119901   0.244   4.690   6.114
 6652TIP3    H219902   0.268   4.543   6.143
 6653TIP3   OH219903   7.495   3.645   1.792
 6653TIP3    H119904   7.400   3.642   1.799
 6653TIP3    H219905   7.519   3.732   1.826
 6654TIP3   OH219906   6.656   5.820   3.880
 6654TIP3    H119907   6.571   5.775   3.882
 6654TIP3    H219908   6.634   5.913   3.876
 6655TIP3   OH219909   2.487   4.450   2.068
 6655TIP3    H119910   2.428   4.524   2.075
 6655TIP3    H219911   2.520   4.454   1.978
 6656TIP3   OH219912   2.181   5.246   3.766
 6656TIP3    H119913   2.192   5.334   3.803
 6656TIP3    H219914   2.251   5.195   3.806
 6657TIP3   OH219915   2.735   3.679   4.016
 6657TIP3    H119916   2.792   3.756   4.011
 6657TIP3    H219917   2.734   3.644   3.926
 6658TIP3   OH219918   7.784   4.250   1.578
 6658TIP3    H119919   7.701   4.257   1.625
 6658TIP3    H219920   7.850   4.241   1.647
 6659TIP3   OH219921   2.189   0.506   5.493
 6659TIP3    H119922   2.152   0.589   5.524
 6659TIP3    H219923   2.114   0.447   5.487
 6660TIP3   OH219924   2.424   6.141   1.081
 6660TIP3    H119925   2.479   6.065   1.060
 6660TIP3    H219926   2.406   6.132   1.175
 6661TIP3   OH219927   5.319   2.827   2.974
 6661TIP3    H119928   5.367   2.810   2.893
 6661TIP3    H219929   5.229   2.803   2.954
 6662TIP3   OH219930   5.320   5.254   3.580
 6662TIP3    H119931   5.334   5.283   3.671
 6662TIP3    H219932   5.254   5.314   3.546
 6663TIP3   OH219933   3.878   2.985   1.053
 6663TIP3    H119934   3.894   2.917   1.119
 6663TIP3    H219935   3.927   3.061   1.085
 6664TIP3   OH219936   6.890   2.113   0.253
 6664TIP3    H119937   6.940   2.150   0.180
 6664TIP3    H219938   6.862   2.189   0.303
 6665TIP3   OH219939   1.914   0.723   3.701
 6665TIP3    H119940   1.827   0.747   3.733
 6665TIP3    H219941   1.906   0.724   3.606
 6666TIP3   OH219942   2.005   4.073   6.039
 6666TIP3    H119943   1.977   3.982   6.027
 6666TIP3    H219944   1.943   4.124   5.987
 6667TIP3   OH219945   3.344   0.525   2.716
 6667TIP3    H119946   3.320   0.609   2.677
 6667TIP3    H219947   3.421   0.544   2.770
 6668TIP3   OH219948   3.623   5.806   5.007
 6668TIP3    H119949   3.611   5.728   4.952
 6668TIP3    H219950   3.553   5.800   5.072
 6669TIP3   OH219951   0.883   1.883   6.608
 6669TIP3    H119952   0.895   1.788   6.602
 6669TIP3    H219953   0.933   1.919   6.535
 6670TIP3   OH219954   1.405   6.266   4.131
 6670TIP3    H119955   1.346   6.204   4.174
 6670TIP3    H219956   1.362   6.287   4.048
 6671TIP3   OH219957   5.110   2.450   4.038
 6671TIP3    H119958   5.170   2.476   4.107
 6671TIP3    H219959   5.115   2.355   4.036
 6672TIP3   OH219960   7.919   3.135   3.804
 6672TIP3    H119961   7.894   3.207   3.747
 6672TIP3    H219962   7.854   3.066   3.787
 6673TIP3   OH219963   2.430   7.054   0.189
 6673TIP3    H119964   2.451   6.980   0.132
 6673TIP3    H219965   2.399   7.014   0.271
 6674TIP3   OH219966   1.009   7.610   1.404
 6674TIP3    H119967   1.011   7.544   1.473
 6674TIP3    H219968   1.096   7.649   1.405
 6675TIP3   OH219969   1.427   7.797   5.602
 6675TIP3    H119970   1.521   7.793   5.622
 6675TIP3    H219971   1.422   7.777   5.508
 6676TIP3   OH219972   0.168   7.007   1.171
 6676TIP3    H119973   0.091   7.023   1.116
 6676TIP3    H219974   0.227   7.080   1.151
 6677TIP3   OH219975   2.392   2.265   0.128
 6677TIP3    H119976   2.407   2.216   0.209
 6677TIP3    H219977   2.321   2.325   0.150
 6678TIP3   OH219978   7.942   1.181   4.157
 6678TIP3    H119979   7.944   1.192   4.062
 6678TIP3    H219980   7.907   1.093   4.170
 6679TIP3   OH219981   7.500   3.962   3.437
 6679TIP3    H119982   7.493   4.052   3.406
 6679TIP3    H219983   7.553   3.968   3.517
 6680TIP3   OH219984   5.139   4.756   5.917
 6680TIP3    H119985   5.053   4.741   5.878
 6680TIP3    H219986   5.123   4.812   5.993
 6681TIP3   OH219987   4.618   3.734   4.502
 6681TIP3    H119988   4.630   3.667   4.569
 6681TIP3    H219989   4.706   3.770   4.488
 6682TIP3   OH219990   4.579   2.795   3.323
 6682TIP3    H119991   4.645   2.738   3.284
 6682TIP3    H219992   4.495   2.758   3.294
 6683TIP3   OH219993   1.230   0.036   3.744
 6683TIP3    H119994   1.318   0.013   3.715
 6683TIP3    H219995   1.244   0.089   3.823
 6684TIP3   OH219996   4.455   4.920   5.082
 6684TIP3    H119997   4.421   5.004   5.114
 6684TIP3    H219998   4.463   4.866   5.160
 6685TIP3   OH219999   1.483   0.667   1.825
 6685TIP3    H120000   1.424   0.675   1.899
 6685TIP3    H220001   1.546   0.738   1.836
 6686TIP3   OH220002   2.510   6.772   4.366
 6686TIP3    H120003   2.435   6.718   4.391
 6686TIP3    H220004   2.516   6.837   4.436
 6687TIP3   OH220005   4.328   6.140   0.340
 6687TIP3    H120006   4.265   6.208   0.315
 6687TIP3    H220007   4.311   6.125   0.433
 6688TIP3   OH220008   7.192   5.126   6.531
 6688TIP3    H120009   7.111   5.163   6.495
 6688TIP3    H220010   7.248   5.202   6.548
 6689TIP3   OH220011   6.812   2.824   5.275
 6689TIP3    H120012   6.823   2.881   5.198
 6689TIP3    H220013   6.805   2.885   5.349
 6690TIP3   OH220014   2.352   7.567   1.914
 6690TIP3    H120015   2.373   7.551   1.822
 6690TIP3    H220016   2.406   7.505   1.963
 6691TIP3   OH220017   6.259   0.798   3.821
 6691TIP3    H120018   6.215   0.880   3.843
 6691TIP3    H220019   6.251   0.744   3.899
 6692TIP3   OH220020   4.280   0.990   1.462
 6692TIP3    H120021   4.290   0.977   1.368
 6692TIP3    H220022   4.357   1.041   1.488
 6693TIP3   OH220023   5.259   7.183   4.987
 6693TIP3    H120024   5.183   7.206   5.041
 6693TIP3    H220025   5.235   7.101   4.945
 6694TIP3   OH220026   2.128   3.343   0.025
 6694TIP3    H120027   2.201   3.400   0.000
 6694TIP3    H220028   2.051   3.384  -0.015
 6695TIP3   OH220029   6.769   6.758   4.913
 6695TIP3    H120030   6.858   6.743   4.879
 6695TIP3    H220031   6.783   6.795   5.000
 6696TIP3   OH220032   3.642   7.501   6.750
 6696TIP3    H120033   3.552   7.471   6.735
 6696TIP3    H220034   3.685   7.490   6.665
 6697TIP3   OH220035   2.124   0.851   2.382
 6697TIP3    H120036   2.074   0.826   2.459
 6697TIP3    H220037   2.066   0.908   2.333
 6698TIP3   OH220038   6.236   7.524   1.574
 6698TIP3    H120039   6.261   7.600   1.521
 6698TIP3    H220040   6.306   7.461   1.561
 6699TIP3   OH220041   3.069   4.344   6.073
 6699TIP3    H120042   3.041   4.257   6.102
 6699TIP3    H220043   3.076   4.395   6.154
 6700TIP3   OH220044   6.714   5.437   0.442
 6700TIP3    H120045   6.623   5.443   0.415
 6700TIP3    H220046   6.761   5.414   0.362
 6701TIP3   OH220047   7.934   7.616   3.752
 6701TIP3    H120048   7.910   7.561   3.827
 6701TIP3    H220049   7.972   7.694   3.791
 6702TIP3   OH220050   2.785   0.508   0.279
 6702TIP3    H120051   2.881   0.508   0.272
 6702TIP3    H220052   2.757   0.567   0.209
 6703TIP3   OH220053   4.888   7.471   0.961
 6703TIP3    H120054   4.872   7.535   0.892
 6703TIP3    H220055   4.824   7.402   0.945
 6704TIP3   OH220056   2.626   4.047   2.689
 6704TIP3    H120057   2.579   4.119   2.646
 6704TIP3    H220058   2.684   4.091   2.751
 6705TIP3   OH220059   0.111   6.735   6.157
 6705TIP3    H120060   0.071   6.771   6.077
 6705TIP3    H220061   0.185   6.684   6.125
 6706TIP3   OH220062   7.571   3.248   2.729
 6706TIP3    H120063   7.529   3.206   2.804
 6706TIP3    H220064   7.506   3.313   2.699
 6707TIP3   OH220065   3.351   2.508   3.532
 6707TIP3    H120066   3.357   2.424   3.576
 6707TIP3    H220067   3.377   2.572   3.598
 6708TIP3   OH220068   0.664   0.662   6.179
 6708TIP3    H120069   0.714   0.724   6.125
 6708TIP3    H220070   0.590   0.636   6.125
 6709TIP3   OH220071   3.856   2.682   5.705
 6709TIP3    H120072   3.879   2.775   5.706
 6709TIP3    H220073   3.786   2.674   5.770
 6710TIP3   OH220074   6.376   4.601   0.372
 6710TIP3    H120075   6.390   4.605   0.466
 6710TIP3    H220076   6.383   4.692   0.342
 6711TIP3   OH220077   4.694   0.841   3.278
 6711TIP3    H120078   4.778   0.850   3.323
 6711TIP3    H220079   4.679   0.747   3.275
 6712TIP3   OH220080   8.288   5.610   5.573
 6712TIP3    H120081   8.208   5.650   5.608
 6712TIP3    H220082   8.292   5.639   5.482
 6713TIP3   OH220083   1.141   6.531   0.138
 6713TIP3    H120084   1.178   6.467   0.077
 6713TIP3    H220085   1.096   6.478   0.204
 6714TIP3   OH220086   8.041   2.270   4.306
 6714TIP3    H120087   8.093   2.284   4.385
 6714TIP3    H220088   8.023   2.359   4.274
 6715TIP3   OH220089   3.389   2.939   5.921
 6715TIP3    H120090   3.319   2.972   5.977
 6715TIP3    H220091   3.349   2.868   5.870
 6716TIP3   OH220092   5.384   0.217   1.555
 6716TIP3    H120093   5.399   0.310   1.568
 6716TIP3    H220094   5.361   0.184   1.643
 6717TIP3   OH220095   6.515   0.707   4.469
 6717TIP3    H120096   6.529   0.618   4.438
 6717TIP3    H220097   6.561   0.712   4.553
 6718TIP3   OH220098   6.194   1.687   3.911
 6718TIP3    H120099   6.228   1.776   3.906
 6718TIP3    H220100   6.270   1.633   3.932
 6719TIP3   OH220101   6.320   4.615   1.362
 6719TIP3    H120102   6.360   4.555   1.425
 6719TIP3    H220103   6.392   4.669   1.330
 6720TIP3   OH220104   0.670   2.944   5.609
 6720TIP3    H120105   0.643   2.946   5.700
 6720TIP3    H220106   0.659   2.852   5.583
 6721TIP3   OH220107   2.489   0.145   3.433
 6721TIP3    H120108   2.543   0.124   3.357
 6721TIP3    H220109   2.402   0.162   3.396
 6722TIP3   OH220110   3.963   5.037   5.085
 6722TIP3    H120111   3.943   5.097   5.157
 6722TIP3    H220112   4.042   5.074   5.045
 6723TIP3   OH220113   2.852   5.576   3.086
 6723TIP3    H120114   2.915   5.648   3.086
 6723TIP3    H220115   2.826   5.567   3.178
 6724TIP3   OH220116   5.861   7.422   5.936
 6724TIP3    H120117   5.843   7.482   6.009
 6724TIP3    H220118   5.914   7.353   5.974
 6725TIP3   OH220119   2.923   4.854   2.949
 6725TIP3    H120120   2.922   4.895   2.863
 6725TIP3    H220121   2.832   4.855   2.977
 6726TIP3   OH220122   7.477   4.417   0.810
 6726TIP3    H120123   7.541   4.474   0.768
 6726TIP3    H220124   7.440   4.365   0.738
 6727TIP3   OH220125   6.081   1.831   5.150
 6727TIP3    H120126   6.139   1.761   5.119
 6727TIP3    H220127   6.042   1.866   5.070
 6728TIP3   OH220128   5.096   7.598   5.923
 6728TIP3    H120129   5.082   7.675   5.867
 6728TIP3    H220130   5.101   7.525   5.862
 6729TIP3   OH220131   0.331   7.778   3.200
 6729TIP3    H120132   0.246   7.820   3.209
 6729TIP3    H220133   0.315   7.686   3.219
 6730TIP3   OH220134   4.424   3.708   1.018
 6730TIP3    H120135   4.376   3.673   1.093
 6730TIP3    H220136   4.399   3.801   1.014
 6731TIP3   OH220137   6.045   7.323   1.000
 6731TIP3    H120138   6.096   7.367   0.932
 6731TIP3    H220139   6.027   7.236   0.964
 6732TIP3   OH220140   6.258   3.378   4.309
 6732TIP3    H120141   6.295   3.465   4.294
 6732TIP3    H220142   6.333   3.321   4.319
 6733TIP3   OH220143   2.847   2.982   0.091
 6733TIP3    H120144   2.898   2.988   0.009
 6733TIP3    H220145   2.844   3.071   0.125
 6734TIP3   OH220146   1.933   7.791   6.050
 6734TIP3    H120147   1.962   7.878   6.022
 6734TIP3    H220148   1.911   7.745   5.969
 6735TIP3   OH220149   1.111   3.337   4.151
 6735TIP3    H120150   1.034   3.287   4.121
 6735TIP3    H220151   1.118   3.316   4.244
 6736TIP3   OH220152   8.109   7.130   6.467
 6736TIP3    H120153   8.122   7.055   6.409
 6736TIP3    H220154   8.020   7.119   6.500
 6737TIP3   OH220155   1.914   5.815   3.347
 6737TIP3    H120156   1.905   5.722   3.366
 6737TIP3    H220157   1.922   5.856   3.433
 6738TIP3   OH220158   7.420   0.009   5.945
 6738TIP3    H120159   7.482   0.021   5.874
 6738TIP3    H220160   7.474  -0.013   6.021
 6739TIP3   OH220161   7.425   0.402   2.465
 6739TIP3    H120162   7.509   0.405   2.512
 6739TIP3    H220163   7.441   0.341   2.393
 6740TIP3   OH220164   3.579   1.112   4.584
 6740TIP3    H120165   3.571   1.200   4.620
 6740TIP3    H220166   3.671   1.088   4.601
 6741TIP3   OH220167   0.460   2.689   3.679
 6741TIP3    H120168   0.368   2.668   3.698
 6741TIP3    H220169   0.508   2.611   3.707
 6742TIP3   OH220170   4.179   2.523   1.992
 6742TIP3    H120171   4.147   2.442   1.954
 6742TIP3    H220172   4.260   2.542   1.945
 6743TIP3   OH220173   7.573   0.260   6.096
 6743TIP3    H120174   7.591   0.281   6.188
 6743TIP3    H220175   7.654   0.223   6.062
 6744TIP3   OH220176   5.536   5.829   0.253
 6744TIP3    H120177   5.614   5.777   0.233
 6744TIP3    H220178   5.569   5.902   0.306
 6745TIP3   OH220179   1.725   3.821   5.597
 6745TIP3    H120180   1.799   3.762   5.611
 6745TIP3    H220181   1.701   3.808   5.505
 6746TIP3   OH220182   4.324   4.645   2.607
 6746TIP3    H120183   4.325   4.566   2.661
 6746TIP3    H220184   4.342   4.716   2.668
 6747TIP3   OH220185   4.198   2.945   0.313
 6747TIP3    H120186   4.114   2.960   0.356
 6747TIP3    H220187   4.259   3.005   0.357
 6748TIP3   OH220188   7.457   4.177   5.422
 6748TIP3    H120189   7.439   4.146   5.334
 6748TIP3    H220190   7.371   4.201   5.457
 6749TIP3   OH220191   4.660   2.448   2.832
 6749TIP3    H120192   4.668   2.531   2.880
 6749TIP3    H220193   4.667   2.380   2.899
 6750TIP3   OH220194   5.447   2.029   5.489
 6750TIP3    H120195   5.496   1.988   5.561
 6750TIP3    H220196   5.492   2.000   5.410
 6751TIP3   OH220197   2.164   4.823   1.049
 6751TIP3    H120198   2.249   4.842   1.089
 6751TIP3    H220199   2.176   4.740   1.004
 6752TIP3   OH220200   1.909   0.555   1.030
 6752TIP3    H120201   1.814   0.551   1.018
 6752TIP3    H220202   1.933   0.469   1.066
 6753TIP3   OH220203   5.750   4.465   5.867
 6753TIP3    H120204   5.721   4.489   5.955
 6753TIP3    H220205   5.684   4.402   5.837
 6754TIP3   OH220206   3.529   0.502   0.608
 6754TIP3    H120207   3.498   0.435   0.547
 6754TIP3    H220208   3.450   0.537   0.648
 6755TIP3   OH220209   5.918   3.907   1.555
 6755TIP3    H120210   5.883   3.819   1.565
 6755TIP3    H220211   5.935   3.915   1.461
 6756TIP3   OH220212   5.772   2.676   2.835
 6756TIP3    H120213   5.711   2.744   2.863
 6756TIP3    H220214   5.767   2.678   2.739
 6757TIP3   OH220215   4.247   2.801   3.901
 6757TIP3    H120216   4.320   2.775   3.845
 6757TIP3    H220217   4.236   2.895   3.885
 6758TIP3   OH220218   1.120   7.779   4.847
 6758TIP3    H120219   1.150   7.867   4.826
 6758TIP3    H220220   1.186   7.721   4.809
 6759TIP3   OH220221   4.354   6.774   2.089
 6759TIP3    H120222   4.430   6.723   2.062
 6759TIP3    H220223   4.328   6.736   2.173
 6760TIP3   OH220224   7.492   4.768   3.215
 6760TIP3    H120225   7.542   4.849   3.225
 6760TIP3    H220226   7.474   4.762   3.121
 6761TIP3   OH220227   1.448   3.559   4.908
 6761TIP3    H120228   1.413   3.640   4.946
 6761TIP3    H220229   1.371   3.514   4.872
 6762TIP3   OH220230   3.377   3.390   6.363
 6762TIP3    H120231   3.330   3.321   6.409
 6762TIP3    H220232   3.453   3.409   6.418
 6763TIP3   OH220233   8.028   6.120   1.074
 6763TIP3    H120234   8.080   6.068   1.136
 6763TIP3    H220235   7.940   6.083   1.079
 6764TIP3   OH220236   8.104   5.026   5.027
 6764TIP3    H120237   8.110   4.944   5.076
 6764TIP3    H220238   8.172   5.019   4.960
 6765TIP3   OH220239   1.683   7.855   6.309
 6765TIP3    H120240   1.690   7.850   6.404
 6765TIP3    H220241   1.671   7.764   6.281
 6766TIP3   OH220242   7.510   4.675   3.496
 6766TIP3    H120243   7.568   4.750   3.504
 6766TIP3    H220244   7.429   4.712   3.460
 6767TIP3   OH220245   8.110   4.916   3.059
 6767TIP3    H120246   8.172   4.845   3.075
 6767TIP3    H220247   8.136   4.984   3.121
 6768TIP3   OH220248   3.517   3.399   2.147
 6768TIP3    H120249   3.596   3.437   2.108
 6768TIP3    H220250   3.447   3.461   2.125
 6769TIP3   OH220251   4.434   2.805   5.424
 6769TIP3    H120252   4.370   2.813   5.353
 6769TIP3    H220253   4.382   2.784   5.501
 6770TIP3   OH220254   3.209   2.985   1.720
 6770TIP3    H120255   3.279   2.958   1.661
 6770TIP3    H220256   3.252   3.040   1.785
 6771TIP3   OH220257   2.800   4.007   0.574
 6771TIP3    H120258   2.726   3.976   0.521
 6771TIP3    H220259   2.847   3.926   0.599
 6772TIP3   OH220260   5.334   2.386   0.932
 6772TIP3    H120261   5.395   2.345   0.872
 6772TIP3    H220262   5.258   2.410   0.878
 6773TIP3   OH220263   6.009   1.447   1.474
 6773TIP3    H120264   6.067   1.388   1.426
 6773TIP3    H220265   5.951   1.483   1.407
 6774TIP3   OH220266   3.288   4.286   2.378
 6774TIP3    H120267   3.349   4.289   2.451
 6774TIP3    H220268   3.202   4.301   2.417
 6775TIP3   OH220269   5.543   5.361   3.351
 6775TIP3    H120270   5.468   5.403   3.310
 6775TIP3    H220271   5.509   5.325   3.433
 6776TIP3   OH220272   7.427   4.811   6.370
 6776TIP3    H120273   7.519   4.790   6.387
 6776TIP3    H220274   7.409   4.888   6.424
 6777TIP3   OH220275   1.039   7.771   3.526
 6777TIP3    H120276   1.003   7.847   3.480
 6777TIP3    H220277   0.998   7.773   3.613
 6778TIP3   OH220278   6.734   6.522   1.231
 6778TIP3    H120279   6.662   6.459   1.220
 6778TIP3    H220280   6.799   6.494   1.167
 6779TIP3   OH220281   1.125   6.699   5.874
 6779TIP3    H120282   1.142   6.792   5.863
 6779TIP3    H220283   1.198   6.656   5.829
 6780TIP3   OH220284   0.262   1.259   3.575
 6780TIP3    H120285   0.337   1.307   3.608
 6780TIP3    H220286   0.260   1.178   3.627
 6781TIP3   OH220287   5.190   7.165   2.942
 6781TIP3    H120288   5.199   7.072   2.963
 6781TIP3    H220289   5.256   7.181   2.874
 6782TIP3   OH220290   5.708   6.778   0.095
 6782TIP3    H120291   5.718   6.685   0.115
 6782TIP3    H220292   5.793   6.804   0.061
 6783TIP3   OH220293   4.997   3.562   6.505
 6783TIP3    H120294   5.067   3.549   6.570
 6783TIP3    H220295   5.042   3.598   6.429
 6784TIP3   OH220296   3.747   6.227   3.985
 6784TIP3    H120297   3.711   6.239   3.897
 6784TIP3    H220298   3.804   6.150   3.977
 6785TIP3   OH220299   6.532   2.943   5.591
 6785TIP3    H120300   6.514   2.949   5.685
 6785TIP3    H220301   6.453   2.906   5.553
 6786TIP3   OH220302   5.557   7.559   4.317
 6786TIP3    H120303   5.547   7.614   4.395
 6786TIP3    H220304   5.606   7.483   4.348
 6787TIP3   OH220305   7.559   1.478   4.999
 6787TIP3    H120306   7.498   1.500   4.928
 6787TIP3    H220307   7.509   1.421   5.057
 6788TIP3   OH220308   4.336   0.707   6.780
 6788TIP3    H120309   4.313   0.615   6.763
 6788TIP3    H220310   4.365   0.740   6.695
 6789TIP3   OH220311   4.539   0.682   2.223
 6789TIP3    H120312   4.527   0.758   2.166
 6789TIP3    H220313   4.602   0.627   2.176
 6790TIP3   OH220314   6.574   3.882   2.616
 6790TIP3    H120315   6.504   3.908   2.556
 6790TIP3    H220316   6.645   3.853   2.559
 6791TIP3   OH220317   6.576   0.350   5.978
 6791TIP3    H120318   6.577   0.285   6.048
 6791TIP3    H220319   6.611   0.429   6.018
 6792TIP3   OH220320   1.814   5.693   1.576
 6792TIP3    H120321   1.835   5.778   1.536
 6792TIP3    H220322   1.780   5.641   1.503
 6793TIP3   OH220323   3.078   2.543   4.686
 6793TIP3    H120324   3.153   2.499   4.727
 6793TIP3    H220325   3.034   2.475   4.636
 6794TIP3   OH220326   5.637   1.085   4.538
 6794TIP3    H120327   5.710   1.025   4.522
 6794TIP3    H220328   5.673   1.172   4.520
 6795TIP3   OH220329   0.831   0.409   6.625
 6795TIP3    H120330   0.887   0.459   6.685
 6795TIP3    H220331   0.743   0.423   6.658
 6796TIP3   OH220332   0.115   2.863   1.443
 6796TIP3    H120333   0.045   2.797   1.438
 6796TIP3    H220334   0.160   2.856   1.359
 6797TIP3   OH220335   2.738   3.782   6.482
 6797TIP3    H120336   2.696   3.780   6.568
 6797TIP3    H220337   2.680   3.836   6.428
 6798TIP3   OH220338   2.216   0.188   4.195
 6798TIP3    H120339   2.268   0.128   4.247
 6798TIP3    H220340   2.125   0.161   4.210
 6799TIP3   OH220341   5.515   1.739   5.709
 6799TIP3    H120342   5.542   1.825   5.741
 6799TIP3    H220343   5.593   1.705   5.665
 6800TIP3   OH220344   7.554   3.755   3.047
 6800TIP3    H120345   7.540   3.846   3.071
 6800TIP3    H220346   7.646   3.750   3.021
 6801TIP3   OH220347   3.354   6.338   3.392
 6801TIP3    H120348   3.400   6.275   3.337
 6801TIP3    H220349   3.389   6.423   3.365
 6802TIP3   OH220350   7.036   0.960   0.090
 6802TIP3    H120351   7.031   0.937  -0.003
 6802TIP3    H220352   7.129   0.977   0.106
 6803TIP3   OH220353   0.362   6.212   0.476
 6803TIP3    H120354   0.364   6.116   0.483
 6803TIP3    H220355   0.272   6.232   0.450
 6804TIP3   OH220356   4.621   5.593   5.689
 6804TIP3    H120357   4.570   5.561   5.614
 6804TIP3    H220358   4.650   5.680   5.664
 6805TIP3   OH220359   4.676   0.709   2.961
 6805TIP3    H120360   4.730   0.720   2.883
 6805TIP3    H220361   4.671   0.797   3.000
 6806TIP3   OH220362   2.002   0.726   4.988
 6806TIP3    H120363   1.975   0.642   5.026
 6806TIP3    H220364   2.078   0.704   4.934
 6807TIP3   OH220365   2.029   0.694   2.592
 6807TIP3    H120366   1.960   0.633   2.565
 6807TIP3    H220367   2.105   0.639   2.609
 6808TIP3   OH220368   6.130   2.574   6.600
 6808TIP3    H120369   6.080   2.627   6.539
 6808TIP3    H220370   6.217   2.616   6.602
 6809TIP3   OH220371   2.496   7.042   0.981
 6809TIP3    H120372   2.512   7.117   0.924
 6809TIP3    H220373   2.550   6.972   0.944
 6810TIP3   OH220374   4.379   3.535   6.633
 6810TIP3    H120375   4.400   3.619   6.591
 6810TIP3    H220376   4.456   3.480   6.616
 6811TIP3   OH220377   2.023   4.913   0.637
 6811TIP3    H120378   1.950   4.886   0.581
 6811TIP3    H220379   2.095   4.855   0.613
 6812TIP3   OH220380   4.822   7.631   3.128
 6812TIP3    H120381   4.846   7.605   3.039
 6812TIP3    H220382   4.751   7.695   3.116
 6813TIP3   OH220383   1.860   0.687   0.765
 6813TIP3    H120384   1.878   0.757   0.827
 6813TIP3    H220385   1.818   0.732   0.691
 6814TIP3   OH220386   0.686   5.923   3.857
 6814TIP3    H120387   0.616   5.921   3.791
 6814TIP3    H220388   0.645   5.891   3.937
 6815TIP3   OH220389   0.678   2.071   3.673
 6815TIP3    H120390   0.627   2.052   3.594
 6815TIP3    H220391   0.735   2.144   3.648
 6816TIP3   OH220392   3.997   6.038   1.178
 6816TIP3    H120393   3.960   6.020   1.092
 6816TIP3    H220394   4.030   5.954   1.209
 6817TIP3   OH220395   3.153   6.092   4.484
 6817TIP3    H120396   3.104   6.173   4.470
 6817TIP3    H220397   3.233   6.119   4.528
 6818TIP3   OH220398   6.777   2.935   4.166
 6818TIP3    H120399   6.722   2.891   4.101
 6818TIP3    H220400   6.803   3.017   4.124
 6819TIP3   OH220401   6.547   2.665   0.954
 6819TIP3    H120402   6.519   2.757   0.956
 6819TIP3    H220403   6.508   2.626   1.032
 6820TIP3   OH220404   7.257   4.828   3.939
 6820TIP3    H120405   7.174   4.872   3.922
 6820TIP3    H220406   7.272   4.840   4.033
 6821TIP3   OH220407   4.052   1.187   0.493
 6821TIP3    H120408   4.126   1.155   0.545
 6821TIP3    H220409   4.016   1.260   0.544
 6822TIP3   OH220410   5.086   2.863   3.401
 6822TIP3    H120411   5.028   2.861   3.476
 6822TIP3    H220412   5.128   2.777   3.400
 6823TIP3   OH220413   2.449   5.602   0.944
 6823TIP3    H120414   2.360   5.584   0.976
 6823TIP3    H220415   2.442   5.596   0.849
 6824TIP3   OH220416   1.365   6.808   1.038
 6824TIP3    H120417   1.381   6.772   1.125
 6824TIP3    H220418   1.419   6.887   1.034
 6825TIP3   OH220419   1.830   3.809   0.669
 6825TIP3    H120420   1.827   3.762   0.586
 6825TIP3    H220421   1.891   3.881   0.654
 6826TIP3   OH220422   7.743   1.215   2.616
 6826TIP3    H120423   7.724   1.308   2.605
 6826TIP3    H220424   7.822   1.214   2.670
 6827TIP3   OH220425   4.763   4.263   2.506
 6827TIP3    H120426   4.754   4.304   2.592
 6827TIP3    H220427   4.839   4.306   2.467
 6828TIP3   OH220428   5.442   3.645   6.259
 6828TIP3    H120429   5.476   3.657   6.348
 6828TIP3    H220430   5.462   3.553   6.238
 6829TIP3   OH220431   3.444   6.802   6.212
 6829TIP3    H120432   3.515   6.764   6.161
 6829TIP3    H220433   3.455   6.896   6.202
 6830TIP3   OH220434   2.901   0.673   2.076
 6830TIP3    H120435   2.867   0.623   2.002
 6830TIP3    H220436   2.975   0.721   2.041
 6831TIP3   OH220437   3.284   5.140   2.392
 6831TIP3    H120438   3.200   5.168   2.357
 6831TIP3    H220439   3.342   5.137   2.316
 6832TIP3   OH220440   1.316   0.234   3.939
 6832TIP3    H120441   1.316   0.229   4.035
 6832TIP3    H220442   1.236   0.282   3.918
 6833TIP3   OH220443   2.421   3.754   2.032
 6833TIP3    H120444   2.364   3.805   2.090
 6833TIP3    H220445   2.495   3.812   2.014
 6834TIP3   OH220446   4.257   0.533   4.941
 6834TIP3    H120447   4.272   0.566   5.030
 6834TIP3    H220448   4.192   0.464   4.952
 6835TIP3   OH220449   6.221   0.591   4.024
 6835TIP3    H120450   6.208   0.505   3.983
 6835TIP3    H220451   6.277   0.572   4.100
 6836TIP3   OH220452   4.998   0.288   1.495
 6836TIP3    H120453   5.019   0.253   1.409
 6836TIP3    H220454   5.042   0.372   1.499
 6837TIP3   OH220455   1.968   1.636   6.695
 6837TIP3    H120456   1.987   1.714   6.747
 6837TIP3    H220457   1.873   1.634   6.689
 6838TIP3   OH220458   6.464   4.728   3.487
 6838TIP3    H120459   6.546   4.758   3.449
 6838TIP3    H220460   6.458   4.772   3.572
 6839TIP3   OH220461   1.709   1.755   1.986
 6839TIP3    H120462   1.779   1.791   1.931
 6839TIP3    H220463   1.649   1.828   1.999
 6840TIP3   OH220464   1.541   7.699   1.081
 6840TIP3    H120465   1.454   7.660   1.093
 6840TIP3    H220466   1.545   7.721   0.988
 6841TIP3   OH220467   0.477   3.926   6.701
 6841TIP3    H120468   0.393   3.885   6.677
 6841TIP3    H220469   0.523   3.936   6.617
 6842TIP3   OH220470   3.473   2.015   3.611
 6842TIP3    H120471   3.439   2.056   3.532
 6842TIP3    H220472   3.394   1.985   3.657
 6843TIP3   OH220473   2.878   4.243   3.135
 6843TIP3    H120474   2.960   4.285   3.108
 6843TIP3    H220475   2.895   4.215   3.225
 6844TIP3   OH220476   6.525   1.855   0.904
 6844TIP3    H120477   6.573   1.931   0.870
 6844TIP3    H220478   6.593   1.789   0.919
 6845TIP3   OH220479   6.550   1.035   0.775
 6845TIP3    H120480   6.575   1.126   0.790
 6845TIP3    H220481   6.469   1.024   0.826
 6846TIP3   OH220482   1.652   4.381   0.087
 6846TIP3    H120483   1.694   4.406   0.170
 6846TIP3    H220484   1.695   4.300   0.062
 6847TIP3   OH220485   1.657   6.802   3.075
 6847TIP3    H120486   1.580   6.761   3.037
 6847TIP3    H220487   1.625   6.886   3.110
 6848TIP3   OH220488   3.523   0.866   1.329
 6848TIP3    H120489   3.538   0.824   1.244
 6848TIP3    H220490   3.458   0.934   1.311
 6849TIP3   OH220491   3.146   0.063   1.752
 6849TIP3    H120492   3.147  -0.008   1.816
 6849TIP3    H220493   3.210   0.037   1.686
 6850TIP3   OH220494   2.023   0.179   5.669
 6850TIP3    H120495   1.962   0.165   5.596
 6850TIP3    H220496   1.991   0.121   5.737
 6851TIP3   OH220497   6.233   6.141   2.254
 6851TIP3    H120498   6.181   6.220   2.239
 6851TIP3    H220499   6.186   6.072   2.207
 6852TIP3   OH220500   6.496   2.757   6.076
 6852TIP3    H120501   6.487   2.778   6.169
 6852TIP3    H220502   6.543   2.831   6.039
 6853TIP3   OH220503   1.303   5.864   2.477
 6853TIP3    H120504   1.222   5.913   2.460
 6853TIP3    H220505   1.283   5.775   2.447
 6854TIP3   OH220506   0.047   5.873   5.988
 6854TIP3    H120507   0.134   5.850   5.954
 6854TIP3    H220508   0.048   5.843   6.079
 6855TIP3   OH220509   6.624   6.936   6.074
 6855TIP3    H120510   6.568   6.964   6.001
 6855TIP3    H220511   6.682   7.010   6.090
 6856TIP3   OH220512   2.643   6.136   6.253
 6856TIP3    H120513   2.581   6.066   6.232
 6856TIP3    H220514   2.719   6.091   6.291
 6857TIP3   OH220515   5.684   7.232   2.861
 6857TIP3    H120516   5.751   7.288   2.900
 6857TIP3    H220517   5.602   7.278   2.879
 6858TIP3   OH220518   7.797   1.519   4.724
 6858TIP3    H120519   7.850   1.521   4.644
 6858TIP3    H220520   7.858   1.544   4.793
 6859TIP3   OH220521   2.540   2.379   2.679
 6859TIP3    H120522   2.567   2.381   2.770
 6859TIP3    H220523   2.598   2.442   2.635
 6860TIP3   OH220524   0.175   1.078   4.310
 6860TIP3    H120525   0.254   1.062   4.258
 6860TIP3    H220526   0.139   1.160   4.274
 6861TIP3   OH220527   5.792   7.149   6.202
 6861TIP3    H120528   5.780   7.061   6.167
 6861TIP3    H220529   5.703   7.181   6.216
 6862TIP3   OH220530   2.141   4.033   4.711
 6862TIP3    H120531   2.056   4.055   4.672
 6862TIP3    H220532   2.201   4.034   4.637
 6863TIP3   OH220533   6.928   3.607   5.139
 6863TIP3    H120534   6.969   3.547   5.076
 6863TIP3    H220535   6.950   3.694   5.107
 6864TIP3   OH220536   8.019   1.749   3.451
 6864TIP3    H120537   8.069   1.809   3.395
 6864TIP3    H220538   8.082   1.682   3.477
 6865TIP3   OH220539   6.260   1.951   3.929
 6865TIP3    H120540   6.334   1.936   3.988
 6865TIP3    H220541   6.239   2.044   3.940
 6866TIP3   OH220542   6.471   6.532   6.156
 6866TIP3    H120543   6.415   6.504   6.083
 6866TIP3    H220544   6.523   6.604   6.120
 6867TIP3   OH220545   4.600   3.800   3.903
 6867TIP3    H120546   4.589   3.710   3.931
 6867TIP3    H220547   4.601   3.796   3.807
 6868TIP3   OH220548   1.057   1.267   4.498
 6868TIP3    H120549   1.062   1.252   4.592
 6868TIP3    H220550   1.026   1.357   4.490
 6869TIP3   OH220551   4.809   2.675   1.782
 6869TIP3    H120552   4.900   2.671   1.752
 6869TIP3    H220553   4.769   2.596   1.746
 6870TIP3   OH220554   0.838   1.986   2.985
 6870TIP3    H120555   0.784   1.976   2.906
 6870TIP3    H220556   0.778   1.972   3.058
 6871TIP3   OH220557   3.188   1.228   1.710
 6871TIP3    H120558   3.279   1.204   1.726
 6871TIP3    H220559   3.145   1.145   1.686
 6872TIP3   OH220560   6.247   3.068   4.303
 6872TIP3    H120561   6.159   3.105   4.305
 6872TIP3    H220562   6.253   3.016   4.383
 6873TIP3   OH220563   2.143   7.112   2.911
 6873TIP3    H120564   2.053   7.118   2.943
 6873TIP3    H220565   2.172   7.203   2.905
 6874TIP3   OH220566   0.201   6.500   4.353
 6874TIP3    H120567   0.136   6.524   4.419
 6874TIP3    H220568   0.210   6.405   4.362
 6875TIP3   OH220569   0.695   0.744   4.069
 6875TIP3    H120570   0.719   0.803   4.141
 6875TIP3    H220571   0.731   0.659   4.094
 6876TIP3   OH220572   1.590   2.942   5.767
 6876TIP3    H120573   1.605   2.914   5.676
 6876TIP3    H220574   1.495   2.938   5.778
 6877TIP3   OH220575   5.658   2.013   2.086
 6877TIP3    H120576   5.725   2.054   2.031
 6877TIP3    H220577   5.691   1.925   2.103
 6878TIP3   OH220578   6.346   0.978   5.151
 6878TIP3    H120579   6.399   0.912   5.106
 6878TIP3    H220580   6.257   0.963   5.120
 6879TIP3   OH220581   5.218   6.327   3.942
 6879TIP3    H120582   5.273   6.307   4.018
 6879TIP3    H220583   5.129   6.331   3.978
 6880TIP3   OH220584   0.026   6.985   0.269
 6880TIP3    H120585   0.062   7.040   0.339
 6880TIP3    H220586   0.103   6.956   0.220
 6881TIP3   OH220587   5.581   6.364   3.907
 6881TIP3    H120588   5.517   6.362   3.836
 6881TIP3    H220589   5.642   6.294   3.886
 6882TIP3   OH220590   0.088   7.847   5.624
 6882TIP3    H120591   0.045   7.926   5.594
 6882TIP3    H220592   0.023   7.777   5.611
 6883TIP3   OH220593   6.363   6.839   2.145
 6883TIP3    H120594   6.418   6.831   2.068
 6883TIP3    H220595   6.287   6.783   2.126
 6884TIP3   OH220596   4.195   1.030   2.774
 6884TIP3    H120597   4.245   1.056   2.851
 6884TIP3    H220598   4.104   1.033   2.803
 6885TIP3   OH220599   2.888   2.851   0.844
 6885TIP3    H120600   2.863   2.903   0.768
 6885TIP3    H220601   2.912   2.916   0.910
 6886TIP3   OH220602   7.473   3.130   2.942
 6886TIP3    H120603   7.405   3.189   2.974
 6886TIP3    H220604   7.425   3.052   2.913
 6887TIP3   OH220605   1.393   1.957   0.440
 6887TIP3    H120606   1.318   1.913   0.480
 6887TIP3    H220607   1.354   2.031   0.393
 6888TIP3   OH220608   3.193   3.512   6.733
 6888TIP3    H120609   3.171   3.522   6.825
 6888TIP3    H220610   3.278   3.555   6.724
 6889TIP3   OH220611   6.324   3.807   6.200
 6889TIP3    H120612   6.325   3.894   6.240
 6889TIP3    H220613   6.251   3.810   6.137
 6890TIP3   OH220614   0.650   5.612   5.689
 6890TIP3    H120615   0.602   5.534   5.717
 6890TIP3    H220616   0.716   5.625   5.757
 6891TIP3   OH220617   1.636   2.169   5.545
 6891TIP3    H120618   1.607   2.162   5.454
 6891TIP3    H220619   1.604   2.088   5.586
 6892TIP3   OH220620   5.136   3.906   5.735
 6892TIP3    H120621   5.165   3.855   5.659
 6892TIP3    H220622   5.178   3.864   5.810
 6893TIP3   OH220623   2.145   6.539   1.676
 6893TIP3    H120624   2.073   6.599   1.658
 6893TIP3    H220625   2.198   6.541   1.596
 6894TIP3   OH220626   8.230   2.702   2.703
 6894TIP3    H120627   8.147   2.710   2.750
 6894TIP3    H220628   8.278   2.782   2.725
 6895TIP3   OH220629   0.749   5.513   2.862
 6895TIP3    H120630   0.686   5.579   2.889
 6895TIP3    H220631   0.699   5.431   2.860
 6896TIP3   OH220632   5.894   6.121   4.349
 6896TIP3    H120633   5.969   6.062   4.355
 6896TIP3    H220634   5.855   6.120   4.437
 6897TIP3   OH220635   0.207   0.691   0.974
 6897TIP3    H120636   0.233   0.768   1.024
 6897TIP3    H220637   0.146   0.724   0.909
 6898TIP3   OH220638   4.483   4.366   4.641
 6898TIP3    H120639   4.421   4.416   4.590
 6898TIP3    H220640   4.440   4.281   4.655
 6899TIP3   OH220641   2.090   5.594   0.987
 6899TIP3    H120642   2.104   5.569   0.896
 6899TIP3    H220643   2.040   5.676   0.982
 6900TIP3   OH220644   6.193   1.288   1.941
 6900TIP3    H120645   6.110   1.334   1.950
 6900TIP3    H220646   6.206   1.281   1.846
 6901TIP3   OH220647   1.551   4.900   4.480
 6901TIP3    H120648   1.543   4.871   4.389
 6901TIP3    H220649   1.462   4.925   4.505
 6902TIP3   OH220650   1.026   0.631   3.446
 6902TIP3    H120651   1.038   0.539   3.470
 6902TIP3    H220652   0.931   0.645   3.454
 6903TIP3   OH220653   6.829   3.107   5.982
 6903TIP3    H120654   6.790   3.020   5.989
 6903TIP3    H220655   6.850   3.132   6.073
 6904TIP3   OH220656   4.403   7.639   0.037
 6904TIP3    H120657   4.350   7.614   0.112
 6904TIP3    H220658   4.489   7.661   0.074
 6905TIP3   OH220659   2.927   6.371   1.686
 6905TIP3    H120660   3.002   6.312   1.675
 6905TIP3    H220661   2.888   6.343   1.769
 6906TIP3   OH220662   0.266   1.710   0.385
 6906TIP3    H120663   0.202   1.665   0.441
 6906TIP3    H220664   0.351   1.679   0.416
 6907TIP3   OH220665   4.116   0.295   3.592
 6907TIP3    H120666   4.165   0.332   3.520
 6907TIP3    H220667   4.062   0.226   3.552
 6908TIP3   OH220668   0.806   4.565   4.364
 6908TIP3    H120669   0.713   4.585   4.375
 6908TIP3    H220670   0.837   4.630   4.300
 6909TIP3   OH220671   4.307   0.588   6.299
 6909TIP3    H120672   4.248   0.641   6.245
 6909TIP3    H220673   4.287   0.498   6.275
 6910TIP3   OH220674   4.896   1.892   5.838
 6910TIP3    H120675   4.825   1.894   5.773
 6910TIP3    H220676   4.943   1.811   5.819
 6911TIP3   OH220677   7.220   5.112   1.710
 6911TIP3    H120678   7.249   5.074   1.627
 6911TIP3    H220679   7.127   5.091   1.715
 6912TIP3   OH220680   6.511   0.354   2.538
 6912TIP3    H120681   6.512   0.430   2.479
 6912TIP3    H220682   6.436   0.303   2.509
 6913TIP3   OH220683   8.114   3.338   5.274
 6913TIP3    H120684   8.199   3.381   5.266
 6913TIP3    H220685   8.130   3.264   5.332
 6914TIP3   OH220686   1.530   0.269   5.677
 6914TIP3    H120687   1.524   0.269   5.581
 6914TIP3    H220688   1.438   0.271   5.706
 6915TIP3   OH220689   1.120   3.722   5.986
 6915TIP3    H120690   1.063   3.662   5.938
 6915TIP3    H220691   1.207   3.710   5.946
 6916TIP3   OH220692   5.643   7.024   1.911
 6916TIP3    H120693   5.604   7.017   1.823
 6916TIP3    H220694   5.603   7.102   1.948
 6917TIP3   OH220695   0.884   0.222   2.679
 6917TIP3    H120696   0.938   0.287   2.726
 6917TIP3    H220697   0.948   0.164   2.637
 6918TIP3   OH220698   3.375   7.825   3.562
 6918TIP3    H120699   3.374   7.750   3.621
 6918TIP3    H220700   3.465   7.857   3.566
 6919TIP3   OH220701   2.235   5.897   1.021
 6919TIP3    H120702   2.231   5.985   1.057
 6919TIP3    H220703   2.304   5.900   0.955
 6920TIP3   OH220704   0.394   5.446   6.202
 6920TIP3    H120705   0.301   5.433   6.182
 6920TIP3    H220706   0.397   5.529   6.250
 6921TIP3   OH220707   2.459   6.243   3.205
 6921TIP3    H120708   2.500   6.289   3.131
 6921TIP3    H220709   2.517   6.169   3.221
 6922TIP3   OH220710   3.511   5.347   0.900
 6922TIP3    H120711   3.546   5.292   0.831
 6922TIP3    H220712   3.527   5.299   0.981
 6923TIP3   OH220713   2.473   5.040   3.103
 6923TIP3    H120714   2.539   5.043   3.033
 6923TIP3    H220715   2.508   4.977   3.166
 6924TIP3   OH220716   0.384   2.210   4.677
 6924TIP3    H120717   0.467   2.258   4.673
 6924TIP3    H220718   0.316   2.277   4.669
 6925TIP3   OH220719   0.581   1.212   1.519
 6925TIP3    H120720   0.574   1.143   1.453
 6925TIP3    H220721   0.569   1.293   1.470
 6926TIP3   OH220722   7.252   4.252   4.079
 6926TIP3    H120723   7.259   4.347   4.068
 6926TIP3    H220724   7.161   4.231   4.056
 6927TIP3   OH220725   4.311   1.982   0.312
 6927TIP3    H120726   4.216   1.967   0.310
 6927TIP3    H220727   4.344   1.928   0.240
 6928TIP3   OH220728   2.947   3.396   4.889
 6928TIP3    H120729   2.883   3.448   4.937
 6928TIP3    H220730   2.933   3.306   4.921
 6929TIP3   OH220731   4.549   4.200   3.225
 6929TIP3    H120732   4.499   4.154   3.158
 6929TIP3    H220733   4.492   4.271   3.254
 6930TIP3   OH220734   6.020   7.541   2.093
 6930TIP3    H120735   6.071   7.492   2.029
 6930TIP3    H220736   6.078   7.609   2.124
 6931TIP3   OH220737   0.144   6.587   5.759
 6931TIP3    H120738   0.053   6.598   5.732
 6931TIP3    H220739   0.176   6.676   5.775
 6932TIP3   OH220740   7.906   1.770   2.133
 6932TIP3    H120741   7.851   1.701   2.169
 6932TIP3    H220742   7.933   1.738   2.047
 6933TIP3   OH220743   7.231   7.174   0.123
 6933TIP3    H120744   7.257   7.197   0.034
 6933TIP3    H220745   7.314   7.171   0.172
 6934TIP3   OH220746   7.895   3.684   2.618
 6934TIP3    H120747   7.948   3.679   2.538
 6934TIP3    H220748   7.958   3.682   2.689
 6935TIP3   OH220749   1.841   5.724   1.232
 6935TIP3    H120750   1.924   5.761   1.263
 6935TIP3    H220751   1.835   5.751   1.140
 6936TIP3   OH220752   0.695   4.034   3.920
 6936TIP3    H120753   0.749   4.112   3.933
 6936TIP3    H220754   0.615   4.051   3.968
 6937TIP3   OH220755   2.898   5.467   5.229
 6937TIP3    H120756   2.945   5.384   5.243
 6937TIP3    H220757   2.942   5.508   5.155
 6938TIP3   OH220758   4.469   4.335   5.031
 6938TIP3    H120759   4.424   4.387   4.965
 6938TIP3    H220760   4.493   4.254   4.986
 6939TIP3   OH220761   0.508   4.918   1.106
 6939TIP3    H120762   0.582   4.880   1.153
 6939TIP3    H220763   0.449   4.844   1.091
 6940TIP3   OH220764   0.713   6.988   4.488
 6940TIP3    H120765   0.636   7.045   4.484
 6940TIP3    H220766   0.703   6.940   4.571
 6941TIP3   OH220767   3.767   5.995   5.160
 6941TIP3    H120768   3.692   6.054   5.170
 6941TIP3    H220769   3.729   5.913   5.128
 6942TIP3   OH220770   2.745   2.218   5.661
 6942TIP3    H120771   2.726   2.197   5.570
 6942TIP3    H220772   2.839   2.206   5.670
 6943TIP3   OH220773   2.456   5.915   6.223
 6943TIP3    H120774   2.411   5.950   6.146
 6943TIP3    H220775   2.390   5.863   6.268
 6944TIP3   OH220776   7.630   4.998   3.132
 6944TIP3    H120777   7.596   5.085   3.152
 6944TIP3    H220778   7.591   4.975   3.048
 6945TIP3   OH220779   0.194   4.495   4.670
 6945TIP3    H120780   0.221   4.567   4.613
 6945TIP3    H220781   0.099   4.491   4.659
 6946TIP3   OH220782   4.851   4.891   3.340
 6946TIP3    H120783   4.915   4.840   3.389
 6946TIP3    H220784   4.779   4.906   3.401
 6947TIP3   OH220785   2.672   5.355   3.652
 6947TIP3    H120786   2.675   5.311   3.736
 6947TIP3    H220787   2.626   5.438   3.670
 6948TIP3   OH220788   7.186   3.789   5.787
 6948TIP3    H120789   7.256   3.845   5.755
 6948TIP3    H220790   7.171   3.726   5.716
 6949TIP3   OH220791   4.190   1.620   1.735
 6949TIP3    H120792   4.146   1.584   1.658
 6949TIP3    H220793   4.149   1.706   1.748
 6950TIP3   OH220794   2.134   1.736   6.179
 6950TIP3    H120795   2.213   1.789   6.192
 6950TIP3    H220796   2.087   1.740   6.262
 6951TIP3   OH220797   4.332   0.782   2.797
 6951TIP3    H120798   4.286   0.865   2.789
 6951TIP3    H220799   4.389   0.793   2.874
 6952TIP3   OH220800   6.650   4.676   4.073
 6952TIP3    H120801   6.607   4.738   4.015
 6952TIP3    H220802   6.716   4.634   4.017
 6953TIP3   OH220803   0.330   5.542   3.253
 6953TIP3    H120804   0.401   5.562   3.314
 6953TIP3    H220805   0.324   5.620   3.198
 6954TIP3   OH220806   3.542   6.021   1.460
 6954TIP3    H120807   3.622   5.979   1.429
 6954TIP3    H220808   3.471   5.961   1.437
 6955TIP3   OH220809   7.764   1.914   4.709
 6955TIP3    H120810   7.687   1.862   4.731
 6955TIP3    H220811   7.820   1.909   4.786
 6956TIP3   OH220812   5.528   2.803   0.958
 6956TIP3    H120813   5.584   2.795   0.881
 6956TIP3    H220814   5.561   2.736   1.018
 6957TIP3   OH220815   6.615   4.231   1.592
 6957TIP3    H120816   6.676   4.213   1.520
 6957TIP3    H220817   6.569   4.148   1.606
 6958TIP3   OH220818   2.008   0.417   1.378
 6958TIP3    H120819   1.919   0.430   1.346
 6958TIP3    H220820   2.009   0.460   1.464
 6959TIP3   OH220821   5.063   4.356   5.471
 6959TIP3    H120822   5.133   4.328   5.530
 6959TIP3    H220823   5.093   4.328   5.385
 6960TIP3   OH220824   0.143   3.605   1.584
 6960TIP3    H120825   0.124   3.597   1.677
 6960TIP3    H220826   0.091   3.535   1.543
 6961TIP3   OH220827   2.218   5.233   5.062
 6961TIP3    H120828   2.252   5.274   4.983
 6961TIP3    H220829   2.149   5.174   5.032
 6962TIP3   OH220830   5.563   0.474   5.379
 6962TIP3    H120831   5.539   0.390   5.418
 6962TIP3    H220832   5.592   0.527   5.453
 6963TIP3   OH220833   4.238   2.638   2.491
 6963TIP3    H120834   4.188   2.640   2.409
 6963TIP3    H220835   4.322   2.676   2.469
 6964TIP3   OH220836   8.214   6.581   1.416
 6964TIP3    H120837   8.255   6.498   1.392
 6964TIP3    H220838   8.251   6.602   1.502
 6965TIP3   OH220839   2.222   5.621   4.344
 6965TIP3    H120840   2.237   5.596   4.253
 6965TIP3    H220841   2.294   5.681   4.364
 6966TIP3   OH220842   5.274   4.284   5.632
 6966TIP3    H120843   5.332   4.354   5.663
 6966TIP3    H220844   5.230   4.253   5.711
 6967TIP3   OH220845   0.844   4.285   3.928
 6967TIP3    H120846   0.833   4.327   4.013
 6967TIP3    H220847   0.847   4.358   3.866
 6968TIP3   OH220848   5.085   6.761   5.298
 6968TIP3    H120849   5.158   6.699   5.305
 6968TIP3    H220850   5.077   6.799   5.386
 6969TIP3   OH220851   0.674   1.554   2.212
 6969TIP3    H120852   0.596   1.508   2.179
 6969TIP3    H220853   0.736   1.552   2.140
 6970TIP3   OH220854   5.534   4.272   4.497
 6970TIP3    H120855   5.511   4.359   4.530
 6970TIP3    H220856   5.629   4.276   4.484
 6971TIP3   OH220857   8.226   4.974   4.763
 6971TIP3    H120858   8.136   4.942   4.757
 6971TIP3    H220859   8.235   5.035   4.690
 6972TIP3   OH220860   6.749   1.757   6.731
 6972TIP3    H120861   6.685   1.827   6.745
 6972TIP3    H220862   6.757   1.750   6.636
 6973TIP3   OH220863   1.893   0.908   1.298
 6973TIP3    H120864   1.891   1.002   1.316
 6973TIP3    H220865   1.884   0.866   1.383
 6974TIP3   OH220866   6.938   4.845   2.635
 6974TIP3    H120867   6.883   4.821   2.560
 6974TIP3    H220868   6.895   4.922   2.672
 6975TIP3   OH220869   7.945   0.477   1.395
 6975TIP3    H120870   8.026   0.528   1.401
 6975TIP3    H220871   7.949   0.436   1.308
 6976TIP3   OH220872   6.487   7.325   2.943
 6976TIP3    H120873   6.531   7.410   2.943
 6976TIP3    H220874   6.505   7.289   3.030
 6977TIP3   OH220875   7.818   1.473   5.069
 6977TIP3    H120876   7.886   1.491   5.004
 6977TIP3    H220877   7.739   1.460   5.018
 6978TIP3   OH220878   5.842   6.281   0.911
 6978TIP3    H120879   5.918   6.281   0.970
 6978TIP3    H220880   5.824   6.188   0.894
 6979TIP3   OH220881   4.982   0.710   1.948
 6979TIP3    H120882   4.904   0.766   1.943
 6979TIP3    H220883   5.052   0.769   1.975
 6980TIP3   OH220884   1.892   4.071   5.405
 6980TIP3    H120885   1.803   4.090   5.375
 6980TIP3    H220886   1.936   4.036   5.327
 6981TIP3   OH220887   6.937   4.350   0.288
 6981TIP3    H120888   6.872   4.360   0.358
 6981TIP3    H220889   6.885   4.353   0.207
 6982TIP3   OH220890   4.389   2.679   2.174
 6982TIP3    H120891   4.329   2.748   2.202
 6982TIP3    H220892   4.351   2.598   2.208
 6983TIP3   OH220893   0.766   2.451   1.043
 6983TIP3    H120894   0.689   2.500   1.014
 6983TIP3    H220895   0.837   2.515   1.039
 6984TIP3   OH220896   5.980   3.188   4.572
 6984TIP3    H120897   6.023   3.108   4.601
 6984TIP3    H220898   5.947   3.168   4.485
 6985TIP3   OH220899   3.772   7.575   4.895
 6985TIP3    H120900   3.714   7.636   4.940
 6985TIP3    H220901   3.730   7.561   4.810
 6986TIP3   OH220902   0.056   1.733   6.459
 6986TIP3    H120903   0.145   1.750   6.489
 6986TIP3    H220904   0.012   1.692   6.534
 6987TIP3   OH220905   3.764   4.649   5.667
 6987TIP3    H120906   3.771   4.607   5.753
 6987TIP3    H220907   3.670   4.665   5.656
 6988TIP3   OH220908   4.384   1.591   1.904
 6988TIP3    H120909   4.327   1.602   1.828
 6988TIP3    H220910   4.331   1.543   1.967
 6989TIP3   OH220911   0.295   3.074   6.044
 6989TIP3    H120912   0.200   3.060   6.051
 6989TIP3    H220913   0.331   3.031   6.122
 6990TIP3   OH220914   7.842   4.000   2.820
 6990TIP3    H120915   7.821   4.022   2.911
 6990TIP3    H220916   7.920   3.945   2.826
 6991TIP3   OH220917   4.907   4.553   4.247
 6991TIP3    H120918   4.857   4.622   4.291
 6991TIP3    H220919   4.843   4.508   4.192
 6992TIP3   OH220920   3.103   7.854   0.175
 6992TIP3    H120921   3.156   7.833   0.099
 6992TIP3    H220922   3.068   7.770   0.204
 6993TIP3   OH220923   2.431   2.112   3.228
 6993TIP3    H120924   2.432   2.049   3.300
 6993TIP3    H220925   2.462   2.194   3.268
 6994TIP3   OH220926   4.056   5.629   4.045
 6994TIP3    H120927   4.003   5.708   4.035
 6994TIP3    H220928   4.142   5.654   4.012
 6995TIP3   OH220929   2.847   6.717   3.518
 6995TIP3    H120930   2.843   6.810   3.537
 6995TIP3    H220931   2.889   6.678   3.595
 6996TIP3   OH220932   4.944   7.705   5.226
 6996TIP3    H120933   4.858   7.672   5.198
 6996TIP3    H220934   4.956   7.785   5.175
 6997TIP3   OH220935  -0.021   5.875   4.295
 6997TIP3    H120936  -0.015   5.851   4.203
 6997TIP3    H220937   0.056   5.836   4.335
 6998TIP3   OH220938   3.857   1.287   4.077
 6998TIP3    H120939   3.793   1.217   4.082
 6998TIP3    H220940   3.890   1.296   4.166
 6999TIP3   OH220941   1.450   0.952   0.959
 6999TIP3    H120942   1.438   0.896   1.036
 6999TIP3    H220943   1.495   0.896   0.895
 7000TIP3   OH220944   3.965   5.670   5.495
 7000TIP3    H120945   3.898   5.738   5.490
 7000TIP3    H220946   3.923   5.599   5.543
 7001TIP3   OH220947   3.931   3.201   3.373
 7001TIP3    H120948   3.854   3.256   3.359
 7001TIP3    H220949   3.906   3.143   3.445
 7002TIP3   OH220950   1.434   2.270   6.007
 7002TIP3    H120951   1.459   2.319   5.928
 7002TIP3    H220952   1.375   2.202   5.975
 7003TIP3   OH220953   3.405   3.965   3.045
 7003TIP3    H120954   3.487   3.985   3.001
 7003TIP3    H220955   3.416   3.875   3.077
 7004TIP3   OH220956   6.398   0.405   0.882
 7004TIP3    H120957   6.333   0.466   0.919
 7004TIP3    H220958   6.458   0.462   0.833
 7005TIP3   OH220959   7.622   6.309   2.876
 7005TIP3    H120960   7.666   6.227   2.900
 7005TIP3    H220961   7.539   6.306   2.923
 7006TIP3   OH220962   3.911   2.949   5.742
 7006TIP3    H120963   3.937   3.001   5.665
 7006TIP3    H220964   3.826   2.984   5.767
 7007TIP3   OH220965   4.012   2.864   1.264
 7007TIP3    H120966   3.999   2.769   1.266
 7007TIP3    H220967   4.107   2.876   1.269
 7008TIP3   OH220968   5.305   5.725   1.729
 7008TIP3    H120969   5.275   5.768   1.650
 7008TIP3    H220970   5.370   5.785   1.766
 7009TIP3   OH220971   1.479   6.826   3.800
 7009TIP3    H120972   1.386   6.849   3.806
 7009TIP3    H220973   1.515   6.851   3.885
 7010TIP3   OH220974   7.518   6.278   5.313
 7010TIP3    H120975   7.454   6.210   5.333
 7010TIP3    H220976   7.600   6.230   5.296
 7011TIP3   OH220977   4.732   7.504   3.529
 7011TIP3    H120978   4.672   7.467   3.593
 7011TIP3    H220979   4.775   7.577   3.575
 7012TIP3   OH220980   1.963   4.130   2.829
 7012TIP3    H120981   1.968   4.196   2.898
 7012TIP3    H220982   2.004   4.171   2.753
 7013TIP3   OH220983   6.999   5.018   6.288
 7013TIP3    H120984   7.088   4.990   6.310
 7013TIP3    H220985   6.985   5.098   6.338
 7014TIP3   OH220986   2.253   2.537   6.657
 7014TIP3    H120987   2.161   2.547   6.629
 7014TIP3    H220988   2.273   2.445   6.641
 7015TIP3   OH220989   1.305   7.802   3.868
 7015TIP3    H120990   1.320   7.886   3.910
 7015TIP3    H220991   1.267   7.824   3.783
 7016TIP3   OH220992   8.150   0.277   3.076
 7016TIP3    H120993   8.242   0.261   3.096
 7016TIP3    H220994   8.120   0.195   3.036
 7017TIP3   OH220995   6.741   7.778   0.600
 7017TIP3    H120996   6.741   7.772   0.504
 7017TIP3    H220997   6.807   7.715   0.628
 7018TIP3   OH220998   7.609   1.209   3.074
 7018TIP3    H120999   7.554   1.194   2.997
 7018TIP3    H221000   7.600   1.302   3.093
 7019TIP3   OH221001   5.764   5.883   3.239
 7019TIP3    H121002   5.710   5.962   3.239
 7019TIP3    H221003   5.810   5.884   3.323
 7020TIP3   OH221004   0.868   4.627   2.921
 7020TIP3    H121005   0.791   4.580   2.888
 7020TIP3    H221006   0.858   4.626   3.016
 7021TIP3   OH221007   5.061   3.259   3.574
 7021TIP3    H121008   5.123   3.329   3.594
 7021TIP3    H221009   5.078   3.192   3.639
 7022TIP3   OH221010   1.553   5.263   2.946
 7022TIP3    H121011   1.619   5.331   2.934
 7022TIP3    H221012   1.571   5.199   2.877
 7023TIP3   OH221013   4.173   1.256   6.029
 7023TIP3    H121014   4.188   1.238   6.122
 7023TIP3    H221015   4.213   1.341   6.014
 7024TIP3   OH221016   0.320   1.087   4.584
 7024TIP3    H121017   0.307   1.136   4.503
 7024TIP3    H221018   0.238   1.040   4.597
 7025TIP3   OH221019   1.392   5.457   3.767
 7025TIP3    H121020   1.433   5.381   3.726
 7025TIP3    H221021   1.301   5.454   3.739
 7026TIP3   OH221022   2.821   3.224   2.742
 7026TIP3    H121023   2.740   3.251   2.698
 7026TIP3    H221024   2.826   3.281   2.819
 7027TIP3   OH221025   7.872   5.830   1.561
 7027TIP3    H121026   7.831   5.849   1.476
 7027TIP3    H221027   7.905   5.914   1.592
 7028TIP3   OH221028   3.542   1.510   2.262
 7028TIP3    H121029   3.583   1.456   2.330
 7028TIP3    H221030   3.568   1.470   2.180
 7029TIP3   OH221031   0.040   3.460   0.462
 7029TIP3    H121032   0.028   3.546   0.422
 7029TIP3    H221033   0.053   3.478   0.555
 7030TIP3   OH221034   7.552   6.737   0.476
 7030TIP3    H121035   7.507   6.653   0.469
 7030TIP3    H221036   7.526   6.771   0.561
 7031TIP3   OH221037   4.930   3.986   3.253
 7031TIP3    H121038   4.951   3.912   3.196
 7031TIP3    H221039   4.869   3.951   3.317
 7032TIP3   OH221040   7.801   6.200   4.890
 7032TIP3    H121041   7.853   6.122   4.874
 7032TIP3    H221042   7.794   6.242   4.805
 7033TIP3   OH221043   0.940   3.461   4.944
 7033TIP3    H121044   0.993   3.521   4.892
 7033TIP3    H221045   0.859   3.450   4.894
 7034TIP3   OH221046   2.395   4.827   4.471
 7034TIP3    H121047   2.344   4.869   4.402
 7034TIP3    H221048   2.417   4.740   4.436
 7035TIP3   OH221049   3.908   2.413   2.707
 7035TIP3    H121050   3.890   2.341   2.768
 7035TIP3    H221051   3.943   2.483   2.762
 7036TIP3   OH221052   2.711   1.188   2.831
 7036TIP3    H121053   2.788   1.221   2.785
 7036TIP3    H221054   2.740   1.178   2.921
 7037TIP3   OH221055   0.633   5.597   6.036
 7037TIP3    H121056   0.568   5.535   6.001
 7037TIP3    H221057   0.611   5.681   5.996
 7038TIP3   OH221058   5.331   1.587   2.819
 7038TIP3    H121059   5.252   1.534   2.813
 7038TIP3    H221060   5.394   1.543   2.763
 7039TIP3   OH221061   4.942   7.284   5.549
 7039TIP3    H121062   4.934   7.191   5.527
 7039TIP3    H221063   5.035   7.297   5.562
 7040TIP3   OH221064   3.321   3.765   1.300
 7040TIP3    H121065   3.350   3.736   1.213
 7040TIP3    H221066   3.370   3.710   1.361
 7041TIP3   OH221067   6.183   0.503   2.038
 7041TIP3    H121068   6.114   0.525   2.101
 7041TIP3    H221069   6.151   0.537   1.955
 7042TIP3   OH221070   6.278   1.599   1.718
 7042TIP3    H121071   6.296   1.526   1.659
 7042TIP3    H221072   6.325   1.673   1.680
 7043TIP3   OH221073   0.187   5.307   3.253
 7043TIP3    H121074   0.205   5.290   3.345
 7043TIP3    H221075   0.258   5.366   3.226
 7044TIP3   OH221076   2.888   7.596   1.374
 7044TIP3    H121077   2.853   7.678   1.408
 7044TIP3    H221078   2.921   7.619   1.287
 7045TIP3   OH221079   5.095   4.994   0.848
 7045TIP3    H121080   5.186   4.994   0.819
 7045TIP3    H221081   5.095   4.943   0.929
 7046TIP3   OH221082   4.844   0.076   3.655
 7046TIP3    H121083   4.935   0.075   3.682
 7046TIP3    H221084   4.842   0.019   3.577
 7047TIP3   OH221085   5.968   1.915   0.904
 7047TIP3    H121086   6.059   1.922   0.875
 7047TIP3    H221087   5.973   1.891   0.996
 7048TIP3   OH221088   0.676   0.101   4.487
 7048TIP3    H121089   0.717   0.116   4.401
 7048TIP3    H221090   0.698   0.179   4.537
 7049TIP3   OH221091   6.194   0.577   0.954
 7049TIP3    H121092   6.194   0.673   0.955
 7049TIP3    H221093   6.111   0.553   0.995
 7050TIP3   OH221094   6.044   6.935   4.578
 7050TIP3    H121095   6.078   6.918   4.666
 7050TIP3    H221096   6.048   6.851   4.533
 7051TIP3   OH221097   6.525   2.513   3.322
 7051TIP3    H121098   6.509   2.556   3.238
 7051TIP3    H221099   6.483   2.570   3.387
 7052TIP3   OH221100   6.785   2.225   4.409
 7052TIP3    H121101   6.821   2.137   4.397
 7052TIP3    H221102   6.807   2.272   4.329
 7053TIP3   OH221103   4.280   0.369   3.059
 7053TIP3    H121104   4.306   0.457   3.031
 7053TIP3    H221105   4.189   0.361   3.031
 7054TIP3   OH221106   4.613   3.283   5.286
 7054TIP3    H121107   4.571   3.245   5.363
 7054TIP3    H221108   4.544   3.286   5.219
 7055TIP3   OH221109   0.449   4.167   6.271
 7055TIP3    H121110   0.452   4.109   6.195
 7055TIP3    H221111   0.360   4.157   6.305
 7056TIP3   OH221112   2.211   0.910   4.195
 7056TIP3    H121113   2.197   0.900   4.289
 7056TIP3    H221114   2.263   0.833   4.171
 7057TIP3   OH221115   1.306   2.441   2.168
 7057TIP3    H121116   1.379   2.501   2.184
 7057TIP3    H221117   1.310   2.378   2.240
 7058TIP3   OH221118   4.909   0.326   4.556
 7058TIP3    H121119   4.870   0.412   4.538
 7058TIP3    H221120   4.860   0.265   4.500
 7059TIP3   OH221121   6.832   5.218   2.186
 7059TIP3    H121122   6.791   5.136   2.212
 7059TIP3    H221123   6.919   5.193   2.154
 7060TIP3   OH221124   2.422   5.597   3.623
 7060TIP3    H121125   2.435   5.691   3.609
 7060TIP3    H221126   2.471   5.555   3.552
 7061TIP3   OH221127   4.532   7.562   1.064
 7061TIP3    H121128   4.472   7.491   1.041
 7061TIP3    H221129   4.572   7.534   1.146
 7062TIP3   OH221130   4.805   4.170   6.378
 7062TIP3    H121131   4.845   4.214   6.453
 7062TIP3    H221132   4.711   4.166   6.400
 7063TIP3   OH221133   0.254   7.111   5.247
 7063TIP3    H121134   0.300   7.181   5.294
 7063TIP3    H221135   0.324   7.058   5.210
 7064TIP3   OH221136   2.887   6.722   4.602
 7064TIP3    H121137   2.821   6.654   4.586
 7064TIP3    H221138   2.891   6.770   4.519
 7065TIP3   OH221139   1.783   5.432   2.616
 7065TIP3    H121140   1.771   5.456   2.708
 7065TIP3    H221141   1.877   5.433   2.603
 7066TIP3   OH221142   2.374   1.814   6.307
 7066TIP3    H121143   2.356   1.722   6.327
 7066TIP3    H221144   2.466   1.815   6.277
 7067TIP3   OH221145   2.455   2.536   6.458
 7067TIP3    H121146   2.403   2.547   6.537
 7067TIP3    H221147   2.500   2.619   6.447
 7068TIP3   OH221148   7.863   1.252   0.932
 7068TIP3    H121149   7.809   1.174   0.936
 7068TIP3    H221150   7.815   1.312   0.875
 7069TIP3   OH221151   2.979   1.171   3.292
 7069TIP3    H121152   3.031   1.092   3.282
 7069TIP3    H221153   2.948   1.168   3.382
 7070TIP3   OH221154   1.617   5.420   1.775
 7070TIP3    H121155   1.640   5.500   1.823
 7070TIP3    H221156   1.522   5.413   1.784
 7071TIP3   OH221157   7.234   5.031   2.885
 7071TIP3    H121158   7.252   5.014   2.793
 7071TIP3    H221159   7.223   4.944   2.923
 7072TIP3   OH221160   0.655   6.551   1.006
 7072TIP3    H121161   0.662   6.511   0.919
 7072TIP3    H221162   0.714   6.626   1.002
 7073TIP3   OH221163   7.390   3.157   0.375
 7073TIP3    H121164   7.433   3.242   0.361
 7073TIP3    H221165   7.436   3.097   0.317
 7074TIP3   OH221166   5.550   6.313   1.505
 7074TIP3    H121167   5.540   6.341   1.596
 7074TIP3    H221168   5.626   6.254   1.506
 7075TIP3   OH221169   0.079   4.329   1.429
 7075TIP3    H121170   0.058   4.260   1.492
 7075TIP3    H221171   0.175   4.333   1.430
 7076TIP3   OH221172   2.501   7.119   1.449
 7076TIP3    H121173   2.513   7.208   1.482
 7076TIP3    H221174   2.523   7.062   1.523
 7077TIP3   OH221175   3.429   4.602   3.203
 7077TIP3    H121176   3.465   4.633   3.120
 7077TIP3    H221177   3.504   4.600   3.262
 7078TIP3   OH221178   1.771   5.244   1.623
 7078TIP3    H121179   1.710   5.170   1.627
 7078TIP3    H221180   1.735   5.308   1.684
 7079TIP3   OH221181   6.217   2.085   2.387
 7079TIP3    H121182   6.259   2.154   2.336
 7079TIP3    H221183   6.123   2.107   2.384
 7080TIP3   OH221184   7.651   5.552   0.208
 7080TIP3    H121185   7.619   5.499   0.281
 7080TIP3    H221186   7.678   5.488   0.142
 7081TIP3   OH221187   7.242   6.334   6.757
 7081TIP3    H121188   7.226   6.378   6.674
 7081TIP3    H221189   7.334   6.351   6.777
 7082TIP3   OH221190   1.371   1.340   4.692
 7082TIP3    H121191   1.400   1.395   4.620
 7082TIP3    H221192   1.450   1.293   4.720
 7083TIP3   OH221193   4.034   3.626   3.291
 7083TIP3    H121194   4.081   3.707   3.307
 7083TIP3    H221195   4.100   3.567   3.253
 7084TIP3   OH221196   0.317   0.682   4.606
 7084TIP3    H121197   0.392   0.708   4.659
 7084TIP3    H221198   0.246   0.670   4.669
 7085TIP3   OH221199   7.955   5.295   0.564
 7085TIP3    H121200   7.951   5.367   0.627
 7085TIP3    H221201   7.995   5.334   0.486
 7086TIP3   OH221202   2.597   5.236   6.048
 7086TIP3    H121203   2.600   5.330   6.030
 7086TIP3    H221204   2.678   5.202   6.009
 7087TIP3   OH221205   8.204   1.686   4.679
 7087TIP3    H121206   8.300   1.686   4.687
 7087TIP3    H221207   8.187   1.714   4.589
 7088TIP3   OH221208   5.649   4.383   1.431
 7088TIP3    H121209   5.593   4.305   1.422
 7088TIP3    H221210   5.672   4.385   1.524
 7089TIP3   OH221211   7.648   4.934   0.320
 7089TIP3    H121212   7.565   4.969   0.288
 7089TIP3    H221213   7.698   5.011   0.349
 7090TIP3   OH221214  -0.028   4.218   4.172
 7090TIP3    H121215  -0.012   4.306   4.207
 7090TIP3    H221216   0.047   4.166   4.202
 7091TIP3   OH221217   2.271   3.607   0.541
 7091TIP3    H121218   2.325   3.530   0.555
 7091TIP3    H221219   2.193   3.592   0.595
 7092TIP3   OH221220   6.704   4.651   0.343
 7092TIP3    H121221   6.784   4.645   0.290
 7092TIP3    H221222   6.634   4.663   0.279
 7093TIP3   OH221223   3.368   3.046   5.460
 7093TIP3    H121224   3.342   3.017   5.373
 7093TIP3    H221225   3.387   2.966   5.508
 7094TIP3   OH221226   0.348   2.940   5.099
 7094TIP3    H121227   0.378   3.026   5.070
 7094TIP3    H221228   0.396   2.924   5.180
 7095TIP3   OH221229   2.615   5.303   5.742
 7095TIP3    H121230   2.694   5.337   5.700
 7095TIP3    H221231   2.580   5.378   5.791
 7096TIP3   OH221232   8.049   0.814   1.656
 7096TIP3    H121233   8.115   0.745   1.665
 7096TIP3    H221234   7.968   0.767   1.634
 7097TIP3   OH221235   1.894   1.829   1.579
 7097TIP3    H121236   1.849   1.831   1.494
 7097TIP3    H221237   1.907   1.921   1.601
 7098TIP3   OH221238   0.774   3.675   6.028
 7098TIP3    H121239   0.764   3.641   6.117
 7098TIP3    H221240   0.782   3.770   6.039
 7099TIP3   OH221241   0.799   3.322   3.562
 7099TIP3    H121242   0.732   3.360   3.619
 7099TIP3    H221243   0.851   3.266   3.621
 7100TIP3   OH221244   8.228   4.623   3.360
 7100TIP3    H121245   8.259   4.686   3.295
 7100TIP3    H221246   8.147   4.588   3.323
 7101TIP3   OH221247   1.004   3.578   2.698
 7101TIP3    H121248   1.006   3.488   2.667
 7101TIP3    H221249   1.073   3.622   2.648
 7102TIP3   OH221250   5.237   2.269   6.682
 7102TIP3    H121251   5.162   2.328   6.679
 7102TIP3    H221252   5.221   2.206   6.611
 7103TIP3   OH221253   5.933   1.460   4.784
 7103TIP3    H121254   5.934   1.475   4.879
 7103TIP3    H221255   5.857   1.404   4.769
 7104TIP3   OH221256   3.409   3.687   6.170
 7104TIP3    H121257   3.438   3.615   6.113
 7104TIP3    H221258   3.397   3.761   6.110
 7105TIP3   OH221259   0.393   7.712   2.874
 7105TIP3    H121260   0.350   7.786   2.917
 7105TIP3    H221261   0.367   7.720   2.782
 7106TIP3   OH221262   2.635   1.065   1.333
 7106TIP3    H121263   2.635   1.008   1.256
 7106TIP3    H221264   2.643   1.153   1.296
 7107TIP3   OH221265   3.899   2.248   5.798
 7107TIP3    H121266   3.892   2.241   5.894
 7107TIP3    H221267   3.973   2.192   5.776
 7108TIP3   OH221268   7.059   1.442   1.610
 7108TIP3    H121269   7.117   1.443   1.534
 7108TIP3    H221270   7.102   1.500   1.673
 7109TIP3   OH221271   1.116   2.894   0.964
 7109TIP3    H121272   1.188   2.948   0.997
 7109TIP3    H221273   1.156   2.841   0.895
 7110TIP3   OH221274   4.954   0.908   5.918
 7110TIP3    H121275   4.946   0.979   5.854
 7110TIP3    H221276   5.049   0.896   5.929
 7111TIP3   OH221277   0.539   2.759   3.967
 7111TIP3    H121278   0.453   2.734   4.001
 7111TIP3    H221279   0.527   2.764   3.873
 7112TIP3   OH221280   7.502   5.996   2.506
 7112TIP3    H121281   7.449   6.056   2.559
 7112TIP3    H221282   7.446   5.919   2.495
 7113TIP3   OH221283   1.693   1.568   3.355
 7113TIP3    H121284   1.700   1.507   3.282
 7113TIP3    H221285   1.686   1.655   3.315
 7114TIP3   OH221286   7.611   5.649   3.412
 7114TIP3    H121287   7.638   5.729   3.456
 7114TIP3    H221288   7.679   5.585   3.433
 7115TIP3   OH221289   1.805   0.239   4.282
 7115TIP3    H121290   1.831   0.201   4.198
 7115TIP3    H221291   1.830   0.174   4.347
 7116TIP3   OH221292   6.747   1.162   4.424
 7116TIP3    H121293   6.738   1.071   4.395
 7116TIP3    H221294   6.794   1.156   4.507
 7117TIP3   OH221295   2.950   6.781   2.321
 7117TIP3    H121296   2.969   6.844   2.251
 7117TIP3    H221297   3.018   6.714   2.312
 7118TIP3   OH221298   7.969   7.739   1.501
 7118TIP3    H121299   8.055   7.721   1.539
 7118TIP3    H221300   7.976   7.705   1.411
 7119TIP3   OH221301   4.345   3.708   6.200
 7119TIP3    H121302   4.323   3.622   6.236
 7119TIP3    H221303   4.281   3.721   6.129
 7120TIP3   OH221304   7.096   5.359   4.938
 7120TIP3    H121305   7.151   5.389   4.865
 7120TIP3    H221306   7.154   5.363   5.014
 7121TIP3   OH221307   6.049   5.931   6.657
 7121TIP3    H121308   6.008   5.861   6.608
 7121TIP3    H221309   5.976   5.986   6.686
 7122TIP3   OH221310   3.814   3.640   1.777
 7122TIP3    H121311   3.842   3.617   1.689
 7122TIP3    H221312   3.744   3.577   1.797
 7123TIP3   OH221313   4.762   4.500   6.555
 7123TIP3    H121314   4.788   4.588   6.580
 7123TIP3    H221315   4.822   4.443   6.604
 7124TIP3   OH221316   0.420   5.486   0.925
 7124TIP3    H121317   0.371   5.477   1.008
 7124TIP3    H221318   0.512   5.481   0.951
 7125TIP3   OH221319   0.702   6.474   1.991
 7125TIP3    H121320   0.784   6.477   1.943
 7125TIP3    H221321   0.690   6.382   2.013
 7126TIP3   OH221322   3.489   4.885   3.442
 7126TIP3    H121323   3.576   4.845   3.438
 7126TIP3    H221324   3.435   4.819   3.486
 7127TIP3   OH221325   4.595   3.537   3.972
 7127TIP3    H121326   4.593   3.468   3.905
 7127TIP3    H221327   4.600   3.489   4.055
 7128TIP3   OH221328   2.091   5.589   2.614
 7128TIP3    H121329   2.181   5.621   2.616
 7128TIP3    H221330   2.067   5.580   2.706
 7129TIP3   OH221331   3.505   3.106   2.212
 7129TIP3    H121332   3.410   3.102   2.226
 7129TIP3    H221333   3.523   3.199   2.198
 7130TIP3   OH221334   1.544   4.518   3.484
 7130TIP3    H121335   1.638   4.517   3.500
 7130TIP3    H221336   1.505   4.507   3.571
 7131TIP3   OH221337   3.263   2.404   1.981
 7131TIP3    H121338   3.325   2.476   1.967
 7131TIP3    H221339   3.318   2.330   2.007
 7132TIP3   OH221340   3.882   0.935   0.226
 7132TIP3    H121341   3.856   0.862   0.170
 7132TIP3    H221342   3.924   0.997   0.167
 7133TIP3   OH221343   3.488   4.303   1.711
 7133TIP3    H121344   3.508   4.285   1.619
 7133TIP3    H221345   3.498   4.397   1.720
 7134TIP3   OH221346   4.919   0.773   5.663
 7134TIP3    H121347   5.012   0.790   5.679
 7134TIP3    H221348   4.912   0.678   5.661
 7135TIP3   OH221349   7.283   0.625   1.580
 7135TIP3    H121350   7.247   0.579   1.656
 7135TIP3    H221351   7.213   0.620   1.514
 7136TIP3   OH221352   6.218   2.827   1.767
 7136TIP3    H121353   6.171   2.854   1.688
 7136TIP3    H221354   6.311   2.828   1.741
 7137TIP3   OH221355   1.286   1.713   2.634
 7137TIP3    H121356   1.301   1.746   2.723
 7137TIP3    H221357   1.274   1.792   2.581
 7138TIP3   OH221358   7.376   3.608   4.459
 7138TIP3    H121359   7.410   3.599   4.369
 7138TIP3    H221360   7.334   3.525   4.477
 7139TIP3   OH221361   7.718   2.116   6.184
 7139TIP3    H121362   7.642   2.172   6.166
 7139TIP3    H221363   7.705   2.040   6.128
 7140TIP3   OH221364   6.563   0.407   0.048
 7140TIP3    H121365   6.584   0.335  -0.012
 7140TIP3    H221366   6.488   0.450   0.008
 7141TIP3   OH221367   6.251   4.780   2.757
 7141TIP3    H121368   6.315   4.844   2.725
 7141TIP3    H221369   6.304   4.712   2.799
 7142TIP3   OH221370   0.028   2.107   3.107
 7142TIP3    H121371  -0.063   2.117   3.077
 7142TIP3    H221372   0.062   2.035   3.054
 7143TIP3   OH221373   7.326   2.270   5.641
 7143TIP3    H121374   7.379   2.193   5.662
 7143TIP3    H221375   7.382   2.345   5.661
 7144TIP3   OH221376   4.710   4.489   2.994
 7144TIP3    H121377   4.644   4.518   3.058
 7144TIP3    H221378   4.779   4.449   3.047
 7145TIP3   OH221379   2.460   3.020   1.450
 7145TIP3    H121380   2.378   2.991   1.491
 7145TIP3    H221381   2.501   2.939   1.419
 7146TIP3   OH221382   1.984   3.720   3.730
 7146TIP3    H121383   1.890   3.728   3.740
 7146TIP3    H221384   2.020   3.758   3.810
 7147TIP3   OH221385   7.497   4.936   3.831
 7147TIP3    H121386   7.428   4.913   3.768
 7147TIP3    H221387   7.465   4.902   3.915
 7148TIP3   OH221388   3.985   7.477   6.797
 7148TIP3    H121389   3.998   7.387   6.767
 7148TIP3    H221390   3.991   7.529   6.717
 7149TIP3   OH221391   3.369   1.169   6.487
 7149TIP3    H121392   3.382   1.263   6.496
 7149TIP3    H221393   3.289   1.160   6.436
 7150TIP3   OH221394   2.478   1.858   4.845
 7150TIP3    H121395   2.400   1.911   4.826
 7150TIP3    H221396   2.527   1.909   4.910
 7151TIP3   OH221397   1.078   4.766   6.314
 7151TIP3    H121398   1.151   4.787   6.256
 7151TIP3    H221399   1.011   4.729   6.257
 7152TIP3   OH221400   6.447   1.356   5.847
 7152TIP3    H121401   6.398   1.295   5.902
 7152TIP3    H221402   6.498   1.299   5.789
 7153TIP3   OH221403   7.003   6.886   5.413
 7153TIP3    H121404   7.024   6.830   5.488
 7153TIP3    H221405   6.907   6.881   5.407
 7154TIP3   OH221406   7.960   2.168   1.434
 7154TIP3    H121407   8.040   2.140   1.391
 7154TIP3    H221408   7.918   2.226   1.371
 7155TIP3   OH221409   3.224   7.420   6.109
 7155TIP3    H121410   3.246   7.419   6.015
 7155TIP3    H221411   3.145   7.367   6.115
 7156TIP3   OH221412   0.968   7.876   1.982
 7156TIP3    H121413   0.918   7.805   2.023
 7156TIP3    H221414   1.046   7.833   1.946
 7157TIP3   OH221415   7.984   5.936   3.644
 7157TIP3    H121416   7.977   5.991   3.566
 7157TIP3    H221417   7.902   5.950   3.691
 7158TIP3   OH221418   1.902   0.550   5.862
 7158TIP3    H121419   1.811   0.523   5.853
 7158TIP3    H221420   1.945   0.518   5.782
 7159TIP3   OH221421   6.981   7.595   5.967
 7159TIP3    H121422   6.959   7.608   5.875
 7159TIP3    H221423   6.915   7.644   6.015
 7160TIP3   OH221424   6.144   4.600   2.595
 7160TIP3    H121425   6.057   4.639   2.601
 7160TIP3    H221426   6.197   4.649   2.659
 7161TIP3   OH221427   5.972   1.541   5.049
 7161TIP3    H121428   6.055   1.586   5.059
 7161TIP3    H221429   5.911   1.590   5.105
 7162TIP3   OH221430   5.547   4.979   3.727
 7162TIP3    H121431   5.600   5.002   3.803
 7162TIP3    H221432   5.606   4.925   3.673
 7163TIP3   OH221433   0.386   4.421   6.069
 7163TIP3    H121434   0.354   4.333   6.048
 7163TIP3    H221435   0.446   4.408   6.142
 7164TIP3   OH221436   0.884   6.692   3.409
 7164TIP3    H121437   0.893   6.617   3.469
 7164TIP3    H221438   0.835   6.657   3.334
 7165TIP3   OH221439   2.430   2.852   0.713
 7165TIP3    H121440   2.454   2.786   0.778
 7165TIP3    H221441   2.435   2.935   0.760
 7166TIP3   OH221442   5.880   4.236   2.925
 7166TIP3    H121443   5.894   4.249   2.831
 7166TIP3    H221444   5.968   4.230   2.962
 7167TIP3   OH221445   4.970   0.580   2.464
 7167TIP3    H121446   5.041   0.644   2.474
 7167TIP3    H221447   4.894   0.622   2.504
 7168TIP3   OH221448   5.246   2.987   2.618
 7168TIP3    H121449   5.265   3.050   2.688
 7168TIP3    H221450   5.234   2.904   2.663
 7169TIP3   OH221451   0.950   7.781   3.783
 7169TIP3    H121452   0.897   7.859   3.764
 7169TIP3    H221453   1.008   7.808   3.854
 7170TIP3   OH221454   7.095   3.154   4.734
 7170TIP3    H121455   7.110   3.247   4.716
 7170TIP3    H221456   7.182   3.118   4.751
 7171TIP3   OH221457   0.228   5.617   1.499
 7171TIP3    H121458   0.228   5.674   1.421
 7171TIP3    H221459   0.284   5.662   1.562
 7172TIP3   OH221460   5.841   6.839   0.331
 7172TIP3    H121461   5.816   6.922   0.371
 7172TIP3    H221462   5.857   6.860   0.239
 7173TIP3   OH221463   3.007   4.959   5.861
 7173TIP3    H121464   3.025   5.044   5.821
 7173TIP3    H221465   3.043   4.895   5.799
 7174TIP3   OH221466   6.893   4.083   4.748
 7174TIP3    H121467   6.880   3.997   4.789
 7174TIP3    H221468   6.949   4.131   4.809
 7175TIP3   OH221469   2.486  -0.007   2.998
 7175TIP3    H121470   2.572   0.015   3.033
 7175TIP3    H221471   2.475   0.050   2.922
 7176TIP3   OH221472   7.869   2.741   0.612
 7176TIP3    H121473   7.938   2.798   0.577
 7176TIP3    H221474   7.907   2.705   0.692
 7177TIP3   OH221475   2.718   0.732   3.384
 7177TIP3    H121476   2.789   0.755   3.445
 7177TIP3    H221477   2.701   0.812   3.335
 7178TIP3   OH221478   2.819   2.521   5.399
 7178TIP3    H121479   2.907   2.484   5.412
 7178TIP3    H221480   2.815   2.542   5.306
 7179TIP3   OH221481   0.566   3.545   0.736
 7179TIP3    H121482   0.487   3.490   0.730
 7179TIP3    H221483   0.603   3.543   0.648
 7180TIP3   OH221484   5.863   0.272   0.252
 7180TIP3    H121485   5.778   0.295   0.214
 7180TIP3    H221486   5.879   0.183   0.221
 7181TIP3   OH221487   7.624   5.666   0.617
 7181TIP3    H121488   7.699   5.632   0.568
 7181TIP3    H221489   7.572   5.712   0.553
 7182TIP3   OH221490   7.274   7.093   2.317
 7182TIP3    H121491   7.261   7.174   2.269
 7182TIP3    H221492   7.369   7.086   2.328
 7183TIP3   OH221493   2.433   7.789   5.397
 7183TIP3    H121494   2.384   7.781   5.315
 7183TIP3    H221495   2.385   7.856   5.447
 7184TIP3   OH221496   4.411   6.498   4.069
 7184TIP3    H121497   4.505   6.509   4.085
 7184TIP3    H221498   4.372   6.580   4.100
 7185TIP3   OH221499   4.024   2.253   2.500
 7185TIP3    H121500   4.000   2.324   2.559
 7185TIP3    H221501   4.119   2.255   2.496
 7186TIP3   OH221502   3.042   0.169   2.912
 7186TIP3    H121503   3.101   0.221   2.857
 7186TIP3    H221504   3.082   0.172   2.999
 7187TIP3   OH221505   1.178   6.326   5.738
 7187TIP3    H121506   1.272   6.322   5.719
 7187TIP3    H221507   1.136   6.305   5.654
 7188TIP3   OH221508   1.921   6.106   6.758
 7188TIP3    H121509   1.996   6.150   6.797
 7188TIP3    H221510   1.958   6.057   6.684
 7189TIP3   OH221511   0.285   5.958   1.445
 7189TIP3    H121512   0.249   5.887   1.393
 7189TIP3    H221513   0.242   6.037   1.412
 7190TIP3   OH221514   3.812   1.985   1.515
 7190TIP3    H121515   3.750   2.056   1.495
 7190TIP3    H221516   3.823   1.990   1.610
 7191TIP3   OH221517   4.295   2.172   0.559
 7191TIP3    H121518   4.375   2.201   0.516
 7191TIP3    H221519   4.278   2.085   0.523
 7192TIP3   OH221520   7.658   6.818   4.021
 7192TIP3    H121521   7.634   6.733   4.057
 7192TIP3    H221522   7.622   6.817   3.932
 7193TIP3   OH221523   2.631   3.767   0.683
 7193TIP3    H121524   2.570   3.705   0.723
 7193TIP3    H221525   2.672   3.811   0.757
 7194TIP3   OH221526   3.136   6.066   4.155
 7194TIP3    H121527   3.170   6.021   4.077
 7194TIP3    H221528   3.154   6.006   4.227
 7195TIP3   OH221529   2.536   1.343   0.169
 7195TIP3    H121530   2.547   1.283   0.095
 7195TIP3    H221531   2.605   1.317   0.230
 7196TIP3   OH221532   0.359   2.893   3.246
 7196TIP3    H121533   0.406   2.847   3.315
 7196TIP3    H221534   0.427   2.934   3.194
 7197TIP3   OH221535   0.040   0.762   5.917
 7197TIP3    H121536  -0.050   0.783   5.943
 7197TIP3    H221537   0.031   0.723   5.830
 7198TIP3   OH221538   5.112   5.261   1.058
 7198TIP3    H121539   5.110   5.169   1.030
 7198TIP3    H221540   5.079   5.310   0.983
 7199TIP3   OH221541   0.514   6.541   5.773
 7199TIP3    H121542   0.540   6.631   5.756
 7199TIP3    H221543   0.473   6.512   5.692
 7200TIP3   OH221544   8.187   5.225   5.411
 7200TIP3    H121545   8.157   5.268   5.330
 7200TIP3    H221546   8.260   5.279   5.441
 7201TIP3   OH221547   6.818   5.716   2.928
 7201TIP3    H121548   6.898   5.765   2.911
 7201TIP3    H221549   6.747   5.777   2.905
 7202TIP3   OH221550   2.601   7.667   1.547
 7202TIP3    H121551   2.628   7.658   1.639
 7202TIP3    H221552   2.659   7.736   1.513
 7203TIP3   OH221553   5.537   0.157   4.110
 7203TIP3    H121554   5.565   0.137   4.021
 7203TIP3    H221555   5.563   0.249   4.123
 7204TIP3   OH221556   1.916   7.171   0.366
 7204TIP3    H121557   1.838   7.226   0.375
 7204TIP3    H221558   1.918   7.118   0.445
 7205TIP3   OH221559   7.358   4.546   6.334
 7205TIP3    H121560   7.347   4.639   6.318
 7205TIP3    H221561   7.450   4.537   6.361
 7206TIP3   OH221562   7.163   3.431   4.687
 7206TIP3    H121563   7.190   3.501   4.746
 7206TIP3    H221564   7.232   3.427   4.620
 7207TIP3   OH221565   7.951   6.966   5.581
 7207TIP3    H121566   8.013   6.996   5.648
 7207TIP3    H221567   7.986   7.000   5.499
 7208TIP3   OH221568   1.920   5.516   2.138
 7208TIP3    H121569   1.992   5.576   2.119
 7208TIP3    H221570   1.954   5.430   2.113
 7209TIP3   OH221571   4.628   4.844   3.148
 7209TIP3    H121572   4.600   4.759   3.182
 7209TIP3    H221573   4.702   4.869   3.203
 7210TIP3   OH221574   6.689   3.588   1.855
 7210TIP3    H121575   6.737   3.552   1.781
 7210TIP3    H221576   6.652   3.512   1.900
 7211TIP3   OH221577   4.800   2.181   6.231
 7211TIP3    H121578   4.813   2.261   6.281
 7211TIP3    H221579   4.705   2.170   6.227
 7212TIP3   OH221580   1.454   0.376   4.440
 7212TIP3    H121581   1.458   0.282   4.422
 7212TIP3    H221582   1.433   0.383   4.533
 7213TIP3   OH221583   7.466   6.069   4.402
 7213TIP3    H121584   7.401   6.060   4.332
 7213TIP3    H221585   7.441   6.149   4.448
 7214TIP3   OH221586   1.390   5.155   2.289
 7214TIP3    H121587   1.422   5.127   2.202
 7214TIP3    H221588   1.333   5.084   2.317
 7215TIP3   OH221589   5.504   4.278   3.297
 7215TIP3    H121590   5.582   4.303   3.249
 7215TIP3    H221591   5.451   4.228   3.234
 7216TIP3   OH221592   6.658   0.938   1.846
 7216TIP3    H121593   6.696   0.887   1.917
 7216TIP3    H221594   6.692   0.897   1.766
 7217TIP3   OH221595   1.803   3.216   6.285
 7217TIP3    H121596   1.801   3.298   6.333
 7217TIP3    H221597   1.800   3.148   6.353
 7218TIP3   OH221598   8.293   2.405   3.828
 7218TIP3    H121599   8.205   2.387   3.858
 7218TIP3    H221600   8.346   2.408   3.907
 7219TIP3   OH221601   6.595   0.229   6.214
 7219TIP3    H121602   6.550   0.164   6.268
 7219TIP3    H221603   6.606   0.305   6.272
 7220TIP3   OH221604   6.561   7.562   5.219
 7220TIP3    H121605   6.621   7.494   5.186
 7220TIP3    H221606   6.547   7.620   5.144
 7221TIP3   OH221607   0.816   6.539   2.861
 7221TIP3    H121608   0.899   6.564   2.901
 7221TIP3    H221609   0.752   6.544   2.931
 7222TIP3   OH221610   2.358   3.962   6.447
 7222TIP3    H121611   2.285   3.980   6.387
 7222TIP3    H221612   2.338   4.016   6.524
 7223TIP3   OH221613   5.474   1.339   6.483
 7223TIP3    H121614   5.563   1.305   6.472
 7223TIP3    H221615   5.426   1.265   6.521
 7224TIP3   OH221616   1.215   0.976   4.124
 7224TIP3    H121617   1.268   1.028   4.062
 7224TIP3    H221618   1.271   0.967   4.201
 7225TIP3   OH221619   1.811   6.108   0.216
 7225TIP3    H121620   1.841   6.178   0.159
 7225TIP3    H221621   1.887   6.086   0.270
 7226TIP3   OH221622   8.213   0.074   0.121
 7226TIP3    H121623   8.225   0.147   0.061
 7226TIP3    H221624   8.163   0.111   0.194
 7227TIP3   OH221625   1.053   2.613   2.201
 7227TIP3    H121626   1.076   2.617   2.294
 7227TIP3    H221627   1.116   2.551   2.164
 7228TIP3   OH221628   3.056   2.223   5.222
 7228TIP3    H121629   3.006   2.168   5.283
 7228TIP3    H221630   3.086   2.296   5.276
 7229TIP3   OH221631   1.495   6.972   0.718
 7229TIP3    H121632   1.518   6.977   0.811
 7229TIP3    H221633   1.578   6.952   0.674
 7230TIP3   OH221634   1.005   1.013   0.313
 7230TIP3    H121635   1.071   1.027   0.380
 7230TIP3    H221636   1.051   1.026   0.230
 7231TIP3   OH221637   6.645   6.193   1.749
 7231TIP3    H121638   6.726   6.149   1.773
 7231TIP3    H221639   6.581   6.123   1.740
 7232TIP3   OH221640   6.148   7.840   5.207
 7232TIP3    H121641   6.236   7.863   5.234
 7232TIP3    H221642   6.148   7.745   5.199
 7233TIP3   OH221643   2.470   6.770   3.019
 7233TIP3    H121644   2.544   6.711   3.005
 7233TIP3    H221645   2.484   6.842   2.957
 7234TIP3   OH221646   5.398   6.330   4.721
 7234TIP3    H121647   5.469   6.343   4.784
 7234TIP3    H221648   5.319   6.352   4.770
 7235TIP3   OH221649   1.998   5.965   3.097
 7235TIP3    H121650   1.955   5.932   3.175
 7235TIP3    H221651   2.084   5.995   3.127
 7236TIP3   OH221652   2.474   1.963   1.921
 7236TIP3    H121653   2.524   1.884   1.943
 7236TIP3    H221654   2.504   2.029   1.983
 7237TIP3   OH221655   3.144   3.497   4.453
 7237TIP3    H121656   3.103   3.438   4.516
 7237TIP3    H221657   3.080   3.505   4.382
 7238TIP3   OH221658   0.152   6.345   3.799
 7238TIP3    H121659   0.184   6.259   3.771
 7238TIP3    H221660   0.144   6.395   3.718
 7239TIP3   OH221661   0.783   4.071   4.567
 7239TIP3    H121662   0.742   4.158   4.565
 7239TIP3    H221663   0.873   4.087   4.540
 7240TIP3   OH221664   1.068   3.592   3.853
 7240TIP3    H121665   1.022   3.508   3.859
 7240TIP3    H221666   1.056   3.632   3.939
 7241TIP3   OH221667   2.193   6.820   0.126
 7241TIP3    H121668   2.191   6.752   0.194
 7241TIP3    H221669   2.159   6.898   0.169
 7242TIP3   OH221670   5.656   3.231   2.003
 7242TIP3    H121671   5.583   3.202   2.057
 7242TIP3    H221672   5.728   3.173   2.027
 7243TIP3   OH221673   5.246   5.196   5.456
 7243TIP3    H121674   5.300   5.252   5.511
 7243TIP3    H221675   5.280   5.211   5.367
 7244TIP3   OH221676   3.653   3.733   0.939
 7244TIP3    H121677   3.740   3.759   0.968
 7244TIP3    H221678   3.657   3.637   0.935
 7245TIP3   OH221679   7.736   6.055   4.369
 7245TIP3    H121680   7.763   5.963   4.372
 7245TIP3    H221681   7.641   6.052   4.379
 7246TIP3   OH221682   4.655   7.695   5.210
 7246TIP3    H121683   4.618   7.606   5.215
 7246TIP3    H221684   4.589   7.750   5.253
 7247TIP3   OH221685   2.913   3.650   2.041
 7247TIP3    H121686   2.937   3.677   2.130
 7247TIP3    H221687   2.931   3.556   2.039
 7248TIP3   OH221688   7.444   3.604   3.696
 7248TIP3    H121689   7.416   3.513   3.685
 7248TIP3    H221690   7.381   3.641   3.758
 7249TIP3   OH221691   6.807   1.258   6.724
 7249TIP3    H121692   6.870   1.279   6.655
 7249TIP3    H221693   6.768   1.342   6.747
 7250TIP3   OH221694   6.169   4.060   1.100
 7250TIP3    H121695   6.213   4.125   1.046
 7250TIP3    H221696   6.111   4.111   1.157
 7251TIP3   OH221697   6.422   4.694   0.823
 7251TIP3    H121698   6.501   4.693   0.875
 7251TIP3    H221699   6.453   4.695   0.732
 7252TIP3   OH221700   8.256   7.175   1.786
 7252TIP3    H121701   8.278   7.267   1.772
 7252TIP3    H221702   8.176   7.161   1.735
 7253TIP3   OH221703   2.871   1.879   1.670
 7253TIP3    H121704   2.875   1.883   1.765
 7253TIP3    H221705   2.784   1.844   1.650
 7254TIP3   OH221706   5.649   7.561   1.986
 7254TIP3    H121707   5.673   7.577   2.077
 7254TIP3    H221708   5.553   7.557   1.987
 7255TIP3   OH221709   1.042   6.959   5.811
 7255TIP3    H121710   1.014   7.013   5.737
 7255TIP3    H221711   1.073   7.022   5.877
 7256TIP3   OH221712   5.688   2.970   5.793
 7256TIP3    H121713   5.607   2.943   5.750
 7256TIP3    H221714   5.692   2.917   5.872
 7257TIP3   OH221715   0.185   0.490   6.734
 7257TIP3    H121716   0.095   0.475   6.704
 7257TIP3    H221717   0.237   0.492   6.653
 7258TIP3   OH221718   5.786   6.328   2.157
 7258TIP3    H121719   5.750   6.240   2.147
 7258TIP3    H221720   5.709   6.385   2.159
 7259TIP3   OH221721   3.251   4.081   2.586
 7259TIP3    H121722   3.268   4.116   2.673
 7259TIP3    H221723   3.179   4.019   2.599
 7260TIP3   OH221724   5.101   5.438   4.184
 7260TIP3    H121725   5.165   5.383   4.229
 7260TIP3    H221726   5.146   5.466   4.104
 7261TIP3   OH221727   6.924   7.180   3.540
 7261TIP3    H121728   6.833   7.189   3.569
 7261TIP3    H221729   6.973   7.166   3.621
 7262TIP3   OH221730   7.271   6.354   6.425
 7262TIP3    H121731   7.286   6.396   6.340
 7262TIP3    H221732   7.233   6.424   6.479
 7263TIP3   OH221733   7.768   1.626   6.576
 7263TIP3    H121734   7.713   1.586   6.643
 7263TIP3    H221735   7.761   1.720   6.592
 7264TIP3   OH221736   8.062   5.694   1.898
 7264TIP3    H121737   8.093   5.690   1.988
 7264TIP3    H221738   8.010   5.774   1.894
 7265TIP3   OH221739   3.971   3.916   0.295
 7265TIP3    H121740   3.878   3.914   0.317
 7265TIP3    H221741   3.983   3.838   0.240
 7266TIP3   OH221742   7.832   4.966   2.921
 7266TIP3    H121743   7.821   4.882   2.965
 7266TIP3    H221744   7.841   5.030   2.992
 7267TIP3   OH221745   2.946   3.858   3.374
 7267TIP3    H121746   3.035   3.878   3.347
 7267TIP3    H221747   2.892   3.884   3.300
 7268TIP3   OH221748   0.897   4.696   1.052
 7268TIP3    H121749   0.817   4.646   1.035
 7268TIP3    H221750   0.968   4.634   1.032
 7269TIP3   OH221751   5.659   4.240   1.998
 7269TIP3    H121752   5.666   4.333   2.023
 7269TIP3    H221753   5.750   4.211   1.989
 7270TIP3   OH221754   5.288   2.054   5.903
 7270TIP3    H121755   5.320   2.119   5.841
 7270TIP3    H221756   5.198   2.081   5.922
 7271TIP3   OH221757   5.658   3.465   2.398
 7271TIP3    H121758   5.742   3.478   2.441
 7271TIP3    H221759   5.628   3.379   2.429
 7272TIP3   OH221760   2.652   1.932   4.253
 7272TIP3    H121761   2.563   1.905   4.276
 7272TIP3    H221762   2.672   1.883   4.173
 7273TIP3   OH221763   0.845   7.338   4.507
 7273TIP3    H121764   0.880   7.301   4.426
 7273TIP3    H221765   0.756   7.305   4.513
 7274TIP3   OH221766   6.954   7.232   1.413
 7274TIP3    H121767   6.957   7.260   1.505
 7274TIP3    H221768   6.862   7.238   1.389
 7275TIP3   OH221769   0.729   1.349   1.991
 7275TIP3    H121770   0.798   1.311   1.936
 7275TIP3    H221771   0.658   1.369   1.930
 7276TIP3   OH221772   3.399   7.197   3.167
 7276TIP3    H121773   3.341   7.259   3.123
 7276TIP3    H221774   3.410   7.126   3.103
 7277TIP3   OH221775   0.462   1.774   2.794
 7277TIP3    H121776   0.446   1.739   2.881
 7277TIP3    H221777   0.538   1.725   2.762
 7278TIP3   OH221778   1.904   1.568   3.061
 7278TIP3    H121779   1.861   1.550   2.977
 7278TIP3    H221780   1.987   1.521   3.056
 7279TIP3   OH221781   2.280   5.157   1.866
 7279TIP3    H121782   2.317   5.070   1.849
 7279TIP3    H221783   2.320   5.213   1.799
 7280TIP3   OH221784   7.166   4.710   3.699
 7280TIP3    H121785   7.228   4.723   3.770
 7280TIP3    H221786   7.108   4.785   3.704
 7281TIP3   OH221787   4.095   2.287   1.867
 7281TIP3    H121788   4.008   2.328   1.866
 7281TIP3    H221789   4.084   2.206   1.817
 7282TIP3   OH221790   3.208   2.119   1.648
 7282TIP3    H121791   3.138   2.174   1.683
 7282TIP3    H221792   3.163   2.040   1.618
 7283TIP3   OH221793   6.059   1.151   4.481
 7283TIP3    H121794   6.115   1.216   4.524
 7283TIP3    H221795   6.090   1.149   4.391
 7284TIP3   OH221796   1.114   0.394   2.563
 7284TIP3    H121797   1.064   0.326   2.518
 7284TIP3    H221798   1.206   0.371   2.544
 7285TIP3   OH221799   0.774   1.259   0.161
 7285TIP3    H121800   0.859   1.254   0.117
 7285TIP3    H221801   0.777   1.190   0.227
 7286TIP3   OH221802   1.836   2.312   2.792
 7286TIP3    H121803   1.882   2.370   2.853
 7286TIP3    H221804   1.795   2.246   2.848
 7287TIP3   OH221805   5.059   6.053   5.459
 7287TIP3    H121806   5.135   6.032   5.406
 7287TIP3    H221807   5.095   6.087   5.541
 7288TIP3   OH221808   4.737   4.917   1.893
 7288TIP3    H121809   4.739   5.012   1.904
 7288TIP3    H221810   4.822   4.887   1.927
 7289TIP3   OH221811   0.505   5.030   6.186
 7289TIP3    H121812   0.598   5.009   6.174
 7289TIP3    H221813   0.458   4.959   6.143
 7290TIP3   OH221814   3.557   5.342   6.341
 7290TIP3    H121815   3.538   5.323   6.248
 7290TIP3    H221816   3.625   5.409   6.338
 7291TIP3   OH221817   0.477   3.813   3.669
 7291TIP3    H121818   0.434   3.807   3.754
 7291TIP3    H221819   0.521   3.898   3.671
 7292TIP3   OH221820   4.250   5.554   3.075
 7292TIP3    H121821   4.280   5.538   2.985
 7292TIP3    H221822   4.237   5.649   3.078
 7293TIP3   OH221823   0.441   4.884   6.534
 7293TIP3    H121824   0.468   4.818   6.598
 7293TIP3    H221825   0.346   4.890   6.543
 7294TIP3   OH221826   7.658   5.343   2.362
 7294TIP3    H121827   7.614   5.260   2.381
 7294TIP3    H221828   7.739   5.338   2.412
 7295TIP3   OH221829   1.160   5.918   1.065
 7295TIP3    H121830   1.178   6.012   1.068
 7295TIP3    H221831   1.100   5.903   1.138
 7296TIP3   OH221832   3.231   4.054   5.670
 7296TIP3    H121833   3.254   4.038   5.578
 7296TIP3    H221834   3.144   4.015   5.680
 7297TIP3   OH221835   7.567   2.463   3.722
 7297TIP3    H121836   7.534   2.551   3.704
 7297TIP3    H221837   7.497   2.405   3.690
 7298TIP3   OH221838   2.288   2.593   0.654
 7298TIP3    H121839   2.334   2.582   0.572
 7298TIP3    H221840   2.344   2.651   0.706
 7299TIP3   OH221841   2.968   1.274   2.372
 7299TIP3    H121842   3.002   1.241   2.289
 7299TIP3    H221843   3.046   1.287   2.426
 7300TIP3   OH221844   3.810   1.719   6.046
 7300TIP3    H121845   3.737   1.656   6.050
 7300TIP3    H221846   3.777   1.796   6.093
 7301TIP3   OH221847   0.328   5.525   1.177
 7301TIP3    H121848   0.378   5.445   1.190
 7301TIP3    H221849   0.394   5.592   1.159
 7302TIP3   OH221850   2.692   5.350   2.060
 7302TIP3    H121851   2.608   5.372   2.101
 7302TIP3    H221852   2.738   5.299   2.127
 7303TIP3   OH221853   7.964   5.940   5.493
 7303TIP3    H121854   7.896   5.979   5.438
 7303TIP3    H221855   8.047   5.971   5.455
 7304TIP3   OH221856   8.234   1.309   6.687
 7304TIP3    H121857   8.273   1.383   6.641
 7304TIP3    H221858   8.146   1.302   6.651
 7305TIP3   OH221859   8.069   4.567   3.840
 7305TIP3    H121860   7.976   4.590   3.838
 7305TIP3    H221861   8.072   4.478   3.874
 7306TIP3   OH221862   2.223   0.207   0.669
 7306TIP3    H121863   2.139   0.167   0.692
 7306TIP3    H221864   2.273   0.206   0.751
 7307TIP3   OH221865   4.297   3.230   4.100
 7307TIP3    H121866   4.346   3.291   4.155
 7307TIP3    H221867   4.257   3.168   4.161
 7308TIP3   OH221868   6.853   3.985   1.809
 7308TIP3    H121869   6.853   3.975   1.714
 7308TIP3    H221870   6.827   3.899   1.842
 7309TIP3   OH221871   5.751   4.038   3.557
 7309TIP3    H121872   5.715   4.010   3.640
 7309TIP3    H221873   5.688   4.007   3.491
 7310TIP3   OH221874   6.073   7.070   3.699
 7310TIP3    H121875   5.995   7.044   3.748
 7310TIP3    H221876   6.046   7.065   3.607
 7311TIP3   OH221877   5.230   2.798   4.724
 7311TIP3    H121878   5.204   2.739   4.795
 7311TIP3    H221879   5.183   2.765   4.648
 7312TIP3   OH221880   5.959   5.420   5.165
 7312TIP3    H121881   5.901   5.376   5.227
 7312TIP3    H221882   6.047   5.402   5.197
 7313TIP3   OH221883   0.927   4.625   6.107
 7313TIP3    H121884   0.962   4.635   6.019
 7313TIP3    H221885   0.833   4.613   6.095
 7314TIP3   OH221886   2.233   6.532   4.209
 7314TIP3    H121887   2.137   6.528   4.199
 7314TIP3    H221888   2.258   6.443   4.234
 7315TIP3   OH221889   0.477   6.950   5.189
 7315TIP3    H121890   0.547   7.015   5.187
 7315TIP3    H221891   0.521   6.866   5.175
 7316TIP3   OH221892   1.917   4.902   5.493
 7316TIP3    H121893   1.950   4.989   5.471
 7316TIP3    H221894   1.926   4.851   5.413
 7317TIP3   OH221895   5.051   7.048   3.702
 7317TIP3    H121896   4.994   7.123   3.719
 7317TIP3    H221897   5.072   7.013   3.788
 7318TIP3   OH221898   4.605   7.227   3.109
 7318TIP3    H121899   4.615   7.307   3.161
 7318TIP3    H221900   4.651   7.159   3.159
 7319TIP3   OH221901   6.337   6.421   1.980
 7319TIP3    H121902   6.430   6.415   1.956
 7319TIP3    H221903   6.308   6.330   1.985
 7320TIP3   OH221904   2.362   6.787   2.458
 7320TIP3    H121905   2.328   6.750   2.540
 7320TIP3    H221906   2.385   6.877   2.480
 7321TIP3   OH221907   6.768   0.515   6.089
 7321TIP3    H121908   6.811   0.523   6.174
 7321TIP3    H221909   6.830   0.555   6.027
 7322TIP3   OH221910   5.602   0.237   6.267
 7322TIP3    H121911   5.550   0.165   6.232
 7322TIP3    H221912   5.627   0.209   6.355
 7323TIP3   OH221913   0.937   6.906   6.544
 7323TIP3    H121914   0.860   6.958   6.568
 7323TIP3    H221915   0.906   6.815   6.548
 7324TIP3   OH221916   3.057   2.748   0.597
 7324TIP3    H121917   3.035   2.761   0.505
 7324TIP3    H221918   3.008   2.670   0.623
 7325TIP3   OH221919   1.512   2.591   3.358
 7325TIP3    H121920   1.547   2.553   3.277
 7325TIP3    H221921   1.417   2.574   3.353
 7326TIP3   OH221922   2.689   7.718   6.553
 7326TIP3    H121923   2.730   7.638   6.585
 7326TIP3    H221924   2.762   7.775   6.531
 7327TIP3   OH221925   0.732   6.090   0.189
 7327TIP3    H121926   0.657   6.137   0.153
 7327TIP3    H221927   0.695   6.011   0.228
 7328TIP3   OH221928   2.398   7.420   2.268
 7328TIP3    H121929   2.366   7.502   2.229
 7328TIP3    H221930   2.344   7.352   2.227
 7329TIP3   OH221931   2.499   5.125   3.524
 7329TIP3    H121932   2.574   5.074   3.553
 7329TIP3    H221933   2.516   5.214   3.556
 7330TIP3   OH221934   2.992   2.262   5.758
 7330TIP3    H121935   2.981   2.353   5.787
 7330TIP3    H221936   3.015   2.214   5.837
 7331TIP3   OH221937   5.931   7.350   2.968
 7331TIP3    H121938   6.001   7.390   2.917
 7331TIP3    H221939   5.972   7.273   3.009
 7332TIP3   OH221940  -0.009   1.159   3.539
 7332TIP3    H121941   0.069   1.211   3.560
 7332TIP3    H221942  -0.038   1.194   3.454
 7333TIP3   OH221943   4.859   2.241   0.028
 7333TIP3    H121944   4.843   2.197  -0.056
 7333TIP3    H221945   4.897   2.173   0.083
 7334TIP3   OH221946   5.402   2.853   1.598
 7334TIP3    H121947   5.351   2.797   1.540
 7334TIP3    H221948   5.337   2.890   1.658
 7335TIP3   OH221949   6.146   0.606   6.669
 7335TIP3    H121950   6.159   0.584   6.577
 7335TIP3    H221951   6.214   0.556   6.715
 7336TIP3   OH221952   5.341   2.926   3.763
 7336TIP3    H121953   5.432   2.900   3.750
 7336TIP3    H221954   5.331   3.005   3.710
 7337TIP3   OH221955   0.583   1.886   6.678
 7337TIP3    H121956   0.597   1.803   6.632
 7337TIP3    H221957   0.666   1.933   6.668
 7338TIP3   OH221958   4.104   4.957   0.542
 7338TIP3    H121959   4.125   5.041   0.503
 7338TIP3    H221960   4.185   4.905   0.532
 7339TIP3   OH221961   4.563   1.079   3.324
 7339TIP3    H121962   4.614   1.109   3.399
 7339TIP3    H221963   4.604   0.996   3.298
 7340TIP3   OH221964   6.534   0.023   1.942
 7340TIP3    H121965   6.519   0.117   1.949
 7340TIP3    H221966   6.505   0.000   1.854
 7341TIP3   OH221967   7.314   1.113   6.616
 7341TIP3    H121968   7.322   1.019   6.626
 7341TIP3    H221969   7.389   1.137   6.560
 7342TIP3   OH221970   3.633   0.081   3.370
 7342TIP3    H121971   3.662   0.076   3.279
 7342TIP3    H221972   3.575   0.157   3.373
 7343TIP3   OH221973   7.090   4.176   0.494
 7343TIP3    H121974   7.122   4.085   0.495
 7343TIP3    H221975   7.163   4.227   0.528
 7344TIP3   OH221976   7.744   7.808   0.355
 7344TIP3    H121977   7.687   7.735   0.380
 7344TIP3    H221978   7.696   7.851   0.284
 7345TIP3   OH221979   7.251   0.575   0.487
 7345TIP3    H121980   7.306   0.594   0.563
 7345TIP3    H221981   7.193   0.650   0.481
 7346TIP3   OH221982   4.497   0.072   4.808
 7346TIP3    H121983   4.488   0.042   4.717
 7346TIP3    H221984   4.468   0.164   4.806
 7347TIP3   OH221985   0.395   3.313   3.845
 7347TIP3    H121986   0.317   3.338   3.796
 7347TIP3    H221987   0.360   3.277   3.927
 7348TIP3   OH221988   3.391   5.206   4.391
 7348TIP3    H121989   3.314   5.241   4.436
 7348TIP3    H221990   3.465   5.250   4.433
 7349TIP3   OH221991   0.498   3.228   1.980
 7349TIP3    H121992   0.510   3.144   2.025
 7349TIP3    H221993   0.506   3.293   2.050
 7350TIP3   OH221994   0.603   2.074   5.578
 7350TIP3    H121995   0.562   1.996   5.542
 7350TIP3    H221996   0.602   2.137   5.506
 7351TIP3   OH221997   4.337   0.781   4.742
 7351TIP3    H121998   4.315   0.689   4.725
 7351TIP3    H221999   4.431   0.786   4.725
 7352TIP3   OH222000   6.793   0.670   3.215
 7352TIP3    H122001   6.871   0.628   3.179
 7352TIP3    H222002   6.746   0.599   3.259
 7353TIP3   OH222003   5.742   1.325   3.785
 7353TIP3    H122004   5.741   1.420   3.801
 7353TIP3    H222005   5.655   1.306   3.749
 7354TIP3   OH222006   7.213   6.676   0.883
 7354TIP3    H122007   7.263   6.699   0.805
 7354TIP3    H222008   7.156   6.752   0.899
 7355TIP3   OH222009   8.051   3.706   3.537
 7355TIP3    H122010   8.077   3.650   3.609
 7355TIP3    H222011   8.133   3.744   3.505
 7356TIP3   OH222012   0.092   1.988   3.976
 7356TIP3    H122013   0.121   2.031   4.057
 7356TIP3    H222014   0.011   1.943   4.001
 7357TIP3   OH222015   4.267   5.887   4.200
 7357TIP3    H122016   4.199   5.844   4.252
 7357TIP3    H222017   4.336   5.822   4.192
 7358TIP3   OH222018   1.549   6.832   2.555
 7358TIP3    H122019   1.634   6.826   2.510
 7358TIP3    H222020   1.506   6.908   2.515
 7359TIP3   OH222021   5.558   4.085   5.986
 7359TIP3    H122022   5.589   4.086   5.896
 7359TIP3    H222023   5.505   4.005   5.993
 7360TIP3   OH222024   7.414   6.073   3.244
 7360TIP3    H122025   7.488   6.114   3.289
 7360TIP3    H222026   7.449   6.045   3.160
 7361TIP3   OH222027   7.822   2.524   3.729
 7361TIP3    H122028   7.732   2.490   3.728
 7361TIP3    H222029   7.832   2.559   3.818
 7362TIP3   OH222030   2.879   7.345   2.269
 7362TIP3    H122031   2.920   7.321   2.352
 7362TIP3    H222032   2.821   7.418   2.291
 7363TIP3   OH222033   1.990   5.073   4.719
 7363TIP3    H122034   2.067   5.027   4.687
 7363TIP3    H222035   1.922   5.005   4.725
 7364TIP3   OH222036   4.840   2.632   1.467
 7364TIP3    H122037   4.858   2.541   1.442
 7364TIP3    H222038   4.927   2.673   1.470
 7365TIP3   OH222039   6.937   2.621   2.748
 7365TIP3    H122040   6.932   2.600   2.841
 7365TIP3    H222041   6.920   2.539   2.703
 7366TIP3   OH222042   1.071   0.127   2.450
 7366TIP3    H122043   0.985   0.086   2.437
 7366TIP3    H222044   1.134   0.057   2.435
 7367TIP3   OH222045   3.156   3.516   0.874
 7367TIP3    H122046   3.083   3.566   0.909
 7367TIP3    H222047   3.223   3.520   0.943
 7368TIP3   OH222048   1.952   4.663   1.476
 7368TIP3    H122049   1.926   4.754   1.484
 7368TIP3    H222050   1.933   4.640   1.385
 7369TIP3   OH222051   4.488   2.591   1.563
 7369TIP3    H122052   4.521   2.536   1.492
 7369TIP3    H222053   4.524   2.678   1.545
 7370TIP3   OH222054   6.662   2.328   0.811
 7370TIP3    H122055   6.584   2.274   0.800
 7370TIP3    H222056   6.654   2.363   0.899
 7371TIP3   OH222057   4.443   1.970   1.988
 7371TIP3    H122058   4.493   1.969   1.906
 7371TIP3    H222059   4.441   1.879   2.016
 7372TIP3   OH222060   1.118   3.699   1.726
 7372TIP3    H122061   1.163   3.629   1.773
 7372TIP3    H222062   1.118   3.670   1.635
 7373TIP3   OH222063   4.760   1.258   4.102
 7373TIP3    H122064   4.816   1.305   4.040
 7373TIP3    H222065   4.717   1.190   4.049
 7374TIP3   OH222066   1.969   0.472   3.786
 7374TIP3    H122067   1.943   0.557   3.751
 7374TIP3    H222068   1.917   0.461   3.865
 7375TIP3   OH222069   1.338   5.232   1.636
 7375TIP3    H122070   1.380   5.289   1.572
 7375TIP3    H222071   1.312   5.154   1.587
 7376TIP3   OH222072   2.887   5.590   4.969
 7376TIP3    H122073   2.915   5.627   4.885
 7376TIP3    H222074   2.868   5.498   4.949
 7377TIP3   OH222075   8.258   1.007   6.602
 7377TIP3    H122076   8.185   0.959   6.563
 7377TIP3    H222077   8.223   1.094   6.621
 7378TIP3   OH222078   5.915   0.425   3.022
 7378TIP3    H122079   6.003   0.462   3.030
 7378TIP3    H222080   5.879   0.464   2.942
 7379TIP3   OH222081   0.370   0.349   0.082
 7379TIP3    H122082   0.316   0.271   0.068
 7379TIP3    H222083   0.322   0.419   0.039
 7380TIP3   OH222084   5.299   5.230   5.187
 7380TIP3    H122085   5.215   5.194   5.157
 7380TIP3    H222086   5.344   5.254   5.106
 7381TIP3   OH222087   3.511   7.353   0.986
 7381TIP3    H122088   3.538   7.272   1.030
 7381TIP3    H222089   3.424   7.332   0.950
 7382TIP3   OH222090   6.900   4.010   0.795
 7382TIP3    H122091   6.966   4.069   0.833
 7382TIP3    H222092   6.951   3.938   0.758
 7383TIP3   OH222093   4.574   5.512   6.588
 7383TIP3    H122094   4.647   5.534   6.647
 7383TIP3    H222095   4.616   5.472   6.512
 7384TIP3   OH222096   7.252   7.689   0.381
 7384TIP3    H122097   7.241   7.630   0.307
 7384TIP3    H222098   7.347   7.707   0.385
 7385TIP3   OH222099   0.566   1.093   1.272
 7385TIP3    H122100   0.606   1.176   1.248
 7385TIP3    H222101   0.583   1.035   1.198
 7386TIP3   OH222102   6.951   6.500   4.570
 7386TIP3    H122103   6.902   6.420   4.551
 7386TIP3    H222104   6.923   6.561   4.501
 7387TIP3   OH222105   7.134   6.664   1.526
 7387TIP3    H122106   7.129   6.640   1.619
 7387TIP3    H222107   7.058   6.621   1.487
 7388TIP3   OH222108   1.280   4.203   1.126
 7388TIP3    H122109   1.190   4.198   1.094
 7388TIP3    H222110   1.271   4.201   1.221
 7389TIP3   OH222111   1.894   7.539   0.191
 7389TIP3    H122112   1.932   7.485   0.122
 7389TIP3    H222113   1.915   7.629   0.166
 7390TIP3   OH222114   2.756   3.339   4.488
 7390TIP3    H122115   2.804   3.405   4.439
 7390TIP3    H222116   2.702   3.389   4.549
 7391TIP3   OH222117   1.371   3.504   0.663
 7391TIP3    H122118   1.352   3.454   0.584
 7391TIP3    H222119   1.458   3.542   0.647
 7392TIP3   OH222120   6.224   6.922   1.841
 7392TIP3    H122121   6.260   6.884   1.761
 7392TIP3    H222122   6.226   6.851   1.905
 7393TIP3   OH222123   2.548   7.069   4.196
 7393TIP3    H122124   2.617   7.005   4.214
 7393TIP3    H222125   2.589   7.132   4.136
 7394TIP3   OH222126   3.003   1.222   6.081
 7394TIP3    H122127   3.038   1.184   6.001
 7394TIP3    H222128   3.036   1.312   6.082
 7395TIP3   OH222129   5.662   3.795   2.787
 7395TIP3    H122130   5.743   3.744   2.787
 7395TIP3    H222131   5.683   3.873   2.736
 7396TIP3   OH222132   2.015   5.634   3.701
 7396TIP3    H122133   2.052   5.720   3.723
 7396TIP3    H222134   1.921   5.644   3.719
 7397TIP3   OH222135   3.833   1.042   4.563
 7397TIP3    H122136   3.825   0.947   4.549
 7397TIP3    H222137   3.894   1.051   4.635
 7398TIP3   OH222138   7.895   3.116   6.304
 7398TIP3    H122139   7.948   3.090   6.229
 7398TIP3    H222140   7.845   3.037   6.326
 7399TIP3   OH222141   3.596   0.764   2.502
 7399TIP3    H122142   3.672   0.743   2.556
 7399TIP3    H222143   3.553   0.680   2.487
 7400TIP3   OH222144   5.698   5.480   4.044
 7400TIP3    H122145   5.768   5.440   3.991
 7400TIP3    H222146   5.719   5.454   4.134
 7401TIP3   OH222147   8.121   0.665   6.636
 7401TIP3    H122148   8.055   0.730   6.662
 7401TIP3    H222149   8.177   0.712   6.573
 7402TIP3   OH222150   5.050   2.312   4.868
 7402TIP3    H122151   5.037   2.236   4.926
 7402TIP3    H222152   4.992   2.295   4.794
 7403TIP3   OH222153   7.071   1.706   0.943
 7403TIP3    H122154   7.069   1.779   1.004
 7403TIP3    H222155   7.039   1.743   0.860
 7404TIP3   OH222156   1.303   4.341   1.685
 7404TIP3    H122157   1.383   4.288   1.692
 7404TIP3    H222158   1.275   4.353   1.776
 7405TIP3   OH222159   6.199   3.247   5.626
 7405TIP3    H122160   6.140   3.323   5.626
 7405TIP3    H222161   6.280   3.280   5.665
 7406TIP3   OH222162   0.720   5.878   1.860
 7406TIP3    H122163   0.698   5.853   1.771
 7406TIP3    H222164   0.728   5.795   1.907
 7407TIP3   OH222165   2.791   0.752   1.797
 7407TIP3    H122166   2.735   0.807   1.742
 7407TIP3    H222167   2.750   0.665   1.792
 7408TIP3   OH222168   2.783   6.360   6.127
 7408TIP3    H122169   2.725   6.283   6.133
 7408TIP3    H222170   2.864   6.326   6.089
 7409TIP3   OH222171   1.779   4.036   6.232
 7409TIP3    H122172   1.841   4.008   6.299
 7409TIP3    H222173   1.802   3.984   6.155
 7410TIP3   OH222174   7.254   2.592   1.516
 7410TIP3    H122175   7.319   2.535   1.558
 7410TIP3    H222176   7.282   2.681   1.538
 7411TIP3   OH222177   5.412   6.666   0.405
 7411TIP3    H122178   5.352   6.638   0.474
 7411TIP3    H222179   5.474   6.594   0.394
 7412TIP3   OH222180   0.103   3.782   4.090
 7412TIP3    H122181   0.143   3.720   4.151
 7412TIP3    H222182   0.025   3.737   4.058
 7413TIP3   OH222183   0.594   2.149   2.525
 7413TIP3    H122184   0.688   2.160   2.513
 7413TIP3    H222185   0.559   2.142   2.436
 7414TIP3   OH222186   0.884   1.335   2.600
 7414TIP3    H122187   0.911   1.390   2.527
 7414TIP3    H222188   0.897   1.390   2.678
 7415TIP3   OH222189   0.707   0.122   2.445
 7415TIP3    H122190   0.759   0.146   2.521
 7415TIP3    H222191   0.729   0.030   2.429
 7416TIP3   OH222192   2.891   6.019   1.845
 7416TIP3    H122193   2.930   5.968   1.774
 7416TIP3    H222194   2.800   5.989   1.849
 7417TIP3   OH222195   3.697   1.500   5.292
 7417TIP3    H122196   3.760   1.567   5.318
 7417TIP3    H222197   3.647   1.541   5.221
 7418TIP3   OH222198   5.566   0.534   3.912
 7418TIP3    H122199   5.472   0.529   3.891
 7418TIP3    H222200   5.602   0.593   3.846
 7419TIP3   OH222201   2.612   4.379   4.989
 7419TIP3    H122202   2.697   4.403   4.951
 7419TIP3    H222203   2.554   4.369   4.914
 7420TIP3   OH222204   7.986   1.302   1.634
 7420TIP3    H122205   7.968   1.218   1.593
 7420TIP3    H222206   8.029   1.280   1.716
 7421TIP3   OH222207   1.960   7.041   3.863
 7421TIP3    H122208   2.004   7.119   3.898
 7421TIP3    H222209   2.030   6.990   3.823
 7422TIP3   OH222210   6.984   5.170   3.066
 7422TIP3    H122211   6.917   5.227   3.027
 7422TIP3    H222212   6.973   5.086   3.021
 7423TIP3   OH222213   3.510   0.906   1.608
 7423TIP3    H122214   3.551   0.843   1.667
 7423TIP3    H222215   3.547   0.886   1.522
 7424TIP3   OH222216   2.832   3.559   0.213
 7424TIP3    H122217   2.754   3.546   0.267
 7424TIP3    H222218   2.809   3.632   0.155
 7425TIP3   OH222219   6.791   0.446   1.720
 7425TIP3    H122220   6.739   0.371   1.694
 7425TIP3    H222221   6.864   0.408   1.770
 7426TIP3   OH222222   0.572   7.220   3.476
 7426TIP3    H122223   0.637   7.285   3.448
 7426TIP3    H222224   0.590   7.207   3.570
 7427TIP3   OH222225   4.482   5.800   1.576
 7427TIP3    H122226   4.546   5.813   1.646
 7427TIP3    H222227   4.535   5.780   1.499
 7428TIP3   OH222228   1.732   3.714   3.868
 7428TIP3    H122229   1.655   3.679   3.912
 7428TIP3    H222230   1.789   3.744   3.939
 7429TIP3   OH222231   3.349   2.074   6.282
 7429TIP3    H122232   3.362   2.110   6.369
 7429TIP3    H222233   3.314   2.148   6.231
 7430TIP3   OH222234   6.026   0.037   2.816
 7430TIP3    H122235   6.004   0.103   2.750
 7430TIP3    H222236   6.031   0.086   2.898
 7431TIP3   OH222237   0.225   0.322   1.994
 7431TIP3    H122238   0.311   0.281   2.005
 7431TIP3    H222239   0.175   0.258   1.943
 7432TIP3   OH222240   0.495   6.432   0.415
 7432TIP3    H122241   0.457   6.349   0.444
 7432TIP3    H222242   0.431   6.498   0.441
 7433TIP3   OH222243   4.221   3.011   3.189
 7433TIP3    H122244   4.287   3.043   3.250
 7433TIP3    H222245   4.188   3.090   3.146
 7434TIP3   OH222246   7.231   6.135   6.076
 7434TIP3    H122247   7.240   6.199   6.006
 7434TIP3    H222248   7.191   6.059   6.034
 7435TIP3   OH222249   3.392   6.886   5.816
 7435TIP3    H122250   3.311   6.858   5.773
 7435TIP3    H222251   3.381   6.981   5.828
 7436TIP3   OH222252   5.285   4.105   1.726
 7436TIP3    H122253   5.380   4.101   1.727
 7436TIP3    H222254   5.264   4.183   1.779
 7437TIP3   OH222255   5.032   7.251   6.430
 7437TIP3    H122256   4.948   7.206   6.430
 7437TIP3    H222257   5.030   7.305   6.509
 7438TIP3   OH222258   3.497   1.886   6.068
 7438TIP3    H122259   3.561   1.893   5.997
 7438TIP3    H222260   3.500   1.972   6.111
 7439TIP3   OH222261   1.875   6.507   2.386
 7439TIP3    H122262   1.952   6.455   2.362
 7439TIP3    H222263   1.891   6.593   2.346
 7440TIP3   OH222264   4.522   5.263   4.576
 7440TIP3    H122265   4.617   5.262   4.565
 7440TIP3    H222266   4.508   5.248   4.670
 7441TIP3   OH222267   2.209   3.628   3.271
 7441TIP3    H122268   2.141   3.665   3.328
 7441TIP3    H222269   2.195   3.671   3.187
 7442TIP3   OH222270   1.889   1.975   4.599
 7442TIP3    H122271   1.983   1.959   4.591
 7442TIP3    H222272   1.854   1.951   4.513
 7443TIP3   OH222273   8.199   5.980   3.316
 7443TIP3    H122274   8.251   5.901   3.333
 7443TIP3    H222275   8.210   6.032   3.396
 7444TIP3   OH222276   4.218   3.365   4.417
 7444TIP3    H122277   4.161   3.440   4.403
 7444TIP3    H222278   4.277   3.364   4.342
 7445TIP3   OH222279   2.309   7.489   1.629
 7445TIP3    H122280   2.327   7.519   1.540
 7445TIP3    H222281   2.386   7.438   1.653
 7446TIP3   OH222282   3.027   7.498   1.758
 7446TIP3    H122283   3.018   7.593   1.753
 7446TIP3    H222284   2.940   7.465   1.736
 7447TIP3   OH222285   0.534   5.121   5.315
 7447TIP3    H122286   0.503   5.047   5.367
 7447TIP3    H222287   0.463   5.138   5.254
 7448TIP3   OH222288   1.160   0.302   1.409
 7448TIP3    H122289   1.121   0.332   1.327
 7448TIP3    H222290   1.246   0.268   1.384
 7449TIP3   OH222291   3.939   0.023   0.442
 7449TIP3    H122292   3.845   0.015   0.460
 7449TIP3    H222293   3.945   0.014   0.347
 7450TIP3   OH222294   4.280   0.923   4.982
 7450TIP3    H122295   4.294   0.874   4.901
 7450TIP3    H222296   4.365   0.923   5.026
 7451TIP3   OH222297   3.105   6.083   0.959
 7451TIP3    H122298   3.130   6.052   0.872
 7451TIP3    H222299   3.012   6.106   0.950
 7452TIP3   OH222300   0.264   1.286   1.871
 7452TIP3    H122301   0.271   1.222   1.942
 7452TIP3    H222302   0.354   1.303   1.845
 7453TIP3   OH222303   7.767   2.188   0.236
 7453TIP3    H122304   7.764   2.110   0.182
 7453TIP3    H222305   7.719   2.165   0.316
 7454TIP3   OH222306   4.987   3.559   2.319
 7454TIP3    H122307   5.053   3.600   2.264
 7454TIP3    H222308   5.005   3.465   2.313
 7455TIP3   OH222309   7.214  -0.042   3.352
 7455TIP3    H122310   7.206  -0.108   3.421
 7455TIP3    H222311   7.174   0.037   3.389
 7456TIP3   OH222312   4.778   6.368   4.541
 7456TIP3    H122313   4.691   6.347   4.573
 7456TIP3    H222314   4.837   6.312   4.591
 7457TIP3   OH222315   5.967   3.731   5.127
 7457TIP3    H122316   5.878   3.732   5.093
 7457TIP3    H222317   6.016   3.787   5.067
 7458TIP3   OH222318   4.796   3.119   1.922
 7458TIP3    H122319   4.739   3.157   1.988
 7458TIP3    H222320   4.738   3.102   1.847
 7459TIP3   OH222321   7.596   6.804   2.149
 7459TIP3    H122322   7.514   6.758   2.133
 7459TIP3    H222323   7.569   6.894   2.170
 7460TIP3   OH222324   4.053   0.143   2.920
 7460TIP3    H122325   4.075   0.083   2.992
 7460TIP3    H222326   3.973   0.106   2.882
 7461TIP3   OH222327   2.065   2.144   0.922
 7461TIP3    H122328   2.083   2.175   0.833
 7461TIP3    H222329   2.151   2.124   0.958
 7462TIP3   OH222330   1.174   1.550   1.456
 7462TIP3    H122331   1.124   1.618   1.411
 7462TIP3    H222332   1.184   1.481   1.390
 7463TIP3   OH222333   3.756   0.015   0.800
 7463TIP3    H122334   3.756   0.086   0.736
 7463TIP3    H222335   3.834  -0.036   0.779
 7464TIP3   OH222336   0.124   6.147   0.707
 7464TIP3    H122337   0.135   6.130   0.614
 7464TIP3    H222338   0.189   6.214   0.727
 7465TIP3   OH222339   2.346   3.439   2.667
 7465TIP3    H122340   2.319   3.409   2.754
 7465TIP3    H222341   2.268   3.427   2.612
 7466TIP3   OH222342   3.908   6.237   5.750
 7466TIP3    H122343   3.998   6.246   5.781
 7466TIP3    H222344   3.916   6.222   5.656
 7467TIP3   OH222345   7.925   6.379   4.565
 7467TIP3    H122346   7.838   6.339   4.559
 7467TIP3    H222347   7.986   6.305   4.557
 7468TIP3   OH222348   5.094   7.194   1.675
 7468TIP3    H122349   5.071   7.224   1.763
 7468TIP3    H222350   5.026   7.130   1.653
 7469TIP3   OH222351   3.622   3.705   0.468
 7469TIP3    H122352   3.592   3.684   0.380
 7469TIP3    H222353   3.603   3.626   0.519
 7470TIP3   OH222354   4.287   5.186   1.880
 7470TIP3    H122355   4.221   5.124   1.912
 7470TIP3    H222356   4.369   5.137   1.885
 7471TIP3   OH222357   3.464   1.663   3.629
 7471TIP3    H122358   3.434   1.701   3.711
 7471TIP3    H222359   3.405   1.589   3.613
 7472TIP3   OH222360   1.031   1.561   4.523
 7472TIP3    H122361   1.048   1.607   4.605
 7472TIP3    H222362   0.936   1.550   4.521
 7473TIP3   OH222363   3.290   4.347   5.733
 7473TIP3    H122364   3.338   4.292   5.672
 7473TIP3    H222365   3.198   4.333   5.712
 7474TIP3   OH222366   3.272   2.298   6.138
 7474TIP3    H122367   3.256   2.367   6.202
 7474TIP3    H222368   3.362   2.313   6.108
 7475TIP3   OH222369   7.222   6.618   5.204
 7475TIP3    H122370   7.205   6.582   5.291
 7475TIP3    H222371   7.161   6.691   5.196
 7476TIP3   OH222372   1.419   5.859   5.409
 7476TIP3    H122373   1.367   5.790   5.369
 7476TIP3    H222374   1.372   5.880   5.490
 7477TIP3   OH222375   6.030   0.814   6.439
 7477TIP3    H122376   5.965   0.876   6.470
 7477TIP3    H222377   6.026   0.741   6.500
 7478TIP3   OH222378   5.968   3.022   6.050
 7478TIP3    H122379   5.973   2.985   5.962
 7478TIP3    H222380   5.879   3.004   6.079
 7479TIP3   OH222381   0.911   2.446   4.457
 7479TIP3    H122382   0.875   2.372   4.407
 7479TIP3    H222383   0.869   2.523   4.419
 7480TIP3   OH222384   1.998   4.662   3.638
 7480TIP3    H122385   2.012   4.609   3.717
 7480TIP3    H222386   2.086   4.680   3.606
 7481TIP3   OH222387   0.306   4.007   5.778
 7481TIP3    H122388   0.325   3.920   5.812
 7481TIP3    H222389   0.392   4.049   5.768
 7482TIP3   OH222390   2.340   5.680   4.668
 7482TIP3    H122391   2.402   5.648   4.734
 7482TIP3    H222392   2.377   5.763   4.638
 7483TIP3   OH222393   5.199   3.648   1.697
 7483TIP3    H122394   5.281   3.633   1.744
 7483TIP3    H222395   5.146   3.571   1.715
 7484TIP3   OH222396   4.942   0.024   0.864
 7484TIP3    H122397   4.940   0.069   0.780
 7484TIP3    H222398   4.973  -0.064   0.844
 7485TIP3   OH222399   0.320   5.951   0.260
 7485TIP3    H122400   0.246   5.978   0.206
 7485TIP3    H222401   0.282   5.935   0.347
 7486TIP3   OH222402   0.464   7.198   6.781
 7486TIP3    H122403   0.477   7.218   6.688
 7486TIP3    H222404   0.410   7.269   6.814
 7487TIP3   OH222405   6.867   5.901   2.661
 7487TIP3    H122406   6.931   5.971   2.649
 7487TIP3    H222407   6.871   5.851   2.580
 7488TIP3   OH222408   6.268   3.089   0.318
 7488TIP3    H122409   6.202   3.152   0.345
 7488TIP3    H222410   6.344   3.142   0.295
 7489TIP3   OH222411   3.744   6.856   5.817
 7489TIP3    H122412   3.683   6.928   5.798
 7489TIP3    H222413   3.753   6.857   5.912
 7490TIP3   OH222414   1.389   3.855   6.138
 7490TIP3    H122415   1.375   3.807   6.057
 7490TIP3    H222416   1.364   3.793   6.207
 7491TIP3   OH222417   3.690   1.526   0.592
 7491TIP3    H122418   3.622   1.482   0.643
 7491TIP3    H222419   3.687   1.617   0.621
 7492TIP3   OH222420   5.967   5.060   2.864
 7492TIP3    H122421   6.027   5.115   2.914
 7492TIP3    H222422   5.992   5.074   2.773
 7493TIP3   OH222423   0.677   3.098   3.455
 7493TIP3    H122424   0.724   3.172   3.492
 7493TIP3    H222425   0.602   3.085   3.513
 7494TIP3   OH222426   4.896   7.017   5.535
 7494TIP3    H122427   4.857   6.997   5.451
 7494TIP3    H222428   4.860   6.951   5.595
 7495TIP3   OH222429   6.853   5.410   1.016
 7495TIP3    H122430   6.947   5.422   1.008
 7495TIP3    H222431   6.815   5.495   0.994
 7496TIP3   OH222432   4.843   0.042   4.491
 7496TIP3    H122433   4.778   0.096   4.448
 7496TIP3    H222434   4.876  -0.016   4.423
 7497TIP3   OH222435   5.274   3.861   2.361
 7497TIP3    H122436   5.268   3.814   2.278
 7497TIP3    H222437   5.193   3.840   2.408
 7498TIP3   OH222438   0.253   0.482   5.907
 7498TIP3    H122439   0.264   0.388   5.922
 7498TIP3    H222440   0.314   0.524   5.967
 7499TIP3   OH222441   7.831   5.682   0.806
 7499TIP3    H122442   7.886   5.755   0.776
 7499TIP3    H222443   7.746   5.699   0.766
 7500TIP3   OH222444   5.056   0.448   4.014
 7500TIP3    H122445   4.975   0.475   3.971
 7500TIP3    H222446   5.037   0.452   4.107
 7501TIP3   OH222447   3.995   0.568   1.807
 7501TIP3    H122448   3.993   0.473   1.793
 7501TIP3    H222449   3.987   0.605   1.719
 7502TIP3   OH222450   6.794   6.287   4.515
 7502TIP3    H122451   6.738   6.211   4.501
 7502TIP3    H222452   6.749   6.358   4.470
 7503TIP3   OH222453   5.686   2.832   1.711
 7503TIP3    H122454   5.593   2.833   1.687
 7503TIP3    H222455   5.710   2.925   1.716
 7504TIP3   OH222456   4.139   6.654   0.863
 7504TIP3    H122457   4.184   6.671   0.946
 7504TIP3    H222458   4.186   6.707   0.799
 7505TIP3   OH222459   1.890   1.331   2.390
 7505TIP3    H122460   1.978   1.351   2.356
 7505TIP3    H222461   1.900   1.337   2.485
 7506TIP3   OH222462   4.479   4.862   3.374
 7506TIP3    H122463   4.413   4.793   3.369
 7506TIP3    H222464   4.497   4.885   3.283
 7507TIP3   OH222465   4.463   2.266   4.856
 7507TIP3    H122466   4.417   2.324   4.917
 7507TIP3    H222467   4.554   2.265   4.888
 7508TIP3   OH222468   1.562   4.031   4.080
 7508TIP3    H122469   1.556   4.078   4.164
 7508TIP3    H222470   1.524   4.090   4.016
 7509TIP3   OH222471   6.739   3.324   4.894
 7509TIP3    H122472   6.669   3.379   4.930
 7509TIP3    H222473   6.816   3.380   4.897
 7510TIP3   OH222474   1.981   7.018   2.089
 7510TIP3    H122475   1.893   7.047   2.113
 7510TIP3    H222476   2.039   7.074   2.140
 7511TIP3   OH222477   7.494   7.448   3.427
 7511TIP3    H122478   7.479   7.534   3.467
 7511TIP3    H222479   7.410   7.403   3.434
 7512TIP3   OH222480   0.589   1.141   3.717
 7512TIP3    H122481   0.640   1.092   3.782
 7512TIP3    H222482   0.648   1.151   3.642
 7513TIP3   OH222483   5.907   2.630   0.355
 7513TIP3    H122484   5.996   2.617   0.322
 7513TIP3    H222485   5.891   2.556   0.413
 7514TIP3   OH222486   1.878   1.643   2.179
 7514TIP3    H122487   1.828   1.562   2.190
 7514TIP3    H222488   1.832   1.690   2.109
 7515TIP3   OH222489   6.486   0.192   5.366
 7515TIP3    H122490   6.564   0.172   5.315
 7515TIP3    H222491   6.519   0.231   5.448
 7516TIP3   OH222492   5.681   7.772   3.317
 7516TIP3    H122493   5.613   7.712   3.349
 7516TIP3    H222494   5.672   7.849   3.373
 7517TIP3   OH222495   7.225   2.501   6.318
 7517TIP3    H122496   7.195   2.574   6.371
 7517TIP3    H222497   7.302   2.534   6.271
 7518TIP3   OH222498   7.815   3.401   4.625
 7518TIP3    H122499   7.836   3.373   4.714
 7518TIP3    H222500   7.745   3.341   4.598
 7519TIP3   OH222501   1.782   2.487   3.964
 7519TIP3    H122502   1.711   2.539   3.927
 7519TIP3    H222503   1.738   2.413   4.007
 7520TIP3   OH222504   1.754   4.104   5.904
 7520TIP3    H122505   1.690   4.171   5.928
 7520TIP3    H222506   1.759   4.109   5.809
 7521TIP3   OH222507   8.239   1.091   2.250
 7521TIP3    H122508   8.309   1.044   2.295
 7521TIP3    H222509   8.175   1.024   2.227
 7522TIP3   OH222510   2.663   4.956   1.898
 7522TIP3    H122511   2.688   5.017   1.967
 7522TIP3    H222512   2.674   4.869   1.938
 7523TIP3   OH222513   3.590   4.741   0.539
 7523TIP3    H122514   3.530   4.666   0.545
 7523TIP3    H222515   3.544   4.804   0.483
 7524TIP3   OH222516   6.946   6.394   4.164
 7524TIP3    H122517   7.002   6.419   4.090
 7524TIP3    H222518   6.884   6.466   4.173
 7525TIP3   OH222519   3.986   2.914   0.788
 7525TIP3    H122520   3.940   2.933   0.870
 7525TIP3    H222521   4.077   2.935   0.806
 7526TIP3   OH222522   4.289   5.581   1.885
 7526TIP3    H122523   4.234   5.508   1.915
 7526TIP3    H222524   4.228   5.654   1.877
 7527TIP3   OH222525   0.455   0.129   2.850
 7527TIP3    H122526   0.548   0.103   2.848
 7527TIP3    H222527   0.436   0.144   2.942
 7528TIP3   OH222528   7.573   4.534   1.963
 7528TIP3    H122529   7.556   4.442   1.983
 7528TIP3    H222530   7.579   4.577   2.049
 7529TIP3   OH222531   0.426   1.936   1.916
 7529TIP3    H122532   0.369   1.975   1.983
 7529TIP3    H222533   0.504   1.992   1.916
 7530TIP3   OH222534   7.544   4.252   1.956
 7530TIP3    H122535   7.474   4.203   2.000
 7530TIP3    H222536   7.624   4.226   2.002
 7531TIP3   OH222537   6.233   3.602   2.342
 7531TIP3    H122538   6.150   3.639   2.374
 7531TIP3    H222539   6.228   3.611   2.247
 7532TIP3   OH222540   0.412   4.815   0.750
 7532TIP3    H122541   0.501   4.848   0.735
 7532TIP3    H222542   0.376   4.873   0.816
 7533TIP3   OH222543   6.235   7.611   2.409
 7533TIP3    H122544   6.203   7.649   2.327
 7533TIP3    H222545   6.281   7.531   2.383
 7534TIP3   OH222546   0.577   0.002   5.482
 7534TIP3    H122547   0.608   0.020   5.393
 7534TIP3    H222548   0.640   0.045   5.539
 7535TIP3   OH222549   0.861   0.209   4.329
 7535TIP3    H122550   0.926   0.225   4.397
 7535TIP3    H222551   0.908   0.162   4.261
 7536TIP3   OH222552   0.871   3.123   5.532
 7536TIP3    H122553   0.794   3.077   5.567
 7536TIP3    H222554   0.945   3.070   5.560
 7537TIP3   OH222555   6.688   1.755   6.470
 7537TIP3    H122556   6.609   1.806   6.490
 7537TIP3    H222557   6.670   1.716   6.384
 7538TIP3   OH222558   3.665   2.747   3.682
 7538TIP3    H122559   3.722   2.788   3.746
 7538TIP3    H222560   3.660   2.655   3.709
 7539TIP3   OH222561   0.335   0.098   2.572
 7539TIP3    H122562   0.394   0.115   2.646
 7539TIP3    H222563   0.370   0.020   2.530
 7540TIP3   OH222564   6.071   1.688   1.864
 7540TIP3    H122565   6.096   1.680   1.956
 7540TIP3    H222566   6.145   1.650   1.816
 7541TIP3   OH222567   1.913   3.760   2.468
 7541TIP3    H122568   1.931   3.795   2.555
 7541TIP3    H222569   1.827   3.718   2.476
 7542TIP3   OH222570   2.297   2.981   5.805
 7542TIP3    H122571   2.263   2.903   5.759
 7542TIP3    H222572   2.375   3.006   5.756
 7543TIP3   OH222573   6.703   1.430   5.730
 7543TIP3    H122574   6.638   1.432   5.801
 7543TIP3    H222575   6.744   1.516   5.733
 7544TIP3   OH222576   2.884   3.549   3.200
 7544TIP3    H122577   2.925   3.621   3.152
 7544TIP3    H222578   2.940   3.473   3.183
 7545TIP3   OH222579   3.445   1.376   6.254
 7545TIP3    H122580   3.349   1.375   6.253
 7545TIP3    H222581   3.468   1.466   6.277
 7546TIP3   OH222582   6.672   4.953   3.755
 7546TIP3    H122583   6.718   5.037   3.759
 7546TIP3    H222584   6.606   4.958   3.824
 7547TIP3   OH222585   1.054   7.011   0.399
 7547TIP3    H122586   1.029   6.920   0.419
 7547TIP3    H222587   1.149   7.013   0.411
 7548TIP3   OH222588   2.209   0.337   1.037
 7548TIP3    H122589   2.233   0.429   1.024
 7548TIP3    H222590   2.115   0.339   1.057
 7549TIP3   OH222591   5.149   4.726   6.800
 7549TIP3    H122592   5.217   4.658   6.811
 7549TIP3    H222593   5.129   4.726   6.707
 7550TIP3   OH222594   7.365   1.699   6.369
 7550TIP3    H122595   7.388   1.765   6.434
 7550TIP3    H222596   7.347   1.749   6.289
 7551TIP3   OH222597   1.813   3.443   5.212
 7551TIP3    H122598   1.896   3.489   5.200
 7551TIP3    H222599   1.788   3.415   5.124
 7552TIP3   OH222600   0.518   2.750   3.429
 7552TIP3    H122601   0.486   2.721   3.515
 7552TIP3    H222602   0.610   2.771   3.443
 7553TIP3   OH222603   2.866   4.985   3.911
 7553TIP3    H122604   2.874   4.930   3.989
 7553TIP3    H222605   2.949   4.974   3.865
 7554TIP3   OH222606   3.800   1.717   2.633
 7554TIP3    H122607   3.882   1.672   2.610
 7554TIP3    H222608   3.768   1.751   2.549
 7555TIP3   OH222609   7.096   0.287   5.160
 7555TIP3    H122610   7.153   0.355   5.196
 7555TIP3    H222611   7.116   0.286   5.066
 7556TIP3   OH222612   5.192   7.405   5.471
 7556TIP3    H122613   5.205   7.338   5.403
 7556TIP3    H222614   5.232   7.484   5.434
 7557TIP3   OH222615   7.906   6.603   2.899
 7557TIP3    H122616   7.877   6.559   2.979
 7557TIP3    H222617   7.827   6.607   2.845
 7558TIP3   OH222618   2.782   6.328   4.328
 7558TIP3    H122619   2.759   6.358   4.240
 7558TIP3    H222620   2.807   6.236   4.316
 7559TIP3   OH222621   1.839   1.480   2.800
 7559TIP3    H122622   1.814   1.404   2.852
 7559TIP3    H222623   1.913   1.450   2.747
 7560TIP3   OH222624   2.129   1.854   5.287
 7560TIP3    H122625   2.124   1.880   5.195
 7560TIP3    H222626   2.101   1.762   5.288
 7561TIP3   OH222627   2.131   7.042   0.238
 7561TIP3    H122628   2.184   7.097   0.181
 7561TIP3    H222629   2.072   7.103   0.282
 7562TIP3   OH222630   7.789   3.466   4.091
 7562TIP3    H122631   7.722   3.528   4.063
 7562TIP3    H222632   7.751   3.380   4.074
 7563TIP3   OH222633   8.061   4.164   0.418
 7563TIP3    H122634   8.020   4.203   0.340
 7563TIP3    H222635   8.059   4.070   0.401
 7564TIP3   OH222636   1.565   6.037   1.844
 7564TIP3    H122637   1.585   5.954   1.800
 7564TIP3    H222638   1.599   6.025   1.933
 7565TIP3   OH222639   5.239   6.346   5.543
 7565TIP3    H122640   5.310   6.300   5.499
 7565TIP3    H222641   5.208   6.284   5.609
 7566TIP3   OH222642   4.779   3.353   2.132
 7566TIP3    H122643   4.773   3.415   2.059
 7566TIP3    H222644   4.734   3.396   2.204
 7567TIP3   OH222645   2.269   5.182   6.278
 7567TIP3    H122646   2.291   5.218   6.364
 7567TIP3    H222647   2.273   5.087   6.290
 7568TIP3   OH222648   5.365   5.586   3.451
 7568TIP3    H122649   5.413   5.643   3.511
 7568TIP3    H222650   5.369   5.631   3.367
 7569TIP3   OH222651   5.247   0.820   3.809
 7569TIP3    H122652   5.255   0.729   3.780
 7569TIP3    H222653   5.281   0.820   3.898
 7570TIP3   OH222654   1.544   1.725   0.366
 7570TIP3    H122655   1.528   1.680   0.449
 7570TIP3    H222656   1.486   1.801   0.368
 7571TIP3   OH222657   7.625   0.770   3.300
 7571TIP3    H122658   7.673   0.777   3.383
 7571TIP3    H222659   7.578   0.853   3.293
 7572TIP3   OH222660   8.177   7.700   4.327
 7572TIP3    H122661   8.183   7.679   4.234
 7572TIP3    H222662   8.193   7.617   4.372
 7573TIP3   OH222663   0.934   3.624   2.977
 7573TIP3    H122664   0.945   3.608   2.883
 7573TIP3    H222665   0.893   3.545   3.010
 7574TIP3   OH222666   5.502   5.666   4.446
 7574TIP3    H122667   5.436   5.727   4.478
 7574TIP3    H222668   5.535   5.623   4.525
 7575TIP3   OH222669   3.331   0.568   4.397
 7575TIP3    H122670   3.325   0.644   4.455
 7575TIP3    H222671   3.387   0.506   4.444
 7576TIP3   OH222672   0.810   1.190   2.205
 7576TIP3    H122673   0.780   1.242   2.131
 7576TIP3    H222674   0.892   1.150   2.175
 7577TIP3   OH222675   2.143   1.128   0.560
 7577TIP3    H122676   2.081   1.064   0.526
 7577TIP3    H222677   2.225   1.108   0.515
 7578TIP3   OH222678   1.742   5.670   1.946
 7578TIP3    H122679   1.734   5.755   1.903
 7578TIP3    H222680   1.716   5.687   2.037
 7579TIP3   OH222681   3.975   0.409   3.031
 7579TIP3    H122682   3.941   0.328   3.069
 7579TIP3    H222683   3.927   0.479   3.076
 7580TIP3   OH222684   1.280   7.001   0.016
 7580TIP3    H122685   1.279   6.914   0.054
 7580TIP3    H222686   1.352   7.046   0.060
 7581TIP3   OH222687   2.295   5.386   3.344
 7581TIP3    H122688   2.252   5.306   3.315
 7581TIP3    H222689   2.385   5.378   3.311
 7582TIP3   OH222690   6.570   7.776   6.749
 7582TIP3    H122691   6.581   7.867   6.720
 7582TIP3    H222692   6.514   7.783   6.827
 7583TIP3   OH222693   5.505   0.307   2.455
 7583TIP3    H122694   5.546   0.276   2.374
 7583TIP3    H222695   5.485   0.399   2.438
 7584TIP3   OH222696   8.155   5.287   2.435
 7584TIP3    H122697   8.219   5.299   2.365
 7584TIP3    H222698   8.206   5.287   2.516
 7585TIP3   OH222699   3.093   1.503   2.818
 7585TIP3    H122700   3.177   1.548   2.810
 7585TIP3    H222701   3.110   1.431   2.879
 7586TIP3   OH222702   0.055   5.347   5.549
 7586TIP3    H122703   0.035   5.440   5.552
 7586TIP3    H222704   0.126   5.335   5.613
 7587TIP3   OH222705   1.264   5.611   1.141
 7587TIP3    H122706   1.212   5.633   1.064
 7587TIP3    H222707   1.326   5.683   1.151
 7588TIP3   OH222708   3.231   3.484   4.912
 7588TIP3    H122709   3.154   3.429   4.927
 7588TIP3    H222710   3.276   3.444   4.838
 7589TIP3   OH222711   0.015   3.007   0.461
 7589TIP3    H122712   0.087   3.057   0.422
 7589TIP3    H222713  -0.025   3.068   0.523
 7590TIP3   OH222714   5.282   0.838   2.996
 7590TIP3    H122715   5.287   0.802   2.908
 7590TIP3    H222716   5.373   0.848   3.024
 7591TIP3   OH222717   0.144   6.177   1.320
 7591TIP3    H122718   0.212   6.172   1.253
 7591TIP3    H222719   0.138   6.270   1.342
 7592TIP3   OH222720   2.181   3.892   2.439
 7592TIP3    H122721   2.233   3.812   2.438
 7592TIP3    H222722   2.136   3.891   2.523
 7593TIP3   OH222723   4.699   0.451   0.345
 7593TIP3    H122724   4.644   0.375   0.365
 7593TIP3    H222725   4.694   0.461   0.250
 7594TIP3   OH222726   3.327   6.854   1.323
 7594TIP3    H122727   3.414   6.815   1.311
 7594TIP3    H222728   3.266   6.781   1.316
 7595TIP3   OH222729   4.525   2.041   2.744
 7595TIP3    H122730   4.590   2.054   2.675
 7595TIP3    H222731   4.470   1.970   2.712
 7596TIP3   OH222732   4.648   1.179   2.015
 7596TIP3    H122733   4.729   1.155   2.060
 7596TIP3    H222734   4.579   1.149   2.073
 7597TIP3   OH222735   3.436   6.572   1.382
 7597TIP3    H122736   3.529   6.549   1.391
 7597TIP3    H222737   3.422   6.580   1.288
 7598TIP3   OH222738   0.309   2.084   4.391
 7598TIP3    H122739   0.365   2.081   4.314
 7598TIP3    H222740   0.357   2.033   4.457
 7599TIP3   OH222741   2.955   0.239   4.443
 7599TIP3    H122742   3.032   0.183   4.447
 7599TIP3    H222743   2.990   0.328   4.447
 7600TIP3   OH222744   6.248   7.319   4.587
 7600TIP3    H122745   6.260   7.338   4.680
 7600TIP3    H222746   6.183   7.383   4.558
 7601TIP3   OH222747   3.138   3.376   3.086
 7601TIP3    H122748   3.080   3.314   3.042
 7601TIP3    H222749   3.164   3.331   3.167
 7602TIP3   OH222750   6.905   5.473   2.430
 7602TIP3    H122751   6.872   5.429   2.352
 7602TIP3    H222752   6.999   5.458   2.428
 7603TIP3   OH222753   0.109   2.130   4.208
 7603TIP3    H122754   0.113   2.220   4.176
 7603TIP3    H222755   0.178   2.125   4.274
 7604TIP3   OH222756   0.776   3.092   3.770
 7604TIP3    H122757   0.704   3.030   3.778
 7604TIP3    H222758   0.763   3.154   3.842
 7605TIP3   OH222759   1.642   1.583   3.767
 7605TIP3    H122760   1.662   1.664   3.814
 7605TIP3    H222761   1.707   1.521   3.797
 7606TIP3   OH222762   1.886   7.111   2.973
 7606TIP3    H122763   1.849   7.023   2.963
 7606TIP3    H222764   1.816   7.162   3.012
 7607TIP3   OH222765   4.487   6.159   3.142
 7607TIP3    H122766   4.534   6.224   3.090
 7607TIP3    H222767   4.537   6.153   3.223
 7608TIP3   OH222768   0.543   3.190   4.190
 7608TIP3    H122769   0.558   3.282   4.167
 7608TIP3    H222770   0.508   3.151   4.110
 7609TIP3   OH222771   2.255   0.514   3.239
 7609TIP3    H122772   2.340   0.558   3.235
 7609TIP3    H222773   2.270   0.429   3.196
 7610TIP3   OH222774   4.424   5.564   3.648
 7610TIP3    H122775   4.379   5.483   3.623
 7610TIP3    H222776   4.502   5.533   3.695
 7611TIP3   OH222777   5.583   5.422   2.066
 7611TIP3    H122778   5.522   5.372   2.119
 7611TIP3    H222779   5.553   5.411   1.976
 7612TIP3   OH222780   3.110   0.137   5.643
 7612TIP3    H122781   3.137   0.102   5.728
 7612TIP3    H222782   3.033   0.087   5.619
 7613TIP3   OH222783   0.549   2.089   3.933
 7613TIP3    H122784   0.588   2.072   3.847
 7613TIP3    H222785   0.458   2.113   3.913
 7614TIP3   OH222786   4.158   7.580   4.840
 7614TIP3    H122787   4.110   7.551   4.918
 7614TIP3    H222788   4.171   7.673   4.854
 7615TIP3   OH222789   0.132   2.687   3.159
 7615TIP3    H122790   0.071   2.761   3.151
 7615TIP3    H222791   0.200   2.705   3.094
 7616TIP3   OH222792   0.280   3.472   6.524
 7616TIP3    H122793   0.295   3.462   6.618
 7616TIP3    H222794   0.350   3.531   6.495
 7617TIP3   OH222795   0.124   0.327   0.421
 7617TIP3    H122796   0.201   0.312   0.367
 7617TIP3    H222797   0.112   0.422   0.419
 7618TIP3   OH222798   0.576   4.310   1.032
 7618TIP3    H122799   0.578   4.220   1.067
 7618TIP3    H222800   0.656   4.317   0.981
 7619TIP3   OH222801   4.931   7.636   6.541
 7619TIP3    H122802   4.896   7.580   6.472
 7619TIP3    H222803   4.928   7.725   6.504
 7620TIP3   OH222804   3.896   0.713   0.510
 7620TIP3    H122805   3.989   0.734   0.508
 7620TIP3    H222806   3.858   0.776   0.571
 7621TIP3   OH222807   5.395   7.816   5.007
 7621TIP3    H122808   5.329   7.775   5.064
 7621TIP3    H222809   5.349   7.890   4.968
 7622TIP3   OH222810   4.625   4.706   4.206
 7622TIP3    H122811   4.533   4.729   4.219
 7622TIP3    H222812   4.671   4.790   4.203
 7623TIP3   OH222813   6.269   4.313   5.136
 7623TIP3    H122814   6.184   4.269   5.130
 7623TIP3    H222815   6.312   4.292   5.053
 7624TIP3   OH222816   7.156   5.279   3.257
 7624TIP3    H122817   7.108   5.252   3.179
 7624TIP3    H222818   7.189   5.197   3.295
 7625TIP3   OH222819   1.145   5.420  -0.025
 7625TIP3    H122820   1.067   5.413   0.030
 7625TIP3    H222821   1.163   5.514  -0.028
 7626TIP3   OH222822   5.184   2.621   3.380
 7626TIP3    H122823   5.229   2.583   3.305
 7626TIP3    H222824   5.142   2.546   3.423
 7627TIP3   OH222825   2.607   2.018   5.825
 7627TIP3    H122826   2.519   1.982   5.818
 7627TIP3    H222827   2.616   2.075   5.749
 7628TIP3   OH222828   3.871   1.180   2.727
 7628TIP3    H122829   3.902   1.211   2.642
 7628TIP3    H222830   3.855   1.087   2.715
 7629TIP3   OH222831   0.570   0.272   3.406
 7629TIP3    H122832   0.650   0.302   3.449
 7629TIP3    H222833   0.596   0.252   3.317
 7630TIP3   OH222834   8.266   3.429   0.184
 7630TIP3    H122835   8.270   3.409   0.277
 7630TIP3    H222836   8.258   3.344   0.140
 7631TIP3   OH222837   3.138   1.570   6.312
 7631TIP3    H122838   3.087   1.650   6.325
 7631TIP3    H222839   3.228   1.597   6.327
 7632TIP3   OH222840   4.521   7.303   2.632
 7632TIP3    H122841   4.606   7.287   2.673
 7632TIP3    H222842   4.482   7.217   2.622
 7633TIP3   OH222843   3.558   5.904   0.540
 7633TIP3    H122844   3.561   5.923   0.446
 7633TIP3    H222845   3.466   5.915   0.563
 7634TIP3   OH222846   6.860   3.591   6.654
 7634TIP3    H122847   6.830   3.644   6.728
 7634TIP3    H222848   6.793   3.523   6.645
 7635TIP3   OH222849   2.743   2.987   3.234
 7635TIP3    H122850   2.751   2.921   3.302
 7635TIP3    H222851   2.727   3.069   3.281
 7636TIP3   OH222852   5.787   6.185   3.834
 7636TIP3    H122853   5.772   6.117   3.899
 7636TIP3    H222854   5.882   6.190   3.824
 7637TIP3   OH222855   4.657   6.579   3.808
 7637TIP3    H122856   4.636   6.487   3.791
 7637TIP3    H222857   4.656   6.587   3.903
 7638TIP3   OH222858   7.568   1.472   6.748
 7638TIP3    H122859   7.517   1.395   6.772
 7638TIP3    H222860   7.504   1.536   6.718
 7639TIP3   OH222861   6.238   3.138   2.188
 7639TIP3    H122862   6.179   3.191   2.240
 7639TIP3    H222863   6.322   3.141   2.234
 7640TIP3   OH222864   7.081   1.097   0.377
 7640TIP3    H122865   7.157   1.146   0.408
 7640TIP3    H222866   7.014   1.163   0.361
 7641TIP3   OH222867   2.141   5.944   2.865
 7641TIP3    H122868   2.227   5.919   2.901
 7641TIP3    H222869   2.083   5.945   2.940
 7642TIP3   OH222870   6.346   2.268   2.235
 7642TIP3    H122871   6.391   2.263   2.151
 7642TIP3    H222872   6.324   2.360   2.246
 7643TIP3   OH222873   7.260   2.262   4.521
 7643TIP3    H122874   7.182   2.305   4.556
 7643TIP3    H222875   7.259   2.281   4.428
 7644TIP3   OH222876   1.303   1.839   2.865
 7644TIP3    H122877   1.210   1.831   2.883
 7644TIP3    H222878   1.324   1.930   2.886
 7645TIP3   OH222879   0.054   5.318   2.995
 7645TIP3    H122880  -0.035   5.292   3.020
 7645TIP3    H222881   0.099   5.331   3.079
 7646TIP3   OH222882   3.584   3.357   2.842
 7646TIP3    H122883   3.544   3.342   2.928
 7646TIP3    H222884   3.524   3.318   2.780
 7647TIP3   OH222885   6.508   5.838   1.880
 7647TIP3    H122886   6.517   5.857   1.787
 7647TIP3    H222887   6.591   5.866   1.918
 7648TIP3   OH222888   1.367   5.538   6.787
 7648TIP3    H122889   1.285   5.511   6.745
 7648TIP3    H222890   1.425   5.463   6.773
 7649TIP3   OH222891   3.752   2.968   2.165
 7649TIP3    H122892   3.728   2.883   2.126
 7649TIP3    H222893   3.670   3.018   2.164
 7650TIP3   OH222894   5.477   0.116   1.215
 7650TIP3    H122895   5.402   0.108   1.156
 7650TIP3    H222896   5.553   0.124   1.157
 7651TIP3   OH222897   7.764   4.258   0.805
 7651TIP3    H122898   7.734   4.340   0.845
 7651TIP3    H222899   7.860   4.265   0.806
 7652TIP3   OH222900   1.445   6.761   6.116
 7652TIP3    H122901   1.390   6.837   6.096
 7652TIP3    H222902   1.392   6.686   6.089
 7653TIP3   OH222903   7.378   6.714   1.409
 7653TIP3    H122904   7.287   6.699   1.436
 7653TIP3    H222905   7.371   6.764   1.328
 7654TIP3   OH222906   3.637   3.423   2.382
 7654TIP3    H122907   3.583   3.407   2.305
 7654TIP3    H222908   3.620   3.515   2.405
 7655TIP3   OH222909   1.762   5.302   3.897
 7655TIP3    H122910   1.822   5.348   3.956
 7655TIP3    H222911   1.818   5.271   3.825
 7656TIP3   OH222912   1.438   5.746   5.830
 7656TIP3    H122913   1.530   5.756   5.804
 7656TIP3    H222914   1.436   5.666   5.883
 7657TIP3   OH222915   5.564   7.721   5.938
 7657TIP3    H122916   5.513   7.802   5.949
 7657TIP3    H222917   5.546   7.694   5.848
 7658TIP3   OH222918   1.965   0.502   3.080
 7658TIP3    H122919   1.894   0.493   3.143
 7658TIP3    H222920   2.017   0.422   3.090
 7659TIP3   OH222921   3.722   3.504   1.375
 7659TIP3    H122922   3.670   3.543   1.305
 7659TIP3    H222923   3.812   3.530   1.357
 7660TIP3   OH222924   7.434   6.404   4.831
 7660TIP3    H122925   7.476   6.424   4.747
 7660TIP3    H222926   7.446   6.483   4.883
 7661TIP3   OH222927   6.329   1.504   4.512
 7661TIP3    H122928   6.238   1.492   4.485
 7661TIP3    H222929   6.380   1.492   4.432
 7662TIP3   OH222930   8.224   0.757   3.014
 7662TIP3    H122931   8.253   0.674   3.052
 7662TIP3    H222932   8.186   0.805   3.087
 7663TIP3   OH222933   5.794   6.858   2.133
 7663TIP3    H122934   5.780   6.773   2.092
 7663TIP3    H222935   5.735   6.917   2.086
 7664TIP3   OH222936   6.894   1.894   3.816
 7664TIP3    H122937   6.869   1.850   3.735
 7664TIP3    H222938   6.900   1.824   3.881
 7665TIP3   OH222939   4.300   7.684   1.905
 7665TIP3    H122940   4.211   7.715   1.919
 7665TIP3    H222941   4.336   7.742   1.838
 7666TIP3   OH222942   6.847   3.415   2.317
 7666TIP3    H122943   6.910   3.375   2.378
 7666TIP3    H222944   6.878   3.506   2.308
 7667TIP3   OH222945   6.040   3.308   3.614
 7667TIP3    H122946   6.121   3.302   3.563
 7667TIP3    H222947   5.977   3.256   3.564
 7668TIP3   OH222948   0.910   0.289   1.551
 7668TIP3    H122949   0.991   0.299   1.502
 7668TIP3    H222950   0.844   0.269   1.484
 7669TIP3   OH222951   0.289   6.248   5.185
 7669TIP3    H122952   0.349   6.182   5.220
 7669TIP3    H222953   0.267   6.216   5.097
 7670TIP3   OH222954   2.383   0.665   2.653
 7670TIP3    H122955   2.368   0.673   2.558
 7670TIP3    H222956   2.352   0.577   2.674
 7671TIP3   OH222957   0.212   7.051   2.970
 7671TIP3    H122958   0.229   6.960   2.995
 7671TIP3    H222959   0.175   7.045   2.882
 7672TIP3   OH222960   7.004   6.858   0.845
 7672TIP3    H122961   6.987   6.886   0.935
 7672TIP3    H222962   6.918   6.832   0.812
 7673TIP3   OH222963   5.688   5.439   6.602
 7673TIP3    H122964   5.738   5.359   6.587
 7673TIP3    H222965   5.686   5.449   6.697
 7674TIP3   OH222966   4.048   4.509   4.604
 7674TIP3    H122967   4.045   4.464   4.689
 7674TIP3    H222968   4.084   4.596   4.624
 7675TIP3   OH222969   1.769   5.915   3.888
 7675TIP3    H122970   1.807   5.999   3.914
 7675TIP3    H222971   1.695   5.939   3.832
 7676TIP3   OH222972   4.964   7.615   4.754
 7676TIP3    H122973   5.058   7.629   4.759
 7676TIP3    H222974   4.944   7.560   4.830
 7677TIP3   OH222975   1.030   0.797   1.382
 7677TIP3    H122976   0.942   0.788   1.348
 7677TIP3    H222977   1.019   0.840   1.467
 7678TIP3   OH222978   3.010   0.928   5.018
 7678TIP3    H122979   2.925   0.887   5.010
 7678TIP3    H222980   2.994   1.021   5.002
 7679TIP3   OH222981   7.535   1.054   5.129
 7679TIP3    H122982   7.543   1.029   5.221
 7679TIP3    H222983   7.476   0.989   5.091
 7680TIP3   OH222984   5.173   0.764   2.533
 7680TIP3    H122985   5.248   0.722   2.576
 7680TIP3    H222986   5.212   0.823   2.469
 7681TIP3   OH222987   1.467   3.445   6.032
 7681TIP3    H122988   1.388   3.430   5.980
 7681TIP3    H222989   1.437   3.439   6.123
 7682TIP3   OH222990   6.198   0.989   0.133
 7682TIP3    H122991   6.259   1.056   0.102
 7682TIP3    H222992   6.243   0.951   0.209
 7683TIP3   OH222993   1.414   6.444   1.335
 7683TIP3    H122994   1.320   6.444   1.317
 7683TIP3    H222995   1.419   6.450   1.430
 7684TIP3   OH222996   1.070   6.882   1.797
 7684TIP3    H122997   1.083   6.971   1.764
 7684TIP3    H222998   0.976   6.868   1.791
 7685TIP3   OH222999   0.148   7.649   1.961
 7685TIP3    H123000   0.072   7.692   1.922
 7685TIP3    H223001   0.116   7.562   1.988
 7686TIP3   OH223002   2.819   6.991   4.210
 7686TIP3    H123003   2.845   6.917   4.265
 7686TIP3    H223004   2.819   6.956   4.121
 7687TIP3   OH223005   1.030   0.347   3.334
 7687TIP3    H123006   1.006   0.271   3.281
 7687TIP3    H223007   1.091   0.314   3.399
 7688TIP3   OH223008   7.654   5.821   5.663
 7688TIP3    H123009   7.738   5.782   5.688
 7688TIP3    H223010   7.619   5.762   5.596
 7689TIP3   OH223011   4.241   1.281   5.388
 7689TIP3    H123012   4.295   1.208   5.416
 7689TIP3    H223013   4.157   1.268   5.432
 7690TIP3   OH223014   0.629   4.950   5.081
 7690TIP3    H123015   0.645   4.856   5.085
 7690TIP3    H223016   0.593   4.973   5.167
 7691TIP3   OH223017   5.498   0.221   5.470
 7691TIP3    H123018   5.453   0.142   5.502
 7691TIP3    H223019   5.558   0.189   5.403
 7692TIP3   OH223020   7.419   7.134   1.308
 7692TIP3    H123021   7.386   7.069   1.245
 7692TIP3    H223022   7.510   7.108   1.323
 7693TIP3   OH223023   3.918   6.762   6.602
 7693TIP3    H123024   3.999   6.718   6.626
 7693TIP3    H223025   3.903   6.826   6.672
 7694TIP3   OH223026   3.100   6.334   4.067
 7694TIP3    H123027   3.174   6.341   4.008
 7694TIP3    H223028   3.112   6.251   4.112
 7695TIP3   OH223029   4.771   3.643   5.815
 7695TIP3    H123030   4.777   3.663   5.722
 7695TIP3    H223031   4.685   3.676   5.841
 7696TIP3   OH223032   7.650   3.156   0.554
 7696TIP3    H123033   7.665   3.122   0.466
 7696TIP3    H223034   7.737   3.159   0.594
 7697TIP3   OH223035   1.737   0.611   6.490
 7697TIP3    H123036   1.816   0.631   6.438
 7697TIP3    H223037   1.771   0.591   6.577
 7698TIP3   OH223038   5.879   3.828   3.426
 7698TIP3    H123039   5.831   3.777   3.362
 7698TIP3    H223040   5.829   3.910   3.434
 7699TIP3   OH223041   6.584   2.174   1.230
 7699TIP3    H123042   6.612   2.087   1.204
 7699TIP3    H223043   6.646   2.199   1.299
 7700TIP3   OH223044   3.764   0.457   5.657
 7700TIP3    H123045   3.818   0.465   5.579
 7700TIP3    H223046   3.684   0.506   5.636
 7701TIP3   OH223047   0.692   4.530   0.311
 7701TIP3    H123048   0.609   4.578   0.309
 7701TIP3    H223049   0.705   4.502   0.221
 7702TIP3   OH223050   1.373   3.719   5.860
 7702TIP3    H123051   1.343   3.696   5.773
 7702TIP3    H223052   1.464   3.745   5.848
 7703TIP3   OH223053   6.862   6.122   6.072
 7703TIP3    H123054   6.805   6.048   6.053
 7703TIP3    H223055   6.848   6.182   5.999
 7704TIP3   OH223056   1.142   5.134   1.192
 7704TIP3    H123057   1.183   5.056   1.155
 7704TIP3    H223058   1.049   5.125   1.170
 7705TIP3   OH223059   3.466   4.942   4.480
 7705TIP3    H123060   3.559   4.944   4.461
 7705TIP3    H223061   3.428   5.012   4.426
 7706TIP3   OH223062   5.036   3.163   2.602
 7706TIP3    H123063   5.102   3.224   2.636
 7706TIP3    H223064   5.071   3.076   2.622
 7707TIP3   OH223065   5.122   4.090   2.512
 7707TIP3    H123066   5.089   4.038   2.439
 7707TIP3    H223067   5.063   4.068   2.585
 7708TIP3   OH223068   1.575   0.329   4.167
 7708TIP3    H123069   1.551   0.265   4.100
 7708TIP3    H223070   1.644   0.286   4.218
 7709TIP3   OH223071  -0.006   0.400   1.203
 7709TIP3    H123072  -0.005   0.391   1.108
 7709TIP3    H223073   0.006   0.311   1.236
 7710TIP3   OH223074   0.481   4.198   3.709
 7710TIP3    H123075   0.495   4.271   3.649
 7710TIP3    H223076   0.559   4.143   3.697
 7711TIP3   OH223077   6.428   3.359   4.781
 7711TIP3    H123078   6.483   3.403   4.717
 7711TIP3    H223079   6.367   3.307   4.729
 7712TIP3   OH223080   2.304   2.792   5.137
 7712TIP3    H123081   2.298   2.821   5.228
 7712TIP3    H223082   2.340   2.868   5.091
 7713TIP3   OH223083   7.417   2.792   2.004
 7713TIP3    H123084   7.501   2.826   2.035
 7713TIP3    H223085   7.400   2.715   2.058
 7714TIP3   OH223086   1.293   3.961   3.968
 7714TIP3    H123087   1.347   4.036   3.942
 7714TIP3    H223088   1.293   3.963   4.064
 7715TIP3   OH223089   2.206   3.270   5.395
 7715TIP3    H123090   2.149   3.226   5.458
 7715TIP3    H223091   2.217   3.358   5.431
 7716TIP3   OH223092   0.462   6.317   5.931
 7716TIP3    H123093   0.484   6.403   5.895
 7716TIP3    H223094   0.398   6.282   5.869
 7717TIP3   OH223095   6.032   1.006   3.224
 7717TIP3    H123096   6.125   0.993   3.205
 7717TIP3    H223097   6.030   1.081   3.284
 7718TIP3   OH223098   6.963   1.470   1.159
 7718TIP3    H123099   7.030   1.520   1.206
 7718TIP3    H223100   6.948   1.519   1.078
 7719TIP3   OH223101   0.771   3.903   2.670
 7719TIP3    H123102   0.791   3.841   2.599
 7719TIP3    H223103   0.708   3.856   2.725
 7720TIP3   OH223104   1.735   2.799   4.469
 7720TIP3    H123105   1.743   2.713   4.510
 7720TIP3    H223106   1.753   2.783   4.377
 7721TIP3   OH223107   4.660   2.458   6.171
 7721TIP3    H123108   4.613   2.525   6.122
 7721TIP3    H223109   4.750   2.463   6.138
 7722TIP3   OH223110   4.414   7.432   4.916
 7722TIP3    H123111   4.386   7.344   4.890
 7722TIP3    H223112   4.340   7.488   4.894
 7723TIP3   OH223113   0.693   1.507   5.673
 7723TIP3    H123114   0.603   1.477   5.689
 7723TIP3    H223115   0.742   1.477   5.749
 7724TIP3   OH223116   5.182   6.559   6.535
 7724TIP3    H123117   5.259   6.567   6.478
 7724TIP3    H223118   5.152   6.469   6.522
 7725TIP3   OH223119   1.589   6.082   6.362
 7725TIP3    H123120   1.672   6.120   6.392
 7725TIP3    H223121   1.525   6.109   6.427
 7726TIP3   OH223122   0.039   3.910   0.680
 7726TIP3    H123123   0.055   3.987   0.626
 7726TIP3    H223124   0.120   3.860   0.675
 7727TIP3   OH223125   1.973   4.499   5.157
 7727TIP3    H123126   1.973   4.593   5.175
 7727TIP3    H223127   1.903   4.464   5.212
 7728TIP3   OH223128   1.946   2.771   1.748
 7728TIP3    H123129   1.935   2.806   1.660
 7728TIP3    H223130   1.939   2.676   1.738
 7729TIP3   OH223131   4.768   6.151   5.884
 7729TIP3    H123132   4.850   6.115   5.918
 7729TIP3    H223133   4.780   6.155   5.789
 7730TIP3   OH223134   1.277   4.283   5.580
 7730TIP3    H123135   1.323   4.219   5.526
 7730TIP3    H223136   1.260   4.357   5.521
 7731TIP3   OH223137   0.484   7.104   4.625
 7731TIP3    H123138   0.397   7.071   4.603
 7731TIP3    H223139   0.505   7.062   4.709
 7732TIP3   OH223140   4.210   4.710   3.599
 7732TIP3    H123141   4.204   4.802   3.624
 7732TIP3    H223142   4.275   4.673   3.658
 7733TIP3   OH223143   4.539   5.222   0.862
 7733TIP3    H123144   4.538   5.155   0.793
 7733TIP3    H223145   4.476   5.191   0.927
 7734TIP3   OH223146   7.887   3.263   0.671
 7734TIP3    H123147   7.920   3.200   0.735
 7734TIP3    H223148   7.824   3.317   0.719
 7735TIP3   OH223149   2.061   0.026   6.579
 7735TIP3    H123150   2.136  -0.032   6.565
 7735TIP3    H223151   2.029   0.003   6.666
 7736TIP3   OH223152   3.717   5.054   3.623
 7736TIP3    H123153   3.681   5.127   3.673
 7736TIP3    H223154   3.641   5.001   3.600
 7737TIP3   OH223155   6.730   1.385   5.431
 7737TIP3    H123156   6.732   1.420   5.520
 7737TIP3    H223157   6.665   1.314   5.434
 7738TIP3   OH223158   2.041   0.082   2.500
 7738TIP3    H123159   1.996   0.037   2.428
 7738TIP3    H223160   1.970   0.114   2.555
 7739TIP3   OH223161   6.312   3.205   1.298
 7739TIP3    H123162   6.392   3.229   1.252
 7739TIP3    H223163   6.318   3.110   1.307
 7740TIP3   OH223164   5.344   5.620   2.886
 7740TIP3    H123165   5.351   5.715   2.878
 7740TIP3    H223166   5.435   5.589   2.892
 7741TIP3   OH223167   6.564   0.961   0.438
 7741TIP3    H123168   6.639   0.945   0.381
 7741TIP3    H223169   6.578   1.050   0.471
 7742TIP3   OH223170   0.380   1.116   0.373
 7742TIP3    H123171   0.287   1.093   0.374
 7742TIP3    H223172   0.425   1.032   0.379
 7743TIP3   OH223173   7.698   5.160   3.514
 7743TIP3    H123174   7.713   5.251   3.539
 7743TIP3    H223175   7.774   5.137   3.460
 7744TIP3   OH223176   5.504   4.200   1.030
 7744TIP3    H123177   5.530   4.113   1.058
 7744TIP3    H223178   5.442   4.229   1.097
 7745TIP3   OH223179   6.854   3.620   4.781
 7745TIP3    H123180   6.918   3.549   4.793
 7745TIP3    H223181   6.877   3.685   4.847
 7746TIP3   OH223182   0.879   7.077   6.289
 7746TIP3    H123183   0.933   7.089   6.210
 7746TIP3    H223184   0.928   7.016   6.343
 7747TIP3   OH223185   3.263   1.529   2.281
 7747TIP3    H123186   3.356   1.533   2.259
 7747TIP3    H223187   3.220   1.506   2.200
 7748TIP3   OH223188   1.452   6.123   0.329
 7748TIP3    H123189   1.389   6.171   0.277
 7748TIP3    H223190   1.441   6.032   0.303
 7749TIP3   OH223191   2.617   2.406   2.949
 7749TIP3    H123192   2.659   2.399   3.035
 7749TIP3    H223193   2.532   2.445   2.967
 7750TIP3   OH223194   0.629   0.796   4.326
 7750TIP3    H123195   0.622   0.705   4.295
 7750TIP3    H223196   0.542   0.817   4.360
 7751TIP3   OH223197   7.891   1.557   1.511
 7751TIP3    H123198   7.945   1.497   1.563
 7751TIP3    H223199   7.941   1.571   1.431
 7752TIP3   OH223200   1.081   5.125   2.728
 7752TIP3    H123201   1.105   5.037   2.758
 7752TIP3    H223202   1.162   5.176   2.737
 7753TIP3   OH223203   3.964   1.370   0.658
 7753TIP3    H123204   3.911   1.346   0.734
 7753TIP3    H223205   3.925   1.452   0.627
 7754TIP3   OH223206   0.359   4.840   6.063
 7754TIP3    H123207   0.419   4.780   6.108
 7754TIP3    H223208   0.389   4.839   5.972
 7755TIP3   OH223209   8.124   6.955   0.084
 7755TIP3    H123210   8.094   6.870   0.118
 7755TIP3    H223211   8.182   6.989   0.151
 7756TIP3   OH223212   0.200   4.161   5.142
 7756TIP3    H123213   0.267   4.229   5.136
 7756TIP3    H223214   0.209   4.112   5.060
 7757TIP3   OH223215   1.941   7.294   4.300
 7757TIP3    H123216   1.934   7.290   4.395
 7757TIP3    H223217   1.895   7.374   4.276
 7758TIP3   OH223218   5.779   2.119   5.986
 7758TIP3    H123219   5.780   2.068   6.067
 7758TIP3    H223220   5.723   2.069   5.927
 7759TIP3   OH223221   3.352   5.928   0.781
 7759TIP3    H123222   3.266   5.928   0.739
 7759TIP3    H223223   3.366   5.837   0.807
 7760TIP3   OH223224   8.157   3.392   3.267
 7760TIP3    H123225   8.249   3.384   3.290
 7760TIP3    H223226   8.157   3.441   3.185
 7761TIP3   OH223227   0.839   5.429   5.070
 7761TIP3    H123228   0.802   5.343   5.052
 7761TIP3    H223229   0.929   5.412   5.095
 7762TIP3   OH223230   7.780   3.517   5.472
 7762TIP3    H123231   7.737   3.570   5.539
 7762TIP3    H223232   7.727   3.529   5.393
 7763TIP3   OH223233   2.836   1.319   5.859
 7763TIP3    H123234   2.884   1.373   5.797
 7763TIP3    H223235   2.870   1.345   5.945
 7764TIP3   OH223236   1.147   6.228   0.759
 7764TIP3    H123237   1.229   6.182   0.776
 7764TIP3    H223238   1.086   6.192   0.823
 7765TIP3   OH223239   1.102   7.351   0.642
 7765TIP3    H123240   1.165   7.289   0.679
 7765TIP3    H223241   1.017   7.316   0.668
 7766TIP3   OH223242   0.310   2.215   3.900
 7766TIP3    H123243   0.285   2.274   3.971
 7766TIP3    H223244   0.230   2.202   3.850
 7767TIP3   OH223245   0.188   7.670   4.281
 7767TIP3    H123246   0.263   7.615   4.257
 7767TIP3    H223247   0.132   7.669   4.204
 7768TIP3   OH223248   3.070   6.812   4.048
 7768TIP3    H123249   3.043   6.787   3.960
 7768TIP3    H223250   3.109   6.899   4.038
 7769TIP3   OH223251   6.304   0.809   1.296
 7769TIP3    H123252   6.210   0.818   1.281
 7769TIP3    H223253   6.325   0.879   1.358
 7770TIP3   OH223254   8.080   2.132   5.241
 7770TIP3    H123255   8.094   2.086   5.158
 7770TIP3    H223256   8.096   2.065   5.307
 7771TIP3   OH223257   6.450   3.882   2.121
 7771TIP3    H123258   6.519   3.819   2.101
 7771TIP3    H223259   6.374   3.850   2.072
 7772TIP3   OH223260   3.353   6.642   2.318
 7772TIP3    H123261   3.266   6.674   2.340
 7772TIP3    H223262   3.361   6.558   2.363
 7773TIP3   OH223263   4.989   2.709   5.826
 7773TIP3    H123264   5.030   2.752   5.902
 7773TIP3    H223265   4.895   2.716   5.843
 7774TIP3   OH223266   8.081   4.311   6.136
 7774TIP3    H123267   8.164   4.263   6.144
 7774TIP3    H223268   8.015   4.243   6.120
 7775TIP3   OH223269   6.718   6.678   3.567
 7775TIP3    H123270   6.709   6.772   3.553
 7775TIP3    H223271   6.693   6.639   3.483
 7776TIP3   OH223272   6.586   5.200   2.915
 7776TIP3    H123273   6.526   5.203   2.990
 7776TIP3    H223274   6.648   5.271   2.931
 7777TIP3   OH223275   7.557   0.091   5.722
 7777TIP3    H123276   7.596   0.178   5.731
 7777TIP3    H223277   7.614   0.046   5.660
 7778TIP3   OH223278   4.447   4.971   4.787
 7778TIP3    H123279   4.509   4.940   4.853
 7778TIP3    H223280   4.448   5.066   4.795
 7779TIP3   OH223281   6.036   3.254   0.320
 7779TIP3    H123282   6.042   3.348   0.304
 7779TIP3    H223283   5.967   3.224   0.261
 7780TIP3   OH223284   3.998   4.561   1.607
 7780TIP3    H123285   3.905   4.574   1.590
 7780TIP3    H223286   4.011   4.595   1.696
 7781TIP3   OH223287   7.967   5.536   1.651
 7781TIP3    H123288   7.992   5.592   1.724
 7781TIP3    H223289   7.962   5.595   1.576
 7782TIP3   OH223290   5.799   6.454   0.618
 7782TIP3    H123291   5.859   6.379   0.615
 7782TIP3    H223292   5.844   6.523   0.568
 7783TIP3   OH223293   6.161   4.714   3.985
 7783TIP3    H123294   6.219   4.729   3.910
 7783TIP3    H223295   6.132   4.802   4.010
 7784TIP3   OH223296   5.714   7.758   4.192
 7784TIP3    H123297   5.634   7.711   4.216
 7784TIP3    H223298   5.775   7.690   4.165
 7785TIP3   OH223299   3.602   3.477   1.616
 7785TIP3    H123300   3.647   3.485   1.532
 7785TIP3    H223301   3.617   3.387   1.643
 7786TIP3   OH223302   0.996   3.260   0.735
 7786TIP3    H123303   0.966   3.190   0.792
 7786TIP3    H223304   1.007   3.336   0.793
 7787TIP3   OH223305   1.961   1.392   0.109
 7787TIP3    H123306   1.995   1.306   0.132
 7787TIP3    H223307   2.027   1.454   0.141
 7788TIP3   OH223308   4.354   0.597   0.920
 7788TIP3    H123309   4.439   0.629   0.889
 7788TIP3    H223310   4.353   0.505   0.894
 7789TIP3   OH223311   1.429   0.131   0.126
 7789TIP3    H123312   1.475   0.048   0.113
 7789TIP3    H223313   1.408   0.161   0.038
 7790TIP3   OH223314   1.894   2.076   1.298
 7790TIP3    H123315   1.877   2.148   1.237
 7790TIP3    H223316   1.853   2.000   1.257
 7791TIP3   OH223317   4.443   3.563   3.104
 7791TIP3    H123318   4.402   3.570   3.190
 7791TIP3    H223319   4.458   3.469   3.091
 7792TIP3   OH223320   7.162   2.055   5.349
 7792TIP3    H123321   7.196   1.984   5.404
 7792TIP3    H223322   7.067   2.044   5.352
 7793TIP3   OH223323   0.889   2.855   5.351
 7793TIP3    H123324   0.923   2.842   5.263
 7793TIP3    H223325   0.805   2.899   5.339
 7794TIP3   OH223326   4.845   1.029   0.749
 7794TIP3    H123327   4.809   1.094   0.809
 7794TIP3    H223328   4.900   0.973   0.804
 7795TIP3   OH223329   1.654   6.395   5.420
 7795TIP3    H123330   1.706   6.315   5.418
 7795TIP3    H223331   1.624   6.402   5.511
 7796TIP3   OH223332   7.673   4.906   3.608
 7796TIP3    H123333   7.656   4.986   3.559
 7796TIP3    H223334   7.644   4.925   3.697
 7797TIP3   OH223335   6.199   6.474   0.459
 7797TIP3    H123336   6.148   6.400   0.427
 7797TIP3    H223337   6.137   6.546   0.465
 7798TIP3   OH223338   5.359   5.007   1.660
 7798TIP3    H123339   5.425   5.061   1.617
 7798TIP3    H223340   5.283   5.064   1.670
 7799TIP3   OH223341   7.723   2.150   3.392
 7799TIP3    H123342   7.643   2.186   3.432
 7799TIP3    H223343   7.758   2.221   3.339
 7800TIP3   OH223344   6.574   3.532   6.296
 7800TIP3    H123345   6.638   3.567   6.234
 7800TIP3    H223346   6.518   3.476   6.244
 7801TIP3   OH223347   6.586   1.335   2.097
 7801TIP3    H123348   6.495   1.321   2.123
 7801TIP3    H223349   6.614   1.251   2.062
 7802TIP3   OH223350   1.517   0.805   4.889
 7802TIP3    H123351   1.518   0.742   4.961
 7802TIP3    H223352   1.603   0.796   4.848
 7803TIP3   OH223353   4.678   6.750   1.737
 7803TIP3    H123354   4.653   6.829   1.784
 7803TIP3    H223355   4.771   6.738   1.757
 7804TIP3   OH223356   6.676   4.321   0.439
 7804TIP3    H123357   6.610   4.369   0.488
 7804TIP3    H223358   6.715   4.262   0.504
 7805TIP3   OH223359   5.745   4.104   1.587
 7805TIP3    H123360   5.819   4.047   1.607
 7805TIP3    H223361   5.681   4.047   1.545
 7806TIP3   OH223362   5.794   7.310   3.634
 7806TIP3    H123363   5.720   7.315   3.695
 7806TIP3    H223364   5.810   7.401   3.609
 7807TIP3   OH223365   0.920   2.403   4.101
 7807TIP3    H123366   0.861   2.424   4.029
 7807TIP3    H223367   0.862   2.370   4.170
 7808TIP3   OH223368   4.694   0.726   1.545
 7808TIP3    H123369   4.725   0.636   1.551
 7808TIP3    H223370   4.630   0.725   1.474
 7809TIP3   OH223371   2.172   4.724   6.420
 7809TIP3    H123372   2.250   4.761   6.378
 7809TIP3    H223373   2.116   4.697   6.347
 7810TIP3   OH223374   7.507   6.035   3.751
 7810TIP3    H123375   7.490   6.038   3.845
 7810TIP3    H223376   7.427   6.068   3.711
 7811TIP3   OH223377   7.398   6.065   5.443
 7811TIP3    H123378   7.318   6.020   5.472
 7811TIP3    H223379   7.431   6.011   5.371
 7812TIP3   OH223380   6.649   3.605   4.401
 7812TIP3    H123381   6.575   3.565   4.354
 7812TIP3    H223382   6.722   3.546   4.385
 7813TIP3   OH223383   5.086   4.869   4.372
 7813TIP3    H123384   5.081   4.803   4.442
 7813TIP3    H223385   5.177   4.866   4.343
 7814TIP3   OH223386   2.871   4.958   1.667
 7814TIP3    H123387   2.829   4.913   1.593
 7814TIP3    H223388   2.816   4.936   1.742
 7815TIP3   OH223389   4.800   3.019   6.095
 7815TIP3    H123390   4.748   2.997   6.172
 7815TIP3    H223391   4.740   3.009   6.022
 7816TIP3   OH223392   3.017   7.368   2.836
 7816TIP3    H123393   2.999   7.403   2.749
 7816TIP3    H223394   2.996   7.441   2.896
 7817TIP3   OH223395   2.079   7.369   2.477
 7817TIP3    H123396   2.061   7.345   2.386
 7817TIP3    H223397   2.130   7.296   2.512
 7818TIP3   OH223398   2.880   3.619   6.773
 7818TIP3    H123399   2.950   3.678   6.803
 7818TIP3    H223400   2.923   3.561   6.710
 7819TIP3   OH223401   2.153   3.071   0.559
 7819TIP3    H123402   2.193   3.041   0.640
 7819TIP3    H223403   2.216   3.048   0.491
 7820TIP3   OH223404   0.595   4.554   3.054
 7820TIP3    H123405   0.587   4.649   3.054
 7820TIP3    H223406   0.524   4.524   2.996
 7821TIP3   OH223407   7.806   1.582   3.513
 7821TIP3    H123408   7.866   1.642   3.470
 7821TIP3    H223409   7.722   1.597   3.470
 7822TIP3   OH223410   4.376   4.595   0.731
 7822TIP3    H123411   4.447   4.629   0.677
 7822TIP3    H223412   4.417   4.571   0.814
 7823TIP3   OH223413   4.648   6.584   6.795
 7823TIP3    H123414   4.650   6.647   6.867
 7823TIP3    H223415   4.693   6.628   6.723
 7824TIP3   OH223416   6.431   2.868   2.257
 7824TIP3    H123417   6.473   2.935   2.312
 7824TIP3    H223418   6.503   2.813   2.229
 7825TIP3   OH223419   7.038   5.283   3.980
 7825TIP3    H123420   7.124   5.293   4.021
 7825TIP3    H223421   6.985   5.353   4.017
 7826TIP3   OH223422   1.121   3.989   2.460
 7826TIP3    H123423   1.190   4.003   2.394
 7826TIP3    H223424   1.072   4.071   2.461
 7827TIP3   OH223425   6.624   6.304   1.476
 7827TIP3    H123426   6.711   6.317   1.438
 7827TIP3    H223427   6.640   6.282   1.568
 7828TIP3   OH223428   7.561   5.626   1.369
 7828TIP3    H123429   7.593   5.561   1.308
 7828TIP3    H223430   7.628   5.630   1.438
 7829TIP3   OH223431   6.350   5.333   6.268
 7829TIP3    H123432   6.427   5.300   6.222
 7829TIP3    H223433   6.282   5.267   6.250
 7830TIP3   OH223434   6.673   5.638   4.999
 7830TIP3    H123435   6.656   5.545   5.009
 7830TIP3    H223436   6.757   5.643   4.953
 7831TIP3   OH223437   2.180   2.453   6.302
 7831TIP3    H123438   2.222   2.395   6.239
 7831TIP3    H223439   2.208   2.541   6.275
 7832TIP3   OH223440   1.044   7.195   6.011
 7832TIP3    H123441   1.070   7.265   5.952
 7832TIP3    H223442   1.112   7.192   6.077
 7833TIP3   OH223443   5.759   5.360   4.665
 7833TIP3    H123444   5.674   5.400   4.648
 7833TIP3    H223445   5.818   5.435   4.677
 7834TIP3   OH223446   0.069   3.089   5.217
 7834TIP3    H123447   0.039   3.141   5.142
 7834TIP3    H223448   0.081   3.001   5.182
 7835TIP3   OH223449   3.098   1.884   5.684
 7835TIP3    H123450   3.192   1.897   5.696
 7835TIP3    H223451   3.081   1.795   5.716
 7836TIP3   OH223452   3.178   7.067   3.975
 7836TIP3    H123453   3.117   7.130   3.936
 7836TIP3    H223454   3.186   7.094   4.067
 7837TIP3   OH223455   5.137   1.359   3.928
 7837TIP3    H123456   5.140   1.264   3.932
 7837TIP3    H223457   5.201   1.383   3.861
 7838TIP3   OH223458   6.805   7.621   6.734
 7838TIP3    H123459   6.768   7.576   6.810
 7838TIP3    H223460   6.754   7.701   6.726
 7839TIP3   OH223461   6.090   7.169   5.133
 7839TIP3    H123462   6.059   7.225   5.062
 7839TIP3    H223463   6.015   7.114   5.154
 7840TIP3   OH223464   2.024   5.391   6.636
 7840TIP3    H123465   2.104   5.348   6.607
 7840TIP3    H223466   1.955   5.327   6.620
 7841TIP3   OH223467   6.169   6.596   4.910
 7841TIP3    H123468   6.226   6.521   4.894
 7841TIP3    H223469   6.120   6.572   4.989
 7842TIP3   OH223470   1.845   5.741   2.734
 7842TIP3    H123471   1.922   5.734   2.791
 7842TIP3    H223472   1.880   5.725   2.646
 7843TIP3   OH223473   7.228   4.482   3.545
 7843TIP3    H123474   7.228   4.555   3.607
 7843TIP3    H223475   7.256   4.522   3.462
 7844TIP3   OH223476   7.170   6.555   6.584
 7844TIP3    H123477   7.250   6.607   6.589
 7844TIP3    H223478   7.099   6.619   6.584
 7845TIP3   OH223479   6.471   1.450   0.625
 7845TIP3    H123480   6.528   1.526   0.639
 7845TIP3    H223481   6.444   1.424   0.713
 7846TIP3   OH223482   3.635   7.105   5.775
 7846TIP3    H123483   3.665   7.144   5.692
 7846TIP3    H223484   3.656   7.171   5.841
 7847TIP3   OH223485   2.512   3.369   4.817
 7847TIP3    H123486   2.489   3.357   4.725
 7847TIP3    H223487   2.428   3.386   4.860
 7848TIP3   OH223488   3.906   5.918   0.383
 7848TIP3    H123489   3.942   5.836   0.350
 7848TIP3    H223490   3.817   5.922   0.347
 7849TIP3   OH223491   2.689   3.085   2.539
 7849TIP3    H123492   2.748   3.124   2.603
 7849TIP3    H223493   2.724   3.113   2.454
 7850TIP3   OH223494   6.754   1.544   2.933
 7850TIP3    H123495   6.749   1.609   3.004
 7850TIP3    H223496   6.848   1.533   2.918
 7851TIP3   OH223497   6.590   2.723   6.532
 7851TIP3    H123498   6.505   2.726   6.488
 7851TIP3    H223499   6.569   2.694   6.621
 7852TIP3   OH223500   2.194   6.289   1.446
 7852TIP3    H123501   2.127   6.270   1.511
 7852TIP3    H223502   2.173   6.377   1.415
 7853TIP3   OH223503   6.268   1.177   0.426
 7853TIP3    H123504   6.264   1.219   0.340
 7853TIP3    H223505   6.361   1.160   0.440
 7854TIP3   OH223506   5.195   1.157   1.321
 7854TIP3    H123507   5.223   1.199   1.240
 7854TIP3    H223508   5.169   1.230   1.378
 7855TIP3   OH223509   6.579   0.208   5.611
 7855TIP3    H123510   6.613   0.280   5.663
 7855TIP3    H223511   6.611   0.129   5.655
 7856TIP3   OH223512   2.343   2.584   2.665
 7856TIP3    H123513   2.367   2.647   2.598
 7856TIP3    H223514   2.402   2.509   2.649
 7857TIP3   OH223515   5.706   3.339   0.439
 7857TIP3    H123516   5.664   3.404   0.497
 7857TIP3    H223517   5.679   3.365   0.351
 7858TIP3   OH223518   4.362   7.341   6.197
 7858TIP3    H123519   4.335   7.304   6.113
 7858TIP3    H223520   4.385   7.431   6.177
 7859TIP3   OH223521   6.257   3.450   3.758
 7859TIP3    H123522   6.226   3.518   3.818
 7859TIP3    H223523   6.177   3.415   3.719
 7860TIP3   OH223524   7.405   2.542   4.616
 7860TIP3    H123525   7.479   2.494   4.580
 7860TIP3    H223526   7.340   2.474   4.634
 7861TIP3   OH223527   1.891   3.989   2.300
 7861TIP3    H123528   1.944   3.939   2.361
 7861TIP3    H223529   1.910   4.081   2.322
 7862TIP3   OH223530   8.168   6.758   6.676
 7862TIP3    H123531   8.231   6.704   6.630
 7862TIP3    H223532   8.109   6.696   6.719
 7863TIP3   OH223533   0.712   1.850   5.900
 7863TIP3    H123534   0.784   1.802   5.941
 7863TIP3    H223535   0.634   1.799   5.921
 7864TIP3   OH223536   1.104   1.126   3.774
 7864TIP3    H123537   1.108   1.197   3.839
 7864TIP3    H223538   1.066   1.052   3.822
 7865TIP3   OH223539   6.436   6.895   2.866
 7865TIP3    H123540   6.489   6.910   2.944
 7865TIP3    H223541   6.367   6.835   2.895
 7866TIP3   OH223542   1.026   2.532   3.334
 7866TIP3    H123543   1.119   2.516   3.354
 7866TIP3    H223544   1.015   2.626   3.346
 7867TIP3   OH223545   7.634   3.618   6.491
 7867TIP3    H123546   7.649   3.544   6.432
 7867TIP3    H223547   7.578   3.678   6.440
 7868TIP3   OH223548   3.741   2.817   1.640
 7868TIP3    H123549   3.812   2.804   1.703
 7868TIP3    H223550   3.784   2.858   1.564
 7869TIP3   OH223551   5.507   4.516   0.212
 7869TIP3    H123552   5.583   4.539   0.159
 7869TIP3    H223553   5.441   4.582   0.189
 7870TIP3   OH223554   7.290   6.926   4.721
 7870TIP3    H123555   7.336   6.913   4.804
 7870TIP3    H223556   7.204   6.961   4.747
 7871TIP3   OH223557   0.293   2.366   3.587
 7871TIP3    H123558   0.272   2.274   3.573
 7871TIP3    H223559   0.237   2.413   3.525
 7872TIP3   OH223560   4.523   0.873   2.041
 7872TIP3    H123561   4.460   0.893   1.972
 7872TIP3    H223562   4.608   0.887   2.000
 7873TIP3   OH223563   6.046   6.441   5.872
 7873TIP3    H123564   6.084   6.413   5.789
 7873TIP3    H223565   6.026   6.534   5.858
 7874TIP3   OH223566   3.915   3.056   0.119
 7874TIP3    H123567   3.940   3.147   0.104
 7874TIP3    H223568   3.947   3.009   0.042
 7875TIP3   OH223569   3.468   5.590   5.459
 7875TIP3    H123570   3.542   5.590   5.519
 7875TIP3    H223571   3.416   5.667   5.484
 7876TIP3   OH223572   3.499   0.133   3.996
 7876TIP3    H123573   3.470   0.224   3.989
 7876TIP3    H223574   3.457   0.088   3.923
 7877TIP3   OH223575   2.554   1.457   5.423
 7877TIP3    H123576   2.488   1.522   5.447
 7877TIP3    H223577   2.521   1.374   5.459
 7878TIP3   OH223578   7.843   0.649   1.575
 7878TIP3    H123579   7.859   0.573   1.519
 7878TIP3    H223580   7.748   0.646   1.592
 7879TIP3   OH223581   4.460   5.913   2.239
 7879TIP3    H123582   4.520   5.940   2.308
 7879TIP3    H223583   4.423   5.831   2.272
 7880TIP3   OH223584   2.445   5.773   4.410
 7880TIP3    H123585   2.528   5.735   4.379
 7880TIP3    H223586   2.453   5.866   4.387
 7881TIP3   OH223587   5.484   5.533   4.771
 7881TIP3    H123588   5.419   5.514   4.703
 7881TIP3    H223589   5.466   5.470   4.840
 7882TIP3   OH223590   4.299   6.469   2.091
 7882TIP3    H123591   4.215   6.427   2.070
 7882TIP3    H223592   4.292   6.490   2.184
 7883TIP3   OH223593   0.875   1.590   6.549
 7883TIP3    H123594   0.926   1.509   6.560
 7883TIP3    H223595   0.881   1.608   6.455
 7884TIP3   OH223596   1.665   4.126   5.270
 7884TIP3    H123597   1.640   4.206   5.225
 7884TIP3    H223598   1.633   4.055   5.214
 7885TIP3   OH223599   1.459   5.500   2.138
 7885TIP3    H123600   1.546   5.462   2.146
 7885TIP3    H223601   1.450   5.522   2.045
 7886TIP3   OH223602   5.234   0.011   1.375
 7886TIP3    H123603   5.290   0.060   1.435
 7886TIP3    H223604   5.187   0.078   1.326
 7887TIP3   OH223605   0.270   1.738   5.917
 7887TIP3    H123606   0.358   1.735   5.954
 7887TIP3    H223607   0.232   1.818   5.953
 7888TIP3   OH223608   7.311   1.359   3.052
 7888TIP3    H123609   7.259   1.338   3.129
 7888TIP3    H223610   7.300   1.284   2.994
 7889TIP3   OH223611   7.994   2.667   2.865
 7889TIP3    H123612   7.905   2.701   2.854
 7889TIP3    H223613   8.028   2.714   2.942
 7890TIP3   OH223614   5.217   5.277   1.998
 7890TIP3    H123615   5.252   5.364   2.014
 7890TIP3    H223616   5.267   5.220   2.056
 7891TIP3   OH223617   3.939   7.451   6.078
 7891TIP3    H123618   4.021   7.481   6.037
 7891TIP3    H223619   3.956   7.360   6.103
 7892TIP3   OH223620   5.997   0.031   3.347
 7892TIP3    H123621   5.926  -0.024   3.380
 7892TIP3    H223622   6.070   0.014   3.407
 7893TIP3   OH223623   2.720   4.266   2.347
 7893TIP3    H123624   2.734   4.201   2.279
 7893TIP3    H223625   2.627   4.288   2.340
 7894TIP3   OH223626   5.159   6.550   5.909
 7894TIP3    H123627   5.211   6.519   5.983
 7894TIP3    H223628   5.092   6.483   5.897
 7895TIP3   OH223629   2.943   1.945   4.888
 7895TIP3    H123630   2.850   1.954   4.868
 7895TIP3    H223631   2.965   2.024   4.936
 7896TIP3   OH223632   2.381   0.898   3.468
 7896TIP3    H123633   2.423   0.978   3.435
 7896TIP3    H223634   2.312   0.879   3.405
 7897TIP3   OH223635   0.735   4.809   1.262
 7897TIP3    H123636   0.734   4.713   1.262
 7897TIP3    H223637   0.686   4.834   1.340
 7898TIP3   OH223638   2.500   0.839   6.599
 7898TIP3    H123639   2.541   0.873   6.519
 7898TIP3    H223640   2.443   0.910   6.629
 7899TIP3   OH223641   1.234   2.154   5.441
 7899TIP3    H123642   1.180   2.225   5.406
 7899TIP3    H223643   1.215   2.154   5.535
 7900TIP3   OH223644   0.083   4.858   2.631
 7900TIP3    H123645   0.141   4.830   2.702
 7900TIP3    H223646   0.082   4.954   2.637
 7901TIP3   OH223647   0.995   2.254   3.396
 7901TIP3    H123648   0.998   2.349   3.403
 7901TIP3    H223649   1.004   2.237   3.302
 7902TIP3   OH223650   7.459   2.881   2.452
 7902TIP3    H123651   7.442   2.946   2.384
 7902TIP3    H223652   7.537   2.913   2.498
 7903TIP3   OH223653   3.501   6.136   5.204
 7903TIP3    H123654   3.442   6.097   5.140
 7903TIP3    H223655   3.463   6.223   5.221
 7904TIP3   OH223656   4.882   6.635   2.380
 7904TIP3    H123657   4.816   6.651   2.448
 7904TIP3    H223658   4.833   6.596   2.308
 7905TIP3   OH223659   6.642   4.986   0.779
 7905TIP3    H123660   6.614   5.027   0.698
 7905TIP3    H223661   6.561   4.953   0.818
 7906TIP3   OH223662   2.591   1.123   5.470
 7906TIP3    H123663   2.621   1.169   5.548
 7906TIP3    H223664   2.648   1.156   5.400
 7907TIP3   OH223665   6.175   6.017   1.311
 7907TIP3    H123666   6.139   6.102   1.339
 7907TIP3    H223667   6.257   6.040   1.267
 7908TIP3   OH223668   6.830   1.207   3.757
 7908TIP3    H123669   6.880   1.190   3.676
 7908TIP3    H223670   6.867   1.288   3.791
 7909TIP3   OH223671   3.865   4.494   4.070
 7909TIP3    H123672   3.887   4.528   4.157
 7909TIP3    H223673   3.790   4.437   4.085
 7910TIP3   OH223674   4.627   7.713   1.647
 7910TIP3    H123675   4.611   7.736   1.739
 7910TIP3    H223676   4.598   7.790   1.598
 7911TIP3   OH223677   6.018   7.062   5.512
 7911TIP3    H123678   6.081   7.008   5.465
 7911TIP3    H223679   6.067   7.141   5.536
 7912TIP3   OH223680   6.056   0.447   5.933
 7912TIP3    H123681   5.972   0.459   5.889
 7912TIP3    H223682   6.033   0.430   6.024
 7913TIP3   OH223683   1.784   3.264   0.910
 7913TIP3    H123684   1.754   3.332   0.970
 7913TIP3    H223685   1.739   3.282   0.828
 7914TIP3   OH223686   4.187   6.640   4.452
 7914TIP3    H123687   4.198   6.568   4.390
 7914TIP3    H223688   4.277   6.666   4.474
 7915TIP3   OH223689   1.891   0.767   5.262
 7915TIP3    H123690   1.947   0.769   5.184
 7915TIP3    H223691   1.940   0.814   5.329
 7916TIP3   OH223692   5.744   4.495   1.917
 7916TIP3    H123693   5.769   4.458   1.832
 7916TIP3    H223694   5.769   4.587   1.911
 7917TIP3   OH223695   7.720   4.416   1.037
 7917TIP3    H123696   7.706   4.487   0.974
 7917TIP3    H223697   7.761   4.459   1.113
 7918TIP3   OH223698   1.725   2.167   4.681
 7918TIP3    H123699   1.797   2.105   4.673
 7918TIP3    H223700   1.703   2.167   4.774
 7919TIP3   OH223701   0.861   7.733   4.793
 7919TIP3    H123702   0.872   7.710   4.701
 7919TIP3    H223703   0.947   7.765   4.820
 7920TIP3   OH223704   2.966   1.133   1.192
 7920TIP3    H123705   2.925   1.180   1.265
 7920TIP3    H223706   3.000   1.202   1.135
 7921TIP3   OH223707   3.945   6.774   0.710
 7921TIP3    H123708   4.007   6.737   0.773
 7921TIP3    H223709   3.950   6.715   0.635
 7922TIP3   OH223710   6.034   2.792   2.410
 7922TIP3    H123711   6.042   2.742   2.329
 7922TIP3    H223712   6.098   2.862   2.402
 7923TIP3   OH223713   5.939   0.598   4.074
 7923TIP3    H123714   5.921   0.603   3.980
 7923TIP3    H223715   6.034   0.605   4.081
 7924TIP3   OH223716   0.220   7.039   6.625
 7924TIP3    H123717   0.219   6.970   6.559
 7924TIP3    H223718   0.310   7.070   6.626
 7925TIP3   OH223719   1.274   2.510   0.361
 7925TIP3    H123720   1.339   2.553   0.306
 7925TIP3    H223721   1.305   2.420   0.369
 7926TIP3   OH223722   5.810   5.251   3.514
 7926TIP3    H123723   5.743   5.281   3.576
 7926TIP3    H223724   5.856   5.182   3.561
 7927TIP3   OH223725   3.863   3.881   2.707
 7927TIP3    H123726   3.878   3.850   2.618
 7927TIP3    H223727   3.853   3.800   2.758
 7928TIP3   OH223728   6.289   5.364   3.264
 7928TIP3    H123729   6.318   5.310   3.191
 7928TIP3    H223730   6.295   5.453   3.232
 7929TIP3   OH223731   2.052   6.549   5.001
 7929TIP3    H123732   2.127   6.500   5.035
 7929TIP3    H223733   2.040   6.620   5.065
 7930TIP3   OH223734   3.174   1.739   3.979
 7930TIP3    H123735   3.197   1.648   3.959
 7930TIP3    H223736   3.106   1.732   4.046
 7931TIP3   OH223737   4.182   3.726   0.318
 7931TIP3    H123738   4.229   3.798   0.360
 7931TIP3    H223739   4.146   3.676   0.391
 7932TIP3   OH223740   1.570   0.235   0.330
 7932TIP3    H123741   1.516   0.206   0.257
 7932TIP3    H223742   1.655   0.254   0.291
 7933TIP3   OH223743   3.015   1.842   6.721
 7933TIP3    H123744   3.012   1.926   6.676
 7933TIP3    H223745   3.080   1.853   6.790
 7934TIP3   OH223746   5.860   5.726   0.802
 7934TIP3    H123747   5.888   5.711   0.892
 7934TIP3    H223748   5.941   5.734   0.752
 7935TIP3   OH223749   3.378   6.556   5.569
 7935TIP3    H123750   3.317   6.576   5.497
 7935TIP3    H223751   3.333   6.587   5.648
 7936TIP3   OH223752   8.118   0.261   0.306
 7936TIP3    H123753   8.187   0.324   0.328
 7936TIP3    H223754   8.040   0.316   0.292
 7937TIP3   OH223755   8.230   7.619   6.506
 7937TIP3    H123756   8.183   7.630   6.589
 7937TIP3    H223757   8.280   7.700   6.496
 7938TIP3   OH223758   6.138   5.060   4.210
 7938TIP3    H123759   6.075   5.059   4.281
 7938TIP3    H223760   6.187   5.141   4.222
 7939TIP3   OH223761   1.564   4.974   2.485
 7939TIP3    H123762   1.540   5.044   2.424
 7939TIP3    H223763   1.491   4.913   2.482
 7940TIP3   OH223764   5.781   1.767   6.484
 7940TIP3    H123765   5.815   1.742   6.398
 7940TIP3    H223766   5.691   1.797   6.466
 7941TIP3   OH223767   7.315   5.623   1.470
 7941TIP3    H123768   7.300   5.711   1.504
 7941TIP3    H223769   7.400   5.627   1.428
 7942TIP3   OH223770   3.094   4.477   6.304
 7942TIP3    H123771   3.097   4.568   6.335
 7942TIP3    H223772   3.098   4.424   6.383
 7943TIP3   OH223773   6.851   5.778   1.686
 7943TIP3    H123774   6.921   5.821   1.735
 7943TIP3    H223775   6.895   5.708   1.637
 7944TIP3   OH223776   3.672   2.342   3.884
 7944TIP3    H123777   3.600   2.376   3.937
 7944TIP3    H223778   3.716   2.279   3.941
 7945TIP3   OH223779   3.783   5.911   0.728
 7945TIP3    H123780   3.844   5.846   0.693
 7945TIP3    H223781   3.707   5.906   0.670
 7946TIP3   OH223782   7.653   0.388   4.212
 7946TIP3    H123783   7.630   0.389   4.119
 7946TIP3    H223784   7.630   0.476   4.243
 7947TIP3   OH223785   3.262   2.590   1.566
 7947TIP3    H123786   3.333   2.653   1.576
 7947TIP3    H223787   3.304   2.510   1.534
 7948TIP3   OH223788   6.828   0.063   6.447
 7948TIP3    H123789   6.837  -0.008   6.383
 7948TIP3    H223790   6.737   0.090   6.440
 7949TIP3   OH223791   1.815   7.758   3.714
 7949TIP3    H123792   1.826   7.676   3.666
 7949TIP3    H223793   1.883   7.815   3.678
 7950TIP3   OH223794   1.551   2.608   2.488
 7950TIP3    H123795   1.598   2.668   2.430
 7950TIP3    H223796   1.481   2.661   2.525
 7951TIP3   OH223797   4.552   1.376   5.945
 7951TIP3    H123798   4.473   1.415   5.985
 7951TIP3    H223799   4.565   1.295   5.993
 7952TIP3   OH223800   4.284   2.740   1.738
 7952TIP3    H123801   4.295   2.661   1.685
 7952TIP3    H223802   4.191   2.761   1.730
 7953TIP3   OH223803   6.393   7.332   3.783
 7953TIP3    H123804   6.440   7.289   3.712
 7953TIP3    H223805   6.455   7.333   3.855
 7954TIP3   OH223806   3.556   0.900   0.546
 7954TIP3    H123807   3.646   0.868   0.556
 7954TIP3    H223808   3.563   0.994   0.558
 7955TIP3   OH223809   2.646   6.354   3.606
 7955TIP3    H123810   2.618   6.423   3.546
 7955TIP3    H223811   2.712   6.397   3.662
 7956TIP3   OH223812   5.251   3.849   2.720
 7956TIP3    H123813   5.284   3.795   2.647
 7956TIP3    H223814   5.172   3.804   2.749
 7957TIP3   OH223815   2.028   2.271   6.470
 7957TIP3    H123816   1.982   2.312   6.543
 7957TIP3    H223817   2.080   2.343   6.432
 7958TIP3   OH223818   2.845   6.913   6.715
 7958TIP3    H123819   2.830   6.870   6.799
 7958TIP3    H223820   2.934   6.887   6.690
 7959TIP3   OH223821   5.951   3.187   5.148
 7959TIP3    H123822   6.042   3.158   5.149
 7959TIP3    H223823   5.913   3.145   5.071
 7960TIP3   OH223824   3.824   2.843   2.720
 7960TIP3    H123825   3.832   2.841   2.815
 7960TIP3    H223826   3.786   2.929   2.700
 7961TIP3   OH223827   1.350   3.631   6.346
 7961TIP3    H123828   1.400   3.654   6.425
 7961TIP3    H223829   1.291   3.562   6.374
 7962TIP3   OH223830   6.367   5.597   1.847
 7962TIP3    H123831   6.450   5.558   1.820
 7962TIP3    H223832   6.391   5.678   1.891
 7963TIP3   OH223833   2.043   1.702   1.195
 7963TIP3    H123834   1.949   1.717   1.200
 7963TIP3    H223835   2.082   1.788   1.213
 7964TIP3   OH223836   2.700   0.265   6.372
 7964TIP3    H123837   2.658   0.344   6.406
 7964TIP3    H223838   2.783   0.259   6.419
 7965TIP3   OH223839   2.141   1.151   0.119
 7965TIP3    H123840   2.220   1.189   0.081
 7965TIP3    H223841   2.145   1.058   0.095
 7966TIP3   OH223842   6.281   4.325   2.816
 7966TIP3    H123843   6.364   4.278   2.819
 7966TIP3    H223844   6.221   4.272   2.868
 7967TIP3   OH223845   0.881   5.697   1.130
 7967TIP3    H123846   0.877   5.792   1.141
 7967TIP3    H223847   0.848   5.662   1.213
 7968TIP3   OH223848   1.575   2.146   1.023
 7968TIP3    H123849   1.592   2.055   0.999
 7968TIP3    H223850   1.659   2.179   1.054
 7969TIP3   OH223851   5.701   3.567   4.037
 7969TIP3    H123852   5.663   3.515   4.108
 7969TIP3    H223853   5.693   3.657   4.067
 7970TIP3   OH223854   6.323   2.223   4.453
 7970TIP3    H123855   6.386   2.176   4.508
 7970TIP3    H223856   6.307   2.305   4.501
 7971TIP3   OH223857   7.210   3.390   0.146
 7971TIP3    H123858   7.117   3.414   0.148
 7971TIP3    H223859   7.243   3.413   0.233
 7972TIP3   OH223860   3.230   0.077   0.958
 7972TIP3    H123861   3.157   0.139   0.967
 7972TIP3    H223862   3.221   0.019   1.034
 7973TIP3   OH223863   3.918   0.635   2.876
 7973TIP3    H123864   3.953   0.550   2.904
 7973TIP3    H223865   3.876   0.670   2.954
 7974TIP3   OH223866   0.058   4.522   5.518
 7974TIP3    H123867   0.062   4.482   5.431
 7974TIP3    H223868   0.108   4.603   5.509
 7975TIP3   OH223869   1.043   2.690   6.648
 7975TIP3    H123870   1.107   2.637   6.600
 7975TIP3    H223871   1.079   2.698   6.736
 7976TIP3   OH223872   5.607   7.641   0.831
 7976TIP3    H123873   5.654   7.571   0.878
 7976TIP3    H223874   5.521   7.643   0.872
 7977TIP3   OH223875   6.573   6.815   2.597
 7977TIP3    H123876   6.536   6.840   2.682
 7977TIP3    H223877   6.498   6.782   2.548
 7978TIP3   OH223878   3.725   3.135   6.404
 7978TIP3    H123879   3.677   3.068   6.453
 7978TIP3    H223880   3.693   3.124   6.314
 7979TIP3   OH223881   5.494   2.862   4.672
 7979TIP3    H123882   5.405   2.835   4.694
 7979TIP3    H223883   5.545   2.781   4.674
 7980TIP3   OH223884   6.255   3.261   3.434
 7980TIP3    H123885   6.242   3.323   3.362
 7980TIP3    H223886   6.347   3.271   3.459
 7981TIP3   OH223887   4.154   1.625   0.000
 7981TIP3    H123888   4.084   1.689  -0.009
 7981TIP3    H223889   4.187   1.638   0.089
 7982TIP3   OH223890   6.491   2.856   2.988
 7982TIP3    H123891   6.445   2.888   3.066
 7982TIP3    H223892   6.459   2.912   2.917
 7983TIP3   OH223893   7.200   4.131   1.105
 7983TIP3    H123894   7.150   4.211   1.088
 7983TIP3    H223895   7.277   4.138   1.049
 7984TIP3   OH223896   4.217   5.830   3.080
 7984TIP3    H123897   4.301   5.849   3.039
 7984TIP3    H223898   4.198   5.906   3.134
 7985TIP3   OH223899   2.772   6.962   2.118
 7985TIP3    H123900   2.755   6.919   2.201
 7985TIP3    H223901   2.867   6.961   2.108
 7986TIP3   OH223902   0.411   4.617   5.896
 7986TIP3    H123903   0.347   4.648   5.832
 7986TIP3    H223904   0.375   4.534   5.927
 7987TIP3   OH223905   5.648   1.568   1.598
 7987TIP3    H123906   5.692   1.603   1.675
 7987TIP3    H223907   5.710   1.580   1.527
 7988TIP3   OH223908   3.504   0.815   6.020
 7988TIP3    H123909   3.495   0.900   6.063
 7988TIP3    H223910   3.560   0.833   5.944
 7989TIP3   OH223911   0.288   5.310   5.713
 7989TIP3    H123912   0.237   5.264   5.779
 7989TIP3    H223913   0.340   5.242   5.670
 7990TIP3   OH223914   3.671   3.560   5.924
 7990TIP3    H123915   3.748   3.605   5.890
 7990TIP3    H223916   3.605   3.572   5.856
 7991TIP3   OH223917   0.045   3.669   2.173
 7991TIP3    H123918   0.113   3.713   2.224
 7991TIP3    H223919   0.092   3.626   2.101
 7992TIP3   OH223920   1.415   1.034   5.719
 7992TIP3    H123921   1.335   1.078   5.693
 7992TIP3    H223922   1.457   1.010   5.636
 7993TIP3   OH223923   5.900   1.839   4.677
 7993TIP3    H123924   5.818   1.888   4.674
 7993TIP3    H223925   5.882   1.759   4.628
 7994TIP3   OH223926   2.869   6.074   4.292
 7994TIP3    H123927   2.848   6.000   4.235
 7994TIP3    H223928   2.957   6.099   4.267
 7995TIP3   OH223929   7.034   3.173   5.050
 7995TIP3    H123930   7.074   3.127   5.124
 7995TIP3    H223931   6.942   3.145   5.051
 7996TIP3   OH223932   3.772   4.912   0.197
 7996TIP3    H123933   3.697   4.953   0.154
 7996TIP3    H223934   3.835   4.897   0.126
 7997TIP3   OH223935   8.031   2.215   3.847
 7997TIP3    H123936   8.027   2.189   3.939
 7997TIP3    H223937   7.941   2.203   3.815
 7998TIP3   OH223938   3.223   0.783   4.919
 7998TIP3    H123939   3.162   0.820   4.982
 7998TIP3    H223940   3.301   0.762   4.970
 7999TIP3   OH223941   6.437   2.127   1.601
 7999TIP3    H123942   6.395   2.072   1.534
 7999TIP3    H223943   6.448   2.212   1.559
 8000TIP3   OH223944   2.190   1.536   0.530
 8000TIP3    H123945   2.174   1.453   0.484
 8000TIP3    H223946   2.113   1.589   0.510
 8001TIP3   OH223947   2.971   1.585   1.697
 8001TIP3    H123948   2.973   1.679   1.718
 8001TIP3    H223949   2.954   1.542   1.781
 8002TIP3   OH223950   0.975   7.080   4.552
 8002TIP3    H123951   0.984   7.147   4.619
 8002TIP3    H223952   0.880   7.075   4.536
 8003TIP3   OH223953   5.827   5.983   6.088
 8003TIP3    H123954   5.915   5.991   6.050
 8003TIP3    H223955   5.813   5.889   6.097
 8004TIP3   OH223956   7.599   2.604   3.402
 8004TIP3    H123957   7.677   2.644   3.440
 8004TIP3    H223958   7.532   2.673   3.409
 8005TIP3   OH223959   7.450   0.377   1.285
 8005TIP3    H123960   7.493   0.338   1.361
 8005TIP3    H223961   7.516   0.372   1.216
 8006TIP3   OH223962   6.756   7.856   5.455
 8006TIP3    H123963   6.687   7.807   5.498
 8006TIP3    H223964   6.719   7.881   5.370
 8007TIP3   OH223965   2.622   7.676   1.845
 8007TIP3    H123966   2.643   7.599   1.897
 8007TIP3    H223967   2.602   7.744   1.910
 8008TIP3   OH223968   1.379   6.247   3.830
 8008TIP3    H123969   1.325   6.169   3.814
 8008TIP3    H223970   1.332   6.318   3.785
 8009TIP3   OH223971   4.659   1.044   0.421
 8009TIP3    H123972   4.657   1.115   0.485
 8009TIP3    H223973   4.568   1.036   0.391
 8010TIP3   OH223974   7.372   1.545   4.809
 8010TIP3    H123975   7.351   1.454   4.786
 8010TIP3    H223976   7.291   1.593   4.792
 8011TIP3   OH223977   7.603   1.065   0.906
 8011TIP3    H123978   7.531   1.005   0.920
 8011TIP3    H223979   7.666   1.043   0.975
 8012TIP3   OH223980   3.888   3.857   4.215
 8012TIP3    H123981   3.936   3.894   4.290
 8012TIP3    H223982   3.875   3.765   4.238
 8013TIP3   OH223983   1.173   5.356   0.819
 8013TIP3    H123984   1.221   5.325   0.896
 8013TIP3    H223985   1.109   5.418   0.854
 8014TIP3   OH223986   4.918   6.247   5.298
 8014TIP3    H123987   4.963   6.183   5.353
 8014TIP3    H223988   4.826   6.220   5.300
 8015TIP3   OH223989   7.299   4.837   2.442
 8015TIP3    H123990   7.260   4.752   2.463
 8015TIP3    H223991   7.346   4.822   2.359
 8016TIP3   OH223992   2.726   2.888   3.501
 8016TIP3    H123993   2.802   2.945   3.516
 8016TIP3    H223994   2.736   2.817   3.565
 8017TIP3   OH223995   6.640   5.398   0.080
 8017TIP3    H123996   6.676   5.349   0.154
 8017TIP3    H223997   6.593   5.332   0.028
 8018TIP3   OH223998   1.068   2.640   4.147
 8018TIP3    H123999   0.998   2.582   4.177
 8018TIP3    H224000   1.139   2.580   4.121
 8019TIP3   OH224001   2.343   5.091   5.434
 8019TIP3    H124002   2.354   5.028   5.505
 8019TIP3    H224003   2.418   5.150   5.442
 8020TIP3   OH224004   5.153   3.490   5.981
 8020TIP3    H124005   5.156   3.428   6.053
 8020TIP3    H224006   5.075   3.465   5.931
 8021TIP3   OH224007   4.462   1.168   4.230
 8021TIP3    H124008   4.405   1.219   4.173
 8021TIP3    H224009   4.488   1.229   4.299
 8022TIP3   OH224010   4.950   0.862   4.764
 8022TIP3    H124011   5.025   0.804   4.755
 8022TIP3    H224012   4.907   0.859   4.678
 8023TIP3   OH224013   6.980   6.010   3.696
 8023TIP3    H124014   6.916   5.948   3.660
 8023TIP3    H224015   7.005   6.064   3.621
 8024TIP3   OH224016   1.666   4.252   2.044
 8024TIP3    H124017   1.621   4.168   2.044
 8024TIP3    H224018   1.732   4.245   1.975
 8025TIP3   OH224019   1.089   7.603   5.053
 8025TIP3    H124020   1.096   7.683   5.001
 8025TIP3    H224021   1.004   7.566   5.029
 8026TIP3   OH224022   1.486   4.731   3.905
 8026TIP3    H124023   1.486   4.650   3.955
 8026TIP3    H224024   1.572   4.734   3.864
 8027TIP3   OH224025   1.295   4.412   4.252
 8027TIP3    H124026   1.211   4.384   4.216
 8027TIP3    H224027   1.276   4.496   4.293
 8028TIP3   OH224028   1.551   3.143   1.166
 8028TIP3    H124029   1.529   3.159   1.258
 8028TIP3    H224030   1.472   3.105   1.129
 8029TIP3   OH224031   1.576   0.327   1.008
 8029TIP3    H124032   1.481   0.315   0.997
 8029TIP3    H224033   1.606   0.362   0.923
 8030TIP3   OH224034   6.551   0.609   1.600
 8030TIP3    H124035   6.581   0.573   1.683
 8030TIP3    H224036   6.631   0.641   1.557
 8031TIP3   OH224037   7.688   5.628   1.071
 8031TIP3    H124038   7.763   5.623   1.130
 8031TIP3    H224039   7.726   5.626   0.984
 8032TIP3   OH224040   7.822   3.250   3.191
 8032TIP3    H124041   7.882   3.221   3.260
 8032TIP3    H224042   7.793   3.336   3.221
 8033TIP3   OH224043   4.112   5.717   1.014
 8033TIP3    H124044   4.135   5.681   1.099
 8033TIP3    H224045   4.021   5.745   1.023
 8034TIP3   OH224046   7.195   0.992   4.148
 8034TIP3    H124047   7.234   0.911   4.115
 8034TIP3    H224048   7.183   0.977   4.242
 8035TIP3   OH224049   5.045   5.881   0.451
 8035TIP3    H124050   5.081   5.801   0.413
 8035TIP3    H224051   4.963   5.854   0.492
 8036TIP3   OH224052   5.336   1.501   5.800
 8036TIP3    H124053   5.250   1.472   5.832
 8036TIP3    H224054   5.339   1.469   5.710
 8037TIP3   OH224055   3.265   1.425   6.762
 8037TIP3    H124056   3.194   1.371   6.795
 8037TIP3    H224057   3.221   1.497   6.716
 8038TIP3   OH224058   2.001   5.236   1.919
 8038TIP3    H124059   2.093   5.237   1.891
 8038TIP3    H224060   1.967   5.322   1.891
 8039TIP3   OH224061   1.861   2.574   2.669
 8039TIP3    H124062   1.906   2.514   2.610
 8039TIP3    H224063   1.834   2.518   2.743
 8040TIP3   OH224064   8.267   3.128   1.584
 8040TIP3    H124065   8.289   3.124   1.677
 8040TIP3    H224066   8.323   3.061   1.544
 8041TIP3   OH224067   7.474   1.791   4.049
 8041TIP3    H124068   7.531   1.852   4.001
 8041TIP3    H224069   7.509   1.704   4.028
 8042TIP3   OH224070   0.919   2.425   3.714
 8042TIP3    H124071   0.969   2.344   3.704
 8042TIP3    H224072   0.980   2.494   3.691
 8043TIP3   OH224073   7.589   6.690   6.375
 8043TIP3    H124074   7.651   6.762   6.384
 8043TIP3    H224075   7.590   6.646   6.459
 8044TIP3   OH224076   0.530   3.033   0.814
 8044TIP3    H124077   0.528   3.066   0.724
 8044TIP3    H224078   0.544   3.111   0.868
 8045TIP3   OH224079   2.356   1.059   0.399
 8045TIP3    H124080   2.396   0.974   0.419
 8045TIP3    H224081   2.376   1.073   0.306
 8046TIP3   OH224082   2.910   6.601   4.934
 8046TIP3    H124083   2.999   6.608   4.969
 8046TIP3    H224084   2.865   6.542   4.995
 8047TIP3   OH224085   3.185   5.526   4.569
 8047TIP3    H124086   3.185   5.431   4.578
 8047TIP3    H224087   3.187   5.559   4.659
 8048TIP3   OH224088   4.033   6.299   3.023
 8048TIP3    H124089   3.942   6.269   3.024
 8048TIP3    H224090   4.028   6.389   2.990
 8049TIP3   OH224091   7.395   3.433   1.022
 8049TIP3    H124092   7.374   3.340   1.015
 8049TIP3    H224093   7.376   3.456   1.113
 8050TIP3   OH224094   7.257   4.776   3.461
 8050TIP3    H124095   7.169   4.772   3.422
 8050TIP3    H224096   7.243   4.763   3.554
 8051TIP3   OH224097   1.782   5.994   5.726
 8051TIP3    H124098   1.778   5.971   5.819
 8051TIP3    H224099   1.697   6.032   5.707
 8052TIP3   OH224100   7.888   3.492   3.363
 8052TIP3    H124101   7.978   3.462   3.368
 8052TIP3    H224102   7.894   3.583   3.334
 8053TIP3   OH224103   8.043   3.313   1.581
 8053TIP3    H124104   8.039   3.321   1.677
 8053TIP3    H224105   8.122   3.263   1.565
 8054TIP3   OH224106   4.778   0.503   0.614
 8054TIP3    H124107   4.800   0.596   0.612
 8054TIP3    H224108   4.728   0.488   0.535
 8055TIP3   OH224109   5.231   6.738   2.542
 8055TIP3    H124110   5.169   6.775   2.605
 8055TIP3    H224111   5.192   6.757   2.456
 8056TIP3   OH224112   4.872   1.764   1.784
 8056TIP3    H124113   4.899   1.842   1.736
 8056TIP3    H224114   4.778   1.776   1.800
 8057TIP3   OH224115   1.286   0.904   4.786
 8057TIP3    H124116   1.364   0.849   4.789
 8057TIP3    H224117   1.297   0.957   4.707
 8058TIP3   OH224118   6.366   0.844   0.294
 8058TIP3    H124119   6.413   0.763   0.276
 8058TIP3    H224120   6.424   0.894   0.351
 8059TIP3   OH224121   6.713   7.132   4.193
 8059TIP3    H124122   6.633   7.085   4.173
 8059TIP3    H224123   6.763   7.131   4.111
 8060TIP3   OH224124   5.976   2.222   4.119
 8060TIP3    H124125   6.014   2.136   4.140
 8060TIP3    H224126   6.042   2.285   4.147
 8061TIP3   OH224127   6.276   3.951   3.011
 8061TIP3    H124128   6.291   3.980   2.921
 8061TIP3    H224129   6.284   3.856   3.007
 8062TIP3   OH224130   7.917   7.279   0.255
 8062TIP3    H124131   7.986   7.267   0.321
 8062TIP3    H224132   7.869   7.197   0.256
 8063TIP3   OH224133   3.819   0.301   4.538
 8063TIP3    H124134   3.844   0.343   4.456
 8063TIP3    H224135   3.740   0.346   4.566
 8064TIP3   OH224136   0.223   5.956   0.943
 8064TIP3    H124137   0.177   6.019   0.999
 8064TIP3    H224138   0.198   5.982   0.854
 8065TIP3   OH224139   0.525   7.397   4.862
 8065TIP3    H124140   0.558   7.460   4.798
 8065TIP3    H224141   0.430   7.405   4.858
 8066TIP3   OH224142   6.667   3.684   2.123
 8066TIP3    H124143   6.698   3.664   2.035
 8066TIP3    H224144   6.633   3.600   2.156
 8067TIP3   OH224145   1.938   2.837   1.479
 8067TIP3    H124146   1.863   2.885   1.443
 8067TIP3    H224147   1.980   2.798   1.402
 8068TIP3   OH224148   7.607   2.876   4.027
 8068TIP3    H124149   7.608   2.800   4.085
 8068TIP3    H224150   7.605   2.951   4.087
 8069TIP3   OH224151   5.167   1.927   2.645
 8069TIP3    H124152   5.237   1.862   2.635
 8069TIP3    H224153   5.089   1.883   2.611
 8070TIP3   OH224154   1.243   2.772   0.450
 8070TIP3    H124155   1.161   2.821   0.440
 8070TIP3    H224156   1.220   2.683   0.425
 8071TIP3   OH224157   1.163   1.710   6.770
 8071TIP3    H124158   1.165   1.622   6.809
 8071TIP3    H224159   1.158   1.693   6.676
 8072TIP3   OH224160   1.542   1.056   2.245
 8072TIP3    H124161   1.602   1.065   2.319
 8072TIP3    H224162   1.455   1.051   2.285
 8073TIP3   OH224163   3.714   4.605   2.456
 8073TIP3    H124164   3.748   4.656   2.383
 8073TIP3    H224165   3.620   4.598   2.439
 8074TIP3   OH224166   6.869   1.781   2.339
 8074TIP3    H124167   6.873   1.693   2.303
 8074TIP3    H224168   6.825   1.771   2.423
 8075TIP3   OH224169   7.115   2.708   1.301
 8075TIP3    H124170   7.127   2.645   1.372
 8075TIP3    H224171   7.100   2.653   1.224
 8076TIP3   OH224172   0.477   3.804   5.837
 8076TIP3    H124173   0.549   3.743   5.857
 8076TIP3    H224174   0.510   3.858   5.766
 8077TIP3   OH224175   7.336   7.325   0.837
 8077TIP3    H124176   7.427   7.333   0.807
 8077TIP3    H224177   7.336   7.246   0.891
 8078TIP3   OH224178   6.342   5.394   2.761
 8078TIP3    H124179   6.321   5.309   2.797
 8078TIP3    H224180   6.338   5.382   2.666
 8079TIP3   OH224181   4.249   1.466   0.642
 8079TIP3    H124182   4.225   1.492   0.731
 8079TIP3    H224183   4.175   1.492   0.588
 8080TIP3   OH224184   2.721   3.402   1.694
 8080TIP3    H124185   2.664   3.353   1.635
 8080TIP3    H224186   2.711   3.358   1.779
 8081TIP3   OH224187   6.048   6.284   1.078
 8081TIP3    H124188   6.105   6.356   1.053
 8081TIP3    H224189   6.013   6.310   1.164
 8082TIP3   OH224190   2.598   2.837   1.794
 8082TIP3    H124191   2.644   2.766   1.748
 8082TIP3    H224192   2.655   2.913   1.784
 8083TIP3   OH224193   5.012   0.800   0.456
 8083TIP3    H124194   4.924   0.794   0.494
 8083TIP3    H224195   4.998   0.833   0.368
 8084TIP3   OH224196   4.003   5.846   2.877
 8084TIP3    H124197   4.078   5.831   2.933
 8084TIP3    H224198   3.939   5.780   2.904
 8085TIP3   OH224199   7.745   0.131   4.651
 8085TIP3    H124200   7.729   0.125   4.557
 8085TIP3    H224201   7.796   0.053   4.672
 8086TIP3   OH224202   3.590   0.825   3.288
 8086TIP3    H124203   3.601   0.806   3.381
 8086TIP3    H224204   3.585   0.920   3.283
 8087TIP3   OH224205   4.690   0.930   5.612
 8087TIP3    H124206   4.762   0.870   5.591
 8087TIP3    H224207   4.640   0.937   5.530
 8088TIP3   OH224208   1.413   2.417   0.674
 8088TIP3    H124209   1.441   2.473   0.601
 8088TIP3    H224210   1.396   2.478   0.746
 8089TIP3   OH224211   1.122   6.423   0.578
 8089TIP3    H124212   1.151   6.344   0.624
 8089TIP3    H224213   1.116   6.489   0.647
 8090TIP3   OH224214   4.263   6.777   4.127
 8090TIP3    H124215   4.214   6.698   4.147
 8090TIP3    H224216   4.197   6.846   4.122
 8091TIP3   OH224217   5.487   1.492   0.439
 8091TIP3    H124218   5.561   1.539   0.399
 8091TIP3    H224219   5.513   1.400   0.438
 8092TIP3   OH224220   1.329   1.522   5.285
 8092TIP3    H124221   1.247   1.472   5.292
 8092TIP3    H224222   1.379   1.497   5.363
 8093TIP3   OH224223   4.315   0.336   0.800
 8093TIP3    H124224   4.367   0.263   0.768
 8093TIP3    H224225   4.255   0.298   0.864
 8094TIP3   OH224226   0.867   3.891   3.102
 8094TIP3    H124227   0.869   3.833   3.178
 8094TIP3    H224228   0.897   3.837   3.029
 8095TIP3   OH224229   4.110   3.996   1.367
 8095TIP3    H124230   4.180   3.936   1.344
 8095TIP3    H224231   4.068   3.956   1.443
 8096TIP3   OH224232   4.562   2.210   0.548
 8096TIP3    H124233   4.562   2.220   0.643
 8096TIP3    H224234   4.638   2.155   0.530
 8097TIP3   OH224235   2.481   6.651   0.381
 8097TIP3    H124236   2.414   6.586   0.363
 8097TIP3    H224237   2.436   6.735   0.375
 8098TIP3   OH224238   0.113   1.431   6.368
 8098TIP3    H124239   0.074   1.508   6.410
 8098TIP3    H224240   0.180   1.402   6.430
 8099TIP3   OH224241   5.618   1.701   3.144
 8099TIP3    H124242   5.697   1.725   3.193
 8099TIP3    H224243   5.641   1.621   3.097
 8100TIP3   OH224244   2.714   2.766   5.872
 8100TIP3    H124245   2.766   2.686   5.871
 8100TIP3    H224246   2.649   2.754   5.802
 8101TIP3   OH224247   6.751   4.775   5.547
 8101TIP3    H124248   6.662   4.811   5.551
 8101TIP3    H224249   6.808   4.848   5.569
 8102TIP3   OH224250   6.433   4.365   3.660
 8102TIP3    H124251   6.478   4.449   3.671
 8102TIP3    H224252   6.497   4.309   3.615
 8103TIP3   OH224253   6.634   0.558   3.503
 8103TIP3    H124254   6.571   0.505   3.454
 8103TIP3    H224255   6.676   0.496   3.563
 8104TIP3   OH224256   6.289   5.767   2.285
 8104TIP3    H124257   6.322   5.801   2.202
 8104TIP3    H224258   6.299   5.840   2.346
 8105TIP3   OH224259   2.764   4.408   3.504
 8105TIP3    H124260   2.711   4.455   3.439
 8105TIP3    H224261   2.700   4.366   3.561
 8106TIP3   OH224262   2.767   5.533   6.535
 8106TIP3    H124263   2.719   5.608   6.570
 8106TIP3    H224264   2.741   5.528   6.444
 8107TIP3   OH224265   2.879   1.148   4.619
 8107TIP3    H124266   2.818   1.179   4.551
 8107TIP3    H224267   2.953   1.208   4.613
 8108TIP3   OH224268   0.056   6.817   3.312
 8108TIP3    H124269   0.017   6.793   3.396
 8108TIP3    H224270   0.014   6.758   3.249
 8109TIP3   OH224271   4.052   5.745   1.795
 8109TIP3    H124272   3.980   5.791   1.753
 8109TIP3    H224273   4.126   5.754   1.735
 8110TIP3   OH224274   6.046   0.957   1.694
 8110TIP3    H124275   6.113   0.983   1.757
 8110TIP3    H224276   6.019   0.869   1.723
 8111TIP3   OH224277   1.645   3.522   0.316
 8111TIP3    H124278   1.660   3.582   0.389
 8111TIP3    H224279   1.549   3.520   0.306
 8112TIP3   OH224280   0.133   5.184   5.292
 8112TIP3    H124281   0.198   5.115   5.279
 8112TIP3    H224282   0.053   5.138   5.317
 8113TIP3   OH224283   6.091   3.808   0.985
 8113TIP3    H124284   6.176   3.798   0.944
 8113TIP3    H224285   6.103   3.879   1.048
 8114TIP3   OH224286   1.955   2.347   5.855
 8114TIP3    H124287   1.979   2.403   5.781
 8114TIP3    H224288   2.037   2.334   5.902
 8115TIP3   OH224289   1.796   7.183   5.512
 8115TIP3    H124290   1.867   7.220   5.565
 8115TIP3    H224291   1.785   7.246   5.440
 8116TIP3   OH224292   1.065   3.690   6.287
 8116TIP3    H124293   1.130   3.761   6.283
 8116TIP3    H224294   1.030   3.684   6.198
 8117TIP3   OH224295   5.498   4.550   2.776
 8117TIP3    H124296   5.507   4.460   2.745
 8117TIP3    H224297   5.411   4.553   2.816
 8118TIP3   OH224298   0.739   0.062   2.856
 8118TIP3    H124299   0.730   0.000   2.784
 8118TIP3    H224300   0.786   0.136   2.818
 8119TIP3   OH224301   7.992   3.547   3.800
 8119TIP3    H124302   7.913   3.519   3.754
 8119TIP3    H224303   7.970   3.633   3.835
 8120TIP3   OH224304   7.919   6.096   2.406
 8120TIP3    H124305   7.974   6.161   2.448
 8120TIP3    H224306   7.852   6.074   2.471
 8121TIP3   OH224307   3.201   1.298   0.473
 8121TIP3    H124308   3.131   1.302   0.408
 8121TIP3    H224309   3.156   1.277   0.555
 8122TIP3   OH224310   5.104   6.321   2.921
 8122TIP3    H124311   5.172   6.326   2.989
 8122TIP3    H224312   5.088   6.412   2.897
 8123TIP3   OH224313   0.843   4.356   4.193
 8123TIP3    H124314   0.921   4.330   4.243
 8123TIP3    H224315   0.798   4.418   4.249
 8124TIP3   OH224316   5.801   1.597   6.267
 8124TIP3    H124317   5.806   1.506   6.238
 8124TIP3    H224318   5.835   1.648   6.193
 8125TIP3   OH224319   7.809   2.097   4.495
 8125TIP3    H124320   7.778   2.075   4.583
 8125TIP3    H224321   7.789   2.190   4.485
 8126TIP3   OH224322   3.290   7.469   4.761
 8126TIP3    H124323   3.219   7.486   4.699
 8126TIP3    H224324   3.349   7.409   4.716
 8127TIP3   OH224325   5.412   2.438   1.666
 8127TIP3    H124326   5.415   2.347   1.694
 8127TIP3    H224327   5.368   2.484   1.737
 8128TIP3   OH224328   2.676   4.872   0.987
 8128TIP3    H124329   2.766   4.875   0.953
 8128TIP3    H224330   2.676   4.798   1.048
 8129TIP3   OH224331   7.396   5.047   0.261
 8129TIP3    H124332   7.370   5.101   0.185
 8129TIP3    H224333   7.386   5.106   0.336
 8130TIP3   OH224334   7.035   3.394   1.936
 8130TIP3    H124335   7.085   3.315   1.914
 8130TIP3    H224336   6.985   3.414   1.857
 8131TIP3   OH224337   7.534   0.287   3.733
 8131TIP3    H124338   7.504   0.198   3.713
 8131TIP3    H224339   7.455   0.340   3.724
 8132TIP3   OH224340   7.670   4.320   4.544
 8132TIP3    H124341   7.654   4.385   4.611
 8132TIP3    H224342   7.765   4.308   4.543
 8133TIP3   OH224343   2.697   6.128   2.134
 8133TIP3    H124344   2.665   6.218   2.140
 8133TIP3    H224345   2.776   6.134   2.082
 8134TIP3   OH224346   2.339   2.670   4.241
 8134TIP3    H124347   2.396   2.617   4.185
 8134TIP3    H224348   2.379   2.664   4.327
 8135TIP3   OH224349   0.131   5.908   3.029
 8135TIP3    H124350   0.203   5.898   3.092
 8135TIP3    H224351   0.175   5.927   2.946
 8136TIP3   OH224352   2.518   4.531   0.561
 8136TIP3    H124353   2.596   4.537   0.507
 8136TIP3    H224354   2.445   4.529   0.499
 8137TIP3   OH224355   2.716   2.220   6.004
 8137TIP3    H124356   2.705   2.164   5.927
 8137TIP3    H224357   2.647   2.191   6.065
 8138TIP3   OH224358   5.522   2.756   3.142
 8138TIP3    H124359   5.443   2.759   3.089
 8138TIP3    H224360   5.499   2.700   3.217
 8139TIP3   OH224361   1.008   0.986   4.753
 8139TIP3    H124362   0.962   1.068   4.772
 8139TIP3    H224363   1.087   0.990   4.806
 8140TIP3   OH224364   3.064   5.260   2.247
 8140TIP3    H124365   3.063   5.219   2.160
 8140TIP3    H224366   3.128   5.331   2.240
 8141TIP3   OH224367   3.508   6.154   1.887
 8141TIP3    H124368   3.580   6.165   1.824
 8141TIP3    H224369   3.487   6.061   1.883
 8142TIP3   OH224370   4.790   3.757   5.554
 8142TIP3    H124371   4.722   3.780   5.492
 8142TIP3    H224372   4.822   3.671   5.525
 8143TIP3   OH224373   0.922   7.370   2.255
 8143TIP3    H124374   0.966   7.286   2.251
 8143TIP3    H224375   0.940   7.412   2.171
 8144TIP3   OH224376   0.237   0.824   1.920
 8144TIP3    H124377   0.155   0.795   1.880
 8144TIP3    H224378   0.265   0.751   1.975
 8145TIP3   OH224379   3.597   3.711   2.478
 8145TIP3    H124380   3.611   3.699   2.572
 8145TIP3    H224381   3.542   3.789   2.471
 8146TIP3   OH224382   0.391   6.076   4.226
 8146TIP3    H124383   0.368   5.984   4.216
 8146TIP3    H224384   0.445   6.096   4.150
 8147TIP3   OH224385   0.578   5.254   0.704
 8147TIP3    H124386   0.570   5.218   0.792
 8147TIP3    H224387   0.667   5.288   0.699
 8148TIP3   OH224388   5.019   2.445   1.358
 8148TIP3    H124389   5.003   2.513   1.292
 8148TIP3    H224390   5.099   2.402   1.329
 8149TIP3   OH224391   0.900   2.082   5.930
 8149TIP3    H124392   0.822   2.028   5.918
 8149TIP3    H224393   0.881   2.136   6.006
 8150TIP3   OH224394   1.955   5.230   4.964
 8150TIP3    H124395   1.905   5.303   4.926
 8150TIP3    H224396   1.974   5.173   4.890
 8151TIP3   OH224397   2.507   2.359   3.317
 8151TIP3    H124398   2.589   2.371   3.269
 8151TIP3    H224399   2.518   2.412   3.396
 8152TIP3   OH224400   5.842   5.816   5.399
 8152TIP3    H124401   5.798   5.895   5.369
 8152TIP3    H224402   5.833   5.754   5.326
 8153TIP3   OH224403   2.488   6.933   4.618
 8153TIP3    H124404   2.470   6.855   4.671
 8153TIP3    H224405   2.476   7.006   4.678
 8154TIP3   OH224406   0.367   7.727   1.187
 8154TIP3    H124407   0.274   7.723   1.211
 8154TIP3    H224408   0.411   7.679   1.258
 8155TIP3   OH224409   7.531   6.584   2.439
 8155TIP3    H124410   7.438   6.577   2.463
 8155TIP3    H224411   7.538   6.533   2.358
 8156TIP3   OH224412   0.223   3.766   6.453
 8156TIP3    H124413   0.172   3.730   6.381
 8156TIP3    H224414   0.314   3.745   6.431
 8157TIP3   OH224415   4.777   7.093   0.167
 8157TIP3    H124416   4.864   7.104   0.127
 8157TIP3    H224417   4.722   7.158   0.123
 8158TIP3   OH224418   5.145   3.332   1.175
 8158TIP3    H124419   5.087   3.402   1.145
 8158TIP3    H224420   5.206   3.319   1.102
 8159TIP3   OH224421   0.448   6.767   4.866
 8159TIP3    H124422   0.388   6.722   4.806
 8159TIP3    H224423   0.410   6.854   4.878
 8160TIP3   OH224424   6.398   7.460   3.447
 8160TIP3    H124425   6.377   7.550   3.425
 8160TIP3    H224426   6.346   7.407   3.387
 8161TIP3   OH224427   4.368   7.194   5.404
 8161TIP3    H124428   4.461   7.176   5.395
 8161TIP3    H224429   4.340   7.141   5.478
 8162TIP3   OH224430   5.135   2.703   3.669
 8162TIP3    H124431   5.140   2.624   3.616
 8162TIP3    H224432   5.213   2.753   3.646
 8163TIP3   OH224433   0.044   3.368   1.438
 8163TIP3    H124434  -0.030   3.411   1.396
 8163TIP3    H224435   0.010   3.283   1.467
 8164TIP3   OH224436   6.755   6.911   3.389
 8164TIP3    H124437   6.794   6.901   3.302
 8164TIP3    H224438   6.668   6.948   3.372
 8165TIP3   OH224439   5.228   7.591   4.563
 8165TIP3    H124440   5.227   7.549   4.477
 8165TIP3    H224441   5.230   7.518   4.625
 8166TIP3   OH224442   1.909   7.144   3.333
 8166TIP3    H124443   1.968   7.073   3.306
 8166TIP3    H224444   1.880   7.119   3.421
 8167TIP3   OH224445   7.403   7.232   1.588
 8167TIP3    H124446   7.354   7.314   1.588
 8167TIP3    H224447   7.404   7.205   1.496
 8168TIP3   OH224448   6.750   6.285   2.907
 8168TIP3    H124449   6.757   6.285   3.003
 8168TIP3    H224450   6.841   6.280   2.877
 8169TIP3   OH224451   4.635   0.724   1.800
 8169TIP3    H124452   4.662   0.723   1.708
 8169TIP3    H224453   4.684   0.797   1.839
 8170TIP3   OH224454   6.373   6.662   4.612
 8170TIP3    H124455   6.466   6.686   4.610
 8170TIP3    H224456   6.328   6.738   4.574
 8171TIP3   OH224457   3.728   2.043   0.815
 8171TIP3    H124458   3.656   2.065   0.755
 8171TIP3    H224459   3.795   2.108   0.796
 8172TIP3   OH224460   4.787   6.011   1.051
 8172TIP3    H124461   4.750   5.929   1.084
 8172TIP3    H224462   4.797   6.066   1.128
 8173TIP3   OH224463   5.825   1.068   2.925
 8173TIP3    H124464   5.905   1.021   2.900
 8173TIP3    H224465   5.786   1.014   2.994
 8174TIP3   OH224466   1.882   0.697   4.351
 8174TIP3    H124467   1.934   0.626   4.313
 8174TIP3    H224468   1.946   0.754   4.394
 8175TIP3   OH224469   4.145   1.796   1.321
 8175TIP3    H124470   4.088   1.843   1.261
 8175TIP3    H224471   4.210   1.754   1.264
 8176TIP3   OH224472   3.673   4.307   2.085
 8176TIP3    H124473   3.674   4.243   2.157
 8176TIP3    H224474   3.589   4.352   2.094
 8177TIP3   OH224475   5.262   1.734   3.691
 8177TIP3    H124476   5.342   1.778   3.664
 8177TIP3    H224477   5.196   1.765   3.629
 8178TIP3   OH224478   7.587   7.641   0.754
 8178TIP3    H124479   7.525   7.711   0.731
 8178TIP3    H224480   7.571   7.625   0.847
 8179TIP3   OH224481   5.936   4.193   6.740
 8179TIP3    H124482   6.028   4.217   6.751
 8179TIP3    H224483   5.897   4.264   6.689
 8180TIP3   OH224484   0.900   1.740   2.728
 8180TIP3    H124485   0.816   1.700   2.749
 8180TIP3    H224486   0.939   1.761   2.813
 8181TIP3   OH224487   0.923   6.682   4.814
 8181TIP3    H124488   0.989   6.684   4.745
 8181TIP3    H224489   0.899   6.590   4.821
 8182TIP3   OH224490   0.981   2.004   3.480
 8182TIP3    H124491   0.963   2.094   3.455
 8182TIP3    H224492   1.077   1.997   3.478
 8183TIP3   OH224493   2.088   2.082   5.764
 8183TIP3    H124494   2.038   2.108   5.687
 8183TIP3    H224495   2.023   2.044   5.824
 8184TIP3   OH224496   3.362   1.973   5.661
 8184TIP3    H124497   3.439   1.935   5.619
 8184TIP3    H224498   3.396   2.011   5.742
 8185TIP3   OH224499   7.194   3.399   4.111
 8185TIP3    H124500   7.156   3.422   4.195
 8185TIP3    H224501   7.250   3.324   4.129
 8186TIP3   OH224502   8.022   1.953   5.886
 8186TIP3    H124503   8.040   1.901   5.808
 8186TIP3    H224504   8.069   2.035   5.870
 8187TIP3   OH224505   4.877   7.517   6.310
 8187TIP3    H124506   4.792   7.477   6.293
 8187TIP3    H224507   4.940   7.446   6.300
 8188TIP3   OH224508   4.118   0.911   0.452
 8188TIP3    H124509   4.053   0.961   0.404
 8188TIP3    H224510   4.202   0.938   0.416
 8189TIP3   OH224511   7.148   1.156   4.902
 8189TIP3    H124512   7.160   1.250   4.915
 8189TIP3    H224513   7.053   1.143   4.910
 8190TIP3   OH224514   7.777   6.795   2.369
 8190TIP3    H124515   7.726   6.786   2.288
 8190TIP3    H224516   7.851   6.737   2.358
 8191TIP3   OH224517   2.641   7.083   3.173
 8191TIP3    H124518   2.684   7.109   3.254
 8191TIP3    H224519   2.642   7.163   3.119
 8192TIP3   OH224520   4.603   5.684   3.469
 8192TIP3    H124521   4.609   5.692   3.564
 8192TIP3    H224522   4.512   5.658   3.452
 8193TIP3   OH224523   4.663   0.541   3.188
 8193TIP3    H124524   4.687   0.585   3.107
 8193TIP3    H224525   4.674   0.448   3.169
 8194TIP3   OH224526   0.532   1.694   6.039
 8194TIP3    H124527   0.469   1.697   6.111
 8194TIP3    H224528   0.581   1.612   6.052
 8195TIP3   OH224529   0.862   1.484   1.533
 8195TIP3    H124530   0.859   1.435   1.615
 8195TIP3    H224531   0.955   1.487   1.510
 8196TIP3   OH224532   3.606   1.936   3.057
 8196TIP3    H124533   3.640   1.850   3.079
 8196TIP3    H224534   3.639   1.953   2.969
 8197TIP3   OH224535   2.972   4.523   0.979
 8197TIP3    H124536   3.044   4.460   0.976
 8197TIP3    H224537   2.921   4.505   0.900
 8198TIP3   OH224538   1.388   0.485   2.852
 8198TIP3    H124539   1.391   0.526   2.938
 8198TIP3    H224540   1.337   0.546   2.798
 8199TIP3   OH224541   6.932   3.187   4.156
 8199TIP3    H124542   7.016   3.195   4.200
 8199TIP3    H224543   6.951   3.209   4.065
 8200TIP3   OH224544   8.155   1.880   3.937
 8200TIP3    H124545   8.089   1.854   3.873
 8200TIP3    H224546   8.122   1.843   4.020
 8201TIP3   OH224547   3.477   2.555   6.082
 8201TIP3    H124548   3.408   2.526   6.022
 8201TIP3    H224549   3.514   2.474   6.117
 8202TIP3   OH224550   0.971   0.979   3.979
 8202TIP3    H124551   1.053   0.960   4.024
 8202TIP3    H224552   0.923   1.036   4.039
 8203TIP3   OH224553   4.043   1.128   3.300
 8203TIP3    H124554   4.031   1.222   3.316
 8203TIP3    H224555   4.131   1.109   3.333
 8204TIP3   OH224556   1.632   7.239   3.003
 8204TIP3    H124557   1.539   7.258   3.011
 8204TIP3    H224558   1.664   7.300   2.937
 8205TIP3   OH224559   3.286   5.799   5.792
 8205TIP3    H124560   3.211   5.840   5.747
 8205TIP3    H224561   3.252   5.716   5.825
 8206TIP3   OH224562   7.176   4.276   2.491
 8206TIP3    H124563   7.130   4.250   2.411
 8206TIP3    H224564   7.243   4.337   2.461
 8207TIP3   OH224565   2.107   5.725   4.071
 8207TIP3    H124566   2.085   5.795   4.009
 8207TIP3    H224567   2.193   5.693   4.043
 8208TIP3   OH224568   8.296   5.664   2.566
 8208TIP3    H124569   8.335   5.736   2.617
 8208TIP3    H224570   8.205   5.691   2.553
 8209TIP3   OH224571   1.381   4.076   4.801
 8209TIP3    H124572   1.405   3.990   4.765
 8209TIP3    H224573   1.330   4.118   4.732
 8210TIP3   OH224574   0.597   2.395   5.811
 8210TIP3    H124575   0.525   2.367   5.754
 8210TIP3    H224576   0.676   2.374   5.762
 8211TIP3   OH224577   4.132   4.721   1.404
 8211TIP3    H124578   4.087   4.648   1.446
 8211TIP3    H224579   4.177   4.683   1.329
 8212TIP3   OH224580   8.258   6.260   4.069
 8212TIP3    H124581   8.232   6.345   4.105
 8212TIP3    H224582   8.270   6.277   3.975
 8213TIP3   OH224583   0.377   6.841   0.918
 8213TIP3    H124584   0.377   6.916   0.977
 8213TIP3    H224585   0.402   6.767   0.974
 8214TIP3   OH224586   6.180   1.573   4.786
 8214TIP3    H124587   6.202   1.519   4.710
 8214TIP3    H224588   6.094   1.610   4.765
 8215TIP3   OH224589   0.114   1.670   2.786
 8215TIP3    H124590   0.090   1.675   2.694
 8215TIP3    H224591   0.143   1.758   2.809
 8216TIP3   OH224592   4.171   6.625   6.619
 8216TIP3    H124593   4.195   6.659   6.705
 8216TIP3    H224594   4.235   6.555   6.603
 8217TIP3   OH224595   4.701   1.811   3.245
 8217TIP3    H124596   4.605   1.805   3.244
 8217TIP3    H224597   4.723   1.838   3.334
 8218TIP3   OH224598   2.213   4.616   0.142
 8218TIP3    H124599   2.295   4.664   0.155
 8218TIP3    H224600   2.219   4.584   0.052
 8219TIP3   OH224601   0.011   3.146   6.308
 8219TIP3    H124602   0.095   3.117   6.345
 8219TIP3    H224603  -0.002   3.233   6.346
 8220TIP3   OH224604   3.160   0.614   3.853
 8220TIP3    H124605   3.147   0.521   3.870
 8220TIP3    H224606   3.223   0.616   3.781
 8221TIP3   OH224607   2.155   3.252   4.291
 8221TIP3    H124608   2.202   3.241   4.208
 8221TIP3    H224609   2.204   3.318   4.338
 8222TIP3   OH224610   3.700   7.169   6.636
 8222TIP3    H124611   3.776   7.120   6.606
 8222TIP3    H224612   3.716   7.259   6.606
 8223TIP3   OH224613   3.060   6.834   3.055
 8223TIP3    H124614   2.972   6.872   3.053
 8223TIP3    H224615   3.108   6.879   2.986
 8224TIP3   OH224616   7.560   5.964   0.965
 8224TIP3    H124617   7.643   5.922   0.987
 8224TIP3    H224618   7.494   5.914   1.013
 8225TIP3   OH224619   6.625   6.457   4.390
 8225TIP3    H124620   6.618   6.515   4.315
 8225TIP3    H224621   6.537   6.423   4.403
 8226TIP3   OH224622   4.411   4.854   0.457
 8226TIP3    H124623   4.411   4.764   0.424
 8226TIP3    H224624   4.476   4.899   0.403
 8227TIP3   OH224625   5.103   1.383   0.405
 8227TIP3    H124626   5.122   1.307   0.349
 8227TIP3    H224627   5.136   1.357   0.491
 8228TIP3   OH224628   2.643   5.861   2.759
 8228TIP3    H124629   2.583   5.902   2.697
 8228TIP3    H224630   2.680   5.787   2.710
 8229TIP3   OH224631   7.314   5.992   0.833
 8229TIP3    H124632   7.407   6.001   0.853
 8229TIP3    H224633   7.276   5.958   0.914
 8230TIP3   OH224634   3.821   0.239   6.255
 8230TIP3    H124635   3.779   0.169   6.307
 8230TIP3    H224636   3.881   0.193   6.197
 8231TIP3   OH224637   3.372   0.220   0.773
 8231TIP3    H124638   3.434   0.288   0.800
 8231TIP3    H224639   3.309   0.215   0.845
 8232TIP3   OH224640   0.199   3.202   0.464
 8232TIP3    H124641   0.199   3.297   0.466
 8232TIP3    H224642   0.282   3.177   0.505
 8233TIP3   OH224643   6.186   6.905   5.371
 8233TIP3    H124644   6.205   6.819   5.409
 8233TIP3    H224645   6.231   6.904   5.286
 8234TIP3   OH224646   7.060   6.952   2.959
 8234TIP3    H124647   7.137   6.896   2.962
 8234TIP3    H224648   7.028   6.944   2.869
 8235TIP3   OH224649   0.886   1.192   1.650
 8235TIP3    H124650   0.948   1.129   1.612
 8235TIP3    H224651   0.812   1.193   1.589
 8236TIP3   OH224652   6.743   7.476   1.015
 8236TIP3    H124653   6.802   7.531   0.963
 8236TIP3    H224654   6.720   7.531   1.090
 8237TIP3   OH224655   6.155   5.003   0.252
 8237TIP3    H124656   6.143   4.984   0.159
 8237TIP3    H224657   6.073   4.976   0.293
 8238TIP3   OH224658   6.533   1.692   4.580
 8238TIP3    H124659   6.457   1.637   4.562
 8238TIP3    H224660   6.603   1.656   4.526
 8239TIP3   OH224661   4.067   7.191   6.110
 8239TIP3    H124662   4.086   7.173   6.202
 8239TIP3    H224663   4.141   7.153   6.062
 8240TIP3   OH224664   6.099   3.929   2.087
 8240TIP3    H124665   6.098   3.924   2.183
 8240TIP3    H224666   6.056   4.012   2.067
 8241TIP3   OH224667   0.615   0.925   0.632
 8241TIP3    H124668   0.550   0.970   0.687
 8241TIP3    H224669   0.568   0.903   0.552
 8242TIP3   OH224670   6.985   0.486   6.312
 8242TIP3    H124671   7.031   0.405   6.332
 8242TIP3    H224672   7.013   0.547   6.380
 8243TIP3   OH224673   5.317   0.065   2.501
 8243TIP3    H124674   5.317   0.105   2.588
 8243TIP3    H224675   5.225   0.048   2.482
 8244TIP3   OH224676   4.163   6.588   0.218
 8244TIP3    H124677   4.220   6.626   0.151
 8244TIP3    H224678   4.210   6.602   0.300
 8245TIP3   OH224679   1.790   4.819   0.509
 8245TIP3    H124680   1.783   4.735   0.555
 8245TIP3    H224681   1.701   4.853   0.506
 8246TIP3   OH224682   3.460   6.313   2.141
 8246TIP3    H124683   3.510   6.318   2.223
 8246TIP3    H224684   3.520   6.274   2.078
 8247TIP3   OH224685   2.433   0.138   4.869
 8247TIP3    H124686   2.402   0.111   4.782
 8247TIP3    H224687   2.527   0.119   4.868
 8248TIP3   OH224688   1.346   3.560   5.267
 8248TIP3    H124689   1.262   3.514   5.266
 8248TIP3    H224690   1.410   3.492   5.290
 8249TIP3   OH224691   7.171   0.153   3.010
 8249TIP3    H124692   7.113   0.207   2.958
 8249TIP3    H224693   7.232   0.214   3.051
 8250TIP3   OH224694   0.341   7.235   0.046
 8250TIP3    H124695   0.353   7.208   0.136
 8250TIP3    H224696   0.356   7.329   0.047
 8251TIP3   OH224697   2.344   6.510   5.380
 8251TIP3    H124698   2.418   6.518   5.440
 8251TIP3    H224699   2.292   6.438   5.415
 8252TIP3   OH224700   6.035   7.547   4.395
 8252TIP3    H124701   6.016   7.477   4.457
 8252TIP3    H224702   5.949   7.577   4.365
 8253TIP3   OH224703   4.149   0.196   5.716
 8253TIP3    H124704   4.075   0.256   5.705
 8253TIP3    H224705   4.121   0.115   5.673
 8254TIP3   OH224706   1.608   4.166   3.700
 8254TIP3    H124707   1.618   4.192   3.608
 8254TIP3    H224708   1.693   4.187   3.739
 8255TIP3   OH224709   7.642   6.096   5.606
 8255TIP3    H124710   7.560   6.111   5.560
 8255TIP3    H224711   7.653   6.001   5.606
 8256TIP3   OH224712   7.484   7.395   0.095
 8256TIP3    H124713   7.424   7.467   0.077
 8256TIP3    H224714   7.568   7.426   0.062
 8257TIP3   OH224715   4.748   2.246   5.945
 8257TIP3    H124716   4.762   2.251   6.040
 8257TIP3    H224717   4.834   2.266   5.907
 8258TIP3   OH224718   3.580   5.367   4.544
 8258TIP3    H124719   3.624   5.305   4.602
 8258TIP3    H224720   3.546   5.435   4.602
 8259TIP3   OH224721   5.085   6.411   1.484
 8259TIP3    H124722   5.004   6.450   1.516
 8259TIP3    H224723   5.084   6.322   1.519
 8260TIP3   OH224724   1.381   3.070   5.332
 8260TIP3    H124725   1.347   3.027   5.253
 8260TIP3    H224726   1.473   3.087   5.312
 8261TIP3   OH224727   3.861   5.437   2.524
 8261TIP3    H124728   3.894   5.511   2.473
 8261TIP3    H224729   3.805   5.478   2.591
 8262TIP3   OH224730   2.645   2.838   4.622
 8262TIP3    H124731   2.655   2.933   4.607
 8262TIP3    H224732   2.734   2.804   4.621
 8263TIP3   OH224733   8.019   2.948   1.581
 8263TIP3    H124734   8.109   2.980   1.588
 8263TIP3    H224735   8.012   2.880   1.647
 8264TIP3   OH224736   5.082   6.540   1.990
 8264TIP3    H124737   5.138   6.579   1.922
 8264TIP3    H224738   5.002   6.515   1.944
 8265TIP3   OH224739   1.853   3.717   1.132
 8265TIP3    H124740   1.766   3.688   1.161
 8265TIP3    H224741   1.887   3.767   1.206
 8266TIP3   OH224742   1.060   4.698   3.968
 8266TIP3    H124743   0.984   4.745   4.003
 8266TIP3    H224744   1.063   4.721   3.875
 8267TIP3   OH224745   0.387   2.631   5.593
 8267TIP3    H124746   0.355   2.555   5.642
 8267TIP3    H224747   0.348   2.707   5.638
 8268TIP3   OH224748   7.828   6.570   1.011
 8268TIP3    H124749   7.871   6.603   1.090
 8268TIP3    H224750   7.735   6.573   1.031
 8269TIP3   OH224751   5.964   0.260   6.724
 8269TIP3    H124752   5.995   0.350   6.717
 8269TIP3    H224753   6.022   0.220   6.789
 8270TIP3   OH224754   0.475   5.479   3.927
 8270TIP3    H124755   0.452   5.541   3.857
 8270TIP3    H224756   0.558   5.440   3.898
 8271TIP3   OH224757   4.705   0.964   3.650
 8271TIP3    H124758   4.760   0.995   3.578
 8271TIP3    H224759   4.664   1.044   3.684
 8272TIP3   OH224760   0.161   1.484   6.642
 8272TIP3    H124761   0.231   1.437   6.688
 8272TIP3    H224762   0.137   1.554   6.702
 8273TIP3   OH224763   2.287   0.212   5.751
 8273TIP3    H124764   2.200   0.218   5.711
 8273TIP3    H224765   2.275   0.156   5.827
 8274TIP3   OH224766   1.918   2.539   0.481
 8274TIP3    H124767   1.952   2.628   0.477
 8274TIP3    H224768   1.910   2.512   0.389
 8275TIP3   OH224769   5.863   2.100   1.573
 8275TIP3    H124770   5.906   2.131   1.493
 8275TIP3    H224771   5.896   2.011   1.586
 8276TIP3   OH224772   5.166   0.203   6.757
 8276TIP3    H124773   5.147   0.270   6.691
 8276TIP3    H224774   5.141   0.242   6.840
 8277TIP3   OH224775   6.655   1.653   0.611
 8277TIP3    H124776   6.670   1.691   0.524
 8277TIP3    H224777   6.739   1.615   0.636
 8278TIP3   OH224778   2.503   3.754   4.206
 8278TIP3    H124779   2.549   3.698   4.144
 8278TIP3    H224780   2.500   3.840   4.164
 8279TIP3   OH224781   7.178   1.256   6.061
 8279TIP3    H124782   7.228   1.337   6.051
 8279TIP3    H224783   7.117   1.274   6.133
 8280TIP3   OH224784   7.800   4.866   5.779
 8280TIP3    H124785   7.854   4.794   5.814
 8280TIP3    H224786   7.846   4.945   5.806
 8281TIP3   OH224787   1.530   6.413   6.519
 8281TIP3    H124788   1.522   6.472   6.594
 8281TIP3    H224789   1.620   6.383   6.521
 8282TIP3   OH224790   3.933   1.694   4.373
 8282TIP3    H124791   3.846   1.729   4.353
 8282TIP3    H224792   3.937   1.695   4.469
 8283TIP3   OH224793   5.122   7.384   6.668
 8283TIP3    H124794   5.144   7.477   6.679
 8283TIP3    H224795   5.202   7.338   6.694
 8284TIP3   OH224796   4.473   4.378   6.154
 8284TIP3    H124797   4.466   4.283   6.163
 8284TIP3    H224798   4.462   4.412   6.243
 8285TIP3   OH224799   5.200   0.654   6.389
 8285TIP3    H124800   5.205   0.571   6.341
 8285TIP3    H224801   5.269   0.647   6.456
 8286TIP3   OH224802   1.555   0.140   2.113
 8286TIP3    H124803   1.502   0.126   2.192
 8286TIP3    H224804   1.504   0.201   2.060
 8287TIP3   OH224805   0.142   2.605   5.741
 8287TIP3    H124806   0.097   2.635   5.662
 8287TIP3    H224807   0.113   2.666   5.809
 8288TIP3   OH224808   2.874   0.826   6.104
 8288TIP3    H124809   2.944   0.765   6.130
 8288TIP3    H224810   2.875   0.893   6.172
 8289TIP3   OH224811   4.271   1.649   6.561
 8289TIP3    H124812   4.202   1.589   6.587
 8289TIP3    H224813   4.326   1.657   6.639
 8290TIP3   OH224814   2.667   5.644   3.805
 8290TIP3    H124815   2.637   5.714   3.748
 8290TIP3    H224816   2.679   5.686   3.890
 8291TIP3   OH224817   0.195   0.741   4.862
 8291TIP3    H124818   0.155   0.812   4.812
 8291TIP3    H224819   0.276   0.778   4.896
 8292TIP3   OH224820   4.265   0.273   1.915
 8292TIP3    H124821   4.213   0.199   1.885
 8292TIP3    H224822   4.321   0.295   1.841
 8293TIP3   OH224823   1.980   5.009   0.892
 8293TIP3    H124824   1.990   5.104   0.896
 8293TIP3    H224825   1.998   4.987   0.800
 8294TIP3   OH224826   1.615   0.009   5.673
 8294TIP3    H124827   1.547  -0.057   5.661
 8294TIP3    H224828   1.572   0.081   5.717
 8295TIP3   OH224829   5.697   2.676   4.301
 8295TIP3    H124830   5.609   2.677   4.340
 8295TIP3    H224831   5.724   2.768   4.302
 8296TIP3   OH224832   7.007   2.158   3.340
 8296TIP3    H124833   6.956   2.231   3.304
 8296TIP3    H224834   6.958   2.130   3.417
 8297TIP3   OH224835   5.966   3.925   6.620
 8297TIP3    H124836   6.006   3.881   6.695
 8297TIP3    H224837   5.916   3.997   6.658
 8298TIP3   OH224838   0.671   3.608   5.768
 8298TIP3    H124839   0.741   3.633   5.707
 8298TIP3    H224840   0.716   3.559   5.837
 8299TIP3   OH224841   8.217   4.178   6.570
 8299TIP3    H124842   8.241   4.139   6.486
 8299TIP3    H224843   8.244   4.270   6.563
 8300TIP3   OH224844   1.390   6.639   0.721
 8300TIP3    H124845   1.376   6.568   0.784
 8300TIP3    H224846   1.471   6.682   0.749
 8301TIP3   OH224847   2.630   2.332   5.432
 8301TIP3    H124848   2.704   2.393   5.430
 8301TIP3    H224849   2.553   2.387   5.415
 8302TIP3   OH224850   2.599   5.128   6.792
 8302TIP3    H124851   2.615   5.221   6.805
 8302TIP3    H224852   2.509   5.124   6.759
 8303TIP3   OH224853   0.862   6.842   5.035
 8303TIP3    H124854   0.876   6.787   4.958
 8303TIP3    H224855   0.787   6.802   5.080
 8304TIP3   OH224856   6.094   0.881   2.185
 8304TIP3    H124857   6.057   0.812   2.240
 8304TIP3    H224858   6.032   0.890   2.113
 8305TIP3   OH224859   0.017   6.195   5.552
 8305TIP3    H124860   0.050   6.121   5.603
 8305TIP3    H224861  -0.061   6.224   5.600
 8306TIP3   OH224862   4.809   7.626   6.806
 8306TIP3    H124863   4.715   7.639   6.797
 8306TIP3    H224864   4.842   7.627   6.716
 8307TIP3   OH224865   7.604   0.769   6.391
 8307TIP3    H124866   7.562   0.786   6.307
 8307TIP3    H224867   7.533   0.773   6.455
 8308TIP3   OH224868   0.140   3.949   5.351
 8308TIP3    H124869   0.202   3.878   5.337
 8308TIP3    H224870   0.150   4.004   5.273
 8309TIP3   OH224871   3.886   7.778   2.195
 8309TIP3    H124872   3.820   7.770   2.126
 8309TIP3    H224873   3.835   7.795   2.274
 8310TIP3   OH224874   0.209   2.515   5.105
 8310TIP3    H124875   0.140   2.469   5.153
 8310TIP3    H224876   0.243   2.579   5.169
 8311TIP3   OH224877   6.485   6.129   3.743
 8311TIP3    H124878   6.488   6.140   3.648
 8311TIP3    H224879   6.575   6.140   3.772
 8312TIP3   OH224880   1.571   0.770   3.001
 8312TIP3    H124881   1.614   0.734   2.923
 8312TIP3    H224882   1.536   0.854   2.973
 8313TIP3   OH224883   1.808   2.809   6.281
 8313TIP3    H124884   1.791   2.890   6.330
 8313TIP3    H224885   1.898   2.786   6.303
 8314TIP3   OH224886   7.867   3.751   3.144
 8314TIP3    H124887   7.953   3.793   3.155
 8314TIP3    H224888   7.813   3.792   3.212
 8315TIP3   OH224889   7.193   2.391   6.737
 8315TIP3    H124890   7.263   2.371   6.799
 8315TIP3    H224891   7.238   2.416   6.657
 8316TIP3   OH224892   5.600   5.028   4.533
 8316TIP3    H124893   5.635   5.089   4.468
 8316TIP3    H224894   5.536   4.976   4.484
 8317TIP3   OH224895   0.963   7.031   0.067
 8317TIP3    H124896   1.056   7.034   0.042
 8317TIP3    H224897   0.939   6.938   0.058
 8318TIP3   OH224898   1.711   3.852   4.644
 8318TIP3    H124899   1.726   3.823   4.734
 8318TIP3    H224900   1.616   3.853   4.634
 8319TIP3   OH224901   3.872   0.283   5.901
 8319TIP3    H124902   3.870   0.369   5.860
 8319TIP3    H224903   3.779   0.261   5.914
 8320TIP3   OH224904   1.293   7.728   5.850
 8320TIP3    H124905   1.329   7.749   5.764
 8320TIP3    H224906   1.358   7.672   5.891
 8321TIP3   OH224907   4.098   4.715   5.099
 8321TIP3    H124908   4.163   4.688   5.033
 8321TIP3    H224909   4.032   4.763   5.050
 8322TIP3   OH224910   3.047   3.936   5.416
 8322TIP3    H124911   3.017   3.910   5.503
 8322TIP3    H224912   3.000   4.018   5.398
 8323TIP3   OH224913   1.708   6.411   2.101
 8323TIP3    H124914   1.779   6.467   2.071
 8323TIP3    H224915   1.750   6.347   2.159
 8324TIP3   OH224916   7.458   0.575   5.431
 8324TIP3    H124917   7.443   0.531   5.515
 8324TIP3    H224918   7.513   0.515   5.382
 8325TIP3   OH224919   3.709   1.401   3.843
 8325TIP3    H124920   3.770   1.350   3.896
 8325TIP3    H224921   3.648   1.337   3.808
 8326TIP3   OH224922   7.465   5.703   3.909
 8326TIP3    H124923   7.500   5.750   3.985
 8326TIP3    H224924   7.375   5.735   3.901
 8327TIP3   OH224925   1.240   2.829   3.167
 8327TIP3    H124926   1.316   2.853   3.221
 8327TIP3    H224927   1.204   2.913   3.139
 8328TIP3   OH224928   2.320   7.136   1.255
 8328TIP3    H124929   2.382   7.154   1.326
 8328TIP3    H224930   2.290   7.223   1.227
 8329TIP3   OH224931   7.470   1.979   1.069
 8329TIP3    H124932   7.436   2.000   0.982
 8329TIP3    H224933   7.541   2.042   1.083
 8330TIP3   OH224934   7.802   2.691   6.712
 8330TIP3    H124935   7.790   2.758   6.780
 8330TIP3    H224936   7.897   2.683   6.702
 8331TIP3   OH224937   4.298   7.531   1.616
 8331TIP3    H124938   4.266   7.453   1.662
 8331TIP3    H224939   4.388   7.509   1.592
 8332TIP3   OH224940   0.507   1.895   1.114
 8332TIP3    H124941   0.525   1.925   1.025
 8332TIP3    H224942   0.486   1.975   1.162
 8333TIP3   OH224943   0.778   3.774   4.897
 8333TIP3    H124944   0.689   3.738   4.892
 8333TIP3    H224945   0.766   3.869   4.894
 8334TIP3   OH224946   5.168   7.332   1.447
 8334TIP3    H124947   5.236   7.292   1.392
 8334TIP3    H224948   5.170   7.281   1.528
 8335TIP3   OH224949   6.142   6.290   1.362
 8335TIP3    H124950   6.210   6.336   1.313
 8335TIP3    H224951   6.144   6.330   1.449
 8336TIP3   OH224952   8.317   2.526   1.665
 8336TIP3    H124953   8.284   2.438   1.685
 8336TIP3    H224954   8.283   2.546   1.578
 8337TIP3   OH224955   5.266   2.447   6.336
 8337TIP3    H124956   5.249   2.367   6.286
 8337TIP3    H224957   5.358   2.467   6.317
 8338TIP3   OH224958   1.933   4.713   0.163
 8338TIP3    H124959   1.872   4.639   0.165
 8338TIP3    H224960   2.015   4.675   0.132
 8339TIP3   OH224961   2.503   6.244   0.511
 8339TIP3    H124962   2.416   6.268   0.542
 8339TIP3    H224963   2.562   6.275   0.579
 8340TIP3   OH224964   0.315   5.005   1.893
 8340TIP3    H124965   0.384   4.989   1.828
 8340TIP3    H224966   0.362   5.012   1.976
 8341TIP3   OH224967   0.622   5.297   0.273
 8341TIP3    H124968   0.674   5.301   0.353
 8341TIP3    H224969   0.683   5.262   0.207
 8342TIP3   OH224970   8.238   7.223   4.117
 8342TIP3    H124971   8.315   7.247   4.168
 8342TIP3    H224972   8.174   7.293   4.135
 8343TIP3   OH224973   6.693   7.273   1.303
 8343TIP3    H124974   6.649   7.207   1.357
 8343TIP3    H224975   6.647   7.270   1.219
 8344TIP3   OH224976   1.623   7.632   0.464
 8344TIP3    H124977   1.553   7.589   0.512
 8344TIP3    H224978   1.697   7.634   0.525
 8345TIP3   OH224979   1.553   4.669   0.546
 8345TIP3    H124980   1.515   4.585   0.573
 8345TIP3    H224981   1.523   4.680   0.455
 8346TIP3   OH224982   4.803   5.682   4.857
 8346TIP3    H124983   4.838   5.597   4.830
 8346TIP3    H224984   4.752   5.663   4.936
 8347TIP3   OH224985   6.317   6.535   5.914
 8347TIP3    H124986   6.230   6.496   5.900
 8347TIP3    H224987   6.354   6.544   5.826
 8348TIP3   OH224988   7.865   3.855   0.659
 8348TIP3    H124989   7.946   3.858   0.711
 8348TIP3    H224990   7.807   3.918   0.702
 8349TIP3   OH224991   3.607   2.482   5.184
 8349TIP3    H124992   3.603   2.453   5.093
 8349TIP3    H224993   3.643   2.407   5.231
 8350TIP3   OH224994   6.708   4.759   0.917
 8350TIP3    H124995   6.753   4.785   0.997
 8350TIP3    H224996   6.746   4.815   0.849
 8351TIP3   OH224997   7.031   3.735   1.743
 8351TIP3    H124998   7.082   3.692   1.812
 8351TIP3    H224999   7.091   3.799   1.705
 8352TIP3   OH225000   3.784   6.006   2.859
 8352TIP3    H125001   3.877   5.986   2.869
 8352TIP3    H225002   3.769   6.005   2.764
 8353TIP3   OH225003   3.471   7.317   4.632
 8353TIP3    H125004   3.508   7.273   4.709
 8353TIP3    H225005   3.426   7.248   4.584
 8354TIP3   OH225006   4.254   5.464   0.864
 8354TIP3    H125007   4.184   5.499   0.918
 8354TIP3    H225008   4.320   5.433   0.926
 8355TIP3   OH225009   3.281   7.782   6.160
 8355TIP3    H125010   3.276   7.766   6.066
 8355TIP3    H225011   3.195   7.817   6.183
 8356TIP3   OH225012   4.252   1.450   2.102
 8356TIP3    H125013   4.291   1.366   2.076
 8356TIP3    H225014   4.254   1.449   2.198
 8357TIP3   OH225015   6.905   4.154   3.134
 8357TIP3    H125016   6.860   4.194   3.059
 8357TIP3    H225017   6.835   4.112   3.183
 8358TIP3   OH225018   2.338   6.799   0.803
 8358TIP3    H125019   2.433   6.791   0.807
 8358TIP3    H225020   2.318   6.882   0.847
 8359TIP3   OH225021   6.308   0.350   1.310
 8359TIP3    H125022   6.358   0.317   1.385
 8359TIP3    H225023   6.352   0.432   1.287
 8360TIP3   OH225024   0.186   2.767   0.788
 8360TIP3    H125025   0.150   2.742   0.873
 8360TIP3    H225026   0.260   2.824   0.809
 8361TIP3   OH225027   4.751   5.824   2.712
 8361TIP3    H125028   4.762   5.793   2.802
 8361TIP3    H225029   4.840   5.838   2.680
 8362TIP3   OH225030   2.757   5.280   6.275
 8362TIP3    H125031   2.846   5.310   6.254
 8362TIP3    H225032   2.733   5.224   6.201
 8363TIP3   OH225033   4.893   1.816   4.051
 8363TIP3    H125034   4.976   1.769   4.046
 8363TIP3    H225035   4.901   1.871   4.129
 8364TIP3   OH225036   8.016   5.604   3.061
 8364TIP3    H125037   8.110   5.612   3.071
 8364TIP3    H225038   8.003   5.518   3.020
 8365TIP3   OH225039   3.212   1.418   3.999
 8365TIP3    H125040   3.229   1.392   4.089
 8365TIP3    H225041   3.294   1.403   3.953
 8366TIP3   OH225042   1.783   2.796   3.418
 8366TIP3    H125043   1.863   2.747   3.440
 8366TIP3    H225044   1.787   2.807   3.323
 8367TIP3   OH225045   0.526   7.582   5.603
 8367TIP3    H125046   0.437   7.608   5.580
 8367TIP3    H225047   0.543   7.504   5.551
 8368TIP3   OH225048   8.102   5.559   1.374
 8368TIP3    H125049   8.148   5.627   1.423
 8368TIP3    H225050   8.166   5.529   1.309
 8369TIP3   OH225051   1.325   6.671   2.570
 8369TIP3    H125052   1.398   6.633   2.520
 8369TIP3    H225053   1.366   6.736   2.626
 8370TIP3   OH225054   2.102   0.259   0.230
 8370TIP3    H125055   2.123   0.313   0.306
 8370TIP3    H225056   2.187   0.231   0.196
 8371TIP3   OH225057   1.493   3.062   6.461
 8371TIP3    H125058   1.444   3.097   6.535
 8371TIP3    H225059   1.498   3.134   6.398
 8372TIP3   OH225060   3.422   7.664   0.034
 8372TIP3    H125061   3.359   7.732   0.007
 8372TIP3    H225062   3.373   7.609   0.095
 8373TIP3   OH225063   5.094   5.150   3.257
 8373TIP3    H125064   5.146   5.210   3.311
 8373TIP3    H225065   5.019   5.126   3.312
 8374TIP3   OH225066   5.886   2.712   6.223
 8374TIP3    H125067   5.970   2.756   6.239
 8374TIP3    H225068   5.883   2.642   6.288
 8375TIP3   OH225069   5.620   6.101   4.557
 8375TIP3    H125070   5.624   6.193   4.533
 8375TIP3    H225071   5.647   6.099   4.649
 8376TIP3   OH225072   7.415   1.651   0.592
 8376TIP3    H125073   7.453   1.732   0.627
 8376TIP3    H225074   7.477   1.624   0.524
 8377TIP3   OH225075   3.808   3.002   1.407
 8377TIP3    H125076   3.775   3.070   1.348
 8377TIP3    H225077   3.885   2.967   1.362
 8378TIP3   OH225078   2.277   6.818   1.522
 8378TIP3    H125079   2.324   6.775   1.594
 8378TIP3    H225080   2.340   6.819   1.450
 8379TIP3   OH225081   4.049   1.402   3.385
 8379TIP3    H125082   4.070   1.473   3.446
 8379TIP3    H225083   4.080   1.434   3.300
 8380TIP3   OH225084   2.675   6.470   5.748
 8380TIP3    H125085   2.719   6.551   5.773
 8380TIP3    H225086   2.746   6.407   5.737
 8381TIP3   OH225087   3.483   0.917   4.384
 8381TIP3    H125088   3.513   0.987   4.442
 8381TIP3    H225089   3.535   0.841   4.409
 8382TIP3   OH225090   1.147   0.971   4.451
 8382TIP3    H125091   1.240   0.979   4.474
 8382TIP3    H225092   1.106   1.048   4.490
 8383TIP3   OH225093   2.434   7.370   5.710
 8383TIP3    H125094   2.468   7.397   5.625
 8383TIP3    H225095   2.501   7.312   5.746
 8384TIP3   OH225096   3.595   1.242   2.419
 8384TIP3    H125097   3.660   1.304   2.450
 8384TIP3    H225098   3.645   1.166   2.390
 8385TIP3   OH225099   0.140   0.580   4.256
 8385TIP3    H125100   0.199   0.648   4.224
 8385TIP3    H225101   0.189   0.537   4.327
 8386TIP3   OH225102   2.498   0.039   6.497
 8386TIP3    H125103   2.577   0.058   6.446
 8386TIP3    H225104   2.458   0.125   6.512
 8387TIP3   OH225105   8.146   6.270   5.764
 8387TIP3    H125106   8.135   6.344   5.823
 8387TIP3    H225107   8.130   6.193   5.819
 8388TIP3   OH225108   5.435   1.992   0.328
 8388TIP3    H125109   5.521   1.964   0.360
 8388TIP3    H225110   5.445   2.000   0.234
 8389TIP3   OH225111   6.075   4.007   1.735
 8389TIP3    H125112   6.032   3.974   1.656
 8389TIP3    H225113   6.157   3.959   1.740
 8390TIP3   OH225114   7.457   6.898   3.820
 8390TIP3    H125115   7.364   6.900   3.842
 8390TIP3    H225116   7.476   6.805   3.808
 8391TIP3   OH225117   4.496   1.664   0.334
 8391TIP3    H125118   4.500   1.753   0.368
 8391TIP3    H225119   4.558   1.662   0.261
 8392TIP3   OH225120   2.196   7.684   5.946
 8392TIP3    H125121   2.153   7.627   6.010
 8392TIP3    H225122   2.189   7.772   5.984
 8393TIP3   OH225123   5.841   5.705   6.161
 8393TIP3    H125124   5.873   5.627   6.116
 8393TIP3    H225125   5.773   5.672   6.221
 8394TIP3   OH225126   3.821   1.096   4.292
 8394TIP3    H125127   3.914   1.120   4.285
 8394TIP3    H225128   3.809   1.079   4.386
 8395TIP3   OH225129   6.191   0.046   4.471
 8395TIP3    H125130   6.179   0.090   4.386
 8395TIP3    H225131   6.193  -0.047   4.450
 8396TIP3   OH225132   6.198   7.371   4.098
 8396TIP3    H125133   6.153   7.352   4.015
 8396TIP3    H225134   6.240   7.456   4.082
 8397TIP3   OH225135   2.988   5.724   1.943
 8397TIP3    H125136   2.961   5.698   1.856
 8397TIP3    H225137   2.912   5.706   1.999
 8398TIP3   OH225138   5.791   6.704   6.641
 8398TIP3    H125139   5.823   6.623   6.681
 8398TIP3    H225140   5.863   6.766   6.651
 8399TIP3   OH225141   3.637   2.324   3.330
 8399TIP3    H125142   3.622   2.334   3.424
 8399TIP3    H225143   3.675   2.236   3.320
 8400TIP3   OH225144   2.902   4.476   5.658
 8400TIP3    H125145   2.943   4.417   5.721
 8400TIP3    H225146   2.813   4.442   5.649
 8401TIP3   OH225147   4.087   4.135   6.668
 8401TIP3    H125148   4.072   4.046   6.637
 8401TIP3    H225149   4.000   4.167   6.692
 8402TIP3   OH225150   7.044   5.509   4.635
 8402TIP3    H125151   6.988   5.561   4.577
 8402TIP3    H225152   7.001   5.424   4.641
 8403TIP3   OH225153   0.914   7.098   5.191
 8403TIP3    H125154   0.901   7.024   5.132
 8403TIP3    H225155   0.915   7.059   5.279
 8404TIP3   OH225156   5.572   2.144   3.647
 8404TIP3    H125157   5.480   2.123   3.628
 8404TIP3    H225158   5.616   2.136   3.563
 8405TIP3   OH225159   5.663   0.890   1.061
 8405TIP3    H125160   5.757   0.897   1.042
 8405TIP3    H225161   5.634   0.816   1.008
 8406TIP3   OH225162   5.371   7.216   1.281
 8406TIP3    H125163   5.446   7.269   1.254
 8406TIP3    H225164   5.407   7.129   1.297
 8407TIP3   OH225165   5.610   0.199   5.201
 8407TIP3    H125166   5.596   0.258   5.126
 8407TIP3    H225167   5.703   0.178   5.197
 8408TIP3   OH225168   3.553   4.171   6.370
 8408TIP3    H125169   3.590   4.231   6.435
 8408TIP3    H225170   3.608   4.184   6.293
 8409TIP3   OH225171   1.050   0.375   1.174
 8409TIP3    H125172   1.084   0.289   1.149
 8409TIP3    H225173   0.959   0.375   1.142
 8410TIP3   OH225174   5.559   4.672   1.614
 8410TIP3    H125175   5.519   4.682   1.701
 8410TIP3    H225176   5.488   4.637   1.560
 8411TIP3   OH225177   0.816   2.460   6.483
 8411TIP3    H125178   0.849   2.374   6.506
 8411TIP3    H225179   0.736   2.443   6.433
 8412TIP3   OH225180   3.138   0.217   3.206
 8412TIP3    H125181   3.210   0.256   3.156
 8412TIP3    H225182   3.141   0.124   3.182
 8413TIP3   OH225183   4.564   3.003   5.062
 8413TIP3    H125184   4.512   2.927   5.036
 8413TIP3    H225185   4.623   2.971   5.130
 8414TIP3   OH225186   3.837   4.300   2.775
 8414TIP3    H125187   3.763   4.359   2.760
 8414TIP3    H225188   3.871   4.282   2.687
 8415TIP3   OH225189   3.788   4.553   5.211
 8415TIP3    H125190   3.792   4.566   5.117
 8415TIP3    H225191   3.700   4.583   5.236
 8416TIP3   OH225192   7.184   4.078   2.681
 8416TIP3    H125193   7.275   4.092   2.706
 8416TIP3    H225194   7.165   4.149   2.619
 8417TIP3   OH225195   1.173   1.619   3.133
 8417TIP3    H125196   1.157   1.550   3.198
 8417TIP3    H225197   1.156   1.700   3.180
 8418TIP3   OH225198   7.183   0.588   6.162
 8418TIP3    H125199   7.229   0.522   6.110
 8418TIP3    H225200   7.109   0.541   6.199
 8419TIP3   OH225201   4.860   2.940   3.965
 8419TIP3    H125202   4.910   2.916   4.043
 8419TIP3    H225203   4.829   2.857   3.930
 8420TIP3   OH225204   2.452   2.159   4.527
 8420TIP3    H125205   2.543   2.186   4.543
 8420TIP3    H225206   2.420   2.133   4.613
 8421TIP3   OH225207   1.663   1.814   0.131
 8421TIP3    H125208   1.634   1.787   0.218
 8421TIP3    H225209   1.626   1.902   0.120
 8422TIP3   OH225210   3.626   5.345   1.298
 8422TIP3    H125211   3.664   5.259   1.277
 8422TIP3    H225212   3.686   5.382   1.363
 8423TIP3   OH225213   2.801   6.887   1.829
 8423TIP3    H125214   2.774   6.900   1.920
 8423TIP3    H225215   2.855   6.808   1.831
 8424TIP3   OH225216   3.341   1.062   6.744
 8424TIP3    H125217   3.363   1.119   6.670
 8424TIP3    H225218   3.273   1.004   6.711
 8425TIP3   OH225219   3.462   7.511   5.522
 8425TIP3    H125220   3.479   7.537   5.612
 8425TIP3    H225221   3.389   7.567   5.494
 8426TIP3   OH225222   0.520   5.271   1.181
 8426TIP3    H125223   0.563   5.270   1.266
 8426TIP3    H225224   0.439   5.221   1.194
 8427TIP3   OH225225   1.726   7.413   2.816
 8427TIP3    H125226   1.691   7.493   2.777
 8427TIP3    H225227   1.724   7.349   2.746
 8428TIP3   OH225228   2.481   2.649   5.001
 8428TIP3    H125229   2.473   2.670   4.908
 8428TIP3    H225230   2.410   2.697   5.043
 8429TIP3   OH225231   7.676   1.250   1.298
 8429TIP3    H125232   7.639   1.289   1.377
 8429TIP3    H225233   7.754   1.302   1.280
 8430TIP3   OH225234   4.582   0.749   1.244
 8430TIP3    H125235   4.640   0.807   1.196
 8430TIP3    H225236   4.633   0.669   1.257
 8431TIP3   OH225237   4.502   7.618   6.058
 8431TIP3    H125238   4.584   7.571   6.074
 8431TIP3    H225239   4.529   7.706   6.033
 8432TIP3   OH225240   1.650   5.883   0.299
 8432TIP3    H125241   1.713   5.853   0.364
 8432TIP3    H225242   1.692   5.959   0.258
 8433TIP3   OH225243   0.803   5.156   0.104
 8433TIP3    H125244   0.856   5.137   0.181
 8433TIP3    H225245   0.866   5.157   0.031
 8434TIP3   OH225246   4.336   6.896   5.344
 8434TIP3    H125247   4.338   6.940   5.429
 8434TIP3    H225248   4.249   6.915   5.310
 8435TIP3   OH225249   3.672   2.729   3.411
 8435TIP3    H125250   3.763   2.701   3.419
 8435TIP3    H225251   3.638   2.725   3.501
 8436TIP3   OH225252   2.826   0.493   3.058
 8436TIP3    H125253   2.782   0.490   2.973
 8436TIP3    H225254   2.852   0.584   3.069
 8437TIP3   OH225255   1.319   4.094   4.518
 8437TIP3    H125256   1.297   4.100   4.425
 8437TIP3    H225257   1.364   4.176   4.538
 8438TIP3   OH225258   2.454   4.086   1.818
 8438TIP3    H125259   2.414   4.137   1.747
 8438TIP3    H225260   2.546   4.078   1.794
 8439TIP3   OH225261   5.376   3.029   3.160
 8439TIP3    H125262   5.366   2.959   3.096
 8439TIP3    H225263   5.294   3.028   3.209
 8440TIP3   OH225264   5.994   6.468   2.565
 8440TIP3    H125265   5.915   6.423   2.593
 8440TIP3    H225266   5.966   6.522   2.491
 8441TIP3   OH225267   1.404   0.743   5.889
 8441TIP3    H125268   1.369   0.829   5.911
 8441TIP3    H225269   1.344   0.708   5.822
 8442TIP3   OH225270   3.738   1.313   4.710
 8442TIP3    H125271   3.810   1.332   4.651
 8442TIP3    H225272   3.751   1.371   4.785
 8443TIP3   OH225273   4.215   2.326   5.463
 8443TIP3    H125274   4.130   2.358   5.493
 8443TIP3    H225275   4.278   2.358   5.527
 8444TIP3   OH225276   2.491   0.728   4.667
 8444TIP3    H125277   2.478   0.702   4.576
 8444TIP3    H225278   2.553   0.663   4.701
 8445TIP3   OH225279   3.918   3.931   2.205
 8445TIP3    H125280   3.911   4.023   2.229
 8445TIP3    H225281   3.901   3.930   2.111
 8446TIP3   OH225282   0.109   4.593   6.795
 8446TIP3    H125283   0.060   4.553   6.868
 8446TIP3    H225284   0.043   4.611   6.729
 8447TIP3   OH225285   3.894   5.079   4.398
 8447TIP3    H125286   3.898   5.111   4.308
 8447TIP3    H225287   3.984   5.061   4.422
 8448TIP3   OH225288   4.197   2.808   2.720
 8448TIP3    H125289   4.199   2.739   2.654
 8448TIP3    H225290   4.128   2.867   2.691
 8449TIP3   OH225291   8.239   0.913   4.360
 8449TIP3    H125292   8.174   0.975   4.394
 8449TIP3    H225293   8.323   0.958   4.367
 8450TIP3   OH225294   4.977   6.229   0.901
 8450TIP3    H125295   4.923   6.198   0.974
 8450TIP3    H225296   4.971   6.159   0.836
 8451TIP3   OH225297   6.437   6.011   2.369
 8451TIP3    H125298   6.391   6.071   2.311
 8451TIP3    H225299   6.522   5.997   2.326
 8452TIP3   OH225300   8.031   3.434   5.525
 8452TIP3    H125301   7.939   3.457   5.511
 8452TIP3    H225302   8.058   3.390   5.445
 8453TIP3   OH225303   6.777   5.385   5.239
 8453TIP3    H125304   6.708   5.401   5.174
 8453TIP3    H225305   6.779   5.289   5.248
 8454TIP3   OH225306   4.806   1.150   0.208
 8454TIP3    H125307   4.790   1.107   0.292
 8454TIP3    H225308   4.771   1.239   0.219
 8455TIP3   OH225309   1.550   1.839   1.528
 8455TIP3    H125310   1.555   1.768   1.592
 8455TIP3    H225311   1.562   1.796   1.443
 8456TIP3   OH225312   6.033   7.057   4.321
 8456TIP3    H125313   6.129   7.053   4.317
 8456TIP3    H225314   6.011   7.021   4.407
 8457TIP3   OH225315   5.565   0.590   2.450
 8457TIP3    H125316   5.586   0.635   2.532
 8457TIP3    H225317   5.519   0.655   2.398
 8458TIP3   OH225318   5.470   1.155   6.699
 8458TIP3    H125319   5.541   1.092   6.687
 8458TIP3    H225320   5.504   1.219   6.762
 8459TIP3   OH225321   4.640   1.417   6.243
 8459TIP3    H125322   4.631   1.472   6.165
 8459TIP3    H225323   4.617   1.330   6.214
 8460TIP3   OH225324   7.089   3.142   5.905
 8460TIP3    H125325   6.998   3.132   5.934
 8460TIP3    H225326   7.089   3.223   5.855
 8461TIP3   OH225327   7.718   3.793   3.389
 8461TIP3    H125328   7.647   3.849   3.419
 8461TIP3    H225329   7.769   3.773   3.468
 8462TIP3   OH225330   8.137   3.938   6.078
 8462TIP3    H125331   8.125   3.889   5.997
 8462TIP3    H225332   8.056   3.988   6.088
 8463TIP3   OH225333   3.086   5.199   4.008
 8463TIP3    H125334   3.057   5.120   4.054
 8463TIP3    H225335   3.181   5.202   4.023
 8464TIP3   OH225336   5.398   3.652   0.187
 8464TIP3    H125337   5.411   3.685   0.099
 8464TIP3    H225338   5.425   3.724   0.244
 8465TIP3   OH225339   3.847   0.941   6.331
 8465TIP3    H125340   3.868   0.920   6.240
 8465TIP3    H225341   3.807   0.861   6.365
 8466TIP3   OH225342   3.403   3.512   4.412
 8466TIP3    H125343   3.443   3.494   4.497
 8466TIP3    H225344   3.314   3.477   4.419
 8467TIP3   OH225345   2.895   2.515   1.388
 8467TIP3    H125346   2.812   2.540   1.349
 8467TIP3    H225347   2.919   2.434   1.342
 8468TIP3   OH225348   1.274   2.580   3.632
 8468TIP3    H125349   1.178   2.580   3.625
 8468TIP3    H225350   1.298   2.673   3.626
 8469TIP3   OH225351   4.571   5.538   4.575
 8469TIP3    H125352   4.588   5.457   4.623
 8469TIP3    H225353   4.519   5.510   4.499
 8470TIP3   OH225354   7.466   7.534   4.256
 8470TIP3    H125355   7.458   7.441   4.278
 8470TIP3    H225356   7.485   7.577   4.339
 8471TIP3   OH225357   6.116   6.021   2.923
 8471TIP3    H125358   6.133   6.094   2.983
 8471TIP3    H225359   6.141   6.055   2.837
 8472TIP3   OH225360   6.115   5.054   5.437
 8472TIP3    H125361   6.135   5.147   5.451
 8472TIP3    H225362   6.092   5.047   5.345
 8473TIP3   OH225363   6.452   4.930   1.325
 8473TIP3    H125364   6.493   5.003   1.279
 8473TIP3    H225365   6.479   4.852   1.276
 8474TIP3   OH225366   7.727   6.358   1.296
 8474TIP3    H125367   7.822   6.371   1.297
 8474TIP3    H225368   7.704   6.350   1.389
 8475TIP3   OH225369   6.448   0.577   4.728
 8475TIP3    H125370   6.386   0.577   4.800
 8475TIP3    H225371   6.492   0.662   4.733
 8476TIP3   OH225372   2.703   5.515   1.109
 8476TIP3    H125373   2.730   5.424   1.102
 8476TIP3    H225374   2.611   5.515   1.082
 8477TIP3   OH225375   4.241   5.738   6.370
 8477TIP3    H125376   4.230   5.675   6.299
 8477TIP3    H225377   4.294   5.690   6.435
 8478TIP3   OH225378   3.282   1.656   5.877
 8478TIP3    H125379   3.260   1.593   5.807
 8478TIP3    H225380   3.376   1.645   5.890
 8479TIP3   OH225381   2.188   6.969   3.749
 8479TIP3    H125382   2.225   6.963   3.660
 8479TIP3    H225383   2.251   6.922   3.804
 8480TIP3   OH225384   0.068   1.861   4.483
 8480TIP3    H125385   0.139   1.856   4.419
 8480TIP3    H225386  -0.011   1.838   4.434
 8481TIP3   OH225387   5.827   0.527   5.513
 8481TIP3    H125388   5.826   0.434   5.535
 8481TIP3    H225389   5.849   0.529   5.420
 8482TIP3   OH225390   2.948   6.336   2.891
 8482TIP3    H125391   3.026   6.301   2.847
 8482TIP3    H225392   2.980   6.413   2.938
 8483TIP3   OH225393   7.433   3.691   3.440
 8483TIP3    H125394   7.431   3.787   3.439
 8483TIP3    H225395   7.457   3.668   3.530
 8484TIP3   OH225396   5.496   2.820   6.218
 8484TIP3    H125397   5.446   2.752   6.172
 8484TIP3    H225398   5.570   2.773   6.256
 8485TIP3   OH225399   3.337   3.575   2.463
 8485TIP3    H125400   3.288   3.500   2.496
 8485TIP3    H225401   3.362   3.625   2.541
 8486TIP3   OH225402   2.690   7.746   2.996
 8486TIP3    H125403   2.672   7.746   3.090
 8486TIP3    H225404   2.745   7.824   2.982
 8487TIP3   OH225405   6.536   5.856   3.426
 8487TIP3    H125406   6.443   5.868   3.445
 8487TIP3    H225407   6.547   5.892   3.338
 8488TIP3   OH225408   8.128   0.435   5.333
 8488TIP3    H125409   8.038   0.437   5.302
 8488TIP3    H225410   8.133   0.504   5.399
 8489TIP3   OH225411   7.854   0.574   4.930
 8489TIP3    H125412   7.941   0.613   4.941
 8489TIP3    H225413   7.816   0.619   4.855
 8490TIP3   OH225414   7.863   2.589   5.359
 8490TIP3    H125415   7.794   2.543   5.407
 8490TIP3    H225416   7.843   2.682   5.372
 8491TIP3   OH225417   1.997   1.780   3.344
 8491TIP3    H125418   1.967   1.791   3.434
 8491TIP3    H225419   2.088   1.752   3.351
 8492TIP3   OH225420   1.917   6.579   2.016
 8492TIP3    H125421   1.906   6.662   1.969
 8492TIP3    H225422   2.012   6.564   2.016
 8493TIP3   OH225423   2.251   4.756   2.578
 8493TIP3    H125424   2.161   4.788   2.567
 8493TIP3    H225425   2.302   4.805   2.513
 8494TIP3   OH225426   4.355   5.964   4.616
 8494TIP3    H125427   4.308   6.002   4.691
 8494TIP3    H225428   4.436   5.929   4.653
 8495TIP3   OH225429   5.332   0.430   0.261
 8495TIP3    H125430   5.241   0.431   0.233
 8495TIP3    H225431   5.369   0.512   0.228
 8496TIP3   OH225432   3.622   7.802   2.352
 8496TIP3    H125433   3.567   7.726   2.371
 8496TIP3    H225434   3.696   7.794   2.413
 8497TIP3   OH225435   6.834   5.780   2.440
 8497TIP3    H125436   6.850   5.687   2.423
 8497TIP3    H225437   6.861   5.824   2.359
 8498TIP3   OH225438   0.795   4.152   1.290
 8498TIP3    H125439   0.848   4.230   1.305
 8498TIP3    H225440   0.821   4.122   1.203
 8499TIP3   OH225441   6.499   7.576   5.844
 8499TIP3    H125442   6.433   7.580   5.914
 8499TIP3    H225443   6.548   7.496   5.862
 8500TIP3   OH225444   3.026   2.432   1.867
 8500TIP3    H125445   3.108   2.421   1.915
 8500TIP3    H225446   3.035   2.517   1.824
 8501TIP3   OH225447   6.737   0.104   3.278
 8501TIP3    H125448   6.653   0.151   3.274
 8501TIP3    H225449   6.759   0.103   3.371
 8502TIP3   OH225450   4.388   5.904   1.221
 8502TIP3    H125451   4.404   5.947   1.137
 8502TIP3    H225452   4.468   5.920   1.272
 8503TIP3   OH225453   7.185   0.207   4.268
 8503TIP3    H125454   7.117   0.153   4.308
 8503TIP3    H225455   7.260   0.197   4.326
 8504TIP3   OH225456   0.879   3.567   0.641
 8504TIP3    H125457   0.914   3.497   0.585
 8504TIP3    H225458   0.871   3.642   0.584
 8505TIP3   OH225459   6.937   5.251   5.643
 8505TIP3    H125460   7.008   5.258   5.707
 8505TIP3    H225461   6.910   5.160   5.646
 8506TIP3   OH225462   3.619   2.455   0.952
 8506TIP3    H125463   3.599   2.546   0.973
 8506TIP3    H225464   3.692   2.460   0.889
 8507TIP3   OH225465   5.579   1.299   2.428
 8507TIP3    H125466   5.675   1.308   2.431
 8507TIP3    H225467   5.555   1.332   2.342
 8508TIP3   OH225468   2.947   1.404   3.176
 8508TIP3    H125469   2.941   1.335   3.241
 8508TIP3    H225470   3.001   1.367   3.106
 8509TIP3   OH225471   3.926   0.218   3.298
 8509TIP3    H125472   3.853   0.155   3.291
 8509TIP3    H225473   3.888   0.292   3.346
 8510TIP3   OH225474   6.760   7.433   0.195
 8510TIP3    H125475   6.757   7.525   0.170
 8510TIP3    H225476   6.849   7.405   0.173
 8511TIP3   OH225477   3.844   2.843   3.879
 8511TIP3    H125478   3.809   2.757   3.901
 8511TIP3    H225479   3.897   2.868   3.955
 8512TIP3   OH225480   4.019   3.555   4.755
 8512TIP3    H125481   4.074   3.633   4.751
 8512TIP3    H225482   4.073   3.490   4.798
 8513TIP3   OH225483   1.034   1.787   2.961
 8513TIP3    H125484   1.084   1.761   3.038
 8513TIP3    H225485   0.979   1.859   2.992
 8514TIP3   OH225486   4.732   1.625   5.309
 8514TIP3    H125487   4.720   1.579   5.392
 8514TIP3    H225488   4.721   1.718   5.332
 8515TIP3   OH225489   3.219   6.486   3.585
 8515TIP3    H125490   3.271   6.445   3.516
 8515TIP3    H225491   3.265   6.465   3.666
 8516TIP3   OH225492   4.050   1.007   5.532
 8516TIP3    H125493   4.044   0.921   5.491
 8516TIP3    H225494   4.043   0.990   5.626
 8517TIP3   OH225495   4.508   2.625   6.021
 8517TIP3    H125496   4.504   2.707   5.972
 8517TIP3    H225497   4.501   2.556   5.955
 8518TIP3   OH225498   2.387   6.852   6.015
 8518TIP3    H125499   2.403   6.758   6.021
 8518TIP3    H225500   2.352   6.876   6.100
 8519TIP3   OH225501   2.937   5.809   5.403
 8519TIP3    H125502   2.919   5.864   5.327
 8519TIP3    H225503   2.856   5.759   5.416
 8520TIP3   OH225504   3.025   2.007   0.627
 8520TIP3    H125505   2.943   1.958   0.629
 8520TIP3    H225506   3.029   2.049   0.713
 8521TIP3   OH225507   2.039   2.154   0.108
 8521TIP3    H125508   2.112   2.096   0.128
 8521TIP3    H225509   2.073   2.215   0.042
 8522TIP3   OH225510   7.489   3.660   0.521
 8522TIP3    H125511   7.555   3.680   0.587
 8522TIP3    H225512   7.431   3.597   0.563
 8523TIP3   OH225513   4.182   0.030   4.411
 8523TIP3    H125514   4.243   0.012   4.340
 8523TIP3    H225515   4.167  -0.056   4.451
 8524TIP3   OH225516   0.212   4.709   3.856
 8524TIP3    H125517   0.168   4.628   3.830
 8524TIP3    H225518   0.140   4.769   3.878
 8525TIP3   OH225519   3.450   2.911   2.018
 8525TIP3    H125520   3.444   2.962   2.099
 8525TIP3    H225521   3.449   2.976   1.948
 8526TIP3   OH225522   8.275   2.020   1.619
 8526TIP3    H125523   8.275   1.925   1.629
 8526TIP3    H225524   8.327   2.035   1.540
 8527TIP3   OH225525   3.724   3.865   6.747
 8527TIP3    H125526   3.774   3.802   6.799
 8527TIP3    H225527   3.725   3.830   6.658
 8528TIP3   OH225528   1.151   2.708   1.423
 8528TIP3    H125529   1.162   2.764   1.500
 8528TIP3    H225530   1.100   2.761   1.361
 8529TIP3   OH225531   5.231   0.540   5.572
 8529TIP3    H125532   5.264   0.630   5.570
 8529TIP3    H225533   5.289   0.491   5.514
 8530TIP3   OH225534   0.713   5.795   6.437
 8530TIP3    H125535   0.763   5.741   6.375
 8530TIP3    H225536   0.674   5.731   6.498
 8531TIP3   OH225537   1.624   5.595   0.217
 8531TIP3    H125538   1.682   5.519   0.207
 8531TIP3    H225539   1.676   5.659   0.265
 8532TIP3   OH225540   6.140   2.685   5.119
 8532TIP3    H125541   6.073   2.686   5.050
 8532TIP3    H225542   6.143   2.776   5.151
 8533TIP3   OH225543   3.412   3.615   5.780
 8533TIP3    H125544   3.327   3.647   5.810
 8533TIP3    H225545   3.438   3.675   5.711
 8534TIP3   OH225546   1.836   2.471   3.540
 8534TIP3    H125547   1.865   2.557   3.570
 8534TIP3    H225548   1.858   2.470   3.447
 8535TIP3   OH225549   2.993   3.169   1.805
 8535TIP3    H125550   3.030   3.253   1.779
 8535TIP3    H225551   3.058   3.104   1.779
 8536TIP3   OH225552   0.081   3.060   1.824
 8536TIP3    H125553   0.029   3.085   1.900
 8536TIP3    H225554   0.072   2.965   1.819
 8537TIP3   OH225555   5.270   3.288   4.800
 8537TIP3    H125556   5.301   3.261   4.886
 8537TIP3    H225557   5.286   3.382   4.797
 8538TIP3   OH225558   4.132   0.919   4.005
 8538TIP3    H125559   4.193   0.908   3.932
 8538TIP3    H225560   4.106   1.011   4.000
 8539TIP3   OH225561   5.578   1.557   4.592
 8539TIP3    H125562   5.639   1.485   4.575
 8539TIP3    H225563   5.506   1.543   4.531
 8540TIP3   OH225564   4.202   6.017   3.967
 8540TIP3    H125565   4.209   5.968   3.885
 8540TIP3    H225566   4.265   5.975   4.026
 8541TIP3   OH225567   2.908   2.459   4.886
 8541TIP3    H125568   2.825   2.484   4.846
 8541TIP3    H225569   2.972   2.519   4.850
 8542TIP3   OH225570   5.297   1.431   1.908
 8542TIP3    H125571   5.343   1.514   1.900
 8542TIP3    H225572   5.213   1.446   1.863
 8543TIP3   OH225573   4.304   3.777   4.490
 8543TIP3    H125574   4.376   3.831   4.458
 8543TIP3    H225575   4.269   3.734   4.412
 8544TIP3   OH225576   6.149   2.264   1.995
 8544TIP3    H125577   6.093   2.325   2.042
 8544TIP3    H225578   6.117   2.265   1.905
 8545TIP3   OH225579   0.412   7.601   2.436
 8545TIP3    H125580   0.420   7.613   2.341
 8545TIP3    H225581   0.493   7.559   2.462
 8546TIP3   OH225582   7.786   6.076   2.152
 8546TIP3    H125583   7.850   6.102   2.218
 8546TIP3    H225584   7.758   5.989   2.179
 8547TIP3   OH225585   6.038   4.493   4.091
 8547TIP3    H125586   6.116   4.467   4.140
 8547TIP3    H225587   6.068   4.564   4.034
 8548TIP3   OH225588   0.628   1.075   4.247
 8548TIP3    H125589   0.721   1.097   4.248
 8548TIP3    H225590   0.623   0.991   4.291
 8549TIP3   OH225591   5.631   2.435   2.972
 8549TIP3    H125592   5.655   2.527   2.986
 8549TIP3    H225593   5.672   2.388   3.044
 8550TIP3   OH225594   2.393   5.246   1.390
 8550TIP3    H125595   2.408   5.205   1.305
 8550TIP3    H225596   2.429   5.334   1.381
 8551TIP3   OH225597   6.120   4.951   1.497
 8551TIP3    H125598   6.195   5.000   1.530
 8551TIP3    H225599   6.045   5.008   1.514
 8552TIP3   OH225600   6.494   3.170   4.352
 8552TIP3    H125601   6.545   3.093   4.377
 8552TIP3    H225602   6.411   3.134   4.320
 8553TIP3   OH225603   0.677   6.223   4.310
 8553TIP3    H125604   0.703   6.265   4.392
 8553TIP3    H225605   0.586   6.249   4.297
 8554TIP3   OH225606   5.684   2.948   2.705
 8554TIP3    H125607   5.674   2.973   2.797
 8554TIP3    H225608   5.612   2.992   2.660
 8555TIP3   OH225609   5.077   0.288   0.668
 8555TIP3    H125610   5.045   0.353   0.606
 8555TIP3    H225611   5.020   0.212   0.654
 8556TIP3   OH225612   5.226   3.125   4.072
 8556TIP3    H125613   5.209   3.120   4.166
 8556TIP3    H225614   5.320   3.108   4.064
 8557TIP3   OH225615   2.886   3.878   3.899
 8557TIP3    H125616   2.918   3.915   3.981
 8557TIP3    H225617   2.948   3.909   3.833
 8558TIP3   OH225618   3.309   3.322   3.916
 8558TIP3    H125619   3.375   3.255   3.899
 8558TIP3    H225620   3.231   3.291   3.870
 8559TIP3   OH225621   0.171   2.284   6.166
 8559TIP3    H125622   0.245   2.224   6.154
 8559TIP3    H225623   0.163   2.329   6.082
 8560TIP3   OH225624   1.263   7.081   3.240
 8560TIP3    H125625   1.258   7.148   3.172
 8560TIP3    H225626   1.211   7.116   3.312
 8561TIP3   OH225627   2.654   7.000   1.247
 8561TIP3    H125628   2.628   7.055   1.173
 8561TIP3    H225629   2.628   7.049   1.325
 8562TIP3   OH225630   4.082   3.590   2.818
 8562TIP3    H125631   4.121   3.662   2.769
 8562TIP3    H225632   4.130   3.513   2.791
 8563TIP3   OH225633   0.133   6.301   1.591
 8563TIP3    H125634   0.089   6.386   1.597
 8563TIP3    H225635   0.225   6.322   1.580
 8564TIP3   OH225636   6.343   1.713   3.484
 8564TIP3    H125637   6.300   1.763   3.553
 8564TIP3    H225638   6.326   1.622   3.506
 8565TIP3   OH225639   8.285   0.838   3.313
 8565TIP3    H125640   8.364   0.874   3.354
 8565TIP3    H225641   8.215   0.898   3.338
 8566TIP3   OH225642   4.265   5.027   4.020
 8566TIP3    H125643   4.200   5.009   3.951
 8566TIP3    H225644   4.213   5.059   4.093
 8567TIP3   OH225645   0.535   3.163   5.485
 8567TIP3    H125646   0.446   3.174   5.519
 8567TIP3    H225647   0.570   3.089   5.535
 8568TIP3   OH225648   1.223   3.459   4.784
 8568TIP3    H125649   1.141   3.409   4.786
 8568TIP3    H225650   1.284   3.404   4.736
 8569TIP3   OH225651   2.920   2.589   0.175
 8569TIP3    H125652   2.868   2.612   0.098
 8569TIP3    H225653   2.887   2.646   0.244
 8570TIP3   OH225654   5.827   7.075   2.623
 8570TIP3    H125655   5.767   7.020   2.673
 8570TIP3    H225656   5.849   7.022   2.546
 8571TIP3   OH225657   2.903   3.709   0.526
 8571TIP3    H125658   2.811   3.688   0.543
 8571TIP3    H225659   2.943   3.713   0.613
 8572TIP3   OH225660   1.981   6.644   3.055
 8572TIP3    H125661   2.046   6.702   3.016
 8572TIP3    H225662   1.932   6.700   3.116
 8573TIP3   OH225663   7.549   2.992   1.180
 8573TIP3    H125664   7.581   3.049   1.250
 8573TIP3    H225665   7.457   2.977   1.202
 8574TIP3   OH225666   6.468   1.843   6.218
 8574TIP3    H125667   6.515   1.763   6.192
 8574TIP3    H225668   6.415   1.866   6.142
 8575TIP3   OH225669   5.083   7.099   0.914
 8575TIP3    H125670   5.029   7.062   0.984
 8575TIP3    H225671   5.098   7.190   0.942
 8576TIP3   OH225672   5.713   0.923   2.184
 8576TIP3    H125673   5.805   0.915   2.161
 8576TIP3    H225674   5.666   0.882   2.111
 8577TIP3   OH225675   0.818   5.234   2.797
 8577TIP3    H125676   0.848   5.325   2.795
 8577TIP3    H225677   0.890   5.184   2.760
 8578TIP3   OH225678   6.108   4.629   6.174
 8578TIP3    H125679   6.058   4.687   6.116
 8578TIP3    H225680   6.144   4.562   6.116
 8579TIP3   OH225681   6.058   4.402   1.125
 8579TIP3    H125682   6.127   4.451   1.081
 8579TIP3    H225683   6.010   4.360   1.054
 8580TIP3   OH225684   3.065   1.496   6.029
 8580TIP3    H125685   3.148   1.517   5.987
 8580TIP3    H225686   3.073   1.531   6.117
 8581TIP3   OH225687   3.151   6.496   4.394
 8581TIP3    H125688   3.231   6.444   4.386
 8581TIP3    H225689   3.095   6.445   4.451
 8582TIP3   OH225690   2.145   5.121   1.454
 8582TIP3    H125691   2.212   5.162   1.399
 8582TIP3    H225692   2.101   5.195   1.497
 8583TIP3   OH225693   8.034   2.879   4.938
 8583TIP3    H125694   8.013   2.922   5.021
 8583TIP3    H225695   7.953   2.835   4.912
 8584TIP3   OH225696   0.028   1.755   1.550
 8584TIP3    H125697   0.041   1.671   1.593
 8584TIP3    H225698   0.114   1.778   1.515
 8585TIP3   OH225699   6.757   4.391   5.372
 8585TIP3    H125700   6.698   4.317   5.382
 8585TIP3    H225701   6.703   4.468   5.390
 8586TIP3   OH225702   0.748   3.951   2.149
 8586TIP3    H125703   0.803   4.028   2.134
 8586TIP3    H225704   0.797   3.899   2.213
 8587TIP3   OH225705   2.858   6.259   5.683
 8587TIP3    H125706   2.836   6.195   5.616
 8587TIP3    H225707   2.857   6.211   5.765
 8588TIP3   OH225708   0.139   3.448   3.204
 8588TIP3    H125709   0.136   3.504   3.127
 8588TIP3    H225710   0.207   3.488   3.260
 8589TIP3   OH225711   0.843   5.283   1.201
 8589TIP3    H125712   0.798   5.278   1.285
 8589TIP3    H225713   0.925   5.330   1.220
 8590TIP3   OH225714   1.185   6.525   2.333
 8590TIP3    H125715   1.115   6.471   2.370
 8590TIP3    H225716   1.255   6.522   2.397
 8591TIP3   OH225717   0.452   3.229   3.280
 8591TIP3    H125718   0.534   3.192   3.312
 8591TIP3    H225719   0.474   3.320   3.256
 8592TIP3   OH225720   2.138   2.473   1.879
 8592TIP3    H125721   2.137   2.493   1.785
 8592TIP3    H225722   2.058   2.513   1.912
 8593TIP3   OH225723   2.218   4.310   5.515
 8593TIP3    H125724   2.233   4.288   5.423
 8593TIP3    H225725   2.228   4.227   5.561
 8594TIP3   OH225726   7.188   5.671   2.684
 8594TIP3    H125727   7.096   5.643   2.687
 8594TIP3    H225728   7.202   5.716   2.767
 8595TIP3   OH225729   5.726   2.062   2.858
 8595TIP3    H125730   5.776   2.144   2.859
 8595TIP3    H225731   5.635   2.090   2.849
 8596TIP3   OH225732   2.333   0.138   0.132
 8596TIP3    H125733   2.363   0.227   0.115
 8596TIP3    H225734   2.414   0.086   0.136
 8597TIP3   OH225735   7.515   6.204   0.497
 8597TIP3    H125736   7.594   6.190   0.550
 8597TIP3    H225737   7.538   6.168   0.411
 8598TIP3   OH225738   3.112   4.389   4.003
 8598TIP3    H125739   3.034   4.433   4.037
 8598TIP3    H225740   3.081   4.337   3.929
 8599TIP3   OH225741   7.596   0.840   3.635
 8599TIP3    H125742   7.527   0.907   3.637
 8599TIP3    H225743   7.562   0.769   3.689
 8600TIP3   OH225744   1.568   6.613   0.201
 8600TIP3    H125745   1.545   6.649   0.287
 8600TIP3    H225746   1.496   6.638   0.144
 8601TIP3   OH225747   2.133   4.703   2.278
 8601TIP3    H125748   2.129   4.795   2.252
 8601TIP3    H225749   2.224   4.677   2.260
 8602TIP3   OH225750   1.605   7.366   1.837
 8602TIP3    H125751   1.522   7.412   1.846
 8602TIP3    H225752   1.587   7.293   1.779
 8603TIP3   OH225753   8.116   1.550   4.238
 8603TIP3    H125754   8.112   1.559   4.143
 8603TIP3    H225755   8.141   1.638   4.268
 8604TIP3   OH225756   3.266   3.044   3.568
 8604TIP3    H125757   3.180   3.059   3.608
 8604TIP3    H225758   3.269   2.950   3.552
 8605TIP3   OH225759   2.629   0.241   5.898
 8605TIP3    H125760   2.553   0.232   5.954
 8605TIP3    H225761   2.660   0.330   5.914
 8606TIP3   OH225762   3.692   2.058   3.287
 8606TIP3    H125763   3.695   1.966   3.312
 8606TIP3    H225764   3.644   2.059   3.205
 8607TIP3   OH225765   6.985   7.545   6.541
 8607TIP3    H125766   7.009   7.454   6.555
 8607TIP3    H225767   6.908   7.559   6.596
 8608TIP3   OH225768   3.458   3.706   5.257
 8608TIP3    H125769   3.469   3.639   5.190
 8608TIP3    H225770   3.373   3.686   5.297
 8609TIP3   OH225771   2.990   1.001   1.668
 8609TIP3    H125772   2.901   1.010   1.702
 8609TIP3    H225773   3.015   0.911   1.690
 8610TIP3   OH225774   2.431   3.258   1.259
 8610TIP3    H125775   2.430   3.182   1.318
 8610TIP3    H225776   2.364   3.316   1.295
 8611TIP3   OH225777   5.277   0.519   3.847
 8611TIP3    H125778   5.239   0.522   3.759
 8611TIP3    H225779   5.204   0.493   3.903
 8612TIP3   OH225780   7.978   4.191   5.863
 8612TIP3    H125781   7.934   4.247   5.799
 8612TIP3    H225782   8.071   4.201   5.843
 8613TIP3   OH225783   6.433   1.044   4.059
 8613TIP3    H125784   6.351   1.024   4.104
 8613TIP3    H225785   6.469   1.119   4.107
 8614TIP3   OH225786   4.366   6.879   2.927
 8614TIP3    H125787   4.280   6.848   2.896
 8614TIP3    H225788   4.345   6.954   2.982
 8615TIP3   OH225789   1.612   1.214   4.762
 8615TIP3    H125790   1.663   1.135   4.748
 8615TIP3    H225791   1.677   1.281   4.783
 8616TIP3   OH225792   5.594   1.091   2.770
 8616TIP3    H125793   5.669   1.097   2.829
 8616TIP3    H225794   5.518   1.101   2.827
 8617TIP3   OH225795   3.686   2.294   4.976
 8617TIP3    H125796   3.744   2.237   5.026
 8617TIP3    H225797   3.612   2.238   4.953
 8618TIP3   OH225798   0.405   7.146   0.721
 8618TIP3    H125799   0.374   7.069   0.674
 8618TIP3    H225800   0.325   7.186   0.757
 8619TIP3   OH225801   6.120   7.340   3.440
 8619TIP3    H125802   6.113   7.392   3.520
 8619TIP3    H225803   6.100   7.402   3.369
 8620TIP3   OH225804   2.739   0.152   1.729
 8620TIP3    H125805   2.812   0.186   1.781
 8620TIP3    H225806   2.671   0.219   1.736
 8621TIP3   OH225807   3.603   3.283   4.587
 8621TIP3    H125808   3.509   3.300   4.573
 8621TIP3    H225809   3.643   3.307   4.503
 8622TIP3   OH225810   1.443   7.797   4.799
 8622TIP3    H125811   1.406   7.879   4.831
 8622TIP3    H225812   1.489   7.821   4.719
 8623TIP3   OH225813   2.679   5.512   5.393
 8623TIP3    H125814   2.652   5.548   5.308
 8623TIP3    H225815   2.764   5.473   5.376
 8624TIP3   OH225816   3.705   1.302   6.783
 8624TIP3    H125817   3.693   1.299   6.688
 8624TIP3    H225818   3.719   1.210   6.807
 8625TIP3   OH225819   1.602   1.717   5.404
 8625TIP3    H125820   1.625   1.630   5.373
 8625TIP3    H225821   1.516   1.735   5.366
 8626TIP3   OH225822   3.874   1.637   2.315
 8626TIP3    H125823   3.847   1.642   2.223
 8626TIP3    H225824   3.832   1.713   2.356
 8627TIP3   OH225825   4.683   1.864   2.913
 8627TIP3    H125826   4.629   1.900   2.842
 8627TIP3    H225827   4.711   1.941   2.962
 8628TIP3   OH225828   7.780   3.461   3.652
 8628TIP3    H125829   7.722   3.386   3.642
 8628TIP3    H225830   7.812   3.479   3.564
 8629TIP3   OH225831   2.052   1.587   4.841
 8629TIP3    H125832   1.999   1.646   4.894
 8629TIP3    H225833   2.138   1.586   4.883
 8630TIP3   OH225834   7.060   6.395   3.916
 8630TIP3    H125835   6.983   6.443   3.888
 8630TIP3    H225836   7.128   6.419   3.853
 8631TIP3   OH225837   7.823   2.626   6.252
 8631TIP3    H125838   7.913   2.599   6.231
 8631TIP3    H225839   7.832   2.715   6.286
 8632TIP3   OH225840   2.006   0.265   1.670
 8632TIP3    H125841   2.006   0.239   1.578
 8632TIP3    H225842   1.921   0.236   1.703
 8633TIP3   OH225843   2.091   5.318   2.505
 8633TIP3    H125844   2.122   5.401   2.541
 8633TIP3    H225845   2.153   5.253   2.537
 8634TIP3   OH225846   1.045   4.355   5.737
 8634TIP3    H125847   1.129   4.329   5.698
 8634TIP3    H225848   0.991   4.381   5.662
 8635TIP3   OH225849   4.670   6.040   3.747
 8635TIP3    H125850   4.588   6.009   3.710
 8635TIP3    H225851   4.713   5.961   3.780
 8636TIP3   OH225852   7.538   4.283   1.687
 8636TIP3    H125853   7.539   4.288   1.783
 8636TIP3    H225854   7.477   4.212   1.668
 8637TIP3   OH225855   4.712   1.610   5.026
 8637TIP3    H125856   4.697   1.600   5.120
 8637TIP3    H225857   4.633   1.652   4.994
 8638TIP3   OH225858   3.795   4.264   3.114
 8638TIP3    H125859   3.837   4.186   3.150
 8638TIP3    H225860   3.867   4.319   3.084
 8639TIP3   OH225861   2.985   2.895   3.737
 8639TIP3    H125862   3.069   2.857   3.711
 8639TIP3    H225863   3.000   2.989   3.737
 8640TIP3   OH225864   3.413   6.489   6.595
 8640TIP3    H125865   3.395   6.520   6.506
 8640TIP3    H225866   3.507   6.472   6.595
 8641TIP3   OH225867   2.006   5.477   3.220
 8641TIP3    H125868   2.063   5.531   3.166
 8641TIP3    H225869   2.042   5.484   3.308
 8642TIP3   OH225870   0.726   3.168   3.128
 8642TIP3    H125871   0.659   3.139   3.067
 8642TIP3    H225872   0.740   3.093   3.186
 8643TIP3   OH225873   5.862   7.635   2.522
 8643TIP3    H125874   5.782   7.637   2.470
 8643TIP3    H225875   5.873   7.544   2.547
 8644TIP3   OH225876   3.907   4.528   5.907
 8644TIP3    H125877   3.954   4.500   5.828
 8644TIP3    H225878   3.976   4.556   5.967
 8645TIP3   OH225879   3.775   3.492   2.062
 8645TIP3    H125880   3.725   3.572   2.080
 8645TIP3    H225881   3.865   3.515   2.081
 8646TIP3   OH225882   4.094   7.714   1.087
 8646TIP3    H125883   4.068   7.768   1.013
 8646TIP3    H225884   4.165   7.763   1.128
 8647TIP3   OH225885   3.253   7.291   4.148
 8647TIP3    H125886   3.315   7.342   4.096
 8647TIP3    H225887   3.307   7.227   4.195
 8648TIP3   OH225888   4.216   6.218   6.599
 8648TIP3    H125889   4.302   6.175   6.603
 8648TIP3    H225890   4.211   6.270   6.678
 8649TIP3   OH225891   7.402   2.282   5.335
 8649TIP3    H125892   7.356   2.206   5.299
 8649TIP3    H225893   7.382   2.280   5.429
 8650TIP3   OH225894   3.036   3.097   2.845
 8650TIP3    H125895   2.995   3.044   2.914
 8650TIP3    H225896   2.964   3.143   2.804
 8651TIP3   OH225897   8.289   1.745   2.360
 8651TIP3    H125898   8.225   1.727   2.429
 8651TIP3    H225899   8.236   1.763   2.283
 8652TIP3   OH225900   1.762   7.340   5.280
 8652TIP3    H125901   1.832   7.286   5.243
 8652TIP3    H225902   1.784   7.429   5.255
 8653TIP3   OH225903   1.504   4.723   5.264
 8653TIP3    H125904   1.421   4.756   5.297
 8653TIP3    H225905   1.536   4.663   5.332
 8654TIP3   OH225906   4.777   3.377   4.928
 8654TIP3    H125907   4.864   3.353   4.896
 8654TIP3    H225908   4.721   3.305   4.901
 8655TIP3   OH225909   8.269   5.592   4.511
 8655TIP3    H125910   8.191   5.537   4.520
 8655TIP3    H225911   8.323   5.548   4.445
 8656TIP3   OH225912   7.027   2.388   4.633
 8656TIP3    H125913   7.005   2.424   4.719
 8656TIP3    H225914   6.977   2.440   4.571
 8657TIP3   OH225915   7.082   3.532   3.601
 8657TIP3    H125916   7.135   3.510   3.678
 8657TIP3    H225917   7.011   3.585   3.636
 8658TIP3   OH225918   7.634   5.211   2.738
 8658TIP3    H125919   7.544   5.195   2.764
 8658TIP3    H225920   7.629   5.283   2.676
 8659TIP3   OH225921   2.189   2.463   3.742
 8659TIP3    H125922   2.140   2.491   3.819
 8659TIP3    H225923   2.276   2.441   3.775
 8660TIP3   OH225924   6.512   3.347   2.724
 8660TIP3    H125925   6.556   3.382   2.647
 8660TIP3    H225926   6.473   3.424   2.766
 8661TIP3   OH225927   0.163   4.051   4.233
 8661TIP3    H125928   0.183   3.993   4.306
 8661TIP3    H225929   0.248   4.074   4.196
 8662TIP3   OH225930   3.135   4.356   3.080
 8662TIP3    H125931   3.218   4.325   3.116
 8662TIP3    H225932   3.129   4.448   3.109
 8663TIP3   OH225933   4.040   5.915   4.736
 8663TIP3    H125934   3.949   5.885   4.740
 8663TIP3    H225935   4.035   6.002   4.696
 8664TIP3   OH225936   5.097   6.314   6.479
 8664TIP3    H125937   5.068   6.223   6.492
 8664TIP3    H225938   5.095   6.326   6.384
 8665TIP3   OH225939   0.664   0.691   3.802
 8665TIP3    H125940   0.579   0.646   3.803
 8665TIP3    H225941   0.681   0.709   3.895
 8666TIP3   OH225942   4.452   4.998   0.692
 8666TIP3    H125943   4.425   4.937   0.761
 8666TIP3    H225944   4.429   4.954   0.610
 8667TIP3   OH225945   3.297   6.922   3.769
 8667TIP3    H125946   3.251   6.950   3.848
 8667TIP3    H225947   3.276   6.829   3.761
 8668TIP3   OH225948   5.586   3.526   6.653
 8668TIP3    H125949   5.650   3.530   6.582
 8668TIP3    H225950   5.625   3.466   6.717
 8669TIP3   OH225951   0.791   1.381   5.437
 8669TIP3    H125952   0.815   1.292   5.464
 8669TIP3    H225953   0.793   1.432   5.517
 8670TIP3   OH225954   3.987   4.019   4.764
 8670TIP3    H125955   3.944   4.084   4.709
 8670TIP3    H225956   3.987   4.057   4.852
 8671TIP3   OH225957   2.714   5.350   2.959
 8671TIP3    H125958   2.787   5.384   3.010
 8671TIP3    H225959   2.747   5.269   2.920
 8672TIP3   OH225960   0.088   1.384   6.101
 8672TIP3    H125961   0.104   1.402   6.194
 8672TIP3    H225962  -0.004   1.359   6.097
 8673TIP3   OH225963   5.454   3.374   6.304
 8673TIP3    H125964   5.458   3.350   6.396
 8673TIP3    H225965   5.437   3.291   6.258
 8674TIP3   OH225966   1.921   4.526   4.591
 8674TIP3    H125967   1.945   4.436   4.614
 8674TIP3    H225968   1.996   4.579   4.620
 8675TIP3   OH225969   2.314   5.931   0.269
 8675TIP3    H125970   2.347   5.866   0.331
 8675TIP3    H225971   2.388   5.991   0.256
 8676TIP3   OH225972   2.542   5.697   0.185
 8676TIP3    H125973   2.454   5.713   0.149
 8676TIP3    H225974   2.527   5.686   0.279
 8677TIP3   OH225975   2.746   7.187   4.919
 8677TIP3    H125976   2.794   7.268   4.902
 8677TIP3    H225977   2.737   7.145   4.834
 8678TIP3   OH225978   7.193   4.091   0.043
 8678TIP3    H125979   7.109   4.059   0.076
 8678TIP3    H225980   7.192   4.185   0.062
 8679TIP3   OH225981   2.626   2.479   4.217
 8679TIP3    H125982   2.696   2.497   4.281
 8679TIP3    H225983   2.617   2.384   4.218
 8680TIP3   OH225984   6.641   2.213   5.926
 8680TIP3    H125985   6.614   2.228   6.017
 8680TIP3    H225986   6.575   2.154   5.890
 8681TIP3   OH225987   7.330   6.421   2.807
 8681TIP3    H125988   7.340   6.394   2.898
 8681TIP3    H225989   7.340   6.516   2.809
 8682TIP3   OH225990   2.074   2.892   4.985
 8682TIP3    H125991   2.059   2.813   5.038
 8682TIP3    H225992   2.134   2.863   4.916
 8683TIP3   OH225993   2.360   3.690   2.533
 8683TIP3    H125994   2.446   3.708   2.495
 8683TIP3    H225995   2.373   3.610   2.584
 8684TIP3   OH225996   6.759   6.774   0.772
 8684TIP3    H125997   6.680   6.823   0.796
 8684TIP3    H225998   6.748   6.689   0.815
 8685TIP3   OH225999   0.845   5.646   6.784
 8685TIP3    H126000   0.772   5.585   6.798
 8685TIP3    H226001   0.840   5.669   6.692
 8686TIP3   OH226002   5.203   0.128   0.148
 8686TIP3    H126003   5.142   0.057   0.166
 8686TIP3    H226004   5.248   0.142   0.232
 8687TIP3   OH226005   5.412   5.218   3.857
 8687TIP3    H126006   5.478   5.161   3.818
 8687TIP3    H226007   5.450   5.306   3.854
 8688TIP3   OH226008   1.789   4.225   1.775
 8688TIP3    H126009   1.825   4.312   1.758
 8688TIP3    H226010   1.862   4.166   1.755
 8689TIP3   OH226011   6.108   6.290   6.703
 8689TIP3    H126012   6.094   6.371   6.654
 8689TIP3    H226013   6.048   6.296   6.777
 8690TIP3   OH226014   7.950   1.267   3.420
 8690TIP3    H126015   7.963   1.173   3.410
 8690TIP3    H226016   7.859   1.277   3.447
 8691TIP3   OH226017   4.744   6.652   4.513
 8691TIP3    H126018   4.797   6.705   4.573
 8691TIP3    H226019   4.759   6.562   4.543
 8692TIP3   OH226020   6.240   4.303   0.686
 8692TIP3    H126021   6.164   4.357   0.664
 8692TIP3    H226022   6.218   4.265   0.772
 8693TIP3   OH226023   7.119   6.772   6.216
 8693TIP3    H126024   7.098   6.711   6.145
 8693TIP3    H226025   7.212   6.791   6.205
 8694TIP3   OH226026   4.112   7.301   4.736
 8694TIP3    H126027   4.138   7.257   4.817
 8694TIP3    H226028   4.121   7.394   4.755
 8695TIP3   OH226029   2.593   3.242   1.519
 8695TIP3    H126030   2.544   3.161   1.504
 8695TIP3    H226031   2.604   3.279   1.431
 8696TIP3   OH226032   3.739   3.341   0.690
 8696TIP3    H126033   3.689   3.274   0.736
 8696TIP3    H226034   3.682   3.370   0.619
 8697TIP3   OH226035   1.689   5.350   4.637
 8697TIP3    H126036   1.632   5.321   4.566
 8697TIP3    H226037   1.778   5.342   4.601
 8698TIP3   OH226038   6.150   6.500   4.647
 8698TIP3    H126039   6.217   6.568   4.659
 8698TIP3    H226040   6.172   6.432   4.710
 8699TIP3   OH226041   4.978   1.994   0.900
 8699TIP3    H126042   4.964   2.060   0.832
 8699TIP3    H226043   4.985   2.044   0.981
 8700TIP3   OH226044   6.724   5.726   5.352
 8700TIP3    H126045   6.683   5.645   5.381
 8700TIP3    H226046   6.652   5.777   5.314
 8701TIP3   OH226047   3.325   3.324   5.706
 8701TIP3    H126048   3.359   3.411   5.726
 8701TIP3    H226049   3.288   3.293   5.788
 8702TIP3   OH226050   1.095   7.007   2.588
 8702TIP3    H126051   1.176   7.027   2.636
 8702TIP3    H226052   1.121   7.006   2.496
 8703TIP3   OH226053   0.389   4.240   4.934
 8703TIP3    H126054   0.423   4.329   4.941
 8703TIP3    H226055   0.418   4.209   4.848
 8704TIP3   OH226056   2.678   5.394   6.777
 8704TIP3    H126057   2.673   5.454   6.703
 8704TIP3    H226058   2.755   5.340   6.759
 8705TIP3   OH226059   7.712   1.037   1.142
 8705TIP3    H126060   7.756   0.972   1.196
 8705TIP3    H226061   7.688   1.107   1.202
 8706TIP3   OH226062   2.751   1.919   5.484
 8706TIP3    H126063   2.724   1.976   5.412
 8706TIP3    H226064   2.669   1.876   5.510
 8707TIP3   OH226065   2.612   5.608   2.253
 8707TIP3    H126066   2.559   5.567   2.185
 8707TIP3    H226067   2.636   5.536   2.312
 8708TIP3   OH226068   4.987   4.443   0.321
 8708TIP3    H126069   4.906   4.491   0.340
 8708TIP3    H226070   4.962   4.351   0.330
 8709TIP3   OH226071   0.753   0.465   2.799
 8709TIP3    H126072   0.745   0.380   2.755
 8709TIP3    H226073   0.695   0.459   2.875
 8710TIP3   OH226074   4.783   2.040   0.524
 8710TIP3    H126075   4.845   1.967   0.525
 8710TIP3    H226076   4.826   2.109   0.573
 8711TIP3   OH226077   6.722   4.846   3.510
 8711TIP3    H126078   6.711   4.864   3.603
 8711TIP3    H226079   6.709   4.930   3.466
 8712TIP3   OH226080   6.430   1.313   4.676
 8712TIP3    H126081   6.411   1.375   4.605
 8712TIP3    H226082   6.506   1.351   4.721
 8713TIP3   OH226083   3.553   6.285   2.907
 8713TIP3    H126084   3.482   6.222   2.917
 8713TIP3    H226085   3.512   6.361   2.864
 8714TIP3   OH226086   6.519   0.561   3.063
 8714TIP3    H126087   6.584   0.573   2.993
 8714TIP3    H226088   6.569   0.522   3.135
 8715TIP3   OH226089   3.810   5.580   4.181
 8715TIP3    H126090   3.894   5.560   4.139
 8715TIP3    H226091   3.826   5.662   4.228
 8716TIP3   OH226092   4.668   3.192   4.340
 8716TIP3    H126093   4.707   3.115   4.381
 8716TIP3    H226094   4.677   3.178   4.246
 8717TIP3   OH226095   5.258   4.466   0.343
 8717TIP3    H126096   5.171   4.438   0.314
 8717TIP3    H226097   5.318   4.407   0.298
 8718TIP3   OH226098   0.994   0.236   0.515
 8718TIP3    H126099   0.917   0.257   0.461
 8718TIP3    H226100   0.958   0.217   0.601
 8719TIP3   OH226101   4.042   5.175   3.563
 8719TIP3    H126102   4.019   5.203   3.651
 8719TIP3    H226103   4.075   5.086   3.573
 8720TIP3   OH226104   4.125   6.208   0.094
 8720TIP3    H126105   4.218   6.213   0.070
 8720TIP3    H226106   4.086   6.285   0.054
 8721TIP3   OH226107   2.128   2.199   4.947
 8721TIP3    H126108   2.048   2.251   4.940
 8721TIP3    H226109   2.195   2.262   4.972
 8722TIP3   OH226110   4.434   5.288   2.362
 8722TIP3    H126111   4.488   5.356   2.402
 8722TIP3    H226112   4.467   5.280   2.273
 8723TIP3   OH226113   4.114   5.949   0.180
 8723TIP3    H126114   4.129   6.044   0.175
 8723TIP3    H226115   4.051   5.938   0.251
 8724TIP3   OH226116   6.949   0.046   4.347
 8724TIP3    H126117   6.943  -0.011   4.270
 8724TIP3    H226118   6.881   0.014   4.406
 8725TIP3   OH226119   2.616   1.228   4.953
 8725TIP3    H126120   2.562   1.152   4.931
 8725TIP3    H226121   2.556   1.303   4.944
 8726TIP3   OH226122   5.310   0.096   5.690
 8726TIP3    H126123   5.284   0.095   5.782
 8726TIP3    H226124   5.227   0.092   5.642
 8727TIP3   OH226125   5.706   2.379   2.551
 8727TIP3    H126126   5.793   2.380   2.512
 8727TIP3    H226127   5.672   2.291   2.531
 8728TIP3   OH226128   5.976   5.569   4.601
 8728TIP3    H126129   6.062   5.530   4.583
 8728TIP3    H226130   5.957   5.622   4.523
 8729TIP3   OH226131   1.789   1.082   2.391
 8729TIP3    H126132   1.822   1.065   2.479
 8729TIP3    H226133   1.807   1.175   2.376
 8730TIP3   OH226134   1.864   6.235   5.417
 8730TIP3    H126135   1.917   6.162   5.449
 8730TIP3    H226136   1.880   6.237   5.323
 8731TIP3   OH226137   0.028   4.129   1.624
 8731TIP3    H126138   0.061   4.102   1.710
 8731TIP3    H226139   0.045   4.054   1.568
 8732TIP3   OH226140   0.131   6.404   2.383
 8732TIP3    H126141   0.123   6.442   2.470
 8732TIP3    H226142   0.217   6.431   2.352
 8733TIP3   OH226143   6.807   3.065   4.818
 8733TIP3    H126144   6.799   3.155   4.850
 8733TIP3    H226145   6.898   3.057   4.789
 8734TIP3   OH226146   3.456   3.671   0.225
 8734TIP3    H126147   3.372   3.638   0.195
 8734TIP3    H226148   3.463   3.758   0.186
 8735TIP3   OH226149   6.876   5.038   1.003
 8735TIP3    H126150   6.797   5.075   1.041
 8735TIP3    H226151   6.851   5.012   0.914
 8736TIP3   OH226152   7.461   3.504   2.955
 8736TIP3    H126153   7.495   3.576   3.007
 8736TIP3    H226154   7.412   3.546   2.884
 8737TIP3   OH226155   1.521   0.336   6.060
 8737TIP3    H126156   1.448   0.386   6.095
 8737TIP3    H226157   1.512   0.249   6.100
 8738TIP3   OH226158   1.811   0.144   5.484
 8738TIP3    H126159   1.863   0.071   5.450
 8738TIP3    H226160   1.742   0.102   5.536
 8739TIP3   OH226161   3.396   7.604   0.698
 8739TIP3    H126162   3.311   7.571   0.729
 8739TIP3    H226163   3.387   7.699   0.700
 8740TIP3   OH226164   7.129   1.162   1.577
 8740TIP3    H126165   7.035   1.143   1.582
 8740TIP3    H226166   7.134   1.246   1.532
 8741TIP3   OH226167   7.436   5.388   0.988
 8741TIP3    H126168   7.371   5.399   1.057
 8741TIP3    H226169   7.401   5.437   0.914
 8742TIP3   OH226170   4.935   1.805   5.020
 8742TIP3    H126171   4.988   1.749   4.964
 8742TIP3    H226172   4.865   1.747   5.051
 8743TIP3   OH226173   0.804   0.940   3.740
 8743TIP3    H126174   0.740   0.870   3.757
 8743TIP3    H226175   0.861   0.940   3.817
 8744TIP3   OH226176   4.993   5.630   3.700
 8744TIP3    H126177   4.961   5.693   3.764
 8744TIP3    H226178   4.914   5.589   3.665
 8745TIP3   OH226179   3.106   2.809   5.138
 8745TIP3    H126180   3.170   2.838   5.073
 8745TIP3    H226181   3.035   2.771   5.086
 8746TIP3   OH226182   1.356   6.741   4.600
 8746TIP3    H126183   1.368   6.800   4.525
 8746TIP3    H226184   1.301   6.671   4.566
 8747TIP3   OH226185   6.581   3.360   1.930
 8747TIP3    H126186   6.487   3.340   1.926
 8747TIP3    H226187   6.622   3.289   1.881
 8748TIP3   OH226188   5.400   4.637   5.937
 8748TIP3    H126189   5.449   4.710   5.977
 8748TIP3    H226190   5.312   4.672   5.924
 8749TIP3   OH226191   6.125   2.463   3.859
 8749TIP3    H126192   6.033   2.475   3.833
 8749TIP3    H226193   6.141   2.532   3.923
 8750TIP3   OH226194   2.818   4.206   4.127
 8750TIP3    H126195   2.725   4.189   4.113
 8750TIP3    H226196   2.824   4.301   4.136
 8751TIP3   OH226197   3.317   2.366   6.599
 8751TIP3    H126198   3.409   2.367   6.625
 8751TIP3    H226199   3.274   2.310   6.664
 8752TIP3   OH226200   7.810   1.382   1.845
 8752TIP3    H126201   7.873   1.381   1.773
 8752TIP3    H226202   7.865   1.387   1.924
 8753TIP3   OH226203   2.450   1.054   0.146
 8753TIP3    H126204   2.543   1.044   0.166
 8753TIP3    H226205   2.428   0.975   0.096
 8754TIP3   OH226206   4.811   6.167   5.602
 8754TIP3    H126207   4.745   6.135   5.541
 8754TIP3    H226208   4.893   6.125   5.573
 8755TIP3   OH226209   1.035   3.553   5.800
 8755TIP3    H126210   1.055   3.491   5.730
 8755TIP3    H226211   1.016   3.635   5.755
 8756TIP3   OH226212   4.131   6.864   0.491
 8756TIP3    H126213   4.169   6.850   0.578
 8756TIP3    H226214   4.054   6.918   0.506
 8757TIP3   OH226215   3.748   3.479   3.706
 8757TIP3    H126216   3.662   3.493   3.746
 8757TIP3    H226217   3.743   3.390   3.670
 8758TIP3   OH226218   4.933   1.644   3.128
 8758TIP3    H126219   4.881   1.706   3.179
 8758TIP3    H226220   5.023   1.676   3.135
 8759TIP3   OH226221   2.831   4.108   5.463
 8759TIP3    H126222   2.774   4.152   5.400
 8759TIP3    H226223   2.779   4.105   5.544
 8760TIP3   OH226224   8.073   2.430   4.916
 8760TIP3    H126225   8.107   2.516   4.941
 8760TIP3    H226226   8.135   2.399   4.849
 8761TIP3   OH226227   4.845   2.525   4.100
 8761TIP3    H126228   4.931   2.524   4.056
 8761TIP3    H226229   4.820   2.433   4.104
 8762TIP3   OH226230   4.520   1.362   5.160
 8762TIP3    H126231   4.483   1.446   5.185
 8762TIP3    H226232   4.479   1.341   5.076
 8763TIP3   OH226233   2.133   3.798   6.271
 8763TIP3    H126234   2.186   3.791   6.191
 8763TIP3    H226235   2.102   3.888   6.271
 8764TIP3   OH226236   7.165   0.287   0.824
 8764TIP3    H126237   7.243   0.235   0.806
 8764TIP3    H226238   7.155   0.284   0.919
 8765TIP3   OH226239   3.426   7.677   4.828
 8765TIP3    H126240   3.494   7.646   4.768
 8765TIP3    H226241   3.362   7.607   4.831
 8766TIP3   OH226242   7.417   7.670   4.023
 8766TIP3    H126243   7.412   7.614   4.101
 8766TIP3    H226244   7.489   7.634   3.972
 8767TIP3   OH226245   2.463   6.885   3.329
 8767TIP3    H126246   2.535   6.923   3.278
 8767TIP3    H226247   2.489   6.794   3.345
 8768TIP3   OH226248   4.637   0.365   4.090
 8768TIP3    H126249   4.714   0.408   4.054
 8768TIP3    H226250   4.565   0.424   4.068
 8769TIP3   OH226251   3.866   3.702   2.979
 8769TIP3    H126252   3.930   3.658   2.923
 8769TIP3    H226253   3.868   3.653   3.061
 8770TIP3   OH226254   4.474   2.202   3.808
 8770TIP3    H126255   4.431   2.126   3.847
 8770TIP3    H226256   4.408   2.239   3.750
 8771TIP3   OH226257   7.130   6.454   4.953
 8771TIP3    H126258   7.180   6.490   5.027
 8771TIP3    H226259   7.197   6.430   4.889
 8772TIP3   OH226260   7.270   7.780   1.742
 8772TIP3    H126261   7.355   7.754   1.705
 8772TIP3    H226262   7.290   7.810   1.830
 8773TIP3   OH226263   2.946   1.274   1.424
 8773TIP3    H126264   2.981   1.273   1.513
 8773TIP3    H226265   2.880   1.343   1.424
 8774TIP3   OH226266   4.397   5.728   5.895
 8774TIP3    H126267   4.368   5.819   5.890
 8774TIP3    H226268   4.491   5.733   5.909
 8775TIP3   OH226269   2.780   7.732   0.870
 8775TIP3    H126270   2.771   7.657   0.810
 8775TIP3    H226271   2.707   7.789   0.847
 8776TIP3   OH226272   5.061   2.412   3.511
 8776TIP3    H126273   5.093   2.370   3.591
 8776TIP3    H226274   4.966   2.399   3.513
 8777TIP3   OH226275   7.184   1.558   4.226
 8777TIP3    H126276   7.253   1.509   4.181
 8777TIP3    H226277   7.154   1.621   4.161
 8778TIP3   OH226278   0.667   2.234   1.608
 8778TIP3    H126279   0.701   2.160   1.558
 8778TIP3    H226280   0.745   2.283   1.634
 8779TIP3   OH226281   1.215   3.392   5.959
 8779TIP3    H126282   1.122   3.415   5.959
 8779TIP3    H226283   1.227   3.342   5.878
 8780TIP3   OH226284   5.433   1.420   4.393
 8780TIP3    H126285   5.423   1.334   4.433
 8780TIP3    H226286   5.455   1.401   4.302
 8781TIP3   OH226287   6.139   2.294   4.691
 8781TIP3    H126288   6.230   2.323   4.685
 8781TIP3    H226289   6.145   2.199   4.695
 8782TIP3   OH226290   6.652   0.617   0.522
 8782TIP3    H126291   6.593   0.634   0.448
 8782TIP3    H226292   6.737   0.603   0.481
 8783TIP3   OH226293   3.116   1.649   5.452
 8783TIP3    H126294   3.027   1.663   5.419
 8783TIP3    H226295   3.160   1.733   5.440
 8784TIP3   OH226296   0.339   0.603   6.274
 8784TIP3    H126297   0.287   0.527   6.300
 8784TIP3    H226298   0.404   0.567   6.213
 8785TIP3   OH226299   3.487   6.699   4.914
 8785TIP3    H126300   3.510   6.700   5.007
 8785TIP3    H226301   3.550   6.640   4.873
 8786TIP3   OH226302   7.575   0.340   3.188
 8786TIP3    H126303   7.497   0.287   3.201
 8786TIP3    H226304   7.598   0.327   3.096
 8787TIP3   OH226305   0.966   7.227   0.274
 8787TIP3    H126306   0.958   7.182   0.191
 8787TIP3    H226307   0.993   7.159   0.336
 8788TIP3   OH226308   3.296   4.679   0.862
 8788TIP3    H126309   3.256   4.692   0.776
 8788TIP3    H226310   3.260   4.595   0.892
 8789TIP3   OH226311   0.548   5.411   5.848
 8789TIP3    H126312   0.568   5.320   5.871
 8789TIP3    H226313   0.453   5.416   5.846
 8790TIP3   OH226314   7.353   3.113   4.090
 8790TIP3    H126315   7.350   3.082   4.000
 8790TIP3    H226316   7.291   3.058   4.137
 8791TIP3   OH226317   0.813   5.101   6.743
 8791TIP3    H126318   0.906   5.122   6.731
 8791TIP3    H226319   0.778   5.095   6.654
 8792TIP3   OH226320   2.712   1.543   0.979
 8792TIP3    H126321   2.780   1.611   0.970
 8792TIP3    H226322   2.664   1.568   1.058
 8793TIP3   OH226323   7.159   1.095   5.860
 8793TIP3    H126324   7.170   1.154   5.935
 8793TIP3    H226325   7.121   1.015   5.898
 8794TIP3   OH226326   2.214   5.481   0.188
 8794TIP3    H126327   2.149   5.441   0.131
 8794TIP3    H226328   2.257   5.546   0.133
 8795TIP3   OH226329   4.400   3.529   3.366
 8795TIP3    H126330   4.382   3.572   3.450
 8795TIP3    H226331   4.340   3.454   3.364
 8796TIP3   OH226332   7.666   2.256   4.238
 8796TIP3    H126333   7.638   2.166   4.255
 8796TIP3    H226334   7.660   2.299   4.324
 8797TIP3   OH226335   5.074   0.733   4.345
 8797TIP3    H126336   5.163   0.766   4.339
 8797TIP3    H226337   5.083   0.638   4.340
 8798TIP3   OH226338   6.128   2.661   3.002
 8798TIP3    H126339   6.156   2.660   2.910
 8798TIP3    H226340   6.057   2.598   3.006
 8799TIP3   OH226341   1.657   7.273   3.303
 8799TIP3    H126342   1.745   7.238   3.293
 8799TIP3    H226343   1.627   7.288   3.213
 8800TIP3   OH226344   6.003   2.213   5.044
 8800TIP3    H126345   5.949   2.288   5.069
 8800TIP3    H226346   5.941   2.150   5.006
 8801TIP3   OH226347   5.620   7.440   2.589
 8801TIP3    H126348   5.600   7.481   2.673
 8801TIP3    H226349   5.702   7.394   2.604
 8802TIP3   OH226350   6.404   6.765   3.947
 8802TIP3    H126351   6.376   6.854   3.927
 8802TIP3    H226352   6.372   6.749   4.035
 8803TIP3   OH226353   7.711   2.861   4.543
 8803TIP3    H126354   7.621   2.895   4.540
 8803TIP3    H226355   7.726   2.825   4.456
 8804TIP3   OH226356   5.633   0.244   2.679
 8804TIP3    H126357   5.620   0.164   2.629
 8804TIP3    H226358   5.609   0.315   2.618
 8805TIP3   OH226359   1.812   2.763   5.342
 8805TIP3    H126360   1.765   2.689   5.304
 8805TIP3    H226361   1.900   2.729   5.360
 8806TIP3   OH226362   5.755   3.067   6.223
 8806TIP3    H126363   5.732   3.022   6.305
 8806TIP3    H226364   5.837   3.112   6.242
 8807TIP3   OH226365   1.468   1.782   5.855
 8807TIP3    H126366   1.455   1.840   5.930
 8807TIP3    H226367   1.409   1.709   5.871
 8808TIP3   OH226368   7.560   0.839   5.495
 8808TIP3    H126369   7.521   0.755   5.470
 8808TIP3    H226370   7.653   0.829   5.475
 8809TIP3   OH226371   1.801   3.340   4.966
 8809TIP3    H126372   1.799   3.382   4.880
 8809TIP3    H226373   1.854   3.261   4.952
 8810TIP3   OH226374   1.500   5.588   4.776
 8810TIP3    H126375   1.411   5.569   4.747
 8810TIP3    H226376   1.494   5.590   4.871
 8811TIP3   OH226377   3.900   1.452   4.887
 8811TIP3    H126378   3.867   1.416   4.969
 8811TIP3    H226379   3.952   1.382   4.849
 8812TIP3   OH226380   5.902   7.175   1.507
 8812TIP3    H126381   5.952   7.249   1.471
 8812TIP3    H226382   5.811   7.204   1.504
 8813TIP3   OH226383   1.816   4.807   6.118
 8813TIP3    H126384   1.728   4.781   6.146
 8813TIP3    H226385   1.807   4.823   6.024
 8814TIP3   OH226386   6.002   5.098   2.589
 8814TIP3    H126387   5.932   5.046   2.549
 8814TIP3    H226388   5.964   5.185   2.602
 8815TIP3   OH226389   7.420   6.582   4.363
 8815TIP3    H126390   7.329   6.572   4.393
 8815TIP3    H226391   7.465   6.624   4.436
 8816TIP3   OH226392   3.486   6.715   4.490
 8816TIP3    H126393   3.440   6.672   4.562
 8816TIP3    H226394   3.477   6.808   4.508
 8817TIP3   OH226395   5.984   0.737   5.578
 8817TIP3    H126396   5.902   0.692   5.559
 8817TIP3    H226397   6.049   0.667   5.585
 8818TIP3   OH226398   0.162   7.120   4.862
 8818TIP3    H126399   0.103   7.099   4.935
 8818TIP3    H226400   0.126   7.071   4.788
 8819TIP3   OH226401   4.475   6.357   1.220
 8819TIP3    H126402   4.510   6.419   1.156
 8819TIP3    H226403   4.418   6.300   1.168
 8820TIP3   OH226404   6.402   0.448   1.800
 8820TIP3    H126405   6.310   0.434   1.820
 8820TIP3    H226406   6.423   0.532   1.840
 8821TIP3   OH226407   4.330   1.626   5.017
 8821TIP3    H126408   4.393   1.693   4.990
 8821TIP3    H226409   4.287   1.599   4.935
 8822TIP3   OH226410   1.848   5.172   0.055
 8822TIP3    H126411   1.787   5.148  -0.014
 8822TIP3    H226412   1.853   5.094   0.111
 8823TIP3   OH226413   5.931   4.305   2.662
 8823TIP3    H126414   5.921   4.397   2.687
 8823TIP3    H226415   5.851   4.285   2.614
 8824TIP3   OH226416   3.283   4.127   6.324
 8824TIP3    H126417   3.264   4.087   6.238
 8824TIP3    H226418   3.372   4.159   6.316
 8825TIP3   OH226419   6.309   4.858   3.789
 8825TIP3    H126420   6.308   4.942   3.743
 8825TIP3    H226421   6.271   4.796   3.726
 8826TIP3   OH226422   2.393   7.020   2.016
 8826TIP3    H126423   2.321   6.959   2.034
 8826TIP3    H226424   2.466   6.964   1.992
 8827TIP3   OH226425   1.367   3.529   1.093
 8827TIP3    H126426   1.384   3.623   1.092
 8827TIP3    H226427   1.418   3.494   1.020
 8828TIP3   OH226428   7.276   6.275   2.361
 8828TIP3    H126429   7.216   6.336   2.317
 8828TIP3    H226430   7.325   6.235   2.290
 8829TIP3   OH226431   3.117   6.644   1.353
 8829TIP3    H126432   3.032   6.667   1.315
 8829TIP3    H226433   3.108   6.553   1.380
 8830TIP3   OH226434   1.431   0.590   0.276
 8830TIP3    H126435   1.354   0.539   0.250
 8830TIP3    H226436   1.502   0.557   0.221
 8831TIP3   OH226437   6.081   4.209   4.970
 8831TIP3    H126438   6.097   4.269   4.897
 8831TIP3    H226439   6.050   4.128   4.929
 8832TIP3   OH226440   1.848   6.628   0.044
 8832TIP3    H126441   1.880   6.708   0.086
 8832TIP3    H226442   1.753   6.637   0.046
 8833TIP3   OH226443   3.596   5.711   1.567
 8833TIP3    H126444   3.510   5.719   1.608
 8833TIP3    H226445   3.584   5.745   1.479
 8834TIP3   OH226446   4.474   3.845   4.697
 8834TIP3    H126447   4.546   3.841   4.634
 8834TIP3    H226448   4.409   3.784   4.663
 8835TIP3   OH226449   5.917   2.311   5.356
 8835TIP3    H126450   5.921   2.402   5.386
 8835TIP3    H226451   5.902   2.317   5.262
 8836TIP3   OH226452   3.857   6.071   0.944
 8836TIP3    H126453   3.774   6.106   0.912
 8836TIP3    H226454   3.888   6.014   0.873
 8837TIP3   OH226455   5.369   5.841   0.916
 8837TIP3    H126456   5.289   5.891   0.900
 8837TIP3    H226457   5.386   5.852   1.010
 8838TIP3   OH226458   4.747   4.898   1.438
 8838TIP3    H126459   4.800   4.975   1.458
 8838TIP3    H226460   4.737   4.852   1.521
 8839TIP3   OH226461   7.184   0.487   2.927
 8839TIP3    H126462   7.237   0.558   2.962
 8839TIP3    H226463   7.204   0.486   2.833
 8840TIP3   OH226464   0.308   4.000   2.216
 8840TIP3    H126465   0.281   4.000   2.124
 8840TIP3    H226466   0.227   4.012   2.265
 8841TIP3   OH226467   4.186   7.341   3.057
 8841TIP3    H126468   4.242   7.366   2.984
 8841TIP3    H226469   4.185   7.418   3.114
 8842TIP3   OH226470   0.553   7.512   3.785
 8842TIP3    H126471   0.463   7.481   3.778
 8842TIP3    H226472   0.591   7.496   3.699
 8843TIP3   OH226473   6.007   7.403   1.436
 8843TIP3    H126474   6.050   7.465   1.496
 8843TIP3    H226475   5.963   7.459   1.372
 8844TIP3   OH226476   7.383   7.014   3.486
 8844TIP3    H126477   7.471   7.037   3.513
 8844TIP3    H226478   7.331   7.017   3.566
 8845TIP3   OH226479   4.965   4.252   1.766
 8845TIP3    H126480   5.037   4.314   1.776
 8845TIP3    H226481   4.916   4.259   1.848
 8846TIP3   OH226482   2.644   2.718   6.372
 8846TIP3    H126483   2.679   2.762   6.450
 8846TIP3    H226484   2.678   2.768   6.298
 8847TIP3   OH226485   2.240   5.803   5.688
 8847TIP3    H126486   2.201   5.753   5.617
 8847TIP3    H226487   2.166   5.828   5.744
 8848TIP3   OH226488   2.105   2.276   4.374
 8848TIP3    H126489   2.028   2.318   4.412
 8848TIP3    H226490   2.174   2.341   4.383
 8849TIP3   OH226491   4.272   6.511   2.758
 8849TIP3    H126492   4.196   6.483   2.706
 8849TIP3    H226493   4.300   6.433   2.804
 8850TIP3   OH226494   1.239   1.383   1.949
 8850TIP3    H126495   1.219   1.413   1.860
 8850TIP3    H226496   1.329   1.411   1.964
 8851TIP3   OH226497   6.495   6.778   1.886
 8851TIP3    H126498   6.479   6.794   1.793
 8851TIP3    H226499   6.586   6.748   1.889
 8852TIP3   OH226500   3.368   0.807   3.932
 8852TIP3    H126501   3.450   0.769   3.902
 8852TIP3    H226502   3.393   0.875   3.994
 8853TIP3   OH226503   1.127   5.569   3.980
 8853TIP3    H126504   1.222   5.560   3.982
 8853TIP3    H226505   1.111   5.645   3.924
 8854TIP3   OH226506   4.811   0.158   5.605
 8854TIP3    H126507   4.749   0.206   5.550
 8854TIP3    H226508   4.781   0.175   5.695
 8855TIP3   OH226509   7.743   2.920   3.780
 8855TIP3    H126510   7.661   2.943   3.735
 8855TIP3    H226511   7.714   2.892   3.867
 8856TIP3   OH226512   4.427   6.892   4.335
 8856TIP3    H126513   4.404   6.890   4.242
 8856TIP3    H226514   4.399   6.806   4.368
 8857TIP3   OH226515   3.649   2.896   5.429
 8857TIP3    H126516   3.583   2.929   5.367
 8857TIP3    H226517   3.639   2.801   5.426
 8858TIP3   OH226518   1.529   2.467   3.116
 8858TIP3    H126519   1.587   2.397   3.147
 8858TIP3    H226520   1.448   2.422   3.093
 8859TIP3   OH226521   4.228   2.768   6.110
 8859TIP3    H126522   4.233   2.855   6.070
 8859TIP3    H226523   4.177   2.716   6.048
 8860TIP3   OH226524   0.915   3.013   4.815
 8860TIP3    H126525   0.935   2.921   4.829
 8860TIP3    H226526   0.969   3.060   4.880
 8861TIP3   OH226527   8.253   2.163   5.904
 8861TIP3    H126528   8.199   2.164   5.982
 8861TIP3    H226529   8.315   2.235   5.916
 8862TIP3   OH226530   6.018   2.875   4.254
 8862TIP3    H126531   5.931   2.905   4.281
 8862TIP3    H226532   6.034   2.918   4.170
 8863TIP3   OH226533   3.959   6.276   1.584
 8863TIP3    H126534   3.926   6.365   1.591
 8863TIP3    H226535   4.041   6.284   1.536
 8864TIP3   OH226536   7.740   0.445   0.849
 8864TIP3    H126537   7.828   0.416   0.827
 8864TIP3    H226538   7.752   0.514   0.914
 8865TIP3   OH226539   7.509   5.867   6.329
 8865TIP3    H126540   7.549   5.808   6.265
 8865TIP3    H226541   7.504   5.951   6.285
 8866TIP3   OH226542   0.943   0.873   5.029
 8866TIP3    H126543   1.014   0.810   5.038
 8866TIP3    H226544   0.983   0.958   5.045
 8867TIP3   OH226545   1.837   6.364   2.891
 8867TIP3    H126546   1.832   6.347   2.796
 8867TIP3    H226547   1.795   6.287   2.930
 8868TIP3   OH226548   0.257   3.742   0.647
 8868TIP3    H126549   0.278   3.673   0.584
 8868TIP3    H226550   0.328   3.806   0.637
 8869TIP3   OH226551   2.104   2.541   1.597
 8869TIP3    H126552   2.071   2.596   1.526
 8869TIP3    H226553   2.100   2.452   1.563
 8870TIP3   OH226554   0.130   3.499   6.128
 8870TIP3    H126555   0.155   3.589   6.147
 8870TIP3    H226556   0.074   3.505   6.051
 8871TIP3   OH226557   3.265   4.348   4.729
 8871TIP3    H126558   3.259   4.385   4.641
 8871TIP3    H226559   3.308   4.263   4.716
 8872TIP3   OH226560   0.628   2.389   2.848
 8872TIP3    H126561   0.619   2.436   2.931
 8872TIP3    H226562   0.572   2.435   2.787
 8873TIP3   OH226563   8.218   2.418   1.270
 8873TIP3    H126564   8.304   2.377   1.274
 8873TIP3    H226565   8.158   2.347   1.248
 8874TIP3   OH226566   0.651   3.046   1.807
 8874TIP3    H126567   0.659   3.125   1.754
 8874TIP3    H226568   0.601   3.074   1.884
 8875TIP3   OH226569   5.431   3.072   1.009
 8875TIP3    H126570   5.433   2.978   0.994
 8875TIP3    H226571   5.458   3.082   1.100
 8876TIP3   OH226572   2.434   4.308   5.820
 8876TIP3    H126573   2.342   4.294   5.841
 8876TIP3    H226574   2.455   4.394   5.855
 8877TIP3   OH226575   8.247   4.869   3.525
 8877TIP3    H126576   8.162   4.888   3.565
 8877TIP3    H226577   8.233   4.785   3.481
 8878TIP3   OH226578   2.257   7.740   4.319
 8878TIP3    H126579   2.314   7.663   4.323
 8878TIP3    H226580   2.318   7.814   4.314
 8879TIP3   OH226581   7.736   7.163   2.914
 8879TIP3    H126582   7.752   7.225   2.985
 8879TIP3    H226583   7.765   7.078   2.949
 8880TIP3   OH226584   0.605   6.749   0.488
 8880TIP3    H126585   0.513   6.723   0.497
 8880TIP3    H226586   0.623   6.802   0.565
 8881TIP3   OH226587   6.578   2.587   3.735
 8881TIP3    H126588   6.631   2.601   3.656
 8881TIP3    H226589   6.552   2.495   3.730
 8882TIP3   OH226590   8.295   2.764   5.907
 8882TIP3    H126591   8.303   2.847   5.860
 8882TIP3    H226592   8.204   2.739   5.896
 8883TIP3   OH226593   3.073   5.497   1.055
 8883TIP3    H126594   3.097   5.441   1.129
 8883TIP3    H226595   3.051   5.581   1.095
 8884TIP3   OH226596   1.391   1.032   5.035
 8884TIP3    H126597   1.416   0.962   5.095
 8884TIP3    H226598   1.408   0.996   4.948
 8885TIP3   OH226599   3.893   6.164   1.866
 8885TIP3    H126600   3.897   6.082   1.816
 8885TIP3    H226601   3.837   6.221   1.815
 8886TIP3   OH226602   6.249   2.650   6.183
 8886TIP3    H126603   6.222   2.742   6.176
 8886TIP3    H226604   6.324   2.643   6.124
 8887TIP3   OH226605   7.876   1.280   3.910
 8887TIP3    H126606   7.917   1.332   3.841
 8887TIP3    H226607   7.787   1.263   3.878
 8888TIP3   OH226608   5.865   0.695   0.155
 8888TIP3    H126609   5.842   0.773   0.205
 8888TIP3    H226610   5.785   0.673   0.107
 8889TIP3   OH226611   5.158   4.938   5.426
 8889TIP3    H126612   5.225   4.881   5.462
 8889TIP3    H226613   5.193   5.027   5.437
 8890TIP3   OH226614   1.108   7.243   2.899
 8890TIP3    H126615   1.056   7.233   2.819
 8890TIP3    H226616   1.149   7.157   2.912
 8891TIP3   OH226617   3.033   0.987   3.732
 8891TIP3    H126618   3.055   0.962   3.822
 8891TIP3    H226619   2.958   0.931   3.710
 8892TIP3   OH226620   3.849   1.639   1.729
 8892TIP3    H126621   3.931   1.679   1.759
 8892TIP3    H226622   3.876   1.555   1.692
 8893TIP3   OH226623   5.519   3.070   3.973
 8893TIP3    H126624   5.543   3.068   3.880
 8893TIP3    H226625   5.529   3.162   3.998
 8894TIP3   OH226626   7.215   0.592   6.611
 8894TIP3    H126627   7.190   0.569   6.701
 8894TIP3    H226628   7.141   0.641   6.577
 8895TIP3   OH226629   7.488   2.570   0.497
 8895TIP3    H126630   7.471   2.574   0.403
 8895TIP3    H226631   7.401   2.562   0.537
 8896TIP3   OH226632   2.001   6.744   1.494
 8896TIP3    H126633   2.088   6.770   1.527
 8896TIP3    H226634   1.978   6.811   1.430
 8897TIP3   OH226635   8.075   3.229   5.711
 8897TIP3    H126636   8.048   3.298   5.649
 8897TIP3    H226637   8.036   3.255   5.794
 8898TIP3   OH226638   0.152   7.677   0.530
 8898TIP3    H126639   0.090   7.612   0.563
 8898TIP3    H226640   0.227   7.672   0.589
 8899TIP3   OH226641   8.213   1.423   0.812
 8899TIP3    H126642   8.168   1.507   0.822
 8899TIP3    H226643   8.149   1.358   0.841
 8900TIP3   OH226644   5.718   0.748   4.699
 8900TIP3    H126645   5.756   0.785   4.619
 8900TIP3    H226646   5.776   0.779   4.769
 8901TIP3   OH226647   2.184   7.237   6.569
 8901TIP3    H126648   2.125   7.311   6.554
 8901TIP3    H226649   2.182   7.187   6.487
 8902TIP3   OH226650   2.080   4.127   5.105
 8902TIP3    H126651   2.023   4.197   5.072
 8902TIP3    H226652   2.091   4.068   5.031
 8903TIP3   OH226653   2.175   3.384   2.901
 8903TIP3    H126654   2.206   3.375   2.991
 8903TIP3    H226655   2.083   3.407   2.909
 8904TIP3   OH226656   1.184   3.890   0.665
 8904TIP3    H126657   1.112   3.932   0.616
 8904TIP3    H226658   1.246   3.961   0.681
 8905TIP3   OH226659   6.703   0.517   4.133
 8905TIP3    H126660   6.794   0.489   4.136
 8905TIP3    H226661   6.676   0.522   4.225
 8906TIP3   OH226662   3.677   6.547   5.591
 8906TIP3    H126663   3.671   6.629   5.642
 8906TIP3    H226664   3.586   6.523   5.574
 8907TIP3   OH226665   4.250   1.583   0.261
 8907TIP3    H126666   4.336   1.612   0.291
 8907TIP3    H226667   4.214   1.534   0.335
 8908TIP3   OH226668   4.461   5.742   0.972
 8908TIP3    H126669   4.402   5.792   0.915
 8908TIP3    H226670   4.402   5.689   1.027
 8909TIP3   OH226671   2.462   5.123   5.084
 8909TIP3    H126672   2.376   5.159   5.104
 8909TIP3    H226673   2.451   5.028   5.091
 8910TIP3   OH226674   8.056   2.335   2.754
 8910TIP3    H126675   8.051   2.375   2.667
 8910TIP3    H226676   7.967   2.340   2.788
 8911TIP3   OH226677   8.167   3.461   2.933
 8911TIP3    H126678   8.077   3.493   2.930
 8911TIP3    H226679   8.219   3.529   2.890
 8912TIP3   OH226680   0.284   5.420   6.509
 8912TIP3    H126681   0.311   5.358   6.442
 8912TIP3    H226682   0.281   5.369   6.590
 8913TIP3   OH226683   3.000   7.180   3.220
 8913TIP3    H126684   3.068   7.168   3.287
 8913TIP3    H226685   2.967   7.269   3.235
 8914TIP3   OH226686   2.043   5.966   0.738
 8914TIP3    H126687   1.960   6.012   0.721
 8914TIP3    H226688   2.104   6.035   0.762
 8915TIP3   OH226689   6.221   2.212   3.925
 8915TIP3    H126690   6.220   2.305   3.900
 8915TIP3    H226691   6.136   2.179   3.896
 8916TIP3   OH226692   1.307   3.177   2.108
 8916TIP3    H126693   1.375   3.119   2.074
 8916TIP3    H226694   1.355   3.245   2.156
 8917TIP3   OH226695   1.689   2.777   2.776
 8917TIP3    H126696   1.740   2.858   2.784
 8917TIP3    H226697   1.754   2.711   2.752
 8918TIP3   OH226698   4.642   0.244   0.950
 8918TIP3    H126699   4.581   0.171   0.940
 8918TIP3    H226700   4.694   0.242   0.870
 8919TIP3   OH226701   1.214   5.332   6.312
 8919TIP3    H126702   1.167   5.336   6.229
 8919TIP3    H226703   1.182   5.252   6.354
 8920TIP3   OH226704   2.563   6.808   5.373
 8920TIP3    H126705   2.485   6.765   5.408
 8920TIP3    H226706   2.636   6.769   5.421
 8921TIP3   OH226707   1.591   0.749   6.302
 8921TIP3    H126708   1.630   0.721   6.219
 8921TIP3    H226709   1.645   0.707   6.369
 8922TIP3   OH226710   4.602   2.220   2.965
 8922TIP3    H126711   4.628   2.153   3.028
 8922TIP3    H226712   4.569   2.171   2.890
 8923TIP3   OH226713   5.929   5.406   1.588
 8923TIP3    H126714   5.951   5.378   1.500
 8923TIP3    H226715   5.871   5.336   1.622
 8924TIP3   OH226716   2.825   1.428   5.439
 8924TIP3    H126717   2.731   1.445   5.441
 8924TIP3    H226718   2.865   1.513   5.420
 8925TIP3   OH226719   7.890   3.636   2.303
 8925TIP3    H126720   7.961   3.675   2.252
 8925TIP3    H226721   7.824   3.705   2.310
 8926TIP3   OH226722   2.215   2.784   3.681
 8926TIP3    H126723   2.174   2.698   3.686
 8926TIP3    H226724   2.300   2.772   3.724
 8927TIP3   OH226725   5.207   2.589   5.726
 8927TIP3    H126726   5.212   2.499   5.757
 8927TIP3    H226727   5.127   2.624   5.766
 8928TIP3   OH226728   7.347   4.700   1.280
 8928TIP3    H126729   7.341   4.793   1.257
 8928TIP3    H226730   7.372   4.657   1.199
 8929TIP3   OH226731   4.887   7.474   1.271
 8929TIP3    H126732   4.823   7.454   1.204
 8929TIP3    H226733   4.933   7.551   1.238
 8930TIP3   OH226734   4.498   3.936   0.180
 8930TIP3    H126735   4.423   3.904   0.131
 8930TIP3    H226736   4.465   4.013   0.227
 8931TIP3   OH226737   3.215   3.659   5.353
 8931TIP3    H126738   3.156   3.604   5.404
 8931TIP3    H226739   3.158   3.707   5.293
 8932TIP3   OH226740   4.303   1.927   5.914
 8932TIP3    H126741   4.324   1.874   5.991
 8932TIP3    H226742   4.386   1.969   5.891
 8933TIP3   OH226743   4.602   4.670   4.844
 8933TIP3    H126744   4.645   4.587   4.824
 8933TIP3    H226745   4.541   4.648   4.915
 8934TIP3   OH226746   1.787   1.965   5.906
 8934TIP3    H126747   1.721   1.982   5.839
 8934TIP3    H226748   1.807   2.052   5.942
 8935TIP3   OH226749   0.269   3.449   4.576
 8935TIP3    H126750   0.292   3.414   4.490
 8935TIP3    H226751   0.173   3.446   4.579
 8936TIP3   OH226752   4.115   4.369   1.859
 8936TIP3    H126753   4.039   4.337   1.907
 8936TIP3    H226754   4.171   4.292   1.850
 8937TIP3   OH226755   7.976   0.450   1.842
 8937TIP3    H126756   7.899   0.428   1.895
 8937TIP3    H226757   7.972   0.390   1.768
 8938TIP3   OH226758   0.114   7.280   3.351
 8938TIP3    H126759   0.098   7.217   3.281
 8938TIP3    H226760   0.049   7.349   3.337
 8939TIP3   OH226761   6.190   4.648   4.539
 8939TIP3    H126762   6.258   4.653   4.472
 8939TIP3    H226763   6.189   4.735   4.579
 8940TIP3   OH226764   0.760   3.741   3.876
 8940TIP3    H126765   0.714   3.686   3.939
 8940TIP3    H226766   0.763   3.827   3.917
 8941TIP3   OH226767   7.659   2.404   5.923
 8941TIP3    H126768   7.742   2.365   5.898
 8941TIP3    H226769   7.682   2.469   5.989
 8942TIP3   OH226770   4.571   2.961   0.686
 8942TIP3    H126771   4.565   3.044   0.733
 8942TIP3    H226772   4.525   2.898   0.741
 8943TIP3   OH226773   2.619   6.739   2.369
 8943TIP3    H126774   2.648   6.648   2.365
 8943TIP3    H226775   2.525   6.733   2.386
 8944TIP3   OH226776   7.221   1.564   5.492
 8944TIP3    H126777   7.285   1.498   5.467
 8944TIP3    H226778   7.140   1.536   5.450
 8945TIP3   OH226779   4.249   2.003   4.713
 8945TIP3    H126780   4.205   1.943   4.653
 8945TIP3    H226781   4.332   2.023   4.670
 8946TIP3   OH226782   3.465   1.156   1.772
 8946TIP3    H126783   3.452   1.073   1.726
 8946TIP3    H226784   3.550   1.147   1.815
 8947TIP3   OH226785   2.536   3.839   3.024
 8947TIP3    H126786   2.542   3.746   3.045
 8947TIP3    H226787   2.470   3.844   2.955
 8948TIP3   OH226788   7.008   5.185   2.705
 8948TIP3    H126789   6.925   5.232   2.712
 8948TIP3    H226790   7.066   5.230   2.767
 8949TIP3   OH226791   2.046   5.081   4.323
 8949TIP3    H126792   1.955   5.055   4.313
 8949TIP3    H226793   2.066   5.130   4.243
 8950TIP3   OH226794   5.815   1.471   0.022
 8950TIP3    H126795   5.826   1.565   0.033
 8950TIP3    H226796   5.895   1.434   0.060
 8951TIP3   OH226797   7.660   7.025   2.439
 8951TIP3    H126798   7.687   6.936   2.419
 8951TIP3    H226799   7.733   7.062   2.489
 8952TIP3   OH226800   2.057   1.368   2.652
 8952TIP3    H126801   2.102   1.284   2.643
 8952TIP3    H226802   2.105   1.427   2.595
 8953TIP3   OH226803   3.827   3.129   3.855
 8953TIP3    H126804   3.846   3.036   3.865
 8953TIP3    H226805   3.895   3.173   3.906
 8954TIP3   OH226806   1.655   1.993   0.581
 8954TIP3    H126807   1.613   2.047   0.647
 8954TIP3    H226808   1.585   1.970   0.520
 8955TIP3   OH226809   0.451   1.117   5.810
 8955TIP3    H126810   0.422   1.026   5.822
 8955TIP3    H226811   0.416   1.163   5.886
 8956TIP3   OH226812   3.129   7.847   3.773
 8956TIP3    H126813   3.191   7.907   3.733
 8956TIP3    H226814   3.137   7.863   3.867
 8957TIP3   OH226815   1.872   6.998   4.284
 8957TIP3    H126816   1.943   6.972   4.342
 8957TIP3    H226817   1.887   7.091   4.268
 8958TIP3   OH226818   4.214   7.249   4.087
 8958TIP3    H126819   4.244   7.222   4.174
 8958TIP3    H226820   4.158   7.176   4.058
 8959TIP3   OH226821   3.657   5.362   3.781
 8959TIP3    H126822   3.747   5.328   3.782
 8959TIP3    H226823   3.610   5.306   3.843
 8960TIP3   OH226824   1.774   4.852   4.706
 8960TIP3    H126825   1.799   4.811   4.624
 8960TIP3    H226826   1.686   4.887   4.690
 8961TIP3   OH226827   1.881   1.807   4.881
 8961TIP3    H126828   1.802   1.792   4.933
 8961TIP3    H226829   1.853   1.867   4.812
 8962TIP3   OH226830   2.668   1.154   0.907
 8962TIP3    H126831   2.676   1.122   0.996
 8962TIP3    H226832   2.588   1.114   0.873
 8963TIP3   OH226833   4.613   0.240   6.318
 8963TIP3    H126834   4.607   0.264   6.410
 8963TIP3    H226835   4.545   0.174   6.305
 8964TIP3   OH226836   0.531   2.453   1.540
 8964TIP3    H126837   0.582   2.442   1.460
 8964TIP3    H226838   0.547   2.374   1.591
 8965TIP3   OH226839   4.602   2.720   3.836
 8965TIP3    H126840   4.690   2.701   3.806
 8965TIP3    H226841   4.559   2.761   3.761
 8966TIP3   OH226842   2.399   3.478   4.375
 8966TIP3    H126843   2.449   3.538   4.320
 8966TIP3    H226844   2.323   3.528   4.404
 8967TIP3   OH226845   6.162   7.125   6.337
 8967TIP3    H126846   6.083   7.097   6.383
 8967TIP3    H226847   6.227   7.058   6.357
 8968TIP3   OH226848   8.194   0.585   1.733
 8968TIP3    H126849   8.279   0.572   1.774
 8968TIP3    H226850   8.137   0.521   1.776
 8969TIP3   OH226851   4.041   4.947   3.863
 8969TIP3    H126852   4.094   4.939   3.783
 8969TIP3    H226853   3.965   4.892   3.846
 8970TIP3   OH226854   3.847   1.545   3.649
 8970TIP3    H126855   3.770   1.598   3.629
 8970TIP3    H226856   3.819   1.489   3.722
 8971TIP3   OH226857   6.467   4.423   3.069
 8971TIP3    H126858   6.539   4.458   3.120
 8971TIP3    H226859   6.393   4.420   3.130
 8972TIP3   OH226860   4.568   3.895   2.290
 8972TIP3    H126861   4.499   3.847   2.335
 8972TIP3    H226862   4.645   3.839   2.299
 8973TIP3   OH226863   0.343   4.624   3.601
 8973TIP3    H126864   0.399   4.553   3.631
 8973TIP3    H226865   0.259   4.609   3.644
 8974TIP3   OH226866   5.044   3.565   3.079
 8974TIP3    H126867   4.952   3.590   3.092
 8974TIP3    H226868   5.052   3.481   3.123
 8975TIP3   OH226869   0.603   5.256   2.275
 8975TIP3    H126870   0.690   5.235   2.308
 8975TIP3    H226871   0.587   5.346   2.305
 8976TIP3   OH226872   0.448   0.200   5.116
 8976TIP3    H126873   0.488   0.129   5.167
 8976TIP3    H226874   0.462   0.278   5.169
 8977TIP3   OH226875   4.353   1.461   1.110
 8977TIP3    H126876   4.341   1.378   1.156
 8977TIP3    H226877   4.402   1.438   1.032
 8978TIP3   OH226878   6.395   3.828   3.446
 8978TIP3    H126879   6.318   3.786   3.483
 8978TIP3    H226880   6.395   3.917   3.482
 8979TIP3   OH226881   3.744   3.210   5.402
 8979TIP3    H126882   3.720   3.302   5.413
 8979TIP3    H226883   3.698   3.165   5.473
 8980TIP3   OH226884   7.442   2.045   1.563
 8980TIP3    H126885   7.390   2.085   1.493
 8980TIP3    H226886   7.383   2.039   1.637
 8981TIP3   OH226887   0.549   4.706   4.477
 8981TIP3    H126888   0.524   4.615   4.493
 8981TIP3    H226889   0.494   4.734   4.403
 8982TIP3   OH226890   6.336   2.518   5.232
 8982TIP3    H126891   6.292   2.577   5.171
 8982TIP3    H226892   6.278   2.442   5.238
 8983TIP3   OH226893   1.957   5.296   4.530
 8983TIP3    H126894   1.977   5.211   4.569
 8983TIP3    H226895   2.037   5.348   4.543
 8984TIP3   OH226896   3.817   1.747   1.405
 8984TIP3    H126897   3.770   1.764   1.324
 8984TIP3    H226898   3.812   1.830   1.453
 8985TIP3   OH226899   1.948   3.270   6.630
 8985TIP3    H126900   1.925   3.336   6.565
 8985TIP3    H226901   1.900   3.296   6.708
 8986TIP3   OH226902   3.525   3.790   4.587
 8986TIP3    H126903   3.511   3.707   4.630
 8986TIP3    H226904   3.467   3.788   4.510
 8987TIP3   OH226905   0.327   0.191   1.133
 8987TIP3    H126906   0.362   0.173   1.046
 8987TIP3    H226907   0.321   0.286   1.138
 8988TIP3   OH226908   7.477   2.121   0.379
 8988TIP3    H126909   7.473   2.027   0.364
 8988TIP3    H226910   7.386   2.150   0.375
 8989TIP3   OH226911   0.920   0.955   0.680
 8989TIP3    H126912   0.850   0.911   0.632
 8989TIP3    H226913   0.992   0.892   0.680
 8990TIP3   OH226914   7.027   1.958   0.512
 8990TIP3    H126915   6.956   1.927   0.455
 8990TIP3    H226916   7.090   1.886   0.514
 8991TIP3   OH226917   7.498   5.243   3.150
 8991TIP3    H126918   7.445   5.233   3.071
 8991TIP3    H226919   7.508   5.338   3.161
 8992TIP3   OH226920   5.344   6.311   6.264
 8992TIP3    H126921   5.355   6.375   6.334
 8992TIP3    H226922   5.261   6.335   6.222
 8993TIP3   OH226923   6.178   3.015   3.329
 8993TIP3    H126924   6.210   2.942   3.382
 8993TIP3    H226925   6.212   3.093   3.373
 8994TIP3   OH226926   2.997   1.688   4.205
 8994TIP3    H126927   3.045   1.607   4.188
 8994TIP3    H226928   3.026   1.715   4.292
 8995TIP3   OH226929   6.851   3.151   6.260
 8995TIP3    H126930   6.940   3.166   6.290
 8995TIP3    H226931   6.801   3.135   6.340
 8996TIP3   OH226932   6.607   0.672   2.846
 8996TIP3    H126933   6.694   0.711   2.852
 8996TIP3    H226934   6.575   0.696   2.759
 8997TIP3   OH226935   6.393   5.084   3.675
 8997TIP3    H126936   6.365   5.095   3.584
 8997TIP3    H226937   6.479   5.124   3.678
 8998TIP3   OH226938   3.600   5.576   3.608
 8998TIP3    H126939   3.555   5.643   3.661
 8998TIP3    H226940   3.610   5.502   3.668
 8999TIP3   OH226941   1.980   4.826   4.003
 8999TIP3    H126942   1.975   4.752   3.942
 8999TIP3    H226943   1.903   4.817   4.058
 9000TIP3   OH226944   5.128   1.611   2.132
 9000TIP3    H126945   5.198   1.583   2.192
 9000TIP3    H226946   5.061   1.648   2.190
 9001TIP3   OH226947   0.071   4.772   3.133
 9001TIP3    H126948   0.085   4.856   3.089
 9001TIP3    H226949   0.135   4.772   3.205
 9002TIP3   OH226950   2.820   5.267   3.224
 9002TIP3    H126951   2.791   5.321   3.297
 9002TIP3    H226952   2.859   5.190   3.265
 9003TIP3   OH226953   4.503   7.564   3.745
 9003TIP3    H126954   4.569   7.632   3.732
 9003TIP3    H226955   4.423   7.611   3.767
 9004TIP3   OH226956   1.193   2.854   2.512
 9004TIP3    H126957   1.159   2.915   2.577
 9004TIP3    H226958   1.279   2.828   2.546
 9005TIP3   OH226959   8.327   6.170   6.765
 9005TIP3    H126960   8.284   6.146   6.683
 9005TIP3    H226961   8.257   6.204   6.821
 9006TIP3   OH226962   2.140   4.305   1.050
 9006TIP3    H126963   2.080   4.230   1.049
 9006TIP3    H226964   2.214   4.277   0.995
 9007TIP3   OH226965   5.698   6.697   3.140
 9007TIP3    H126966   5.752   6.766   3.179
 9007TIP3    H226967   5.757   6.650   3.082
 9008TIP3   OH226968   2.542   4.627   4.329
 9008TIP3    H126969   2.463   4.574   4.316
 9008TIP3    H226970   2.613   4.570   4.300
 9009TIP3   OH226971   5.411   7.124   2.766
 9009TIP3    H126972   5.373   7.103   2.680
 9009TIP3    H226973   5.505   7.121   2.752
 9010TIP3   OH226974   8.264   5.743   5.330
 9010TIP3    H126975   8.229   5.716   5.246
 9010TIP3    H226976   8.333   5.805   5.309
 9011TIP3   OH226977   1.359   3.688   4.356
 9011TIP3    H126978   1.284   3.643   4.395
 9011TIP3    H226979   1.377   3.640   4.275
 9012TIP3   OH226980   6.026   4.695   2.249
 9012TIP3    H126981   5.946   4.659   2.209
 9012TIP3    H226982   6.097   4.662   2.193
 9013TIP3   OH226983   2.086   7.262   3.963
 9013TIP3    H126984   2.029   7.338   3.969
 9013TIP3    H226985   2.144   7.270   4.039
 9014TIP3   OH226986   2.813   2.331   0.156
 9014TIP3    H126987   2.789   2.420   0.131
 9014TIP3    H226988   2.890   2.342   0.212
 9015TIP3   OH226989   2.363   3.937   3.612
 9015TIP3    H126990   2.317   3.901   3.688
 9015TIP3    H226991   2.376   3.862   3.554
 9016TIP3   OH226992   3.067   7.703   4.308
 9016TIP3    H126993   3.095   7.721   4.397
 9016TIP3    H226994   3.042   7.610   4.309
 9017TIP3   OH226995   5.898   3.441   5.038
 9017TIP3    H126996   5.928   3.363   5.083
 9017TIP3    H226997   5.856   3.494   5.106
 9018TIP3   OH226998   7.746   3.941   2.005
 9018TIP3    H126999   7.817   3.921   1.943
 9018TIP3    H227000   7.788   3.936   2.091
 9019TIP3   OH227001   5.892   2.090   4.544
 9019TIP3    H127002   5.908   2.185   4.551
 9019TIP3    H227003   5.966   2.050   4.589
 9020TIP3   OH227004   7.599   5.400   0.465
 9020TIP3    H127005   7.655   5.323   0.474
 9020TIP3    H227006   7.578   5.425   0.556
 9021TIP3   OH227007   4.224   7.295   6.431
 9021TIP3    H127008   4.277   7.294   6.352
 9021TIP3    H227009   4.240   7.210   6.472
 9022TIP3   OH227010   1.287   7.385   3.931
 9022TIP3    H127011   1.211   7.344   3.973
 9022TIP3    H227012   1.360   7.366   3.990
 9023TIP3   OH227013   2.071   0.298   4.477
 9023TIP3    H127014   2.117   0.257   4.550
 9023TIP3    H227015   2.005   0.233   4.451
 9024TIP3   OH227016   5.155   1.824   3.457
 9024TIP3    H127017   5.105   1.905   3.458
 9024TIP3    H227018   5.189   1.817   3.368
 9025TIP3   OH227019   4.458   5.883   3.676
 9025TIP3    H127020   4.495   5.849   3.758
 9025TIP3    H227021   4.389   5.821   3.653
 9026TIP3   OH227022   4.213   3.657   1.720
 9026TIP3    H127023   4.121   3.659   1.694
 9026TIP3    H227024   4.214   3.701   1.805
 9027TIP3   OH227025   6.215   5.194   2.241
 9027TIP3    H127026   6.197   5.122   2.301
 9027TIP3    H227027   6.174   5.270   2.283
 9028TIP3   OH227028   0.019   2.778   5.349
 9028TIP3    H127029   0.071   2.818   5.418
 9028TIP3    H227030   0.068   2.795   5.269
 9029TIP3   OH227031   6.865   2.211   5.756
 9029TIP3    H127032   6.796   2.204   5.821
 9029TIP3    H227033   6.854   2.134   5.700
 9030TIP3   OH227034   1.061   3.484   0.939
 9030TIP3    H127035   1.141   3.435   0.922
 9030TIP3    H227036   1.076   3.570   0.900
 9031TIP3   OH227037   6.770   6.109   2.498
 9031TIP3    H127038   6.863   6.120   2.514
 9031TIP3    H227039   6.737   6.063   2.575
 9032TIP3   OH227040   7.089   2.176   0.910
 9032TIP3    H127041   7.048   2.256   0.942
 9032TIP3    H227042   7.110   2.194   0.819
 9033TIP3   OH227043   0.108   6.430   5.989
 9033TIP3    H127044   0.134   6.503   5.932
 9033TIP3    H227045   0.014   6.423   5.976
 9034TIP3   OH227046   6.227   2.565   3.383
 9034TIP3    H127047   6.246   2.509   3.459
 9034TIP3    H227048   6.152   2.524   3.341
 9035TIP3   OH227049   2.920   5.864   2.557
 9035TIP3    H127050   2.917   5.877   2.462
 9035TIP3    H227051   2.867   5.786   2.572
 9036TIP3   OH227052   0.779   6.938   2.737
 9036TIP3    H127053   0.697   6.986   2.751
 9036TIP3    H227054   0.751   6.848   2.719
 9037TIP3   OH227055   1.954   3.500   5.448
 9037TIP3    H127056   1.909   3.584   5.442
 9037TIP3    H227057   1.890   3.436   5.415
 9038TIP3   OH227058   7.883   2.320   3.276
 9038TIP3    H127059   7.935   2.324   3.356
 9038TIP3    H227060   7.927   2.379   3.215
 9039TIP3   OH227061   3.352   0.298   3.087
 9039TIP3    H127062   3.433   0.349   3.093
 9039TIP3    H227063   3.366   0.240   3.012
 9040TIP3   OH227064   5.909   0.144   1.254
 9040TIP3    H127065   5.959   0.224   1.272
 9040TIP3    H227066   5.858   0.130   1.334
 9041TIP3   OH227067   3.968   5.579   1.217
 9041TIP3    H127068   3.965   5.601   1.310
 9041TIP3    H227069   3.894   5.627   1.179
 9042TIP3   OH227070   1.177   4.990   0.715
 9042TIP3    H127071   1.247   5.014   0.776
 9042TIP3    H227072   1.216   4.923   0.659
 9043TIP3   OH227073   7.950   1.562   5.589
 9043TIP3    H127074   8.018   1.499   5.614
 9043TIP3    H227075   7.908   1.523   5.512
 9044TIP3   OH227076   5.049   3.774   2.478
 9044TIP3    H127077   5.005   3.709   2.423
 9044TIP3    H227078   5.047   3.735   2.566
 9045TIP3   OH227079   2.249   6.146   3.080
 9045TIP3    H127080   2.287   6.158   2.993
 9045TIP3    H227081   2.313   6.186   3.139
 9046TIP3   OH227082   5.769   0.966   6.472
 9046TIP3    H127083   5.737   0.943   6.385
 9046TIP3    H227084   5.736   1.055   6.486
 9047TIP3   OH227085   5.004   1.645   5.761
 9047TIP3    H127086   5.084   1.695   5.745
 9047TIP3    H227087   4.973   1.619   5.674
 9048TIP3   OH227088   1.744   3.851   1.907
 9048TIP3    H127089   1.825   3.881   1.865
 9048TIP3    H227090   1.770   3.772   1.954
 9049TIP3   OH227091   8.155   1.896   6.469
 9049TIP3    H127092   8.242   1.866   6.444
 9049TIP3    H227093   8.101   1.817   6.469
 9050TIP3   OH227094   7.490   2.287   6.126
 9050TIP3    H127095   7.397   2.284   6.102
 9050TIP3    H227096   7.532   2.338   6.057
 9051TIP3   OH227097   7.636   1.566   1.299
 9051TIP3    H127098   7.703   1.538   1.236
 9051TIP3    H227099   7.673   1.545   1.384
 9052TIP3   OH227100   0.089   0.224   0.671
 9052TIP3    H127101   0.000   0.192   0.658
 9052TIP3    H227102   0.109   0.273   0.592
 9053TIP3   OH227103   2.636   6.306   4.015
 9053TIP3    H127104   2.715   6.361   4.013
 9053TIP3    H227105   2.565   6.365   3.992
 9054TIP3   OH227106   5.574   1.685   0.037
 9054TIP3    H127107   5.541   1.774   0.042
 9054TIP3    H227108   5.560   1.660  -0.055
 9055TIP3   OH227109   4.766   0.808   0.571
 9055TIP3    H127110   4.716   0.833   0.493
 9055TIP3    H227111   4.781   0.891   0.616
 9056TIP3   OH227112   2.804   2.046   3.447
 9056TIP3    H127113   2.894   2.015   3.435
 9056TIP3    H227114   2.783   2.093   3.366
 9057TIP3   OH227115   8.303   5.006   5.609
 9057TIP3    H127116   8.249   5.069   5.561
 9057TIP3    H227117   8.316   4.934   5.547
 9058TIP3   OH227118   3.727   3.923   0.375
 9058TIP3    H127119   3.671   4.000   0.389
 9058TIP3    H227120   3.680   3.851   0.417
 9059TIP3   OH227121   6.583   6.417   2.348
 9059TIP3    H127122   6.575   6.400   2.441
 9059TIP3    H227123   6.496   6.446   2.321
 9060TIP3   OH227124   1.253   5.690   5.273
 9060TIP3    H127125   1.181   5.659   5.217
 9060TIP3    H227126   1.219   5.681   5.362
 9061TIP3   OH227127   7.365   5.921   6.702
 9061TIP3    H127128   7.461   5.922   6.703
 9061TIP3    H227129   7.341   5.971   6.624
 9062TIP3   OH227130   2.448   6.402   0.994
 9062TIP3    H127131   2.529   6.426   1.039
 9062TIP3    H227132   2.416   6.325   1.041
 9063TIP3   OH227133   6.916   3.396   0.893
 9063TIP3    H127134   6.913   3.465   0.827
 9063TIP3    H227135   6.827   3.394   0.930
 9064TIP3   OH227136   4.945   5.316   2.606
 9064TIP3    H127137   4.959   5.385   2.670
 9064TIP3    H227138   5.033   5.284   2.585
 9065TIP3   OH227139   2.577   2.385   0.728
 9065TIP3    H127140   2.623   2.388   0.644
 9065TIP3    H227141   2.647   2.375   0.793
 9066TIP3   OH227142   2.354   4.930   5.651
 9066TIP3    H127143   2.439   4.945   5.691
 9066TIP3    H227144   2.338   4.836   5.661
 9067TIP3   OH227145   5.694   0.341   3.163
 9067TIP3    H127146   5.700   0.370   3.254
 9067TIP3    H227147   5.780   0.360   3.126
 9068TIP3   OH227148   3.012   1.086   0.024
 9068TIP3    H127149   3.063   1.121   0.097
 9068TIP3    H227150   3.063   1.012  -0.008
 9069TIP3   OH227151   7.469   6.379   0.715
 9069TIP3    H127152   7.522   6.314   0.667
 9069TIP3    H227153   7.483   6.357   0.807
 9070TIP3   OH227154   4.557   3.334   3.802
 9070TIP3    H127155   4.640   3.312   3.761
 9070TIP3    H227156   4.524   3.252   3.837
 9071TIP3   OH227157   6.341   0.923   5.449
 9071TIP3    H127158   6.318   0.960   5.364
 9071TIP3    H227159   6.392   0.845   5.428
 9072TIP3   OH227160   1.473   4.400   1.919
 9072TIP3    H127161   1.508   4.315   1.892
 9072TIP3    H227162   1.503   4.411   2.009
 9073TIP3   OH227163   3.643   4.953   1.503
 9073TIP3    H127164   3.643   4.972   1.409
 9073TIP3    H227165   3.694   5.025   1.541
 9074TIP3   OH227166   0.259   1.842   1.371
 9074TIP3    H127167   0.230   1.752   1.359
 9074TIP3    H227168   0.354   1.839   1.357
 9075TIP3   OH227169   0.678   2.657   5.870
 9075TIP3    H127170   0.635   2.572   5.872
 9075TIP3    H227171   0.680   2.682   5.778
 9076TIP3   OH227172   1.869   0.094   6.078
 9076TIP3    H127173   1.842   0.166   6.135
 9076TIP3    H227174   1.846   0.123   5.990
 9077TIP3   OH227175   5.321   5.877   4.228
 9077TIP3    H127176   5.300   5.843   4.140
 9077TIP3    H227177   5.415   5.892   4.226
 9078TIP3   OH227178   4.738   4.857   5.623
 9078TIP3    H127179   4.728   4.815   5.538
 9078TIP3    H227180   4.829   4.888   5.624
 9079TIP3   OH227181   6.269   6.175   1.613
 9079TIP3    H127182   6.231   6.263   1.614
 9079TIP3    H227183   6.256   6.144   1.703
 9080TIP3   OH227184   6.294   7.026   0.063
 9080TIP3    H127185   6.214   7.037   0.115
 9080TIP3    H227186   6.345   6.961   0.112
 9081TIP3   OH227187   2.964   3.866   6.308
 9081TIP3    H127188   3.024   3.792   6.295
 9081TIP3    H227189   2.883   3.826   6.338
 9082TIP3   OH227190   7.075   3.534   4.334
 9082TIP3    H127191   7.000   3.474   4.329
 9082TIP3    H227192   7.068   3.573   4.421
 9083TIP3   OH227193   5.980   1.938   4.173
 9083TIP3    H127194   5.964   1.892   4.090
 9083TIP3    H227195   6.039   1.881   4.222
 9084TIP3   OH227196   2.871   1.947   1.073
 9084TIP3    H127197   2.922   1.913   1.146
 9084TIP3    H227198   2.814   2.014   1.112
 9085TIP3   OH227199   3.495   2.272   2.434
 9085TIP3    H127200   3.530   2.215   2.365
 9085TIP3    H227201   3.573   2.300   2.483
 9086TIP3   OH227202   6.133   7.286   5.591
 9086TIP3    H127203   6.128   7.313   5.683
 9086TIP3    H227204   6.078   7.349   5.544
 9087TIP3   OH227205   3.618   1.603   3.380
 9087TIP3    H127206   3.575   1.622   3.463
 9087TIP3    H227207   3.664   1.520   3.395
 9088TIP3   OH227208   4.102   6.779   2.804
 9088TIP3    H127209   4.064   6.782   2.716
 9088TIP3    H227210   4.113   6.686   2.823
 9089TIP3   OH227211   6.542   4.231   5.273
 9089TIP3    H127212   6.461   4.266   5.236
 9089TIP3    H227213   6.526   4.137   5.279
 9090TIP3   OH227214   1.246   3.425   1.600
 9090TIP3    H127215   1.169   3.465   1.560
 9090TIP3    H227216   1.302   3.402   1.526
 9091TIP3   OH227217   2.733   3.876   0.920
 9091TIP3    H127218   2.731   3.807   0.986
 9091TIP3    H227219   2.805   3.933   0.947
 9092TIP3   OH227220   1.648   1.630   5.700
 9092TIP3    H127221   1.589   1.689   5.748
 9092TIP3    H227222   1.699   1.688   5.643
 9093TIP3   OH227223   4.554   3.996   5.638
 9093TIP3    H127224   4.546   3.994   5.733
 9093TIP3    H227225   4.601   4.078   5.620
 9094TIP3   OH227226   1.438   5.484   6.340
 9094TIP3    H127227   1.353   5.443   6.323
 9094TIP3    H227228   1.498   5.442   6.279
 9095TIP3   OH227229   1.360   2.026   2.230
 9095TIP3    H127230   1.322   1.950   2.275
 9095TIP3    H227231   1.302   2.042   2.156
 9096TIP3   OH227232   5.581   0.143   2.940
 9096TIP3    H127233   5.648   0.170   3.003
 9096TIP3    H227234   5.594   0.201   2.865
 9097TIP3   OH227235   8.275   4.233   2.880
 9097TIP3    H127236   8.358   4.280   2.875
 9097TIP3    H227237   8.226   4.262   2.803
 9098TIP3   OH227238   7.434   0.538   3.331
 9098TIP3    H127239   7.458   0.629   3.316
 9098TIP3    H227240   7.498   0.487   3.281
 9099TIP3   OH227241   6.325   1.359   1.602
 9099TIP3    H127242   6.387   1.293   1.634
 9099TIP3    H227243   6.260   1.309   1.553
 9100TIP3   OH227244   8.218   6.461   5.449
 9100TIP3    H127245   8.300   6.419   5.474
 9100TIP3    H227246   8.205   6.437   5.357
 9101TIP3   OH227247   1.503   5.110   5.638
 9101TIP3    H127248   1.563   5.036   5.641
 9101TIP3    H227249   1.528   5.165   5.713
 9102TIP3   OH227250   6.048   1.200   2.487
 9102TIP3    H127251   5.999   1.268   2.440
 9102TIP3    H227252   5.982   1.137   2.514
 9103TIP3   OH227253   6.601   3.872   4.304
 9103TIP3    H127254   6.509   3.888   4.324
 9103TIP3    H227255   6.621   3.788   4.344
 9104TIP3   OH227256   3.827   7.787   6.121
 9104TIP3    H127257   3.844   7.870   6.078
 9104TIP3    H227258   3.795   7.811   6.208
 9105TIP3   OH227259   4.034   2.659   1.557
 9105TIP3    H127260   3.975   2.641   1.484
 9105TIP3    H227261   4.079   2.576   1.572
 9106TIP3   OH227262   6.330   4.487   2.431
 9106TIP3    H127263   6.347   4.513   2.340
 9106TIP3    H227264   6.270   4.553   2.464
 9107TIP3   OH227265   4.208   2.291   6.437
 9107TIP3    H127266   4.143   2.361   6.447
 9107TIP3    H227267   4.291   2.337   6.423
 9108TIP3   OH227268   7.313   2.098   4.143
 9108TIP3    H127269   7.368   2.130   4.073
 9108TIP3    H227270   7.300   2.174   4.200
 9109TIP3   OH227271   6.665   4.496   4.490
 9109TIP3    H127272   6.665   4.582   4.531
 9109TIP3    H227273   6.709   4.439   4.554
 9110TIP3   OH227274   1.808   2.495   1.629
 9110TIP3    H127275   1.805   2.463   1.718
 9110TIP3    H227276   1.729   2.549   1.621
 9111TIP3   OH227277   4.472   6.550   1.740
 9111TIP3    H127278   4.469   6.497   1.660
 9111TIP3    H227279   4.545   6.610   1.727
 9112TIP3   OH227280   4.908   2.914   3.604
 9112TIP3    H127281   4.850   2.863   3.662
 9112TIP3    H227282   4.957   2.971   3.664
 9113TIP3   OH227283   6.007   1.634   3.051
 9113TIP3    H127284   6.003   1.539   3.059
 9113TIP3    H227285   6.059   1.649   2.972
 9114TIP3   OH227286   8.225   1.475   5.602
 9114TIP3    H127287   8.215   1.382   5.625
 9114TIP3    H227288   8.280   1.511   5.671
 9115TIP3   OH227289   3.309   6.369   3.845
 9115TIP3    H127290   3.398   6.333   3.857
 9115TIP3    H227291   3.258   6.295   3.811
 9116TIP3   OH227292   3.993   6.050   6.779
 9116TIP3    H127293   3.984   6.123   6.718
 9116TIP3    H227294   4.042   5.983   6.730
 9117TIP3   OH227295   7.032   4.272   0.872
 9117TIP3    H127296   7.027   4.344   0.810
 9117TIP3    H227297   7.027   4.314   0.958
 9118TIP3   OH227298   0.003   3.768   6.210
 9118TIP3    H127299   0.087   3.771   6.164
 9118TIP3    H227300  -0.042   3.849   6.184
 9119TIP3   OH227301   7.091   4.775   1.742
 9119TIP3    H127302   7.150   4.782   1.817
 9119TIP3    H227303   7.147   4.747   1.670
 9120TIP3   OH227304   3.994   2.228   3.139
 9120TIP3    H127305   4.057   2.289   3.178
 9120TIP3    H227306   3.931   2.284   3.094
 9121TIP3   OH227307   3.050   4.849   2.154
 9121TIP3    H127308   3.140   4.843   2.123
 9121TIP3    H227309   3.014   4.762   2.141
 9122TIP3   OH227310   2.961   0.311   6.118
 9122TIP3    H127311   2.918   0.225   6.115
 9122TIP3    H227312   2.889   0.374   6.110
 9123TIP3   OH227313   6.706   4.117   4.342
 9123TIP3    H127314   6.623   4.161   4.325
 9123TIP3    H227315   6.687   4.024   4.328
 9124TIP3   OH227316   0.562   3.846   2.854
 9124TIP3    H127317   0.565   3.933   2.893
 9124TIP3    H227318   0.570   3.786   2.928
 9125TIP3   OH227319   2.398   1.675   5.447
 9125TIP3    H127320   2.315   1.654   5.490
 9125TIP3    H227321   2.453   1.711   5.517
 9126TIP3   OH227322   3.016   5.128   5.643
 9126TIP3    H127323   3.002   5.127   5.548
 9126TIP3    H227324   3.110   5.114   5.653
 9127TIP3   OH227325   5.833   0.764   2.942
 9127TIP3    H127326   5.879   0.751   3.025
 9127TIP3    H227327   5.890   0.724   2.877
 9128TIP3   OH227328   7.163   7.751   2.484
 9128TIP3    H127329   7.207   7.678   2.441
 9128TIP3    H227330   7.231   7.792   2.537
 9129TIP3   OH227331   1.643   0.583   4.353
 9129TIP3    H127332   1.648   0.509   4.414
 9129TIP3    H227333   1.729   0.625   4.360
 9130TIP3   OH227334   4.031   5.795   1.417
 9130TIP3    H127335   4.095   5.803   1.488
 9130TIP3    H227336   3.955   5.845   1.447
 9131TIP3   OH227337   7.737   7.505   0.051
 9131TIP3    H127338   7.792   7.552  -0.012
 9131TIP3    H227339   7.793   7.433   0.082
 9132TIP3   OH227340   5.051   0.210   1.752
 9132TIP3    H127341   5.071   0.124   1.714
 9132TIP3    H227342   5.046   0.268   1.676
 9133TIP3   OH227343   8.029   3.762   4.231
 9133TIP3    H127344   8.004   3.714   4.152
 9133TIP3    H227345   8.070   3.842   4.199
 9134TIP3   OH227346   6.033   3.932   4.863
 9134TIP3    H127347   6.075   3.894   4.786
 9134TIP3    H227348   5.939   3.916   4.849
 9135TIP3   OH227349   4.902   3.245   5.537
 9135TIP3    H127350   4.838   3.255   5.607
 9135TIP3    H227351   4.942   3.159   5.552
 9136TIP3   OH227352   3.205   1.006   3.333
 9136TIP3    H127353   3.203   0.998   3.429
 9136TIP3    H227354   3.267   0.938   3.305
 9137TIP3   OH227355   5.432   3.517   3.111
 9137TIP3    H127356   5.436   3.547   3.020
 9137TIP3    H227357   5.491   3.442   3.114
 9138TIP3   OH227358   2.078   2.637   5.109
 9138TIP3    H127359   2.168   2.669   5.116
 9138TIP3    H227360   2.048   2.630   5.200
 9139TIP3   OH227361   1.222   4.830   4.842
 9139TIP3    H127362   1.215   4.906   4.900
 9139TIP3    H227363   1.264   4.864   4.763
 9140TIP3   OH227364   2.182   2.068   3.975
 9140TIP3    H127365   2.120   2.131   4.012
 9140TIP3    H227366   2.147   2.047   3.889
 9141TIP3   OH227367   5.413   4.304   0.735
 9141TIP3    H127368   5.362   4.293   0.654
 9141TIP3    H227369   5.411   4.218   0.776
 9142TIP3   OH227370   7.092   2.845   6.686
 9142TIP3    H127371   7.118   2.936   6.701
 9142TIP3    H227372   6.998   2.843   6.705
 9143TIP3   OH227373   3.427   0.778   6.277
 9143TIP3    H127374   3.451   0.760   6.186
 9143TIP3    H227375   3.469   0.862   6.296
 9144TIP3   OH227376   3.455   2.289   3.055
 9144TIP3    H127377   3.477   2.327   3.140
 9144TIP3    H227378   3.539   2.271   3.014
 9145TIP3   OH227379   7.811   6.508   5.991
 9145TIP3    H127380   7.769   6.581   6.037
 9145TIP3    H227381   7.884   6.482   6.046
 9146TIP3   OH227382   6.723   7.642   4.157
 9146TIP3    H127383   6.669   7.685   4.224
 9146TIP3    H227384   6.672   7.564   4.132
 9147TIP3   OH227385   6.041   0.790   1.232
 9147TIP3    H127386   5.964   0.754   1.276
 9147TIP3    H227387   6.018   0.792   1.139
 9148TIP3   OH227388   1.589   2.276   6.721
 9148TIP3    H127389   1.659   2.261   6.785
 9148TIP3    H227390   1.609   2.217   6.649
 9149TIP3   OH227391   0.399   2.785   1.713
 9149TIP3    H127392   0.367   2.723   1.647
 9149TIP3    H227393   0.376   2.871   1.678
 9150TIP3   OH227394   5.193   7.508   3.428
 9150TIP3    H127395   5.102   7.539   3.426
 9150TIP3    H227396   5.188   7.417   3.399
 9151TIP3   OH227397   6.577   5.192   4.474
 9151TIP3    H127398   6.670   5.171   4.467
 9151TIP3    H227399   6.574   5.274   4.524
 9152TIP3   OH227400   5.701   4.626   0.594
 9152TIP3    H127401   5.667   4.552   0.543
 9152TIP3    H227402   5.659   4.618   0.680
 9153TIP3   OH227403   3.867   7.299   4.598
 9153TIP3    H127404   3.810   7.260   4.665
 9153TIP3    H227405   3.951   7.311   4.642
 9154TIP3   OH227406   6.159   0.228   4.968
 9154TIP3    H127407   6.125   0.168   4.901
 9154TIP3    H227408   6.254   0.225   4.957
 9155TIP3   OH227409   7.677   0.826   2.284
 9155TIP3    H127410   7.604   0.853   2.340
 9155TIP3    H227411   7.754   0.865   2.324
 9156TIP3   OH227412   1.851   1.055   3.823
 9156TIP3    H127413   1.791   0.987   3.793
 9156TIP3    H227414   1.924   1.007   3.864
 9157TIP3   OH227415   0.135   5.564   2.886
 9157TIP3    H127416   0.218   5.519   2.898
 9157TIP3    H227417   0.068   5.497   2.900
 9158TIP3   OH227418   3.150   2.849   2.693
 9158TIP3    H127419   3.138   2.897   2.775
 9158TIP3    H227420   3.173   2.760   2.720
 9159TIP3   OH227421   4.022   6.140   3.525
 9159TIP3    H127422   4.023   6.231   3.495
 9159TIP3    H227423   4.111   6.109   3.513
 9160TIP3   OH227424   3.351   1.134   4.843
 9160TIP3    H127425   3.424   1.144   4.904
 9160TIP3    H227426   3.277   1.176   4.887
 9161TIP3   OH227427   8.022   7.241   5.901
 9161TIP3    H127428   8.111   7.216   5.880
 9161TIP3    H227429   7.989   7.284   5.822
 9162TIP3   OH227430   5.787   4.817   5.040
 9162TIP3    H127431   5.794   4.726   5.069
 9162TIP3    H227432   5.693   4.835   5.044
 9163TIP3   OH227433   7.169   5.075   5.441
 9163TIP3    H127434   7.170   4.991   5.395
 9163TIP3    H227435   7.116   5.058   5.519
 9164TIP3   OH227436   6.437   5.387   0.332
 9164TIP3    H127437   6.419   5.418   0.243
 9164TIP3    H227438   6.395   5.301   0.336
 9165TIP3   OH227439   0.940   7.539   5.456
 9165TIP3    H127440   1.001   7.491   5.512
 9165TIP3    H227441   0.961   7.631   5.470
 9166TIP3   OH227442   5.307   4.907   0.679
 9166TIP3    H127443   5.380   4.968   0.688
 9166TIP3    H227444   5.335   4.847   0.610
 9167TIP3   OH227445   2.355   4.178   1.593
 9167TIP3    H127446   2.289   4.171   1.524
 9167TIP3    H227447   2.412   4.249   1.564
 9168TIP3   OH227448   7.422   3.983   1.668
 9168TIP3    H127449   7.461   3.944   1.747
 9168TIP3    H227450   7.464   3.936   1.595
 9169TIP3   OH227451   3.225   4.541   2.630
 9169TIP3    H127452   3.193   4.624   2.595
 9169TIP3    H227453   3.167   4.475   2.592
 9170TIP3   OH227454   2.606   6.530   5.495
 9170TIP3    H127455   2.694   6.542   5.459
 9170TIP3    H227456   2.621   6.520   5.589
 9171TIP3   OH227457   7.993   6.749   1.488
 9171TIP3    H127458   8.000   6.748   1.583
 9171TIP3    H227459   8.074   6.709   1.457
 9172TIP3   OH227460   6.516   0.909   0.001
 9172TIP3    H127461   6.425   0.910   0.029
 9172TIP3    H227462   6.558   0.845   0.058
 9173TIP3   OH227463   2.777   7.180   2.822
 9173TIP3    H127464   2.794   7.108   2.883
 9173TIP3    H227465   2.791   7.259   2.874
 9174TIP3   OH227466   0.149   2.935   4.117
 9174TIP3    H127467   0.203   2.878   4.062
 9174TIP3    H227468   0.075   2.880   4.144
 9175TIP3   OH227469   8.236   0.241   1.565
 9175TIP3    H127470   8.148   0.235   1.603
 9175TIP3    H227471   8.268   0.327   1.593
 9176TIP3   OH227472   5.994   1.938   2.811
 9176TIP3    H127473   5.907   1.972   2.832
 9176TIP3    H227474   5.978   1.876   2.739
 9177TIP3   OH227475   1.374   7.531   0.561
 9177TIP3    H127476   1.328   7.571   0.635
 9177TIP3    H227477   1.311   7.532   0.490
 9178TIP3   OH227478   2.573   2.209   4.255
 9178TIP3    H127479   2.610   2.126   4.225
 9178TIP3    H227480   2.499   2.183   4.311
 9179TIP3   OH227481   5.360   4.802   0.934
 9179TIP3    H127482   5.310   4.721   0.942
 9179TIP3    H227483   5.327   4.843   0.854
 9180TIP3   OH227484   5.781   4.616   6.395
 9180TIP3    H127485   5.871   4.586   6.410
 9180TIP3    H227486   5.749   4.561   6.324
 9181TIP3   OH227487   3.685   0.579   5.121
 9181TIP3    H127488   3.656   0.543   5.205
 9181TIP3    H227489   3.781   0.583   5.128
 9182TIP3   OH227490   0.449   6.113   0.986
 9182TIP3    H127491   0.512   6.046   0.960
 9182TIP3    H227492   0.365   6.067   0.988
 9183TIP3   OH227493   5.211   3.363   3.938
 9183TIP3    H127494   5.189   3.270   3.944
 9183TIP3    H227495   5.190   3.398   4.024
 9184TIP3   OH227496   1.373   6.832   2.797
 9184TIP3    H127497   1.407   6.753   2.838
 9184TIP3    H227498   1.450   6.886   2.780
 9185TIP3   OH227499   1.926   6.125   5.156
 9185TIP3    H127500   1.947   6.031   5.160
 9185TIP3    H227501   1.831   6.128   5.150
 9186TIP3   OH227502   6.288   4.548   5.320
 9186TIP3    H127503   6.269   4.501   5.238
 9186TIP3    H227504   6.207   4.595   5.340
 9187TIP3   OH227505   8.094   7.579   6.250
 9187TIP3    H127506   8.112   7.489   6.279
 9187TIP3    H227507   8.149   7.633   6.307
 9188TIP3   OH227508   7.841   0.173   3.929
 9188TIP3    H127509   7.779   0.245   3.939
 9188TIP3    H227510   7.820   0.135   3.844
 9189TIP3   OH227511   1.221   4.633   4.411
 9189TIP3    H127512   1.158   4.703   4.399
 9189TIP3    H227513   1.260   4.651   4.497
 9190TIP3   OH227514   1.071   1.787   3.768
 9190TIP3    H127515   1.008   1.830   3.710
 9190TIP3    H227516   1.145   1.848   3.773
 9191TIP3   OH227517   3.838   2.293   1.547
 9191TIP3    H127518   3.747   2.264   1.542
 9191TIP3    H227519   3.836   2.367   1.607
 9192TIP3   OH227520   5.763   1.713   5.608
 9192TIP3    H127521   5.826   1.738   5.675
 9192TIP3    H227522   5.792   1.627   5.578
 9193TIP3   OH227523   1.288   4.113   0.092
 9193TIP3    H127524   1.364   4.124   0.035
 9193TIP3    H227525   1.295   4.185   0.155
 9194TIP3   OH227526   2.299   3.889   2.740
 9194TIP3    H127527   2.355   3.850   2.673
 9194TIP3    H227528   2.344   3.970   2.765
 9195TIP3   OH227529   6.297   4.302   5.510
 9195TIP3    H127530   6.374   4.359   5.507
 9195TIP3    H227531   6.227   4.356   5.473
 9196TIP3   OH227532   1.924   7.483   3.966
 9196TIP3    H127533   1.894   7.571   3.945
 9196TIP3    H227534   1.954   7.489   4.057
 9197TIP3   OH227535   2.328   0.999   1.712
 9197TIP3    H127536   2.339   0.907   1.688
 9197TIP3    H227537   2.386   1.046   1.653
 9198TIP3   OH227538   5.843   7.134   4.617
 9198TIP3    H127539   5.852   7.127   4.712
 9198TIP3    H227540   5.890   7.058   4.583
 9199TIP3   OH227541   3.590   3.672   1.198
 9199TIP3    H127542   3.626   3.714   1.120
 9199TIP3    H227543   3.627   3.722   1.271
 9200TIP3   OH227544   5.771   7.788   0.674
 9200TIP3    H127545   5.725   7.730   0.735
 9200TIP3    H227546   5.734   7.875   0.689
 9201TIP3   OH227547   5.377   2.170   1.724
 9201TIP3    H127548   5.350   2.117   1.799
 9201TIP3    H227549   5.473   2.173   1.730
 9202TIP3   OH227550   5.315   2.068   3.539
 9202TIP3    H127551   5.239   2.025   3.579
 9202TIP3    H227552   5.283   2.099   3.454
 9203TIP3   OH227553   4.073   0.775   6.702
 9203TIP3    H127554   4.126   0.743   6.774
 9203TIP3    H227555   4.087   0.712   6.631
 9204TIP3   OH227556   7.781   1.611   5.952
 9204TIP3    H127557   7.718   1.549   5.990
 9204TIP3    H227558   7.862   1.561   5.943
 9205TIP3   OH227559   0.491   1.212   2.836
 9205TIP3    H127560   0.465   1.238   2.924
 9205TIP3    H227561   0.568   1.157   2.850
 9206TIP3   OH227562   2.310   4.641   2.015
 9206TIP3    H127563   2.294   4.632   1.922
 9206TIP3    H227564   2.306   4.736   2.031
 9207TIP3   OH227565   1.950   4.322   4.937
 9207TIP3    H127566   2.015   4.341   4.870
 9207TIP3    H227567   1.953   4.398   4.995
 9208TIP3   OH227568   5.943   3.703   0.585
 9208TIP3    H127569   5.898   3.742   0.660
 9208TIP3    H227570   5.951   3.775   0.522
 9209TIP3   OH227571   7.523   2.486   2.065
 9209TIP3    H127572   7.454   2.422   2.083
 9209TIP3    H227573   7.518   2.549   2.136
 9210TIP3   OH227574   7.031   4.640   5.155
 9210TIP3    H127575   7.046   4.670   5.065
 9210TIP3    H227576   7.025   4.545   5.147
 9211TIP3   OH227577   2.762   1.436   3.456
 9211TIP3    H127578   2.714   1.435   3.373
 9211TIP3    H227579   2.726   1.511   3.504
 9212TIP3   OH227580   7.463   0.698   5.954
 9212TIP3    H127581   7.492   0.608   5.935
 9212TIP3    H227582   7.431   0.731   5.870
 9213TIP3   OH227583   6.936   3.075   1.904
 9213TIP3    H127584   6.990   3.141   1.946
 9213TIP3    H227585   6.846   3.101   1.922
 9214TIP3   OH227586   1.000   1.263   3.576
 9214TIP3    H127587   1.036   1.226   3.657
 9214TIP3    H227588   1.042   1.348   3.568
 9215TIP3   OH227589   1.042   1.217   2.024
 9215TIP3    H127590   1.117   1.272   2.003
 9215TIP3    H227591   1.080   1.132   2.048
 9216TIP3   OH227592   1.389   7.521   1.817
 9216TIP3    H127593   1.413   7.608   1.784
 9216TIP3    H227594   1.311   7.537   1.870
 9217TIP3   OH227595   4.876   1.126   4.295
 9217TIP3    H127596   4.849   1.171   4.375
 9217TIP3    H227597   4.873   1.193   4.227
 9218TIP3   OH227598   4.339   7.216   5.947
 9218TIP3    H127599   4.431   7.240   5.937
 9218TIP3    H227600   4.332   7.130   5.906
 9219TIP3   OH227601   8.305   2.404   0.945
 9219TIP3    H127602   8.353   2.339   0.894
 9219TIP3    H227603   8.238   2.354   0.990
 9220TIP3   OH227604   3.974   7.022   5.784
 9220TIP3    H127605   4.004   6.943   5.830
 9220TIP3    H227606   3.880   7.025   5.801
 9221TIP3   OH227607   5.654   3.870   3.772
 9221TIP3    H127608   5.669   3.777   3.789
 9221TIP3    H227609   5.559   3.876   3.759
 9222TIP3   OH227610   2.613   3.959   2.027
 9222TIP3    H127611   2.570   4.015   1.963
 9222TIP3    H227612   2.685   4.012   2.061
 9223TIP3   OH227613   1.663   0.350   6.470
 9223TIP3    H127614   1.578   0.349   6.513
 9223TIP3    H227615   1.696   0.439   6.484
 9224TIP3   OH227616   2.761   5.417   0.235
 9224TIP3    H127617   2.730   5.433   0.146
 9224TIP3    H227618   2.833   5.479   0.247
 9225TIP3   OH227619   6.753   0.406   2.909
 9225TIP3    H127620   6.810   0.414   2.985
 9225TIP3    H227621   6.809   0.368   2.841
 9226TIP3   OH227622   5.444   0.463   2.205
 9226TIP3    H127623   5.530   0.445   2.165
 9226TIP3    H227624   5.404   0.376   2.214
 9227TIP3   OH227625   2.023   7.126   6.362
 9227TIP3    H127626   2.008   7.112   6.268
 9227TIP3    H227627   2.004   7.218   6.376
 9228TIP3   OH227628   6.163   6.940   5.955
 9228TIP3    H127629   6.220   6.972   5.886
 9228TIP3    H227630   6.113   7.017   5.983
 9229TIP3   OH227631   7.061   3.499   6.161
 9229TIP3    H127632   6.984   3.446   6.181
 9229TIP3    H227633   7.051   3.522   6.069
 9230TIP3   OH227634   6.427   2.366   1.493
 9230TIP3    H127635   6.364   2.393   1.426
 9230TIP3    H227636   6.512   2.383   1.454
 9231TIP3   OH227637   0.014   4.663   5.768
 9231TIP3    H127638  -0.015   4.613   5.692
 9231TIP3    H227639   0.089   4.614   5.801
 9232TIP3   OH227640   0.578   0.872   2.798
 9232TIP3    H127641   0.517   0.887   2.871
 9232TIP3    H227642   0.646   0.816   2.835
 9233TIP3   OH227643   2.561   2.020   2.358
 9233TIP3    H127644   2.544   2.070   2.437
 9233TIP3    H227645   2.651   2.042   2.334
 9234TIP3   OH227646   4.866   3.857   3.861
 9234TIP3    H127647   4.844   3.875   3.770
 9234TIP3    H227648   4.783   3.868   3.908
 9235TIP3   OH227649   3.186   0.620   0.570
 9235TIP3    H127650   3.131   0.684   0.615
 9235TIP3    H227651   3.226   0.569   0.641
 9236TIP3   OH227652   4.375   0.914   0.710
 9236TIP3    H127653   4.281   0.899   0.720
 9236TIP3    H227654   4.401   0.957   0.792
 9237TIP3   OH227655   4.514   2.254   2.378
 9237TIP3    H127656   4.547   2.307   2.451
 9237TIP3    H227657   4.585   2.255   2.314
 9238TIP3   OH227658   7.609   4.338   5.816
 9238TIP3    H127659   7.628   4.411   5.875
 9238TIP3    H227660   7.621   4.374   5.729
 9239TIP3   OH227661   2.691   5.767   6.144
 9239TIP3    H127662   2.687   5.817   6.062
 9239TIP3    H227663   2.619   5.801   6.197
 9240TIP3   OH227664   4.926   5.301   2.049
 9240TIP3    H127665   4.899   5.393   2.047
 9240TIP3    H227666   5.016   5.302   2.018
 9241TIP3   OH227667   4.138   4.302   0.294
 9241TIP3    H127668   4.049   4.300   0.258
 9241TIP3    H227669   4.136   4.375   0.356
 9242TIP3   OH227670   7.707   5.213   6.284
 9242TIP3    H127671   7.629   5.178   6.328
 9242TIP3    H227672   7.717   5.159   6.206
 9243TIP3   OH227673   6.706   4.215   1.003
 9243TIP3    H127674   6.713   4.130   1.045
 9243TIP3    H227675   6.789   4.226   0.956
 9244TIP3   OH227676   5.237   0.234   5.965
 9244TIP3    H127677   5.275   0.280   5.890
 9244TIP3    H227678   5.237   0.299   6.035
 9245TIP3   OH227679   6.681   5.206   3.549
 9245TIP3    H127680   6.748   5.209   3.481
 9245TIP3    H227681   6.727   5.234   3.628
 9246TIP3   OH227682   8.026   6.727   0.238
 9246TIP3    H127683   8.088   6.693   0.303
 9246TIP3    H227684   7.950   6.754   0.290
 9247TIP3   OH227685   1.406   1.372   0.887
 9247TIP3    H127686   1.360   1.404   0.810
 9247TIP3    H227687   1.338   1.337   0.944
 9248TIP3   OH227688   7.674   1.644   1.823
 9248TIP3    H127689   7.720   1.561   1.833
 9248TIP3    H227690   7.727   1.708   1.870
 9249TIP3   OH227691   0.552   3.093   1.324
 9249TIP3    H127692   0.484   3.051   1.376
 9249TIP3    H227693   0.538   3.187   1.337
 9250TIP3   OH227694   1.852   7.727   2.384
 9250TIP3    H127695   1.784   7.674   2.341
 9250TIP3    H227696   1.818   7.816   2.381
 9251TIP3   OH227697   2.169   1.480   3.158
 9251TIP3    H127698   2.200   1.533   3.232
 9251TIP3    H227699   2.235   1.411   3.150
 9252TIP3   OH227700   0.057   0.441   0.074
 9252TIP3    H127701   0.106   0.522   0.063
 9252TIP3    H227702  -0.027   0.468   0.110
 9253TIP3   OH227703   7.610   5.297   1.577
 9253TIP3    H127704   7.516   5.314   1.575
 9253TIP3    H227705   7.618   5.202   1.584
 9254TIP3   OH227706   1.405   1.615   2.969
 9254TIP3    H127707   1.359   1.605   3.052
 9254TIP3    H227708   1.383   1.703   2.940
 9255TIP3   OH227709   4.363   6.968   5.609
 9255TIP3    H127710   4.345   6.941   5.699
 9255TIP3    H227711   4.453   7.001   5.611
 9256TIP3   OH227712   4.844   1.431   4.836
 9256TIP3    H127713   4.796   1.357   4.873
 9256TIP3    H227714   4.811   1.508   4.883
 9257TIP3   OH227715   4.141   4.792   2.451
 9257TIP3    H127716   4.160   4.885   2.465
 9257TIP3    H227717   4.188   4.748   2.522
 9258TIP3   OH227718   0.064   5.370   2.592
 9258TIP3    H127719   0.125   5.416   2.649
 9258TIP3    H227720   0.041   5.434   2.524
 9259TIP3   OH227721   1.504   1.583   1.962
 9259TIP3    H127722   1.571   1.651   1.955
 9259TIP3    H227723   1.501   1.562   2.055
 9260TIP3   OH227724   0.449   0.861   2.556
 9260TIP3    H127725   0.392   0.787   2.578
 9260TIP3    H227726   0.512   0.865   2.628
 9261TIP3   OH227727   2.420   6.861   1.245
 9261TIP3    H127728   2.384   6.949   1.244
 9261TIP3    H227729   2.515   6.874   1.241
 9262TIP3   OH227730   3.335   2.584   3.843
 9262TIP3    H127731   3.386   2.656   3.878
 9262TIP3    H227732   3.370   2.506   3.886
 9263TIP3   OH227733   2.193   6.837   2.697
 9263TIP3    H127734   2.149   6.921   2.685
 9263TIP3    H227735   2.170   6.810   2.786
 9264TIP3   OH227736   2.384   3.748   6.609
 9264TIP3    H127737   2.376   3.824   6.552
 9264TIP3    H227738   2.471   3.755   6.647
 9265TIP3   OH227739   1.683   4.318   2.782
 9265TIP3    H127740   1.746   4.301   2.712
 9265TIP3    H227741   1.731   4.296   2.862
 9266TIP3   OH227742   0.363   7.048   4.315
 9266TIP3    H127743   0.293   7.109   4.337
 9266TIP3    H227744   0.321   6.962   4.315
 9267TIP3   OH227745   0.967   0.685   4.758
 9267TIP3    H127746   1.012   0.681   4.674
 9267TIP3    H227747   0.986   0.773   4.792
 9268TIP3   OH227748   0.157   3.418   3.802
 9268TIP3    H127749   0.133   3.421   3.709
 9268TIP3    H227750   0.085   3.464   3.846
 9269TIP3   OH227751   5.454   5.982   5.997
 9269TIP3    H127752   5.428   6.028   6.077
 9269TIP3    H227753   5.378   5.989   5.939
 9270TIP3   OH227754   8.220   7.354   6.342
 9270TIP3    H127755   8.313   7.338   6.323
 9270TIP3    H227756   8.202   7.298   6.417
 9271TIP3   OH227757   5.886   4.987   5.228
 9271TIP3    H127758   5.968   4.955   5.189
 9271TIP3    H227759   5.818   4.934   5.186
 9272TIP3   OH227760   7.800   7.201   3.866
 9272TIP3    H127761   7.819   7.116   3.906
 9272TIP3    H227762   7.753   7.249   3.933
 9273TIP3   OH227763   4.507   6.564   6.050
 9273TIP3    H127764   4.585   6.582   6.102
 9273TIP3    H227765   4.507   6.633   5.983
 9274TIP3   OH227766   5.452   2.520   1.141
 9274TIP3    H127767   5.547   2.523   1.130
 9274TIP3    H227768   5.419   2.482   1.059
 9275TIP3   OH227769   5.308   6.735   3.445
 9275TIP3    H127770   5.250   6.781   3.505
 9275TIP3    H227771   5.252   6.712   3.371
 9276TIP3   OH227772   7.816   2.763   0.972
 9276TIP3    H127773   7.817   2.857   0.959
 9276TIP3    H227774   7.870   2.748   1.050
 9277TIP3   OH227775   7.254   2.840   3.156
 9277TIP3    H127776   7.195   2.796   3.096
 9277TIP3    H227777   7.203   2.914   3.190
 9278TIP3   OH227778   5.137   3.489   4.635
 9278TIP3    H127779   5.228   3.473   4.658
 9278TIP3    H227780   5.087   3.442   4.701
 9279TIP3   OH227781   7.032   3.448   4.967
 9279TIP3    H127782   7.124   3.461   4.943
 9279TIP3    H227783   7.029   3.358   5.001
 9280TIP3   OH227784   0.174  -0.004   3.665
 9280TIP3    H127785   0.213   0.061   3.606
 9280TIP3    H227786   0.141   0.046   3.739
 9281TIP3   OH227787   4.731   1.637   2.101
 9281TIP3    H127788   4.667   1.566   2.094
 9281TIP3    H227789   4.753   1.658   2.010
 9282TIP3   OH227790   5.341   2.349   0.152
 9282TIP3    H127791   5.357   2.432   0.198
 9282TIP3    H227792   5.267   2.310   0.198
 9283TIP3   OH227793   7.155   3.400   0.432
 9283TIP3    H127794   7.066   3.435   0.440
 9283TIP3    H227795   7.165   3.340   0.506
 9284TIP3   OH227796   4.348   3.550   5.563
 9284TIP3    H127797   4.323   3.599   5.642
 9284TIP3    H227798   4.397   3.613   5.510
 9285TIP3   OH227799   1.830   7.106   3.623
 9285TIP3    H127800   1.885   7.048   3.676
 9285TIP3    H227801   1.836   7.191   3.667
 9286TIP3   OH227802   3.372   6.208   1.068
 9286TIP3    H127803   3.423   6.225   1.148
 9286TIP3    H227804   3.391   6.283   1.011
 9287TIP3   OH227805   5.924   0.221   4.106
 9287TIP3    H127806   5.864   0.218   4.181
 9287TIP3    H227807   5.888   0.289   4.049
 9288TIP3   OH227808   3.078   0.471   4.894
 9288TIP3    H127809   3.021   0.511   4.960
 9288TIP3    H227810   3.063   0.523   4.815
 9289TIP3   OH227811   2.617   4.968   3.776
 9289TIP3    H127812   2.661   4.884   3.762
 9289TIP3    H227813   2.678   5.033   3.741
 9290TIP3   OH227814   7.421   4.149   2.269
 9290TIP3    H127815   7.422   4.072   2.326
 9290TIP3    H227816   7.356   4.128   2.202
 9291TIP3   OH227817   2.968   3.709   2.314
 9291TIP3    H127818   2.902   3.769   2.348
 9291TIP3    H227819   3.013   3.677   2.392
 9292TIP3   OH227820   4.127   3.248   3.020
 9292TIP3    H127821   4.034   3.270   3.020
 9292TIP3    H227822   4.161   3.288   2.941
 9293TIP3   OH227823   3.364   4.571   4.857
 9293TIP3    H127824   3.337   4.627   4.784
 9293TIP3    H227825   3.336   4.483   4.831
 9294TIP3   OH227826   3.071   7.500   4.575
 9294TIP3    H127827   3.071   7.465   4.486
 9294TIP3    H227828   3.085   7.594   4.564
 9295TIP3   OH227829   3.485   5.445   6.672
 9295TIP3    H127830   3.552   5.513   6.668
 9295TIP3    H227831   3.494   5.408   6.760
 9296TIP3   OH227832   2.221   4.635   4.334
 9296TIP3    H127833   2.159   4.569   4.301
 9296TIP3    H227834   2.196   4.715   4.288
 9297TIP3   OH227835   7.938   2.993   4.165
 9297TIP3    H127836   7.890   2.925   4.118
 9297TIP3    H227837   7.875   3.026   4.229
 9298TIP3   OH227838   5.659   6.080   2.106
 9298TIP3    H127839   5.568   6.084   2.137
 9298TIP3    H227840   5.671   5.989   2.081
 9299TIP3   OH227841   0.173   6.361   5.394
 9299TIP3    H127842   0.214   6.336   5.311
 9299TIP3    H227843   0.147   6.277   5.433
 9300TIP3   OH227844   0.535   3.611   3.954
 9300TIP3    H127845   0.468   3.676   3.934
 9300TIP3    H227846   0.531   3.600   4.049
 9301TIP3   OH227847   0.652   7.563   4.304
 9301TIP3    H127848   0.659   7.473   4.335
 9301TIP3    H227849   0.592   7.558   4.229
 9302TIP3   OH227850   2.336   6.875   0.401
 9302TIP3    H127851   2.250   6.862   0.363
 9302TIP3    H227852   2.319   6.896   0.493
 9303TIP3   OH227853   7.024   5.628   3.115
 9303TIP3    H127854   7.005   5.580   3.195
 9303TIP3    H227855   6.941   5.672   3.094
 9304TIP3   OH227856   1.840   4.900   3.523
 9304TIP3    H127857   1.792   4.977   3.553
 9304TIP3    H227858   1.925   4.907   3.566
 9305TIP3   OH227859   0.397   6.538   3.141
 9305TIP3    H127860   0.452   6.616   3.145
 9305TIP3    H227861   0.367   6.525   3.231
 9306TIP3   OH227862   1.777   0.194   4.579
 9306TIP3    H127863   1.772   0.290   4.573
 9306TIP3    H227864   1.699   0.163   4.533
 9307TIP3   OH227865   7.330   5.203   3.938
 9307TIP3    H127866   7.390   5.273   3.960
 9307TIP3    H227867   7.358   5.129   3.992
 9308TIP3   OH227868   0.288   0.683   0.213
 9308TIP3    H127869   0.214   0.739   0.236
 9308TIP3    H227870   0.287   0.681   0.117
 9309TIP3   OH227871   0.326   6.290   3.027
 9309TIP3    H127872   0.348   6.379   3.052
 9309TIP3    H227873   0.287   6.298   2.940
 9310TIP3   OH227874   2.116   2.333   1.387
 9310TIP3    H127875   2.208   2.315   1.404
 9310TIP3    H227876   2.113   2.359   1.295
 9311TIP3   OH227877   1.598   2.046   2.782
 9311TIP3    H127878   1.613   2.073   2.692
 9311TIP3    H227879   1.514   2.086   2.805
 9312TIP3   OH227880   3.798   7.282   5.607
 9312TIP3    H127881   3.891   7.300   5.592
 9312TIP3    H227882   3.780   7.318   5.694
 9313TIP3   OH227883   7.227   5.377   2.714
 9313TIP3    H127884   7.183   5.462   2.725
 9313TIP3    H227885   7.215   5.356   2.622
 9314TIP3   OH227886   1.428   5.598   1.868
 9314TIP3    H127887   1.488   5.639   1.806
 9314TIP3    H227888   1.376   5.670   1.904
 9315TIP3   OH227889   6.521   7.301   3.230
 9315TIP3    H127890   6.615   7.294   3.216
 9315TIP3    H227891   6.510   7.380   3.284
 9316TIP3   OH227892   0.617   5.020   3.629
 9316TIP3    H127893   0.610   5.108   3.593
 9316TIP3    H227894   0.535   5.008   3.677
 9317TIP3   OH227895   8.221   2.825   0.728
 9317TIP3    H127896   8.223   2.811   0.634
 9317TIP3    H227897   8.312   2.841   0.752
 9318TIP3   OH227898   3.670   4.061   0.866
 9318TIP3    H127899   3.719   4.140   0.842
 9318TIP3    H227900   3.666   4.009   0.785
 9319TIP3   OH227901   6.507   5.576   3.378
 9319TIP3    H127902   6.524   5.665   3.408
 9319TIP3    H227903   6.467   5.587   3.291
 9320TIP3   OH227904   7.097   6.859   1.831
 9320TIP3    H127905   7.168   6.915   1.798
 9320TIP3    H227906   7.107   6.862   1.926
 9321TIP3   OH227907   0.784   6.134   4.717
 9321TIP3    H127908   0.791   6.081   4.796
 9321TIP3    H227909   0.833   6.085   4.651
 9322TIP3   OH227910   7.780   5.428   3.159
 9322TIP3    H127911   7.836   5.505   3.148
 9322TIP3    H227912   7.703   5.446   3.106
 9323TIP3   OH227913   3.174   7.666   0.469
 9323TIP3    H127914   3.258   7.697   0.435
 9323TIP3    H227915   3.195   7.582   0.511
 9324TIP3   OH227916   1.741   4.703   4.158
 9324TIP3    H127917   1.735   4.617   4.116
 9324TIP3    H227918   1.654   4.742   4.147
 9325TIP3   OH227919   6.998   3.147   0.675
 9325TIP3    H127920   7.085   3.170   0.640
 9325TIP3    H227921   7.017   3.106   0.760
 9326TIP3   OH227922   5.413   1.150   0.453
 9326TIP3    H127923   5.506   1.174   0.457
 9326TIP3    H227924   5.387   1.141   0.544
 9327TIP3   OH227925   0.315   6.899   2.399
 9327TIP3    H127926   0.275   6.972   2.352
 9327TIP3    H227927   0.405   6.896   2.366
 9328TIP3   OH227928   0.598   6.736   2.190
 9328TIP3    H127929   0.600   6.805   2.257
 9328TIP3    H227930   0.681   6.691   2.200
 9329TIP3   OH227931   2.849   1.160   6.330
 9329TIP3    H127932   2.780   1.205   6.280
 9329TIP3    H227933   2.925   1.160   6.272
 9330TIP3   OH227934   0.793   1.935   3.258
 9330TIP3    H127935   0.729   1.988   3.305
 9330TIP3    H227936   0.877   1.978   3.274
 9331TIP3   OH227937   3.899   2.821   4.934
 9331TIP3    H127938   3.864   2.763   5.001
 9331TIP3    H227939   3.851   2.903   4.946
 9332TIP3   OH227940   8.245   7.423   4.443
 9332TIP3    H127941   8.319   7.472   4.480
 9332TIP3    H227942   8.184   7.412   4.516
 9333TIP3   OH227943   7.995   1.265   2.746
 9333TIP3    H127944   8.009   1.303   2.832
 9333TIP3    H227945   8.072   1.293   2.695
 9334TIP3   OH227946   5.599   0.210   1.744
 9334TIP3    H127947   5.510   0.231   1.774
 9334TIP3    H227948   5.615   0.121   1.777
 9335TIP3   OH227949   8.214   6.072   3.068
 9335TIP3    H127950   8.194   6.046   3.158
 9335TIP3    H227951   8.294   6.025   3.047
 9336TIP3   OH227952   3.642   2.654   0.059
 9336TIP3    H127953   3.694   2.573   0.066
 9336TIP3    H227954   3.666   2.690  -0.026
 9337TIP3   OH227955   5.018   2.066   0.219
 9337TIP3    H127956   5.011   2.125   0.294
 9337TIP3    H227957   5.089   2.007   0.242
 9338TIP3   OH227958   5.320   2.284   2.972
 9338TIP3    H127959   5.325   2.286   2.876
 9338TIP3    H227960   5.261   2.211   2.991
 9339TIP3   OH227961   7.472   1.203   5.746
 9339TIP3    H127962   7.560   1.238   5.747
 9339TIP3    H227963   7.416   1.277   5.724
 9340TIP3   OH227964   0.171   2.567   3.416
 9340TIP3    H127965   0.172   2.596   3.325
 9340TIP3    H227966   0.119   2.634   3.462
 9341TIP3   OH227967   6.686   6.743   2.879
 9341TIP3    H127968   6.770   6.719   2.839
 9341TIP3    H227969   6.675   6.836   2.857
 9342TIP3   OH227970   1.566   1.742   6.324
 9342TIP3    H127971   1.652   1.745   6.282
 9342TIP3    H227972   1.541   1.834   6.333
 9343TIP3   OH227973   3.084   0.409   5.570
 9343TIP3    H127974   3.051   0.440   5.654
 9343TIP3    H227975   3.099   0.315   5.583
 9344TIP3   OH227976   0.228   0.155   5.393
 9344TIP3    H127977   0.277   0.080   5.359
 9344TIP3    H227978   0.176   0.185   5.319
 9345TIP3   OH227979   3.088   4.639   0.298
 9345TIP3    H127980   3.033   4.570   0.259
 9345TIP3    H227981   3.028   4.688   0.355
 9346TIP3   OH227982   2.363   7.253   2.709
 9346TIP3    H127983   2.326   7.305   2.781
 9346TIP3    H227984   2.435   7.306   2.676
 9347TIP3   OH227985   7.672   5.926   4.681
 9347TIP3    H127986   7.647   5.887   4.597
 9347TIP3    H227987   7.700   6.015   4.660
 9348TIP3   OH227988   2.779   3.232   0.749
 9348TIP3    H127989   2.744   3.262   0.833
 9348TIP3    H227990   2.867   3.270   0.746
 9349TIP3   OH227991   3.426   6.612   2.984
 9349TIP3    H127992   3.510   6.604   2.940
 9349TIP3    H227993   3.366   6.560   2.931
 9350TIP3   OH227994   6.805   0.223   3.930
 9350TIP3    H127995   6.719   0.262   3.941
 9350TIP3    H227996   6.866   0.294   3.949
 9351TIP3   OH227997   4.586   6.773   5.413
 9351TIP3    H127998   4.558   6.712   5.481
 9351TIP3    H227999   4.510   6.784   5.356
 9352TIP3   OH228000   7.290   0.747   5.311
 9352TIP3    H128001   7.197   0.749   5.334
 9352TIP3    H228002   7.325   0.671   5.359
 9353TIP3   OH228003   3.778   0.313   0.354
 9353TIP3    H128004   3.766   0.407   0.342
 9353TIP3    H228005   3.689   0.277   0.352
 9354TIP3   OH228006   5.444   6.260   4.124
 9354TIP3    H128007   5.444   6.168   4.096
 9354TIP3    H228008   5.506   6.303   4.065
 9355TIP3   OH228009   6.919   1.224   2.257
 9355TIP3    H128010   6.889   1.287   2.322
 9355TIP3    H228011   6.843   1.210   2.200
 9356TIP3   OH228012   0.979   3.813   5.693
 9356TIP3    H128013   1.015   3.836   5.608
 9356TIP3    H228014   0.905   3.872   5.704
 9357TIP3   OH228015   1.842   7.122   4.685
 9357TIP3    H128016   1.903   7.049   4.703
 9357TIP3    H228017   1.757   7.079   4.673
 9358TIP3   OH228018   4.840   3.616   4.119
 9358TIP3    H128019   4.813   3.554   4.186
 9358TIP3    H228020   4.761   3.632   4.068
 9359TIP3   OH228021   0.256   2.712   2.900
 9359TIP3    H128022   0.343   2.676   2.881
 9359TIP3    H228023   0.254   2.796   2.854
 9360TIP3   OH228024   2.662   0.476   0.999
 9360TIP3    H128025   2.573   0.492   0.967
 9360TIP3    H228026   2.652   0.401   1.059
 9361TIP3   OH228027   4.130   5.108   2.400
 9361TIP3    H128028   4.043   5.139   2.424
 9361TIP3    H228029   4.188   5.181   2.418
 9362TIP3   OH228030   5.049   2.752   2.941
 9362TIP3    H128031   5.032   2.670   2.987
 9362TIP3    H228032   4.996   2.746   2.861
 9363TIP3   OH228033   2.009   3.939   1.987
 9363TIP3    H128034   1.993   4.005   2.054
 9363TIP3    H228035   2.099   3.956   1.959
 9364TIP3   OH228036   6.531   3.987   6.082
 9364TIP3    H128037   6.545   3.923   6.151
 9364TIP3    H228038   6.565   4.069   6.118
 9365TIP3   OH228039   2.303   4.058   0.297
 9365TIP3    H128040   2.261   3.982   0.256
 9365TIP3    H228041   2.280   4.052   0.389
 9366TIP3   OH228042   3.174   5.670   3.418
 9366TIP3    H128043   3.232   5.601   3.386
 9366TIP3    H228044   3.160   5.649   3.510
 9367TIP3   OH228045   2.988   2.599   6.443
 9367TIP3    H128046   2.975   2.659   6.517
 9367TIP3    H228047   2.911   2.543   6.443
 9368TIP3   OH228048   3.456   4.979   1.804
 9368TIP3    H128049   3.537   5.022   1.833
 9368TIP3    H228050   3.472   4.886   1.820
 9369TIP3   OH228051   5.274   4.753   5.577
 9369TIP3    H128052   5.362   4.769   5.611
 9369TIP3    H228053   5.226   4.717   5.653
 9370TIP3   OH228054   6.169   4.231   3.493
 9370TIP3    H128055   6.215   4.290   3.554
 9370TIP3    H228056   6.150   4.153   3.545
 9371TIP3   OH228057   7.690   6.289   1.565
 9371TIP3    H128058   7.691   6.195   1.581
 9371TIP3    H228059   7.733   6.327   1.642
 9372TIP3   OH228060   7.775   4.777   0.502
 9372TIP3    H128061   7.770   4.851   0.563
 9372TIP3    H228062   7.721   4.803   0.428
 9373TIP3   OH228063   4.322   2.887   4.596
 9373TIP3    H128064   4.293   2.976   4.615
 9373TIP3    H228065   4.246   2.832   4.616
 9374TIP3   OH228066   2.887   2.843   2.585
 9374TIP3    H128067   2.887   2.921   2.530
 9374TIP3    H228068   2.979   2.825   2.602
 9375TIP3   OH228069   2.967   0.248   0.318
 9375TIP3    H128070   2.972   0.252   0.223
 9375TIP3    H228071   3.023   0.319   0.349
 9376TIP3   OH228072   7.198   3.068   5.498
 9376TIP3    H128073   7.236   3.015   5.568
 9376TIP3    H228074   7.123   3.110   5.538
 9377TIP3   OH228075   8.255   0.297   4.079
 9377TIP3    H128076   8.244   0.235   4.152
 9377TIP3    H228077   8.166   0.330   4.063
 9378TIP3   OH228078   1.262   3.815   1.027
 9378TIP3    H128079   1.337   3.873   1.017
 9378TIP3    H228080   1.269   3.755   0.953
 9379TIP3   OH228081   6.953   0.445   4.015
 9379TIP3    H128082   7.008   0.429   4.091
 9379TIP3    H228083   6.945   0.540   4.010
 9380TIP3   OH228084   7.458   5.933   1.417
 9380TIP3    H128085   7.503   6.005   1.372
 9380TIP3    H228086   7.369   5.935   1.382
 9381TIP3   OH228087   0.289   0.901   2.259
 9381TIP3    H128088   0.292   0.809   2.232
 9381TIP3    H228089   0.346   0.905   2.336
 9382TIP3   OH228090   4.570   1.606   1.555
 9382TIP3    H128091   4.628   1.545   1.600
 9382TIP3    H228092   4.624   1.643   1.486
 9383TIP3   OH228093   4.265   5.984   3.377
 9383TIP3    H128094   4.231   6.026   3.298
 9383TIP3    H228095   4.304   6.056   3.427
 9384TIP3   OH228096   4.090   6.667   2.504
 9384TIP3    H128097   3.995   6.670   2.494
 9384TIP3    H228098   4.109   6.577   2.528
 9385TIP3   OH228099   2.720   3.929   5.243
 9385TIP3    H128100   2.745   3.971   5.325
 9385TIP3    H228101   2.658   3.990   5.203
 9386TIP3   OH228102   4.662   5.978   4.803
 9386TIP3    H128103   4.606   6.048   4.836
 9386TIP3    H228104   4.602   5.906   4.784
 9387TIP3   OH228105   5.922   0.916   1.988
 9387TIP3    H128106   5.941   0.985   1.924
 9387TIP3    H228107   5.885   0.844   1.936
 9388TIP3   OH228108   6.174   2.073   5.733
 9388TIP3    H128109   6.238   2.038   5.795
 9388TIP3    H228110   6.194   2.166   5.729
 9389TIP3   OH228111   3.682   0.504   6.178
 9389TIP3    H128112   3.666   0.522   6.085
 9389TIP3    H228113   3.751   0.437   6.177
 9390TIP3   OH228114   1.479   6.128   5.403
 9390TIP3    H128115   1.436   6.049   5.369
 9390TIP3    H228116   1.465   6.124   5.497
 9391TIP3   OH228117   2.038   2.278   3.617
 9391TIP3    H128118   1.950   2.314   3.608
 9391TIP3    H228119   2.087   2.346   3.663
 9392TIP3   OH228120   1.429   2.908   4.114
 9392TIP3    H128121   1.372   2.929   4.040
 9392TIP3    H228122   1.509   2.957   4.098
 9393TIP3   OH228123   6.422   6.836   1.630
 9393TIP3    H128124   6.368   6.856   1.553
 9393TIP3    H228125   6.512   6.843   1.598
 9394TIP3   OH228126   2.231   4.179   3.634
 9394TIP3    H128127   2.290   4.255   3.628
 9394TIP3    H228128   2.289   4.104   3.625
 9395TIP3   OH228129   2.771   5.792   2.103
 9395TIP3    H128130   2.727   5.732   2.162
 9395TIP3    H228131   2.708   5.805   2.031
 9396TIP3   OH228132   5.085   4.366   0.745
 9396TIP3    H128133   5.089   4.284   0.695
 9396TIP3    H228134   5.076   4.434   0.678
 9397TIP3   OH228135   7.535   3.301   5.547
 9397TIP3    H128136   7.628   3.296   5.566
 9397TIP3    H228137   7.500   3.360   5.614
 9398TIP3   OH228138   7.308   6.075   1.761
 9398TIP3    H128139   7.233   6.121   1.725
 9398TIP3    H228140   7.365   6.144   1.794
 9399TIP3   OH228141   2.586   4.320   0.782
 9399TIP3    H128142   2.643   4.248   0.811
 9399TIP3    H228143   2.625   4.350   0.700
 9400TIP3   OH228144   1.775   1.758   2.727
 9400TIP3    H128145   1.794   1.670   2.759
 9400TIP3    H228146   1.816   1.761   2.640
 9401TIP3   OH228147   2.850   5.170   6.024
 9401TIP3    H128148   2.934   5.216   6.025
 9401TIP3    H228149   2.873   5.079   6.004
 9402TIP3   OH228150   7.670   5.872   4.938
 9402TIP3    H128151   7.688   5.959   4.972
 9402TIP3    H228152   7.690   5.878   4.845
 9403TIP3   OH228153   0.300   5.263   0.762
 9403TIP3    H128154   0.301   5.336   0.824
 9403TIP3    H228155   0.389   5.262   0.725
 9404TIP3   OH228156   8.232   6.071   5.323
 9404TIP3    H128157   8.250   6.132   5.394
 9404TIP3    H228158   8.316   6.025   5.309
 9405TIP3   OH228159   0.156   3.582   4.271
 9405TIP3    H128160   0.218   3.510   4.255
 9405TIP3    H228161   0.070   3.543   4.256
 9406TIP3   OH228162   3.220   4.491   3.384
 9406TIP3    H128163   3.304   4.513   3.343
 9406TIP3    H228164   3.154   4.520   3.321
 9407TIP3   OH228165   2.904   5.432   1.903
 9407TIP3    H128166   2.841   5.414   1.973
 9407TIP3    H228167   2.982   5.383   1.928
 9408TIP3   OH228168   7.662   4.050   5.781
 9408TIP3    H128169   7.674   4.061   5.687
 9408TIP3    H228170   7.685   4.135   5.818
 9409TIP3   OH228171   1.022   3.300   4.630
 9409TIP3    H128172   0.965   3.291   4.554
 9409TIP3    H228173   1.069   3.217   4.635
 9410TIP3   OH228174   2.040   0.580   4.592
 9410TIP3    H128175   2.103   0.603   4.661
 9410TIP3    H228176   2.084   0.511   4.542
 9411TIP3   OH228177   6.850   4.478   5.791
 9411TIP3    H128178   6.933   4.429   5.795
 9411TIP3    H228179   6.782   4.410   5.788
 9412TIP3   OH228180   8.015   3.089   1.047
 9412TIP3    H128181   7.929   3.048   1.035
 9412TIP3    H228182   8.044   3.109   0.958
 9413TIP3   OH228183   6.904   0.864   4.777
 9413TIP3    H128184   6.986   0.859   4.726
 9413TIP3    H228185   6.931   0.851   4.867
 9414TIP3   OH228186   2.686   4.551   1.560
 9414TIP3    H128187   2.675   4.603   1.481
 9414TIP3    H228188   2.777   4.566   1.587
 9415TIP3   OH228189   4.801   4.303   2.004
 9415TIP3    H128190   4.851   4.362   2.060
 9415TIP3    H228191   4.760   4.241   2.064
 9416TIP3   OH228192   7.912   4.541   1.895
 9416TIP3    H128193   7.896   4.494   1.813
 9416TIP3    H228194   8.004   4.569   1.889
 9417TIP3   OH228195   5.213   6.952   6.603
 9417TIP3    H128196   5.130   6.980   6.641
 9417TIP3    H228197   5.189   6.895   6.530
 9418TIP3   OH228198   1.269   6.811   2.236
 9418TIP3    H128199   1.363   6.829   2.228
 9418TIP3    H228200   1.265   6.720   2.267
 9419TIP3   OH228201   6.564   4.699   0.075
 9419TIP3    H128202   6.583   4.612   0.110
 9419TIP3    H228203   6.640   4.721   0.022
 9420TIP3   OH228204   5.520   6.911   4.355
 9420TIP3    H128205   5.610   6.941   4.345
 9420TIP3    H228206   5.528   6.821   4.387
 9421TIP3   OH228207   0.615   6.907   2.405
 9421TIP3    H128208   0.710   6.906   2.417
 9421TIP3    H228209   0.585   6.981   2.458
 9422TIP3   OH228210   1.033   5.633   0.414
 9422TIP3    H128211   0.958   5.620   0.472
 9422TIP3    H228212   1.003   5.697   0.349
 9423TIP3   OH228213   6.979   5.775   0.716
 9423TIP3    H128214   6.909   5.724   0.678
 9423TIP3    H228215   7.059   5.724   0.698
 9424TIP3   OH228216   3.669   1.744   1.160
 9424TIP3    H128217   3.593   1.691   1.135
 9424TIP3    H228218   3.658   1.826   1.112
 9425TIP3   OH228219   8.105   7.749   5.161
 9425TIP3    H128220   8.046   7.824   5.158
 9425TIP3    H228221   8.052   7.675   5.131
 9426TIP3   OH228222   3.367   0.985   2.813
 9426TIP3    H128223   3.407   1.059   2.859
 9426TIP3    H228224   3.408   0.985   2.727
 9427TIP3   OH228225   6.639   5.437   4.623
 9427TIP3    H128226   6.670   5.521   4.657
 9427TIP3    H228227   6.715   5.379   4.629
 9428TIP3   OH228228   6.949   7.612   4.931
 9428TIP3    H128229   7.044   7.613   4.941
 9428TIP3    H228230   6.934   7.554   4.856
 9429TIP3   OH228231   5.882   5.858   2.987
 9429TIP3    H128232   5.857   5.892   3.073
 9429TIP3    H228233   5.971   5.889   2.974
 9430TIP3   OH228234   6.301   2.207   1.140
 9430TIP3    H128235   6.384   2.184   1.181
 9430TIP3    H228236   6.302   2.303   1.138
 9431TIP3   OH228237   1.958   1.825   3.606
 9431TIP3    H128238   2.019   1.887   3.645
 9431TIP3    H228239   1.927   1.772   3.680
 9432TIP3   OH228240   5.779   4.980   2.513
 9432TIP3    H128241   5.711   5.009   2.454
 9432TIP3    H228242   5.733   4.959   2.595
 9433TIP3   OH228243   6.549   3.058   5.264
 9433TIP3    H128244   6.482   3.113   5.303
 9433TIP3    H228245   6.628   3.075   5.316
 9434TIP3   OH228246   1.800   6.669   4.389
 9434TIP3    H128247   1.738   6.603   4.421
 9434TIP3    H228248   1.749   6.749   4.382
 9435TIP3   OH228249   1.830   6.733   3.275
 9435TIP3    H128250   1.760   6.747   3.211
 9435TIP3    H228251   1.787   6.740   3.360
 9436TIP3   OH228252   2.028   3.547   6.018
 9436TIP3    H128253   2.044   3.480   5.952
 9436TIP3    H228254   1.933   3.546   6.030
 9437TIP3   OH228255   6.146   0.358   3.928
 9437TIP3    H128256   6.132   0.372   3.834
 9437TIP3    H228257   6.057   0.345   3.963
 9438TIP3   OH228258   2.193   5.310   5.314
 9438TIP3    H128259   2.242   5.231   5.337
 9438TIP3    H228260   2.180   5.303   5.220
 9439TIP3   OH228261   6.769   2.449   6.253
 9439TIP3    H128262   6.714   2.471   6.328
 9439TIP3    H228263   6.709   2.442   6.179
 9440TIP3   OH228264   7.157   4.124   3.039
 9440TIP3    H128265   7.212   4.175   3.098
 9440TIP3    H228266   7.068   4.142   3.068
 9441TIP3   OH228267   1.588   5.332   6.778
 9441TIP3    H128268   1.650   5.287   6.835
 9441TIP3    H228269   1.640   5.397   6.731
 9442TIP3   OH228270   5.582   7.374   1.180
 9442TIP3    H128271   5.586   7.339   1.091
 9442TIP3    H228272   5.641   7.449   1.178
 9443TIP3   OH228273   5.387   6.522   1.434
 9443TIP3    H128274   5.424   6.575   1.504
 9443TIP3    H228275   5.434   6.439   1.439
 9444TIP3   OH228276   3.650   1.929   0.538
 9444TIP3    H128277   3.586   1.859   0.526
 9444TIP3    H228278   3.644   1.982   0.458
 9445TIP3   OH228279   8.065   1.287   3.034
 9445TIP3    H128280   8.153   1.324   3.036
 9445TIP3    H228281   8.013   1.342   3.093
 9446TIP3   OH228282   4.422   4.579   3.029
 9446TIP3    H128283   4.453   4.574   3.120
 9446TIP3    H228284   4.326   4.571   3.036
 9447TIP3   OH228285   8.234   3.042   4.627
 9447TIP3    H128286   8.256   3.099   4.701
 9447TIP3    H228287   8.139   3.033   4.631
 9448TIP3   OH228288   2.627   5.415   2.430
 9448TIP3    H128289   2.713   5.374   2.424
 9448TIP3    H228290   2.565   5.341   2.435
 9449TIP3   OH228291   8.259   7.648   1.352
 9449TIP3    H128292   8.253   7.739   1.381
 9449TIP3    H228293   8.352   7.629   1.352
 9450TIP3   OH228294   4.082   3.732   2.333
 9450TIP3    H128295   4.005   3.702   2.382
 9450TIP3    H228296   4.048   3.798   2.273
 9451TIP3   OH228297   2.590   0.028   0.148
 9451TIP3    H128298   2.628  -0.037   0.089
 9451TIP3    H228299   2.647   0.029   0.224
 9452TIP3   OH228300   6.425   2.317   0.558
 9452TIP3    H128301   6.451   2.248   0.497
 9452TIP3    H228302   6.437   2.278   0.645
 9453TIP3   OH228303   1.248   1.236   2.249
 9453TIP3    H128304   1.249   1.165   2.313
 9453TIP3    H228305   1.156   1.245   2.225
 9454TIP3   OH228306   3.875   4.946   5.822
 9454TIP3    H128307   3.901   5.020   5.876
 9454TIP3    H228308   3.784   4.964   5.798
 9455TIP3   OH228309   4.036   7.330   2.366
 9455TIP3    H128310   4.055   7.296   2.278
 9455TIP3    H228311   4.031   7.251   2.421
 9456TIP3   OH228312   5.651   3.933   1.086
 9456TIP3    H128313   5.709   3.999   1.122
 9456TIP3    H228314   5.641   3.869   1.156
 9457TIP3   OH228315   6.577   7.414   4.787
 9457TIP3    H128316   6.537   7.493   4.751
 9457TIP3    H228317   6.615   7.443   4.871
 9458TIP3   OH228318   7.240   6.855   2.467
 9458TIP3    H128319   7.240   6.932   2.409
 9458TIP3    H228320   7.227   6.781   2.408
 9459TIP3   OH228321   1.053   0.431   5.254
 9459TIP3    H128322   1.004   0.358   5.291
 9459TIP3    H228323   0.987   0.487   5.214
 9460TIP3   OH228324   5.877   2.727   3.292
 9460TIP3    H128325   5.794   2.688   3.263
 9460TIP3    H228326   5.893   2.798   3.231
 9461TIP3   OH228327   7.197   1.521   3.389
 9461TIP3    H128328   7.150   1.506   3.471
 9461TIP3    H228329   7.130   1.516   3.322
 9462TIP3   OH228330   5.140   5.458   5.746
 9462TIP3    H128331   5.206   5.459   5.677
 9462TIP3    H228332   5.057   5.456   5.699
 9463TIP3   OH228333   5.379   1.381   6.165
 9463TIP3    H128334   5.309   1.445   6.176
 9463TIP3    H228335   5.422   1.377   6.250
 9464TIP3   OH228336   3.948   2.142   6.647
 9464TIP3    H128337   3.937   2.186   6.731
 9464TIP3    H228338   3.949   2.049   6.668
 9465TIP3   OH228339   2.428   4.641   3.164
 9465TIP3    H128340   2.382   4.569   3.120
 9465TIP3    H228341   2.438   4.611   3.254
 9466TIP3   OH228342   2.820   2.807   0.289
 9466TIP3    H128343   2.819   2.877   0.354
 9466TIP3    H228344   2.853   2.849   0.210
 9467TIP3   OH228345   3.848   5.631   2.993
 9467TIP3    H128346   3.812   5.699   3.051
 9467TIP3    H228347   3.891   5.569   3.053
 9468TIP3   OH228348   1.326   7.167   2.674
 9468TIP3    H128349   1.305   7.258   2.695
 9468TIP3    H228350   1.405   7.173   2.621
 9469TIP3   OH228351   0.144   4.066   2.667
 9469TIP3    H128352   0.057   4.058   2.627
 9469TIP3    H228353   0.195   3.997   2.626
 9470TIP3   OH228354   6.747   5.393   3.026
 9470TIP3    H128355   6.718   5.479   2.993
 9470TIP3    H228356   6.774   5.410   3.116
 9471TIP3   OH228357   4.089   1.807   6.385
 9471TIP3    H128358   4.148   1.782   6.456
 9471TIP3    H228359   4.054   1.725   6.351
 9472TIP3   OH228360   2.692   4.291   5.288
 9472TIP3    H128361   2.618   4.329   5.240
 9472TIP3    H228362   2.759   4.277   5.221
 9473TIP3   OH228363   5.199   7.855   1.255
 9473TIP3    H128364   5.226   7.774   1.299
 9473TIP3    H228365   5.104   7.848   1.247
 9474TIP3   OH228366   4.449   0.253   4.395
 9474TIP3    H128367   4.371   0.276   4.344
 9474TIP3    H228368   4.416   0.198   4.465
 9475TIP3   OH228369   1.538   6.913   6.650
 9475TIP3    H128370   1.549   6.921   6.556
 9475TIP3    H228371   1.453   6.953   6.668
 9476TIP3   OH228372   8.202   7.042   5.707
 9476TIP3    H128373   8.210   7.091   5.625
 9476TIP3    H228374   8.229   7.104   5.775
 9477TIP3   OH228375   7.975   0.513   6.371
 9477TIP3    H128376   8.060   0.543   6.339
 9477TIP3    H228377   7.942   0.585   6.425
 9478TIP3   OH228378   1.131   0.474   5.566
 9478TIP3    H128379   1.074   0.507   5.496
 9478TIP3    H228380   1.201   0.540   5.573
 9479TIP3   OH228381   7.137   1.327   5.185
 9479TIP3    H128382   7.089   1.406   5.211
 9479TIP3    H228383   7.105   1.259   5.244
 9480TIP3   OH228384   3.395   4.410   2.812
 9480TIP3    H128385   3.340   4.468   2.760
 9480TIP3    H228386   3.448   4.469   2.866
 9481TIP3   OH228387   2.814   3.724   5.514
 9481TIP3    H128388   2.821   3.644   5.567
 9481TIP3    H228389   2.883   3.715   5.449
 9482TIP3   OH228390   2.370   0.385   4.421
 9482TIP3    H128391   2.331   0.362   4.336
 9482TIP3    H228392   2.464   0.386   4.404
 9483TIP3   OH228393   8.252   7.525   1.086
 9483TIP3    H128394   8.206   7.443   1.102
 9483TIP3    H228395   8.275   7.557   1.174
 9484TIP3   OH228396   4.598   2.581   5.369
 9484TIP3    H128397   4.637   2.640   5.433
 9484TIP3    H228398   4.510   2.615   5.354
 9485TIP3   OH228399   6.909   0.549   0.399
 9485TIP3    H128400   6.981   0.588   0.349
 9485TIP3    H228401   6.943   0.465   0.429
 9486TIP3   OH228402   5.830   7.796   5.029
 9486TIP3    H128403   5.906   7.850   5.051
 9486TIP3    H228404   5.755   7.851   5.050
 9487TIP3   OH228405   2.432   1.219   0.674
 9487TIP3    H128406   2.388   1.135   0.685
 9487TIP3    H228407   2.501   1.202   0.610
 9488TIP3   OH228408   6.800   0.398   2.042
 9488TIP3    H128409   6.847   0.321   2.009
 9488TIP3    H228410   6.836   0.471   1.991
 9489TIP3   OH228411   6.045   2.997   5.783
 9489TIP3    H128412   6.104   3.072   5.777
 9489TIP3    H228413   5.963   3.028   5.744
 9490TIP3   OH228414   0.183   6.597   3.620
 9490TIP3    H128415   0.237   6.672   3.645
 9490TIP3    H228416   0.232   6.554   3.550
 9491TIP3   OH228417   7.466   0.450   0.350
 9491TIP3    H128418   7.530   0.471   0.418
 9491TIP3    H228419   7.389   0.503   0.372
 9492TIP3   OH228420   1.275   0.656   2.681
 9492TIP3    H128421   1.211   0.726   2.693
 9492TIP3    H228422   1.223   0.579   2.661
 9493TIP3   OH228423   6.717   0.888   1.457
 9493TIP3    H128424   6.778   0.898   1.384
 9493TIP3    H228425   6.770   0.850   1.527
 9494TIP3   OH228426   1.846   0.128   6.401
 9494TIP3    H128427   1.798   0.059   6.447
 9494TIP3    H228428   1.778   0.182   6.362
 9495TIP3   OH228429   3.829   5.930   2.409
 9495TIP3    H128430   3.871   5.972   2.485
 9495TIP3    H228431   3.790   6.002   2.360
 9496TIP3   OH228432   7.630   3.654   5.649
 9496TIP3    H128433   7.560   3.704   5.607
 9496TIP3    H228434   7.586   3.581   5.692
 9497TIP3   OH228435   3.537   5.974   5.422
 9497TIP3    H128436   3.471   5.905   5.423
 9497TIP3    H228437   3.523   6.020   5.339
 9498TIP3   OH228438   0.927   2.854   6.463
 9498TIP3    H128439   0.993   2.923   6.460
 9498TIP3    H228440   0.960   2.791   6.527
 9499TIP3   OH228441   6.436   6.915   4.785
 9499TIP3    H128442   6.469   6.835   4.744
 9499TIP3    H228443   6.500   6.935   4.853
 9500TIP3   OH228444   3.042   5.328   0.429
 9500TIP3    H128445   3.109   5.356   0.366
 9500TIP3    H228446   2.978   5.399   0.429
 9501TIP3   OH228447   0.632   6.941   3.416
 9501TIP3    H128448   0.684   6.928   3.496
 9501TIP3    H228449   0.618   7.036   3.413
 9502TIP3   OH228450   4.131   0.521   0.360
 9502TIP3    H128451   4.193   0.564   0.419
 9502TIP3    H228452   4.054   0.503   0.414
 9503TIP3   OH228453   3.152   5.566   5.811
 9503TIP3    H128454   3.098   5.566   5.732
 9503TIP3    H228455   3.229   5.515   5.788
 9504TIP3   OH228456   2.090   2.719   5.365
 9504TIP3    H128457   2.169   2.768   5.386
 9504TIP3    H228458   2.086   2.649   5.431
 9505TIP3   OH228459   1.074   2.208   2.786
 9505TIP3    H128460   1.039   2.136   2.735
 9505TIP3    H228461   1.003   2.231   2.846
 9506TIP3   OH228462   5.655   1.883   4.963
 9506TIP3    H128463   5.638   1.943   4.891
 9506TIP3    H228464   5.606   1.804   4.941
 9507TIP3   OH228465   3.734   1.862   2.407
 9507TIP3    H128466   3.643   1.854   2.380
 9507TIP3    H228467   3.763   1.945   2.368
 9508TIP3   OH228468   4.475   0.145   1.421
 9508TIP3    H128469   4.446   0.067   1.468
 9508TIP3    H228470   4.568   0.153   1.441
 9509TIP3   OH228471   3.841   2.902   6.382
 9509TIP3    H128472   3.818   2.980   6.431
 9509TIP3    H228473   3.929   2.880   6.411
 9510TIP3   OH228474   3.286   3.108   4.196
 9510TIP3    H128475   3.376   3.076   4.191
 9510TIP3    H228476   3.233   3.037   4.160
 9511TIP3   OH228477   4.567   5.170   2.124
 9511TIP3    H128478   4.590   5.150   2.033
 9511TIP3    H228479   4.497   5.109   2.145
 9512TIP3   OH228480   3.471   3.096   1.812
 9512TIP3    H128481   3.437   3.185   1.823
 9512TIP3    H228482   3.528   3.102   1.735
 9513TIP3   OH228483   4.298   0.061   0.455
 9513TIP3    H128484   4.352  -0.018   0.454
 9513TIP3    H228485   4.227   0.040   0.516
 9514TIP3   OH228486   1.717   6.628   0.533
 9514TIP3    H128487   1.670   6.625   0.617
 9514TIP3    H228488   1.669   6.566   0.477
 9515TIP3   OH228489   2.460   1.209   2.401
 9515TIP3    H128490   2.400   1.169   2.463
 9515TIP3    H228491   2.522   1.257   2.455
 9516TIP3   OH228492   7.897   3.778   1.697
 9516TIP3    H128493   7.938   3.708   1.646
 9516TIP3    H228494   7.874   3.736   1.781
 9517TIP3   OH228495   2.647   0.137   5.397
 9517TIP3    H128496   2.583   0.148   5.327
 9517TIP3    H228497   2.697   0.218   5.396
 9518TIP3   OH228498   4.600   7.074   5.626
 9518TIP3    H128499   4.632   7.138   5.563
 9518TIP3    H228500   4.662   7.078   5.699
 9519TIP3   OH228501   1.087   6.348   4.468
 9519TIP3    H128502   1.094   6.331   4.374
 9519TIP3    H228503   1.147   6.285   4.508
 9520TIP3   OH228504   6.326   6.175   5.126
 9520TIP3    H128505   6.345   6.128   5.207
 9520TIP3    H228506   6.323   6.267   5.153
 9521TIP3   OH228507   6.875   5.021   3.272
 9521TIP3    H128508   6.883   5.105   3.317
 9521TIP3    H228509   6.947   5.019   3.210
 9522TIP3   OH228510   3.811   4.949   2.679
 9522TIP3    H128511   3.725   4.969   2.641
 9522TIP3    H228512   3.826   5.021   2.741
 9523TIP3   OH228513   0.869   4.359   6.330
 9523TIP3    H128514   0.879   4.405   6.413
 9523TIP3    H228515   0.944   4.386   6.278
 9524TIP3   OH228516   3.345   6.027   2.923
 9524TIP3    H128517   3.428   6.008   2.967
 9524TIP3    H228518   3.293   5.948   2.934
 9525TIP3   OH228519   3.248   0.636   4.127
 9525TIP3    H128520   3.242   0.596   4.213
 9525TIP3    H228521   3.337   0.672   4.123
 9526TIP3   OH228522   5.854   5.199   4.172
 9526TIP3    H128523   5.905   5.278   4.151
 9526TIP3    H228524   5.910   5.150   4.231
 9527TIP3   OH228525   1.423   4.076   0.696
 9527TIP3    H128526   1.424   3.987   0.731
 9527TIP3    H228527   1.515   4.101   0.692
 9528TIP3   OH228528   5.764   3.579   4.385
 9528TIP3    H128529   5.852   3.546   4.367
 9528TIP3    H228530   5.777   3.671   4.408
 9529TIP3   OH228531   6.101   5.358   5.854
 9529TIP3    H128532   6.167   5.395   5.913
 9529TIP3    H228533   6.082   5.427   5.792
 9530TIP3   OH228534   3.350   5.174   1.266
 9530TIP3    H128535   3.391   5.177   1.180
 9530TIP3    H228536   3.332   5.265   1.287
 9531TIP3   OH228537   5.049   0.886   0.886
 9531TIP3    H128538   5.071   0.794   0.874
 9531TIP3    H228539   5.037   0.896   0.981
 9532TIP3   OH228540   1.690   3.778   1.522
 9532TIP3    H128541   1.747   3.735   1.586
 9532TIP3    H228542   1.713   3.871   1.529
 9533TIP3   OH228543   4.290   7.557   3.189
 9533TIP3    H128544   4.361   7.581   3.129
 9533TIP3    H228545   4.313   7.599   3.272
 9534TIP3   OH228546   5.749   0.469   1.714
 9534TIP3    H128547   5.833   0.457   1.671
 9534TIP3    H228548   5.707   0.383   1.712
 9535TIP3   OH228549   4.870   1.389   1.358
 9535TIP3    H128550   4.950   1.434   1.332
 9535TIP3    H228551   4.839   1.436   1.435
 9536TIP3   OH228552   4.482   4.407   3.435
 9536TIP3    H128553   4.453   4.466   3.504
 9536TIP3    H228554   4.404   4.394   3.381
 9537TIP3   OH228555   1.450   6.552   1.614
 9537TIP3    H128556   1.407   6.557   1.699
 9537TIP3    H228557   1.533   6.598   1.626
 9538TIP3   OH228558   0.276   5.536   0.638
 9538TIP3    H128559   0.328   5.507   0.713
 9538TIP3    H228560   0.313   5.489   0.563
 9539TIP3   OH228561   5.426   5.111   0.277
 9539TIP3    H128562   5.489   5.044   0.306
 9539TIP3    H228563   5.340   5.071   0.292
 9540TIP3   OH228564   5.990   2.760   5.539
 9540TIP3    H128565   5.981   2.746   5.633
 9540TIP3    H228566   6.010   2.853   5.530
 9541TIP3   OH228567   0.953   7.701   4.253
 9541TIP3    H128568   1.015   7.670   4.187
 9541TIP3    H228569   0.867   7.687   4.213
 9542TIP3   OH228570   3.828   3.916   6.186
 9542TIP3    H128571   3.745   3.879   6.218
 9542TIP3    H228572   3.824   4.008   6.211
 9543TIP3   OH228573   1.136   5.836   1.765
 9543TIP3    H128574   1.179   5.840   1.850
 9543TIP3    H228575   1.202   5.802   1.705
 9544TIP3   OH228576   0.710   1.348   0.532
 9544TIP3    H128577   0.755   1.293   0.468
 9544TIP3    H228578   0.775   1.413   0.558
 9545TIP3   OH228579   1.032   4.035   0.963
 9545TIP3    H128580   0.942   4.018   0.990
 9545TIP3    H228581   1.069   3.949   0.947
 9546TIP3   OH228582   5.946   1.215   1.098
 9546TIP3    H128583   6.004   1.252   1.033
 9546TIP3    H228584   5.860   1.252   1.077
 9547TIP3   OH228585   1.136   5.860   3.350
 9547TIP3    H128586   1.046   5.840   3.375
 9547TIP3    H228587   1.190   5.806   3.408
 9548TIP3   OH228588   3.806   7.482   3.357
 9548TIP3    H128589   3.867   7.533   3.303
 9548TIP3    H228590   3.861   7.418   3.402
 9549TIP3   OH228591   7.231   7.766   6.244
 9549TIP3    H128592   7.296   7.817   6.194
 9549TIP3    H228593   7.147   7.804   6.219
 9550TIP3   OH228594   0.413   3.926   0.359
 9550TIP3    H128595   0.355   3.942   0.433
 9550TIP3    H228596   0.385   3.841   0.325
 9551TIP3   OH228597   2.782   0.525   4.549
 9551TIP3    H128598   2.745   0.611   4.527
 9551TIP3    H228599   2.871   0.527   4.514
 9552TIP3   OH228600   2.436   7.736   6.473
 9552TIP3    H128601   2.406   7.669   6.534
 9552TIP3    H228602   2.531   7.726   6.472
 9553TIP3   OH228603   4.812   2.511   5.671
 9553TIP3    H128604   4.867   2.446   5.714
 9553TIP3    H228605   4.868   2.588   5.661
 9554TIP3   OH228606   6.271   5.511   6.016
 9554TIP3    H128607   6.344   5.454   6.040
 9554TIP3    H228608   6.303   5.599   6.035
 9555TIP3   OH228609   2.652   0.878   1.610
 9555TIP3    H128610   2.684   0.864   1.520
 9555TIP3    H228611   2.619   0.967   1.610
 9556TIP3   OH228612   2.038   4.303   6.459
 9556TIP3    H128613   1.988   4.375   6.421
 9556TIP3    H228614   2.130   4.330   6.450
 9557TIP3   OH228615   3.676   2.719   0.892
 9557TIP3    H128616   3.644   2.809   0.898
 9557TIP3    H228617   3.654   2.691   0.803
 9558TIP3   OH228618   5.166   4.647   1.288
 9558TIP3    H128619   5.090   4.659   1.231
 9558TIP3    H228620   5.206   4.734   1.294
 9559TIP3   OH228621   0.410   4.472   0.044
 9559TIP3    H128622   0.402   4.553   0.094
 9559TIP3    H228623   0.471   4.493  -0.026
 9560TIP3   OH228624   5.144   7.575   1.795
 9560TIP3    H128625   5.130   7.496   1.847
 9560TIP3    H228626   5.061   7.622   1.800
 9561TIP3   OH228627   8.221   4.541   4.185
 9561TIP3    H128628   8.311   4.565   4.205
 9561TIP3    H228629   8.174   4.550   4.268
 9562TIP3   OH228630   2.509   1.952   3.437
 9562TIP3    H128631   2.588   2.001   3.414
 9562TIP3    H228632   2.515   1.871   3.387
 9563TIP3   OH228633   3.280   5.904   3.540
 9563TIP3    H128634   3.256   5.964   3.470
 9563TIP3    H228635   3.255   5.818   3.509
 9564TIP3   OH228636   0.247   6.290   2.758
 9564TIP3    H128637   0.296   6.239   2.694
 9564TIP3    H228638   0.221   6.370   2.711
 9565TIP3   OH228639   5.943   0.449   2.154
 9565TIP3    H128640   5.884   0.416   2.222
 9565TIP3    H228641   5.962   0.373   2.099
 9566TIP3   OH228642   1.282   2.598   6.468
 9566TIP3    H128643   1.308   2.543   6.542
 9566TIP3    H228644   1.348   2.667   6.466
 9567TIP3   OH228645   3.887   6.143   5.499
 9567TIP3    H128646   3.948   6.163   5.428
 9567TIP3    H228647   3.882   6.048   5.501
 9568TIP3   OH228648   3.079   6.221   1.896
 9568TIP3    H128649   3.049   6.132   1.880
 9568TIP3    H228650   3.150   6.234   1.832
 9569TIP3   OH228651   2.322   7.473   6.341
 9569TIP3    H128652   2.341   7.562   6.310
 9569TIP3    H228653   2.270   7.486   6.421
 9570TIP3   OH228654   7.611   5.518   4.806
 9570TIP3    H128655   7.586   5.485   4.892
 9570TIP3    H228656   7.653   5.443   4.763
 9571TIP3   OH228657   4.698   0.880   6.510
 9571TIP3    H128658   4.693   0.850   6.419
 9571TIP3    H228659   4.724   0.801   6.558
 9572TIP3   OH228660   5.420   2.013   0.598
 9572TIP3    H128661   5.345   1.988   0.652
 9572TIP3    H228662   5.394   1.990   0.508
 9573TIP3   OH228663   2.657   2.912   5.157
 9573TIP3    H128664   2.683   2.856   5.084
 9573TIP3    H228665   2.590   2.970   5.121
 9574TIP3   OH228666   3.084   5.250   6.251
 9574TIP3    H128667   3.157   5.264   6.312
 9574TIP3    H228668   3.107   5.303   6.174
 9575TIP3   OH228669   8.309   0.866   4.080
 9575TIP3    H128670   8.289   0.784   4.036
 9575TIP3    H228671   8.274   0.856   4.169
 9576TIP3   OH228672   5.592   7.346   0.630
 9576TIP3    H128673   5.572   7.331   0.723
 9576TIP3    H228674   5.506   7.358   0.590
 9577TIP3   OH228675   6.061   7.388   6.397
 9577TIP3    H128676   5.974   7.392   6.436
 9577TIP3    H228677   6.065   7.302   6.355
 9578TIP3   OH228678   4.206   3.790   4.014
 9578TIP3    H128679   4.161   3.824   3.937
 9578TIP3    H228680   4.222   3.867   4.069
 9579TIP3   OH228681   5.807   5.194   6.600
 9579TIP3    H128682   5.791   5.144   6.680
 9579TIP3    H228683   5.902   5.205   6.597
 9580TIP3   OH228684   0.060   1.810   6.196
 9580TIP3    H128685  -0.021   1.845   6.159
 9580TIP3    H228686   0.035   1.770   6.279
 9581TIP3   OH228687   5.834   3.424   6.214
 9581TIP3    H128688   5.845   3.348   6.270
 9581TIP3    H228689   5.873   3.398   6.130
 9582TIP3   OH228690   6.444   2.024   2.522
 9582TIP3    H128691   6.357   2.049   2.492
 9582TIP3    H228692   6.499   2.028   2.444
 9583TIP3   OH228693   0.095   6.421   0.882
 9583TIP3    H128694   0.036   6.442   0.810
 9583TIP3    H228695   0.181   6.413   0.841
 9584TIP3   OH228696   3.200   6.339   0.683
 9584TIP3    H128697   3.188   6.433   0.670
 9584TIP3    H228698   3.266   6.332   0.752
 9585TIP3   OH228699   8.070   2.975   3.575
 9585TIP3    H128700   8.006   2.950   3.641
 9585TIP3    H228701   8.049   3.067   3.555
 9586TIP3   OH228702   6.269   3.041   0.828
 9586TIP3    H128703   6.328   3.103   0.785
 9586TIP3    H228704   6.187   3.089   0.839
 9587TIP3   OH228705   0.672   3.411   6.750
 9587TIP3    H128706   0.699   3.502   6.762
 9587TIP3    H228707   0.709   3.365   6.826
 9588TIP3   OH228708   2.189   1.840   2.494
 9588TIP3    H128709   2.267   1.882   2.531
 9588TIP3    H228710   2.165   1.895   2.419
 9589TIP3   OH228711   7.522   5.981   2.992
 9589TIP3    H128712   7.583   5.922   3.037
 9589TIP3    H228713   7.570   6.012   2.915
 9590TIP3   OH228714   5.296   4.355   4.794
 9590TIP3    H128715   5.339   4.428   4.748
 9590TIP3    H228716   5.304   4.282   4.733
 9591TIP3   OH228717   0.788   1.447   6.195
 9591TIP3    H128718   0.705   1.410   6.165
 9591TIP3    H228719   0.848   1.372   6.198
 9592TIP3   OH228720   1.411   5.211   3.268
 9592TIP3    H128721   1.429   5.143   3.334
 9592TIP3    H228722   1.361   5.278   3.315
 9593TIP3   OH228723   2.775   4.200   5.957
 9593TIP3    H128724   2.845   4.174   6.018
 9593TIP3    H228725   2.795   4.292   5.937
 9594TIP3   OH228726   8.054   7.801   3.916
 9594TIP3    H128727   8.119   7.760   3.973
 9594TIP3    H228728   7.974   7.804   3.969
 9595TIP3   OH228729   4.337   0.846   0.048
 9595TIP3    H128730   4.324   0.873   0.139
 9595TIP3    H228731   4.255   0.802   0.024
 9596TIP3   OH228732   2.017   3.014   6.685
 9596TIP3    H128733   2.079   3.004   6.613
 9596TIP3    H228734   1.991   3.106   6.683
 9597TIP3   OH228735   6.405   3.319   0.306
 9597TIP3    H128736   6.346   3.377   0.258
 9597TIP3    H228737   6.403   3.353   0.396
 9598TIP3   OH228738   5.681   5.679   5.789
 9598TIP3    H128739   5.761   5.690   5.738
 9598TIP3    H228740   5.611   5.679   5.723
 9599TIP3   OH228741   3.640   0.855   0.889
 9599TIP3    H128742   3.563   0.852   0.832
 9599TIP3    H228743   3.636   0.774   0.940
 9600TIP3   OH228744   0.832   2.262   6.173
 9600TIP3    H128745   0.836   2.333   6.236
 9600TIP3    H228746   0.739   2.248   6.158
 9601TIP3   OH228747   4.470   0.464   6.532
 9601TIP3    H128748   4.381   0.451   6.565
 9601TIP3    H228749   4.461   0.469   6.437
 9602TIP3   OH228750   1.548   3.683   6.558
 9602TIP3    H128751   1.525   3.664   6.649
 9602TIP3    H228752   1.582   3.773   6.560
 9603TIP3   OH228753   6.751   6.585   5.886
 9603TIP3    H128754   6.747   6.489   5.885
 9603TIP3    H228755   6.747   6.608   5.978
 9604TIP3   OH228756   7.356   4.344   0.555
 9604TIP3    H128757   7.344   4.277   0.488
 9604TIP3    H228758   7.441   4.383   0.535
 9605TIP3   OH228759   2.085   5.675   1.922
 9605TIP3    H128760   2.144   5.723   1.863
 9605TIP3    H228761   2.003   5.724   1.919
 9606TIP3   OH228762   4.782   3.663   0.785
 9606TIP3    H128763   4.866   3.642   0.744
 9606TIP3    H228764   4.805   3.702   0.869
 9607TIP3   OH228765   6.589   2.268   0.137
 9607TIP3    H128766   6.672   2.274   0.090
 9607TIP3    H228767   6.522   2.281   0.070
 9608TIP3   OH228768   5.687   1.477   5.811
 9608TIP3    H128769   5.598   1.506   5.794
 9608TIP3    H228770   5.709   1.421   5.735
 9609TIP3   OH228771   3.134   1.554   1.257
 9609TIP3    H128772   3.221   1.594   1.261
 9609TIP3    H228773   3.132   1.494   1.331
 9610TIP3   OH228774   4.329   1.183   2.088
 9610TIP3    H128775   4.245   1.147   2.060
 9610TIP3    H228776   4.362   1.119   2.151
 9611TIP3   OH228777   6.497   3.341   1.169
 9611TIP3    H128778   6.456   3.427   1.182
 9611TIP3    H228779   6.560   3.355   1.098
 9612TIP3   OH228780   6.966   1.137   4.213
 9612TIP3    H128781   7.052   1.103   4.191
 9612TIP3    H228782   6.914   1.060   4.234
 9613TIP3   OH228783   4.754   4.717   1.662
 9613TIP3    H128784   4.782   4.788   1.719
 9613TIP3    H228785   4.748   4.641   1.720
 9614TIP3   OH228786   4.856   0.500   1.688
 9614TIP3    H128787   4.937   0.465   1.650
 9614TIP3    H228788   4.885   0.549   1.765
 9615TIP3   OH228789   5.499   2.924   5.286
 9615TIP3    H128790   5.438   2.958   5.352
 9615TIP3    H228791   5.554   2.862   5.334
 9616TIP3   OH228792   1.820   6.383   3.424
 9616TIP3    H128793   1.843   6.460   3.476
 9616TIP3    H228794   1.775   6.419   3.348
 9617TIP3   OH228795   0.505   3.439   2.501
 9617TIP3    H128796   0.457   3.502   2.556
 9617TIP3    H228797   0.445   3.419   2.430
 9618TIP3   OH228798   7.506   7.774   4.513
 9618TIP3    H128799   7.468   7.846   4.563
 9618TIP3    H228800   7.490   7.697   4.566
 9619TIP3   OH228801   7.592   3.032   1.689
 9619TIP3    H128802   7.619   2.953   1.736
 9619TIP3    H228803   7.560   3.091   1.757
 9620TIP3   OH228804   3.280   4.905   3.219
 9620TIP3    H128805   3.356   4.959   3.242
 9620TIP3    H228806   3.283   4.831   3.279
 9621TIP3   OH228807   2.265   0.768   1.263
 9621TIP3    H128808   2.281   0.830   1.192
 9621TIP3    H228809   2.169   0.763   1.270
 9622TIP3   OH228810   4.966   6.393   5.784
 9622TIP3    H128811   4.890   6.376   5.839
 9622TIP3    H228812   4.931   6.441   5.709
 9623TIP3   OH228813   8.175   2.901   6.325
 9623TIP3    H128814   8.114   2.907   6.250
 9623TIP3    H228815   8.230   2.979   6.316
 9624TIP3   OH228816   7.728   6.868   4.412
 9624TIP3    H128817   7.698   6.955   4.387
 9624TIP3    H228818   7.666   6.839   4.479
 9625TIP3   OH228819   1.449   0.999   1.861
 9625TIP3    H128820   1.465   0.961   1.947
 9625TIP3    H228821   1.447   1.094   1.876
 9626TIP3   OH228822   7.042   2.012   1.887
 9626TIP3    H128823   7.014   2.076   1.952
 9626TIP3    H228824   7.019   2.052   1.803
 9627TIP3   OH228825   0.594   6.102   5.135
 9627TIP3    H128826   0.575   6.144   5.051
 9627TIP3    H228827   0.688   6.116   5.149
 9628TIP3   OH228828   6.369   2.763   4.324
 9628TIP3    H128829   6.411   2.836   4.369
 9628TIP3    H228830   6.281   2.759   4.360
 9629TIP3   OH228831   1.829   2.788   4.195
 9629TIP3    H128832   1.834   2.693   4.196
 9629TIP3    H228833   1.920   2.818   4.194
 9630TIP3   OH228834   0.846   2.815   2.120
 9630TIP3    H128835   0.909   2.771   2.176
 9630TIP3    H228836   0.888   2.817   2.034
 9631TIP3   OH228837   8.207   6.087   6.357
 9631TIP3    H128838   8.129   6.103   6.304
 9631TIP3    H228839   8.278   6.128   6.307
 9632TIP3   OH228840   8.129   5.684   6.346
 9632TIP3    H128841   8.095   5.638   6.423
 9632TIP3    H228842   8.147   5.615   6.282
 9633TIP3   OH228843   6.597   2.031   3.703
 9633TIP3    H128844   6.638   1.998   3.623
 9633TIP3    H228845   6.577   1.952   3.753
 9634TIP3   OH228846   1.217   2.448   4.377
 9634TIP3    H128847   1.178   2.415   4.296
 9634TIP3    H228848   1.143   2.484   4.426
 9635TIP3   OH228849   6.674   4.806   2.790
 9635TIP3    H128850   6.709   4.737   2.734
 9635TIP3    H228851   6.678   4.885   2.736
 9636TIP3   OH228852   2.492   4.464   6.452
 9636TIP3    H128853   2.460   4.379   6.421
 9636TIP3    H228854   2.540   4.500   6.378
 9637TIP3   OH228855   5.386   4.354   4.289
 9637TIP3    H128856   5.328   4.392   4.356
 9637TIP3    H228857   5.449   4.302   4.338
 9638TIP3   OH228858   6.606   5.856   0.164
 9638TIP3    H128859   6.628   5.783   0.106
 9638TIP3    H228860   6.685   5.872   0.215
 9639TIP3   OH228861   5.169   1.896   0.689
 9639TIP3    H128862   5.125   1.923   0.770
 9639TIP3    H228863   5.099   1.891   0.624
 9640TIP3   OH228864   2.696   2.476   5.889
 9640TIP3    H128865   2.688   2.381   5.903
 9640TIP3    H228866   2.727   2.485   5.800
 9641TIP3   OH228867   4.673   7.161   4.408
 9641TIP3    H128868   4.590   7.205   4.428
 9641TIP3    H228869   4.732   7.190   4.478
 9642TIP3   OH228870   7.863   1.402   1.193
 9642TIP3    H128871   7.949   1.376   1.225
 9642TIP3    H228872   7.857   1.363   1.106
 9643TIP3   OH228873   4.970   4.585   1.940
 9643TIP3    H128874   4.890   4.579   1.991
 9643TIP3    H228875   5.027   4.517   1.976
 9644TIP3   OH228876   7.300   1.360   0.214
 9644TIP3    H128877   7.358   1.430   0.242
 9644TIP3    H228878   7.257   1.330   0.294
 9645TIP3   OH228879   4.254   0.543   0.596
 9645TIP3    H128880   4.250   0.476   0.664
 9645TIP3    H228881   4.344   0.574   0.597
 9646TIP3   OH228882   3.526   4.787   6.493
 9646TIP3    H128883   3.579   4.708   6.479
 9646TIP3    H228884   3.586   4.859   6.475
 9647TIP3   OH228885   8.075   0.471   2.328
 9647TIP3    H128886   8.042   0.541   2.272
 9647TIP3    H228887   8.161   0.449   2.291
 9648TIP3   OH228888   8.003   7.069   4.475
 9648TIP3    H128889   8.038   7.122   4.547
 9648TIP3    H228890   7.941   7.127   4.431
 9649TIP3   OH228891   6.722   5.599   6.480
 9649TIP3    H128892   6.728   5.687   6.443
 9649TIP3    H228893   6.800   5.554   6.449
 9650TIP3   OH228894   4.275   1.145   3.006
 9650TIP3    H128895   4.317   1.230   2.994
 9650TIP3    H228896   4.184   1.165   3.027
 9651TIP3   OH228897   2.287   6.615   3.143
 9651TIP3    H128898   2.331   6.534   3.119
 9651TIP3    H228899   2.342   6.684   3.108
 9652TIP3   OH228900   3.445   1.247   5.335
 9652TIP3    H128901   3.442   1.328   5.284
 9652TIP3    H228902   3.401   1.182   5.280
 9653TIP3   OH228903   4.513   3.685   2.883
 9653TIP3    H128904   4.464   3.641   2.953
 9653TIP3    H228905   4.593   3.633   2.873
 9654TIP3   OH228906   8.027   3.104   2.258
 9654TIP3    H128907   7.966   3.175   2.239
 9654TIP3    H228908   7.994   3.064   2.338
 9655TIP3   OH228909   7.433   1.103   6.023
 9655TIP3    H128910   7.345   1.128   6.052
 9655TIP3    H228911   7.433   1.118   5.928
 9656TIP3   OH228912   2.815   3.542   5.726
 9656TIP3    H128913   2.721   3.541   5.745
 9656TIP3    H228914   2.848   3.461   5.763
 9657TIP3   OH228915   3.277   3.978   1.450
 9657TIP3    H128916   3.220   3.951   1.522
 9657TIP3    H228917   3.285   3.899   1.396
 9658TIP3   OH228918   5.373   2.782   5.836
 9658TIP3    H128919   5.389   2.751   5.924
 9658TIP3    H228920   5.353   2.703   5.785
 9659TIP3   OH228921   2.167   3.984   3.838
 9659TIP3    H128922   2.073   3.967   3.832
 9659TIP3    H228923   2.183   4.051   3.773
 9660TIP3   OH228924   8.288   2.841   4.837
 9660TIP3    H128925   8.249   2.789   4.767
 9660TIP3    H228926   8.214   2.887   4.876
 9661TIP3   OH228927   1.083   1.752   4.728
 9661TIP3    H128928   1.132   1.710   4.798
 9661TIP3    H228929   1.039   1.826   4.770
 9662TIP3   OH228930   6.508   4.673   1.688
 9662TIP3    H128931   6.474   4.606   1.629
 9662TIP3    H228932   6.475   4.756   1.653
 9663TIP3   OH228933   0.380   5.453   2.959
 9663TIP3    H128934   0.399   5.546   2.956
 9663TIP3    H228935   0.433   5.419   3.031
 9664TIP3   OH228936   7.664   5.017   4.315
 9664TIP3    H128937   7.749   5.051   4.342
 9664TIP3    H228938   7.683   4.930   4.279
 9665TIP3   OH228939   7.240   5.815   3.252
 9665TIP3    H128940   7.290   5.735   3.236
 9665TIP3    H228941   7.302   5.886   3.234
 9666TIP3   OH228942   7.459   7.428   5.073
 9666TIP3    H128943   7.464   7.372   5.150
 9666TIP3    H228944   7.434   7.514   5.107
 9667TIP3   OH228945   7.335   5.440   4.757
 9667TIP3    H128946   7.423   5.472   4.737
 9667TIP3    H228947   7.283   5.520   4.766
 9668TIP3   OH228948   0.474   3.056   3.076
 9668TIP3    H128949   0.433   3.111   3.143
 9668TIP3    H228950   0.488   3.115   3.002
 9669TIP3   OH228951   5.889   4.907   0.309
 9669TIP3    H128952   5.838   4.871   0.236
 9669TIP3    H228953   5.827   4.911   0.382
 9670TIP3   OH228954   6.293   2.032   5.484
 9670TIP3    H128955   6.254   2.061   5.566
 9670TIP3    H228956   6.257   2.092   5.418
 9671TIP3   OH228957   6.577   3.869   4.773
 9671TIP3    H128958   6.551   3.801   4.712
 9671TIP3    H228959   6.563   3.951   4.726
 9672TIP3   OH228960   3.149   1.842   1.574
 9672TIP3    H128961   3.055   1.823   1.566
 9672TIP3    H228962   3.189   1.796   1.501
 9673TIP3   OH228963   6.865   3.045   1.338
 9673TIP3    H128964   6.824   2.980   1.281
 9673TIP3    H228965   6.821   3.128   1.315
 9674TIP3   OH228966   5.325   5.434   1.106
 9674TIP3    H128967   5.261   5.371   1.136
 9674TIP3    H228968   5.292   5.464   1.021
 9675TIP3   OH228969   2.123   5.541   0.708
 9675TIP3    H128970   2.191   5.602   0.678
 9675TIP3    H228971   2.124   5.471   0.643
 9676TIP3   OH228972   2.619   4.973   5.699
 9676TIP3    H128973   2.647   5.064   5.694
 9676TIP3    H228974   2.697   4.923   5.675
 9677TIP3   OH228975   2.830   6.809   1.361
 9677TIP3    H128976   2.785   6.740   1.312
 9677TIP3    H228977   2.788   6.890   1.334
 9678TIP3   OH228978   7.368   0.305   2.024
 9678TIP3    H128979   7.281   0.332   2.056
 9678TIP3    H228980   7.423   0.382   2.037
 9679TIP3   OH228981   2.485   3.293   2.892
 9679TIP3    H128982   2.529   3.297   2.807
 9679TIP3    H228983   2.541   3.236   2.945
 9680TIP3   OH228984   1.435   4.579  -0.020
 9680TIP3    H128985   1.447   4.552   0.071
 9680TIP3    H228986   1.405   4.670  -0.015
 9681TIP3   OH228987   3.886   0.933   6.069
 9681TIP3    H128988   3.894   1.008   6.011
 9681TIP3    H228989   3.857   0.861   6.013
 9682TIP3   OH228990   7.608   1.962   5.489
 9682TIP3    H128991   7.632   1.879   5.531
 9682TIP3    H228992   7.549   1.936   5.418
 9683TIP3   OH228993   3.825   4.165   3.781
 9683TIP3    H128994   3.864   4.129   3.860
 9683TIP3    H228995   3.762   4.100   3.753
 9684TIP3   OH228996   7.718   6.823   6.636
 9684TIP3    H128997   7.739   6.880   6.710
 9684TIP3    H228998   7.665   6.877   6.578
 9685TIP3   OH228999   5.970   2.830   3.544
 9685TIP3    H129000   5.976   2.757   3.483
 9685TIP3    H229001   6.018   2.801   3.621
 9686TIP3   OH229002   1.295   3.934   1.617
 9686TIP3    H129003   1.224   3.997   1.633
 9686TIP3    H229004   1.256   3.849   1.638
 9687TIP3   OH229005   1.303   0.639   0.946
 9687TIP3    H129006   1.261   0.672   1.025
 9687TIP3    H229007   1.250   0.563   0.921
 9688TIP3   OH229008   6.950   1.750   5.256
 9688TIP3    H129009   6.958   1.779   5.165
 9688TIP3    H229010   6.979   1.825   5.307
 9689TIP3   OH229011   3.010   7.724   5.907
 9689TIP3    H129012   2.996   7.634   5.936
 9689TIP3    H229013   2.939   7.774   5.948
 9690TIP3   OH229014   1.338   7.671   0.071
 9690TIP3    H129015   1.316   7.750   0.120
 9690TIP3    H229016   1.394   7.621   0.131
 9691TIP3   OH229017   3.349   0.452   1.080
 9691TIP3    H129018   3.385   0.364   1.079
 9691TIP3    H229019   3.276   0.448   1.143
 9692TIP3   OH229020   4.286   1.379   3.670
 9692TIP3    H129021   4.222   1.443   3.640
 9692TIP3    H229022   4.325   1.419   3.748
 9693TIP3   OH229023   5.085   2.929   1.255
 9693TIP3    H129024   4.994   2.924   1.226
 9693TIP3    H229025   5.129   2.858   1.207
 9694TIP3   OH229026   1.011   4.256   4.376
 9694TIP3    H129027   1.004   4.271   4.470
 9694TIP3    H229028   1.046   4.168   4.367
 9695TIP3   OH229029   6.295   4.135   1.444
 9695TIP3    H129030   6.289   4.042   1.466
 9695TIP3    H229031   6.214   4.154   1.397
 9696TIP3   OH229032   6.567   7.134   0.407
 9696TIP3    H129033   6.509   7.210   0.396
 9696TIP3    H229034   6.520   7.077   0.468
 9697TIP3   OH229035   3.893   2.998   3.162
 9697TIP3    H129036   3.985   2.976   3.178
 9697TIP3    H229037   3.873   3.065   3.228
 9698TIP3   OH229038   3.330   0.426   5.007
 9698TIP3    H129039   3.240   0.444   4.978
 9698TIP3    H229040   3.323   0.347   5.061
 9699TIP3   OH229041   0.661   1.577   2.764
 9699TIP3    H129042   0.626   1.507   2.709
 9699TIP3    H229043   0.666   1.539   2.852
 9700TIP3   OH229044   3.092   5.368   5.990
 9700TIP3    H129045   3.161   5.313   5.953
 9700TIP3    H229046   3.090   5.445   5.934
 9701TIP3   OH229047   4.034   0.075   1.887
 9701TIP3    H129048   4.033   0.052   1.980
 9701TIP3    H229049   4.035  -0.010   1.842
 9702TIP3   OH229050   4.556   5.042   5.714
 9702TIP3    H129051   4.528   4.998   5.794
 9702TIP3    H229052   4.615   4.981   5.671
 9703TIP3   OH229053   3.409   2.864   0.804
 9703TIP3    H129054   3.389   2.869   0.898
 9703TIP3    H229055   3.340   2.916   0.762
 9704TIP3   OH229056   0.009   5.017   4.501
 9704TIP3    H129057   0.092   4.970   4.502
 9704TIP3    H229058   0.019   5.083   4.432
 9705TIP3   OH229059   7.667   3.491   6.063
 9705TIP3    H129060   7.589   3.545   6.076
 9705TIP3    H229061   7.737   3.553   6.045
 9706TIP3   OH229062   7.170   6.426   2.146
 9706TIP3    H129063   7.150   6.423   2.053
 9706TIP3    H229064   7.240   6.490   2.154
 9707TIP3   OH229065   7.242   0.716   3.646
 9707TIP3    H129066   7.151   0.744   3.649
 9707TIP3    H229067   7.292   0.795   3.666
 9708TIP3   OH229068   7.879   6.112   3.095
 9708TIP3    H129069   7.919   6.107   3.182
 9708TIP3    H229070   7.832   6.029   3.086
 9709TIP3   OH229071   5.930   2.886   0.879
 9709TIP3    H129072   6.002   2.833   0.846
 9709TIP3    H229073   5.939   2.970   0.834
 9710TIP3   OH229074   6.047   0.481   3.372
 9710TIP3    H129075   6.086   0.569   3.367
 9710TIP3    H229076   6.090   0.432   3.302
 9711TIP3   OH229077   5.075   2.761   3.953
 9711TIP3    H129078   5.165   2.744   3.927
 9711TIP3    H229079   5.066   2.721   4.039
 9712TIP3   OH229080   8.062   1.685   0.127
 9712TIP3    H129081   8.099   1.706   0.213
 9712TIP3    H229082   8.105   1.604   0.102
 9713TIP3   OH229083   7.537   6.253   0.962
 9713TIP3    H129084   7.622   6.274   0.925
 9713TIP3    H229085   7.544   6.161   0.988
 9714TIP3   OH229086   4.926   6.908   1.064
 9714TIP3    H129087   4.841   6.899   1.020
 9714TIP3    H229088   4.983   6.845   1.018
 9715TIP3   OH229089   3.527   4.660   2.885
 9715TIP3    H129090   3.438   4.695   2.876
 9715TIP3    H229091   3.576   4.732   2.925
 9716TIP3   OH229092   1.954   7.524   2.945
 9716TIP3    H129093   1.947   7.608   2.900
 9716TIP3    H229094   1.878   7.474   2.916
 9717TIP3   OH229095   1.788   5.023   1.898
 9717TIP3    H129096   1.725   5.017   1.826
 9717TIP3    H229097   1.860   5.075   1.863
 9718TIP3   OH229098   7.259   0.186   5.811
 9718TIP3    H129099   7.222   0.139   5.736
 9718TIP3    H229100   7.310   0.120   5.857
 9719TIP3   OH229101   0.274   4.664   2.550
 9719TIP3    H129102   0.346   4.722   2.574
 9719TIP3    H229103   0.202   4.724   2.527
 9720TIP3   OH229104   4.408   4.551   0.412
 9720TIP3    H129105   4.327   4.502   0.425
 9720TIP3    H229106   4.461   4.531   0.489
 9721TIP3   OH229107   1.507   0.034   3.727
 9721TIP3    H129108   1.556  -0.046   3.748
 9721TIP3    H229109   1.515   0.043   3.632
 9722TIP3   OH229110   4.665   6.938   3.539
 9722TIP3    H129111   4.705   6.880   3.604
 9722TIP3    H229112   4.720   7.016   3.540
 9723TIP3   OH229113   7.427   3.731   2.747
 9723TIP3    H129114   7.511   3.773   2.728
 9723TIP3    H229115   7.377   3.798   2.793
 9724TIP3   OH229116   0.675   7.055  -0.037
 9724TIP3    H129117   0.638   7.117   0.026
 9724TIP3    H229118   0.769   7.074  -0.039
 9725TIP3   OH229119   5.720   2.810   6.035
 9725TIP3    H129120   5.774   2.794   6.113
 9725TIP3    H229121   5.632   2.820   6.069
 9726TIP3   OH229122   4.387   4.149   0.296
 9726TIP3    H129123   4.305   4.196   0.288
 9726TIP3    H229124   4.455   4.217   0.288
 9727TIP3   OH229125   3.029   7.840   6.204
 9727TIP3    H129126   2.965   7.856   6.135
 9727TIP3    H229127   2.980   7.793   6.271
 9728TIP3   OH229128   4.544   5.197   3.054
 9728TIP3    H129129   4.583   5.278   3.021
 9728TIP3    H229130   4.618   5.145   3.083
 9729TIP3   OH229131   1.203   6.986   2.946
 9729TIP3    H129132   1.191   6.938   3.028
 9729TIP3    H229133   1.266   6.933   2.897
 9730TIP3   OH229134   5.422   3.520   4.721
 9730TIP3    H129135   5.510   3.482   4.717
 9730TIP3    H229136   5.431   3.606   4.681
 9731TIP3   OH229137   4.956   7.633   3.370
 9731TIP3    H129138   4.865   7.659   3.382
 9731TIP3    H229139   4.964   7.617   3.276
 9732TIP3   OH229140   3.491   3.282   3.080
 9732TIP3    H129141   3.455   3.274   3.168
 9732TIP3    H229142   3.542   3.202   3.067
 9733TIP3   OH229143   6.155   6.841   4.788
 9733TIP3    H129144   6.241   6.883   4.781
 9733TIP3    H229145   6.175   6.750   4.808
 9734TIP3   OH229146   1.391   2.991   1.470
 9734TIP3    H129147   1.452   3.064   1.463
 9734TIP3    H229148   1.326   3.020   1.535
 9735TIP3   OH229149   3.523   6.798   0.039
 9735TIP3    H129150   3.588   6.866   0.020
 9735TIP3    H229151   3.441   6.832   0.003
 9736TIP3   OH229152   0.100   3.186   3.146
 9736TIP3    H129153   0.125   3.276   3.167
 9736TIP3    H229154   0.104   3.182   3.050
 9737TIP3   OH229155   4.219   0.436   3.359
 9737TIP3    H129156   4.196   0.449   3.267
 9737TIP3    H229157   4.291   0.497   3.374
 9738TIP3   OH229158   6.798   4.334   2.938
 9738TIP3    H129159   6.831   4.344   2.848
 9738TIP3    H229160   6.796   4.423   2.973
 9739TIP3   OH229161   7.109   5.901   2.980
 9739TIP3    H129162   7.203   5.883   2.971
 9739TIP3    H229163   7.070   5.817   3.005
 9740TIP3   OH229164   5.982   7.526   1.154
 9740TIP3    H129165   6.061   7.579   1.140
 9740TIP3    H229166   5.995   7.448   1.101
 9741TIP3   OH229167   2.447   3.904   3.294
 9741TIP3    H129168   2.351   3.904   3.287
 9741TIP3    H229169   2.477   3.914   3.203
 9742TIP3   OH229170   4.176   2.427   1.614
 9742TIP3    H129171   4.109   2.359   1.617
 9742TIP3    H229172   4.225   2.417   1.695
 9743TIP3   OH229173   8.150   0.675   3.537
 9743TIP3    H129174   8.073   0.723   3.567
 9743TIP3    H229175   8.224   0.719   3.580
 9744TIP3   OH229176   0.431   5.994   1.677
 9744TIP3    H129177   0.371   5.982   1.602
 9744TIP3    H229178   0.373   6.012   1.751
 9745TIP3   OH229179   7.490   4.558   4.892
 9745TIP3    H129180   7.444   4.641   4.903
 9745TIP3    H229181   7.520   4.535   4.980
 9746TIP3   OH229182   1.522   3.035   2.022
 9746TIP3    H129183   1.598   3.091   2.004
 9746TIP3    H229184   1.558   2.963   2.075
 9747TIP3   OH229185   6.742   3.178   6.493
 9747TIP3    H129186   6.697   3.262   6.503
 9747TIP3    H229187   6.769   3.155   6.582
 9748TIP3   OH229188   3.354   2.181   3.376
 9748TIP3    H129189   3.423   2.244   3.353
 9748TIP3    H229190   3.274   2.219   3.341
 9749TIP3   OH229191   3.535   5.551   1.155
 9749TIP3    H129192   3.568   5.477   1.207
 9749TIP3    H229193   3.593   5.554   1.079
 9750TIP3   OH229194   5.468   5.502   3.876
 9750TIP3    H129195   5.476   5.594   3.850
 9750TIP3    H229196   5.475   5.504   3.972
 9751TIP3   OH229197   6.619   6.388   2.649
 9751TIP3    H129198   6.636   6.305   2.604
 9751TIP3    H229199   6.630   6.367   2.742
 9752TIP3   OH229200   6.345   0.118   5.942
 9752TIP3    H129201   6.406   0.185   5.973
 9752TIP3    H229202   6.298   0.091   6.021
 9753TIP3   OH229203   1.150   5.225   5.482
 9753TIP3    H129204   1.199   5.251   5.404
 9753TIP3    H229205   1.094   5.299   5.502
 9754TIP3   OH229206   3.012   0.634   3.434
 9754TIP3    H129207   3.076   0.686   3.483
 9754TIP3    H229208   2.966   0.584   3.501
 9755TIP3   OH229209   0.421   7.462   5.869
 9755TIP3    H129210   0.350   7.483   5.808
 9755TIP3    H229211   0.482   7.410   5.817
 9756TIP3   OH229212   7.270   4.928   6.694
 9756TIP3    H129213   7.203   4.872   6.733
 9756TIP3    H229214   7.222   4.984   6.633
 9757TIP3   OH229215   4.501   5.755   4.734
 9757TIP3    H129216   4.407   5.742   4.726
 9757TIP3    H229217   4.540   5.690   4.675
 9758TIP3   OH229218   6.543   4.731   0.578
 9758TIP3    H129219   6.516   4.818   0.550
 9758TIP3    H229220   6.569   4.687   0.497
 9759TIP3   OH229221   4.196   6.299   4.777
 9759TIP3    H129222   4.133   6.232   4.752
 9759TIP3    H229223   4.157   6.381   4.749
 9760TIP3   OH229224   1.965   4.616   2.483
 9760TIP3    H129225   2.025   4.654   2.418
 9760TIP3    H229226   1.899   4.683   2.497
 9761TIP3   OH229227   0.051   0.933   4.740
 9761TIP3    H129228  -0.021   0.953   4.680
 9761TIP3    H229229   0.013   0.945   4.827
 9762TIP3   OH229230   5.329   0.614   1.319
 9762TIP3    H129231   5.287   0.645   1.239
 9762TIP3    H229232   5.354   0.524   1.300
 9763TIP3   OH229233   4.483   1.904   1.677
 9763TIP3    H129234   4.556   1.911   1.617
 9763TIP3    H229235   4.411   1.868   1.625
 9764TIP3   OH229236   5.088   3.028   2.218
 9764TIP3    H129237   5.124   2.940   2.228
 9764TIP3    H229238   5.044   3.026   2.133
 9765TIP3   OH229239   7.873   3.218   4.367
 9765TIP3    H129240   7.866   3.295   4.424
 9765TIP3    H229241   7.948   3.236   4.311
 9766TIP3   OH229242   6.921   5.751   2.166
 9766TIP3    H129243   6.986   5.690   2.201
 9766TIP3    H229244   6.967   5.799   2.097
 9767TIP3   OH229245   6.623   0.218   4.419
 9767TIP3    H129246   6.572   0.214   4.338
 9767TIP3    H229247   6.652   0.128   4.433
 9768TIP3   OH229248   1.342   5.716   3.533
 9768TIP3    H129249   1.304   5.634   3.564
 9768TIP3    H229250   1.436   5.698   3.529
 9769TIP3   OH229251   3.931   5.445   3.239
 9769TIP3    H129252   3.888   5.446   3.325
 9769TIP3    H229253   3.994   5.517   3.243
 9770TIP3   OH229254   4.718   3.549   2.782
 9770TIP3    H129255   4.714   3.506   2.696
 9770TIP3    H229256   4.753   3.482   2.841
 9771TIP3   OH229257   4.559   2.040   3.548
 9771TIP3    H129258   4.580   2.001   3.633
 9771TIP3    H229259   4.475   2.083   3.562
 9772TIP3   OH229260   3.710   3.019   0.316
 9772TIP3    H129261   3.756   3.003   0.398
 9772TIP3    H229262   3.770   3.075   0.266
 9773TIP3   OH229263   6.557   6.013   6.002
 9773TIP3    H129264   6.481   6.066   5.977
 9773TIP3    H229265   6.535   5.978   6.088
 9774TIP3   OH229266   1.715   7.467   1.159
 9774TIP3    H129267   1.651   7.533   1.132
 9774TIP3    H229268   1.665   7.386   1.166
 9775TIP3   OH229269   2.434   0.417   3.523
 9775TIP3    H129270   2.456   0.472   3.448
 9775TIP3    H229271   2.390   0.476   3.584
 9776TIP3   OH229272   2.172   5.514   5.524
 9776TIP3    H129273   2.155   5.448   5.591
 9776TIP3    H229274   2.204   5.464   5.449
 9777TIP3   OH229275   7.214   2.302   3.503
 9777TIP3    H129276   7.177   2.226   3.457
 9777TIP3    H229277   7.249   2.265   3.584
 9778TIP3   OH229278   4.096   1.110   1.767
 9778TIP3    H129279   4.053   1.084   1.686
 9778TIP3    H229280   4.153   1.182   1.742
 9779TIP3   OH229281   0.777   6.379   2.253
 9779TIP3    H129282   0.824   6.399   2.334
 9779TIP3    H229283   0.823   6.430   2.186
 9780TIP3   OH229284   7.778   3.375   6.301
 9780TIP3    H129285   7.769   3.391   6.207
 9780TIP3    H229286   7.783   3.280   6.309
 9781TIP3   OH229287   3.943   4.878   3.577
 9781TIP3    H129288   3.872   4.940   3.566
 9781TIP3    H229289   3.994   4.885   3.496
 9782TIP3   OH229290   5.140   1.287   4.590
 9782TIP3    H129291   5.105   1.329   4.669
 9782TIP3    H229292   5.234   1.279   4.606
 9783TIP3   OH229293   3.299   6.524   5.100
 9783TIP3    H129294   3.298   6.618   5.082
 9783TIP3    H229295   3.356   6.487   5.033
 9784TIP3   OH229296   6.903   2.454   0.716
 9784TIP3    H129297   6.947   2.470   0.800
 9784TIP3    H229298   6.821   2.411   0.740
 9785TIP3   OH229299   0.068   4.921   6.152
 9785TIP3    H129300   0.017   4.841   6.137
 9785TIP3    H229301   0.157   4.898   6.128
 9786TIP3   OH229302   3.518   0.641   4.127
 9786TIP3    H129303   3.580   0.714   4.136
 9786TIP3    H229304   3.553   0.573   4.185
 9787TIP3   OH229305   6.497   1.123   5.712
 9787TIP3    H129306   6.422   1.082   5.755
 9787TIP3    H229307   6.573   1.086   5.758
 9788TIP3   OH229308   7.019   6.658   4.806
 9788TIP3    H129309   6.977   6.597   4.745
 9788TIP3    H229310   7.061   6.602   4.871
 9789TIP3   OH229311   3.181   5.560   3.678
 9789TIP3    H129312   3.239   5.492   3.712
 9789TIP3    H229313   3.097   5.543   3.721
 9790TIP3   OH229314   2.380   1.657   2.734
 9790TIP3    H129315   2.464   1.615   2.717
 9790TIP3    H229316   2.369   1.720   2.663
 9791TIP3   OH229317   0.238   3.402   1.233
 9791TIP3    H129318   0.202   3.478   1.188
 9791TIP3    H229319   0.179   3.388   1.307
 9792TIP3   OH229320   1.712   2.622   6.102
 9792TIP3    H129321   1.785   2.561   6.097
 9792TIP3    H229322   1.736   2.683   6.172
 9793TIP3   OH229323   1.511   5.227   3.669
 9793TIP3    H129324   1.536   5.162   3.603
 9793TIP3    H229325   1.502   5.176   3.750
 9794TIP3   OH229326   4.238   3.021   0.048
 9794TIP3    H129327   4.207   2.995   0.134
 9794TIP3    H229328   4.319   3.069   0.064
 9795TIP3   OH229329   8.231   0.980   4.966
 9795TIP3    H129330   8.142   0.945   4.967
 9795TIP3    H229331   8.220   1.074   4.976
 9796TIP3   OH229332   6.900   6.376   1.043
 9796TIP3    H129333   6.986   6.337   1.053
 9796TIP3    H229334   6.898   6.410   0.954
 9797TIP3   OH229335   6.905   5.946   4.338
 9797TIP3    H129336   6.952   6.016   4.293
 9797TIP3    H229337   6.831   5.990   4.380
 9798TIP3   OH229338   0.699   2.853   1.035
 9798TIP3    H129339   0.637   2.925   1.026
 9798TIP3    H229340   0.684   2.798   0.958
 9799TIP3   OH229341   1.454   7.757   2.734
 9799TIP3    H129342   1.478   7.807   2.812
 9799TIP3    H229343   1.524   7.692   2.725
 9800TIP3   OH229344   1.941   6.779   2.314
 9800TIP3    H129345   1.922   6.855   2.369
 9800TIP3    H229346   1.992   6.814   2.241
 9801TIP3   OH229347   4.415   4.841   0.947
 9801TIP3    H129348   4.366   4.773   0.994
 9801TIP3    H229349   4.390   4.923   0.989
 9802TIP3   OH229350   4.599   2.900   1.076
 9802TIP3    H129351   4.674   2.869   1.025
 9802TIP3    H229352   4.592   2.993   1.054
 9803TIP3   OH229353   2.425   7.156   6.660
 9803TIP3    H129354   2.340   7.197   6.642
 9803TIP3    H229355   2.486   7.202   6.604
 9804TIP3   OH229356   5.075   1.259   1.809
 9804TIP3    H129357   5.016   1.335   1.812
 9804TIP3    H229358   5.127   1.266   1.889
 9805TIP3   OH229359   4.353   4.101   4.653
 9805TIP3    H129360   4.303   4.122   4.732
 9805TIP3    H229361   4.392   4.015   4.670
 9806TIP3   OH229362   4.723   2.823   4.502
 9806TIP3    H129363   4.640   2.851   4.463
 9806TIP3    H229364   4.711   2.729   4.518
 9807TIP3   OH229365   3.295   2.516   3.262
 9807TIP3    H129366   3.320   2.517   3.354
 9807TIP3    H229367   3.358   2.573   3.219
 9808TIP3   OH229368   5.585   0.900   1.916
 9808TIP3    H129369   5.499   0.937   1.935
 9808TIP3    H229370   5.614   0.946   1.837
 9809TIP3   OH229371   0.286   4.970   2.363
 9809TIP3    H129372   0.267   5.060   2.389
 9809TIP3    H229373   0.340   4.935   2.434
 9810TIP3   OH229374   1.794   3.294   5.456
 9810TIP3    H129375   1.799   3.249   5.540
 9810TIP3    H229376   1.746   3.233   5.399
 9811TIP3   OH229377   7.366   1.880   4.346
 9811TIP3    H129378   7.431   1.850   4.282
 9811TIP3    H229379   7.324   1.955   4.305
 9812TIP3   OH229380   6.135   3.247   1.021
 9812TIP3    H129381   6.090   3.329   1.043
 9812TIP3    H229382   6.182   3.223   1.101
 9813TIP3   OH229383   1.715   1.045   5.995
 9813TIP3    H129384   1.773   0.971   6.013
 9813TIP3    H229385   1.732   1.066   5.903
 9814TIP3   OH229386   4.127   4.299   4.405
 9814TIP3    H129387   4.114   4.363   4.475
 9814TIP3    H229388   4.040   4.263   4.389
 9815TIP3   OH229389   7.705   7.223   6.764
 9815TIP3    H129390   7.663   7.308   6.753
 9815TIP3    H229391   7.649   7.177   6.827
 9816TIP3   OH229392   7.050   5.118   0.504
 9816TIP3    H129393   7.126   5.106   0.561
 9816TIP3    H229394   7.016   5.029   0.490
 9817TIP3   OH229395   5.772   7.514   5.031
 9817TIP3    H129396   5.682   7.515   5.063
 9817TIP3    H229397   5.810   7.596   5.064
 9818TIP3   OH229398   5.350   3.340   2.371
 9818TIP3    H129399   5.371   3.264   2.318
 9818TIP3    H229400   5.260   3.363   2.347
 9819TIP3   OH229401   5.952   1.020   6.761
 9819TIP3    H129402   6.043   1.003   6.736
 9819TIP3    H229403   5.956   1.103   6.810
 9820TIP3   OH229404   4.785   0.502   4.295
 9820TIP3    H129405   4.778   0.568   4.226
 9820TIP3    H229406   4.716   0.526   4.358
 9821TIP3   OH229407   1.574   1.766   3.544
 9821TIP3    H129408   1.530   1.690   3.505
 9821TIP3    H229409   1.606   1.734   3.629
 9822TIP3   OH229410   3.347   1.262   5.607
 9822TIP3    H129411   3.362   1.249   5.513
 9822TIP3    H229412   3.331   1.174   5.641
 9823TIP3   OH229413   7.847   5.387   4.365
 9823TIP3    H129414   7.818   5.350   4.448
 9823TIP3    H229415   7.911   5.454   4.390
 9824TIP3   OH229416   5.946   2.694   4.943
 9824TIP3    H129417   5.966   2.622   4.884
 9824TIP3    H229418   5.857   2.675   4.975
 9825TIP3   OH229419   4.560   5.607   0.313
 9825TIP3    H129420   4.538   5.583   0.223
 9825TIP3    H229421   4.655   5.617   0.313
 9826TIP3   OH229422   5.888   5.774   5.664
 9826TIP3    H129423   5.902   5.861   5.703
 9826TIP3    H229424   5.878   5.791   5.571
 9827TIP3   OH229425   2.396   4.284   6.277
 9827TIP3    H129426   2.477   4.241   6.249
 9827TIP3    H229427   2.326   4.225   6.247
 9828TIP3   OH229428   1.720   6.744   1.633
 9828TIP3    H129429   1.673   6.823   1.607
 9828TIP3    H229430   1.789   6.734   1.568
 9829TIP3   OH229431   7.993   7.690   0.331
 9829TIP3    H129432   8.036   7.774   0.317
 9829TIP3    H229433   7.900   7.709   0.324
 9830TIP3   OH229434   0.985   2.042   0.982
 9830TIP3    H129435   0.985   1.955   0.943
 9830TIP3    H229436   1.077   2.066   0.989
 9831TIP3   OH229437   4.839   4.758   6.625
 9831TIP3    H129438   4.926   4.750   6.585
 9831TIP3    H229439   4.806   4.842   6.593
 9832TIP3   OH229440   3.958   6.911   0.149
 9832TIP3    H129441   3.973   6.833   0.096
 9832TIP3    H229442   3.961   6.880   0.239
 9833TIP3   OH229443   5.030   2.280   1.570
 9833TIP3    H129444   4.990   2.332   1.500
 9833TIP3    H229445   5.115   2.253   1.535
 9834TIP3   OH229446   7.465   1.442   2.315
 9834TIP3    H129447   7.544   1.400   2.281
 9834TIP3    H229448   7.423   1.481   2.239
 9835TIP3   OH229449   5.562   0.412   4.144
 9835TIP3    H129450   5.578   0.465   4.221
 9835TIP3    H229451   5.568   0.473   4.071
 9836TIP3   OH229452   0.600   5.909   0.929
 9836TIP3    H129453   0.563   5.827   0.895
 9836TIP3    H229454   0.653   5.942   0.857
 9837TIP3   OH229455   7.741   5.245   0.869
 9837TIP3    H129456   7.753   5.215   0.959
 9837TIP3    H229457   7.791   5.326   0.864
 9838TIP3   OH229458   5.923   0.790   5.864
 9838TIP3    H129459   5.872   0.716   5.897
 9838TIP3    H229460   5.914   0.784   5.769
 9839TIP3   OH229461   1.660   0.657   5.348
 9839TIP3    H129462   1.608   0.725   5.390
 9839TIP3    H229463   1.748   0.695   5.340
 9840TIP3   OH229464   8.050   4.268   1.062
 9840TIP3    H129465   8.000   4.281   1.143
 9840TIP3    H229466   8.110   4.343   1.059
 9841TIP3   OH229467   2.615   2.746   1.427
 9841TIP3    H129468   2.524   2.724   1.446
 9841TIP3    H229469   2.665   2.707   1.499
 9842TIP3   OH229470   6.748   3.209   0.613
 9842TIP3    H129471   6.842   3.203   0.630
 9842TIP3    H229472   6.735   3.299   0.584
 9843TIP3   OH229473   8.285   5.505   1.820
 9843TIP3    H129474   8.265   5.413   1.808
 9843TIP3    H229475   8.203   5.544   1.850
 9844TIP3   OH229476   3.606   7.328   5.028
 9844TIP3    H129477   3.591   7.416   5.062
 9844TIP3    H229478   3.519   7.298   5.000
 9845TIP3   OH229479   6.241   5.893   3.625
 9845TIP3    H129480   6.258   5.972   3.574
 9845TIP3    H229481   6.268   5.821   3.567
 9846TIP3   OH229482   3.660   1.896   4.808
 9846TIP3    H129483   3.627   1.807   4.796
 9846TIP3    H229484   3.584   1.946   4.838
 9847TIP3   OH229485   4.106   7.052   6.328
 9847TIP3    H129486   4.174   7.047   6.396
 9847TIP3    H229487   4.124   6.978   6.271
 9848TIP3   OH229488   7.467   1.940   6.062
 9848TIP3    H129489   7.483   1.893   5.980
 9848TIP3    H229490   7.419   2.018   6.036
 9849TIP3   OH229491   6.456   7.785   6.463
 9849TIP3    H129492   6.389   7.743   6.410
 9849TIP3    H229493   6.475   7.722   6.533
 9850TIP3   OH229494   5.852   6.118   6.725
 9850TIP3    H129495   5.801   6.198   6.716
 9850TIP3    H229496   5.787   6.051   6.745
 9851TIP3   OH229497   7.790   4.179   5.187
 9851TIP3    H129498   7.723   4.246   5.198
 9851TIP3    H229499   7.772   4.142   5.100
 9852TIP3   OH229500   1.316   1.799   5.392
 9852TIP3    H129501   1.303   1.732   5.325
 9852TIP3    H229502   1.228   1.819   5.423
 9853TIP3   OH229503   0.671   1.747   1.846
 9853TIP3    H129504   0.623   1.786   1.773
 9853TIP3    H229505   0.619   1.770   1.923
 9854TIP3   OH229506   7.756   3.796   4.310
 9854TIP3    H129507   7.845   3.768   4.292
 9854TIP3    H229508   7.732   3.751   4.391
 9855TIP3   OH229509   5.725   2.682   1.949
 9855TIP3    H129510   5.721   2.685   1.853
 9855TIP3    H229511   5.813   2.711   1.971
 9856TIP3   OH229512   7.773   2.131   0.647
 9856TIP3    H129513   7.737   2.204   0.596
 9856TIP3    H229514   7.835   2.089   0.587
 9857TIP3   OH229515   6.622   3.736   0.327
 9857TIP3    H129516   6.548   3.701   0.277
 9857TIP3    H229517   6.687   3.759   0.261
 9858TIP3   OH229518   4.152   2.572   0.618
 9858TIP3    H129519   4.193   2.657   0.630
 9858TIP3    H229520   4.177   2.521   0.695
 9859TIP3   OH229521   2.024   5.295   0.988
 9859TIP3    H129522   2.104   5.249   1.015
 9859TIP3    H229523   2.055   5.384   0.966
 9860TIP3   OH229524   3.794   3.775   3.946
 9860TIP3    H129525   3.800   3.825   4.027
 9860TIP3    H229526   3.706   3.793   3.913
 9861TIP3   OH229527   0.889   1.724   5.014
 9861TIP3    H129528   0.942   1.660   5.062
 9861TIP3    H229529   0.803   1.682   5.005
 9862TIP3   OH229530   4.511   0.264   3.484
 9862TIP3    H129531   4.459   0.187   3.509
 9862TIP3    H229532   4.476   0.290   3.399
 9863TIP3   OH229533   4.610   2.512   0.516
 9863TIP3    H129534   4.587   2.419   0.521
 9863TIP3    H229535   4.540   2.551   0.463
 9864TIP3   OH229536   4.716   2.003   1.117
 9864TIP3    H129537   4.659   2.068   1.159
 9864TIP3    H229538   4.674   1.985   1.033
 9865TIP3   OH229539   7.971   1.502   0.484
 9865TIP3    H129540   7.923   1.499   0.402
 9865TIP3    H229541   8.055   1.542   0.461
 9866TIP3   OH229542   6.158   3.629   0.751
 9866TIP3    H129543   6.215   3.558   0.723
 9866TIP3    H229544   6.123   3.666   0.670
 9867TIP3   OH229545   1.319   3.174   2.864
 9867TIP3    H129546   1.391   3.111   2.868
 9867TIP3    H229547   1.347   3.238   2.799
 9868TIP3   OH229548   0.356   4.685   0.996
 9868TIP3    H129549   0.344   4.686   0.901
 9868TIP3    H229550   0.275   4.721   1.031
 9869TIP3   OH229551   1.485   2.880   3.326
 9869TIP3    H129552   1.498   2.790   3.356
 9869TIP3    H229553   1.542   2.933   3.383
 9870TIP3   OH229554   3.302   7.217   1.871
 9870TIP3    H129555   3.268   7.128   1.862
 9870TIP3    H229556   3.324   7.225   1.964
 9871TIP3   OH229557   4.500   2.038   4.585
 9871TIP3    H129558   4.538   2.020   4.499
 9871TIP3    H229559   4.573   2.025   4.646
 9872TIP3   OH229560   8.163   2.856   1.157
 9872TIP3    H129561   8.225   2.902   1.100
 9872TIP3    H229562   8.094   2.921   1.174
 9873TIP3   OH229563   2.353   0.414   0.055
 9873TIP3    H129564   2.400   0.456  -0.018
 9873TIP3    H229565   2.419   0.404   0.123
 9874TIP3   OH229566   4.181   4.358   3.759
 9874TIP3    H129567   4.138   4.292   3.813
 9874TIP3    H229568   4.126   4.366   3.681
 9875TIP3   OH229569   4.792   3.238   1.090
 9875TIP3    H129570   4.831   3.325   1.074
 9875TIP3    H229571   4.750   3.247   1.175
 9876TIP3   OH229572   1.018   3.741   0.139
 9876TIP3    H129573   0.947   3.683   0.112
 9876TIP3    H229574   1.096   3.707   0.094
 9877TIP3   OH229575   7.298   3.164   3.786
 9877TIP3    H129576   7.234   3.099   3.756
 9877TIP3    H229577   7.245   3.241   3.808
 9878TIP3   OH229578  -0.018   6.597   1.685
 9878TIP3    H129579   0.048   6.625   1.749
 9878TIP3    H229580  -0.099   6.591   1.736
 9879TIP3   OH229581   8.103   1.789   4.401
 9879TIP3    H129582   8.007   1.783   4.405
 9879TIP3    H229583   8.120   1.857   4.336
 9880TIP3   OH229584   3.287   4.617   5.775
 9880TIP3    H129585   3.227   4.629   5.849
 9880TIP3    H229586   3.288   4.522   5.761
 9881TIP3   OH229587   7.000   5.885   5.302
 9881TIP3    H129588   6.916   5.843   5.286
 9881TIP3    H229589   6.988   5.976   5.275
 9882TIP3   OH229590   7.841   4.561   4.322
 9882TIP3    H129591   7.792   4.519   4.393
 9882TIP3    H229592   7.852   4.492   4.257
 9883TIP3   OH229593   0.990   6.940   3.411
 9883TIP3    H129594   0.934   6.864   3.398
 9883TIP3    H229595   1.075   6.904   3.434
 9884TIP3   OH229596   6.939   0.391   3.358
 9884TIP3    H129597   6.880   0.416   3.429
 9884TIP3    H229598   7.025   0.424   3.385
 9885TIP3   OH229599   6.927   7.568   0.555
 9885TIP3    H129600   6.991   7.609   0.496
 9885TIP3    H229601   6.980   7.530   0.624
 9886TIP3   OH229602   3.943   3.625   0.209
 9886TIP3    H129603   3.903   3.573   0.278
 9886TIP3    H229604   4.032   3.643   0.240
 9887TIP3   OH229605   6.870   2.473   5.654
 9887TIP3    H129606   6.862   2.389   5.699
 9887TIP3    H229607   6.861   2.539   5.723
 9888TIP3   OH229608   7.118   2.118   5.767
 9888TIP3    H129609   7.029   2.153   5.762
 9888TIP3    H229610   7.170   2.179   5.715
 9889TIP3   OH229611   3.649   0.096   4.400
 9889TIP3    H129612   3.692   0.030   4.346
 9889TIP3    H229613   3.720   0.153   4.431
 9890TIP3   OH229614   4.762   7.322   1.901
 9890TIP3    H129615   4.675   7.315   1.862
 9890TIP3    H229616   4.751   7.289   1.991
 9891TIP3   OH229617   3.261   7.694   5.476
 9891TIP3    H129618   3.183   7.748   5.482
 9891TIP3    H229619   3.327   7.750   5.436
 9892TIP3   OH229620   4.596   4.811   3.774
 9892TIP3    H129621   4.670   4.751   3.761
 9892TIP3    H229622   4.587   4.817   3.869
 9893TIP3   OH229623   3.752   4.014   1.172
 9893TIP3    H129624   3.696   3.974   1.106
 9893TIP3    H229625   3.754   3.951   1.244
 9894TIP3   OH229626   8.196   7.297   4.948
 9894TIP3    H129627   8.263   7.360   4.974
 9894TIP3    H229628   8.227   7.213   4.981
 9895TIP3   OH229629   4.139   6.584   6.086
 9895TIP3    H129630   4.179   6.502   6.056
 9895TIP3    H229631   4.055   6.557   6.122
 9896TIP3   OH229632   4.682   4.972   3.544
 9896TIP3    H129633   4.684   4.956   3.638
 9896TIP3    H229634   4.599   4.935   3.514
 9897TIP3   OH229635   4.126   7.070   5.122
 9897TIP3    H129636   4.128   6.987   5.170
 9897TIP3    H229637   4.058   7.057   5.055
 9898TIP3   OH229638   0.614   6.728   5.089
 9898TIP3    H129639   0.563   6.727   5.008
 9898TIP3    H229640   0.567   6.669   5.148
 9899TIP3   OH229641   3.102   0.173   4.895
 9899TIP3    H129642   3.053   0.195   4.816
 9899TIP3    H229643   3.150   0.254   4.916
 9900TIP3   OH229644   3.698   2.255   5.608
 9900TIP3    H129645   3.744   2.279   5.528
 9900TIP3    H229646   3.763   2.264   5.678
 9901TIP3   OH229647   3.021   0.226   1.021
 9901TIP3    H129648   2.967   0.243   1.098
 9901TIP3    H229649   3.028   0.310   0.977
 9902TIP3   OH229650   6.426   6.328   2.997
 9902TIP3    H129651   6.467   6.414   2.994
 9902TIP3    H229652   6.487   6.270   2.950
 9903TIP3   OH229653   1.520   4.143   1.757
 9903TIP3    H129654   1.536   4.082   1.685
 9903TIP3    H229655   1.606   4.155   1.798
 9904TIP3   OH229656   5.227   2.097   3.285
 9904TIP3    H129657   5.321   2.104   3.266
 9904TIP3    H229658   5.189   2.061   3.204
 9905TIP3   OH229659   7.502   5.478   3.688
 9905TIP3    H129660   7.495   5.461   3.782
 9905TIP3    H229661   7.594   5.460   3.668
 9906TIP3   OH229662   8.105   7.589   2.014
 9906TIP3    H129663   8.127   7.675   2.049
 9906TIP3    H229664   8.056   7.606   1.934
 9907TIP3   OH229665   2.412   5.331   4.280
 9907TIP3    H129666   2.401   5.412   4.230
 9907TIP3    H229667   2.502   5.335   4.312
 9908TIP3   OH229668   1.637   4.598   0.900
 9908TIP3    H129669   1.661   4.519   0.851
 9908TIP3    H229670   1.595   4.565   0.980
 9909TIP3   OH229671   3.082   5.619   6.663
 9909TIP3    H129672   3.112   5.657   6.745
 9909TIP3    H229673   3.052   5.694   6.611
 9910TIP3   OH229674   2.349   7.125   6.227
 9910TIP3    H129675   2.282   7.117   6.158
 9910TIP3    H229676   2.431   7.102   6.184
 9911TIP3   OH229677   7.439   2.072   6.314
 9911TIP3    H129678   7.451   2.016   6.237
 9911TIP3    H229679   7.454   2.161   6.282
 9912TIP3   OH229680   3.472   5.659   6.440
 9912TIP3    H129681   3.565   5.641   6.429
 9912TIP3    H229682   3.447   5.610   6.518
 9913TIP3   OH229683   0.015   1.925   3.466
 9913TIP3    H129684   0.035   2.013   3.498
 9913TIP3    H229685  -0.056   1.937   3.404
 9914TIP3   OH229686   5.049   3.672   3.952
 9914TIP3    H129687   4.997   3.746   3.919
 9914TIP3    H229688   4.985   3.614   3.992
 9915TIP3   OH229689   2.819   0.981   5.794
 9915TIP3    H129690   2.865   1.042   5.735
 9915TIP3    H229691   2.871   0.982   5.874
 9916TIP3   OH229692   6.659   0.746   4.695
 9916TIP3    H129693   6.730   0.800   4.659
 9916TIP3    H229694   6.703   0.679   4.747
 9917TIP3   OH229695   5.958   1.215   3.640
 9917TIP3    H129696   5.877   1.262   3.663
 9917TIP3    H229697   6.020   1.239   3.709
 9918TIP3   OH229698   0.444   4.928   2.592
 9918TIP3    H129699   0.490   4.919   2.676
 9918TIP3    H229700   0.418   5.020   2.589
 9919TIP3   OH229701   3.421   3.871   0.922
 9919TIP3    H129702   3.504   3.835   0.891
 9919TIP3    H229703   3.446   3.949   0.971
 9920TIP3   OH229704   5.630   5.959   2.937
 9920TIP3    H129705   5.628   6.010   3.019
 9920TIP3    H229706   5.707   5.903   2.946
 9921TIP3   OH229707   2.484   1.970   5.538
 9921TIP3    H129708   2.454   2.034   5.474
 9921TIP3    H229709   2.405   1.920   5.560
 9922TIP3   OH229710   4.445   1.688   6.764
 9922TIP3    H129711   4.523   1.732   6.731
 9922TIP3    H229712   4.386   1.760   6.789
 9923TIP3   OH229713   0.984   3.408   2.240
 9923TIP3    H129714   0.899   3.372   2.264
 9923TIP3    H229715   0.984   3.408   2.144
 9924TIP3   OH229716   7.850   7.244   4.327
 9924TIP3    H129717   7.821   7.218   4.239
 9924TIP3    H229718   7.919   7.308   4.311
 9925TIP3   OH229719   0.369   4.030   4.428
 9925TIP3    H129720   0.422   4.032   4.349
 9925TIP3    H229721   0.357   3.937   4.446
 9926TIP3   OH229722   3.842   3.035   4.231
 9926TIP3    H129723   3.903   2.970   4.196
 9926TIP3    H229724   3.841   3.019   4.325
 9927TIP3   OH229725   4.394   4.693   6.393
 9927TIP3    H129726   4.416   4.775   6.349
 9927TIP3    H229727   4.308   4.670   6.358
 9928TIP3   OH229728   3.393   7.025   2.422
 9928TIP3    H129729   3.323   7.084   2.395
 9928TIP3    H229730   3.354   6.969   2.489
 9929TIP3   OH229731   6.383   1.932   5.033
 9929TIP3    H129732   6.382   1.908   4.941
 9929TIP3    H229733   6.346   2.020   5.035
 9930TIP3   OH229734   7.878   5.419   2.163
 9930TIP3    H129735   7.911   5.424   2.253
 9930TIP3    H229736   7.851   5.328   2.152
 9931TIP3   OH229737   6.751   6.956   6.408
 9931TIP3    H129738   6.691   7.030   6.416
 9931TIP3    H229739   6.838   6.996   6.412
 9932TIP3   OH229740   1.825   2.214   6.043
 9932TIP3    H129741   1.907   2.207   6.092
 9932TIP3    H229742   1.850   2.260   5.963
 9933TIP3   OH229743   0.342   4.406   1.515
 9933TIP3    H129744   0.397   4.331   1.489
 9933TIP3    H229745   0.377   4.480   1.465
 9934TIP3   OH229746   1.579   4.770   1.202
 9934TIP3    H129747   1.588   4.680   1.171
 9934TIP3    H229748   1.510   4.807   1.148
 9935TIP3   OH229749   8.052   1.026   5.305
 9935TIP3    H129750   8.134   1.045   5.350
 9935TIP3    H229751   8.057   0.932   5.285
 9936TIP3   OH229752   7.533   5.598   5.555
 9936TIP3    H129753   7.530   5.628   5.464
 9936TIP3    H229754   7.445   5.565   5.573
 9937TIP3   OH229755   2.645   5.069   2.799
 9937TIP3    H129756   2.668   5.060   2.707
 9937TIP3    H229757   2.555   5.036   2.805
 9938TIP3   OH229758   3.746   1.878   4.301
 9938TIP3    H129759   3.806   1.927   4.358
 9938TIP3    H229760   3.661   1.920   4.315
 9939TIP3   OH229761   6.292   4.522   5.801
 9939TIP3    H129762   6.292   4.448   5.861
 9939TIP3    H229763   6.202   4.554   5.801
 9940TIP3   OH229764   3.058   6.962   5.453
 9940TIP3    H129765   3.118   6.987   5.382
 9940TIP3    H229766   3.100   6.994   5.532
 9941TIP3   OH229767   2.019   1.659   5.705
 9941TIP3    H129768   2.005   1.697   5.792
 9941TIP3    H229769   1.947   1.695   5.652
 9942TIP3   OH229770   4.999   5.801   1.182
 9942TIP3    H129771   4.935   5.740   1.147
 9942TIP3    H229772   4.948   5.854   1.244
 9943TIP3   OH229773   0.792   2.847   3.478
 9943TIP3    H129774   0.750   2.933   3.480
 9943TIP3    H229775   0.882   2.864   3.452
 9944TIP3   OH229776   4.047   3.829   5.881
 9944TIP3    H129777   4.050   3.811   5.975
 9944TIP3    H229778   4.053   3.924   5.875
 9945TIP3   OH229779   0.239   1.525   5.718
 9945TIP3    H129780   0.236   1.568   5.632
 9945TIP3    H229781   0.209   1.593   5.779
 9946TIP3   OH229782   4.715   2.423   2.202
 9946TIP3    H129783   4.664   2.499   2.175
 9946TIP3    H229784   4.672   2.349   2.159
 9947TIP3   OH229785   3.503   7.666   3.791
 9947TIP3    H129786   3.450   7.591   3.764
 9947TIP3    H229787   3.589   7.651   3.751
 9948TIP3   OH229788   0.819   6.205   6.328
 9948TIP3    H129789   0.737   6.238   6.364
 9948TIP3    H229790   0.830   6.253   6.246
 9949TIP3   OH229791   3.665   2.654   3.994
 9949TIP3    H129792   3.597   2.719   3.976
 9949TIP3    H229793   3.630   2.601   4.065
 9950TIP3   OH229794   5.230   2.768   2.162
 9950TIP3    H129795   5.192   2.687   2.128
 9950TIP3    H229796   5.317   2.773   2.121
 9951TIP3   OH229797   7.878   4.084   6.080
 9951TIP3    H129798   7.908   4.119   5.997
 9951TIP3    H229799   7.787   4.111   6.086
 9952TIP3   OH229800   2.554   3.640   5.218
 9952TIP3    H129801   2.607   3.707   5.262
 9952TIP3    H229802   2.537   3.574   5.285
 9953TIP3   OH229803   2.428   6.290   1.664
 9953TIP3    H129804   2.375   6.320   1.590
 9953TIP3    H229805   2.489   6.361   1.682
 9954TIP3   OH229806   0.497   1.348   1.093
 9954TIP3    H129807   0.499   1.443   1.105
 9954TIP3    H229808   0.538   1.333   1.008
 9955TIP3   OH229809   3.497   2.211   5.783
 9955TIP3    H129810   3.567   2.216   5.718
 9955TIP3    H229811   3.539   2.176   5.861
 9956TIP3   OH229812   0.736   2.495   3.914
 9956TIP3    H129813   0.783   2.460   3.839
 9956TIP3    H229814   0.644   2.487   3.891
 9957TIP3   OH229815   6.723   6.032   6.605
 9957TIP3    H129816   6.661   5.964   6.579
 9957TIP3    H229817   6.766   5.996   6.683
 9958TIP3   OH229818   1.325   5.042   0.192
 9958TIP3    H129819   1.266   5.074   0.123
 9958TIP3    H229820   1.387   5.114   0.205
 9959TIP3   OH229821   7.511   2.018   3.219
 9959TIP3    H129822   7.460   2.076   3.276
 9959TIP3    H229823   7.597   2.060   3.213
 9960TIP3   OH229824   6.328   6.384   4.034
 9960TIP3    H129825   6.381   6.366   3.956
 9960TIP3    H229826   6.244   6.412   4.000
 9961TIP3   OH229827   7.154   3.754   4.834
 9961TIP3    H129828   7.160   3.764   4.929
 9961TIP3    H229829   7.187   3.837   4.799
 9962TIP3   OH229830   7.142   0.432   1.742
 9962TIP3    H129831   7.177   0.345   1.759
 9962TIP3    H229832   7.126   0.469   1.828
 9963TIP3   OH229833   1.086   0.212  -0.006
 9963TIP3    H129834   1.007   0.265   0.001
 9963TIP3    H229835   1.055   0.122  -0.010
 9964TIP3   OH229836   5.990   5.643   6.701
 9964TIP3    H129837   5.912   5.674   6.747
 9964TIP3    H229838   6.059   5.702   6.729
 9965TIP3   OH229839   3.391   0.661   6.528
 9965TIP3    H129840   3.422   0.572   6.516
 9965TIP3    H229841   3.388   0.698   6.439
 9966TIP3   OH229842   5.450   4.207   1.479
 9966TIP3    H129843   5.413   4.257   1.552
 9966TIP3    H229844   5.479   4.125   1.520
 9967TIP3   OH229845   0.468   3.105   3.651
 9967TIP3    H129846   0.385   3.056   3.649
 9967TIP3    H229847   0.447   3.184   3.700
 9968TIP3   OH229848   4.994   6.557   0.733
 9968TIP3    H129849   5.053   6.482   0.725
 9968TIP3    H229850   4.936   6.549   0.657
 9969TIP3   OH229851   5.491   6.788   1.907
 9969TIP3    H129852   5.578   6.828   1.913
 9969TIP3    H229853   5.432   6.855   1.941
 9970TIP3   OH229854   1.163   1.392   6.289
 9970TIP3    H129855   1.243   1.444   6.287
 9970TIP3    H229856   1.129   1.405   6.378
 9971TIP3   OH229857   1.200   1.010   2.065
 9971TIP3    H129858   1.232   0.970   2.145
 9971TIP3    H229859   1.227   0.951   1.995
 9972TIP3   OH229860   2.367   1.122   2.763
 9972TIP3    H129861   2.327   1.087   2.683
 9972TIP3    H229862   2.454   1.082   2.766
 9973TIP3   OH229863   5.797   6.687   2.807
 9973TIP3    H129864   5.751   6.619   2.758
 9973TIP3    H229865   5.741   6.765   2.798
 9974TIP3   OH229866   0.333   1.014   3.693
 9974TIP3    H129867   0.427   1.032   3.693
 9974TIP3    H229868   0.321   0.948   3.761
 9975TIP3   OH229869   7.974   1.274   6.574
 9975TIP3    H129870   7.901   1.213   6.563
 9975TIP3    H229871   7.968   1.333   6.499
 9976TIP3   OH229872   7.208   4.054   3.746
 9976TIP3    H129873   7.163   4.067   3.663
 9976TIP3    H229874   7.142   4.072   3.812
 9977TIP3   OH229875   2.520   5.535   4.850
 9977TIP3    H129876   2.545   5.487   4.929
 9977TIP3    H229877   2.559   5.621   4.861
 9978TIP3   OH229878   7.589   2.287   5.130
 9978TIP3    H129879   7.522   2.291   5.198
 9978TIP3    H229880   7.661   2.237   5.169
 9979TIP3   OH229881   7.838   5.912   1.021
 9979TIP3    H129882   7.850   5.823   1.054
 9979TIP3    H229883   7.874   5.910   0.932
 9980TIP3   OH229884   5.226   0.264   3.580
 9980TIP3    H129885   5.310   0.253   3.626
 9980TIP3    H229886   5.161   0.239   3.645
 9981TIP3   OH229887   0.384   0.858   4.416
 9981TIP3    H129888   0.377   0.946   4.451
 9981TIP3    H229889   0.341   0.802   4.480
 9982TIP3   OH229890   5.016   1.041   2.770
 9982TIP3    H129891   5.042   1.082   2.852
 9982TIP3    H229892   5.099   1.016   2.728
 9983TIP3   OH229893   0.599   2.515   2.039
 9983TIP3    H129894   0.560   2.599   2.064
 9983TIP3    H229895   0.641   2.532   1.955
 9984TIP3   OH229896   1.191   7.054   1.241
 9984TIP3    H129897   1.152   7.138   1.267
 9984TIP3    H229898   1.125   6.989   1.263
 9985TIP3   OH229899   7.515   7.159   0.213
 9985TIP3    H129900   7.609   7.143   0.211
 9985TIP3    H229901   7.503   7.241   0.165
 9986TIP3   OH229902   4.397   4.665   6.671
 9986TIP3    H129903   4.400   4.663   6.575
 9986TIP3    H229904   4.464   4.729   6.695
 9987TIP3   OH229905   5.078   5.890   0.906
 9987TIP3    H129906   5.014   5.857   0.969
 9987TIP3    H229907   5.026   5.936   0.840
 9988TIP3   OH229908   7.821   1.123   4.604
 9988TIP3    H129909   7.785   1.141   4.517
 9988TIP3    H229910   7.767   1.174   4.664
 9989TIP3   OH229911   0.772   7.178   5.918
 9989TIP3    H129912   0.856   7.206   5.954
 9989TIP3    H229913   0.776   7.082   5.921
 9990TIP3   OH229914   7.799   3.538   0.400
 9990TIP3    H129915   7.848   3.619   0.391
 9990TIP3    H229916   7.847   3.475   0.345
 9991TIP3   OH229917   3.044   1.845   0.163
 9991TIP3    H129918   3.066   1.872   0.252
 9991TIP3    H229919   2.972   1.903   0.137
 9992TIP3   OH229920   6.153   6.092   4.864
 9992TIP3    H129921   6.126   6.001   4.866
 9992TIP3    H229922   6.209   6.103   4.941
 9993TIP3   OH229923   7.742   4.621   3.234
 9993TIP3    H129924   7.670   4.684   3.232
 9993TIP3    H229925   7.721   4.562   3.306
 9994TIP3   OH229926   3.391   3.545   3.345
 9994TIP3    H129927   3.445   3.480   3.391
 9994TIP3    H229928   3.311   3.496   3.322
 9995TIP3   OH229929   7.013   1.858   2.723
 9995TIP3    H129930   7.050   1.782   2.769
 9995TIP3    H229931   7.077   1.877   2.654
 9996TIP3   OH229932   1.448   2.497   6.669
 9996TIP3    H129933   1.494   2.573   6.706
 9996TIP3    H229934   1.509   2.424   6.681
 9997TIP3   OH229935   5.530   3.913   2.483
 9997TIP3    H129936   5.450   3.860   2.477
 9997TIP3    H229937   5.502   3.993   2.528
 9998TIP3   OH229938   6.831   2.371   0.376
 9998TIP3    H129939   6.864   2.375   0.466
 9998TIP3    H229940   6.766   2.441   0.371
 9999TIP3   OH229941   2.377   1.489   0.732
 9999TIP3    H129942   2.398   1.398   0.711
 9999TIP3    H229943   2.305   1.511   0.673
10000TIP3   OH229944   5.148   0.535   1.523
10000TIP3    H129945   5.216   0.575   1.470
10000TIP3    H229946   5.174   0.553   1.614
10001TIP3   OH229947   0.149   2.642   3.744
10001TIP3    H129948   0.109   2.692   3.674
10001TIP3    H229949   0.091   2.567   3.757
10002TIP3   OH229950   7.227   7.107   5.587
10002TIP3    H129951   7.258   7.197   5.601
10002TIP3    H229952   7.181   7.110   5.504
10003TIP3   OH229953   5.203   3.116   4.341
10003TIP3    H129954   5.128   3.173   4.357
10003TIP3    H229955   5.260   3.129   4.417
10004TIP3   OH229956   6.216   5.700   3.430
10004TIP3    H129957   6.217   5.604   3.425
10004TIP3    H229958   6.123   5.723   3.437
10005TIP3   OH229959   7.725   1.786   1.575
10005TIP3    H129960   7.798   1.728   1.554
10005TIP3    H229961   7.704   1.766   1.666
10006TIP3   OH229962   8.252   4.437   6.541
10006TIP3    H129963   8.169   4.454   6.496
10006TIP3    H229964   8.310   4.506   6.510
10007TIP3   OH229965   5.638   4.349   5.443
10007TIP3    H129966   5.553   4.377   5.407
10007TIP3    H229967   5.689   4.324   5.365
10008TIP3   OH229968   4.659   6.441   2.849
10008TIP3    H129969   4.694   6.528   2.828
10008TIP3    H229970   4.652   6.397   2.765
10009TIP3   OH229971   6.671   1.455   4.491
10009TIP3    H129972   6.720   1.373   4.488
10009TIP3    H229973   6.609   1.448   4.418
10010TIP3   OH229974   3.795   1.223   6.351
10010TIP3    H129975   3.821   1.133   6.335
10010TIP3    H229976   3.832   1.272   6.277
10011TIP3   OH229977   1.094   1.378   5.889
10011TIP3    H129978   1.152   1.308   5.919
10011TIP3    H229979   1.127   1.400   5.802
10012TIP3   OH229980   3.203   4.155   3.636
10012TIP3    H129981   3.152   4.168   3.555
10012TIP3    H229982   3.270   4.223   3.632
10013TIP3   OH229983   1.758   0.551   3.301
10013TIP3    H129984   1.727   0.640   3.290
10013TIP3    H229985   1.703   0.514   3.369
10014TIP3   OH229986   4.006   6.454   4.993
10014TIP3    H129987   3.950   6.392   4.947
10014TIP3    H229988   4.020   6.525   4.931
10015TIP3   OH229989   0.064   6.016   3.880
10015TIP3    H129990   0.143   6.041   3.832
10015TIP3    H229991  -0.004   6.074   3.845
10016TIP3   OH229992   6.260   3.788   1.943
10016TIP3    H129993   6.247   3.703   1.986
10016TIP3    H229994   6.190   3.843   1.977
10017TIP3   OH229995   5.743   4.280   3.161
10017TIP3    H129996   5.776   4.273   3.071
10017TIP3    H229997   5.794   4.216   3.210
10018TIP3   OH229998   7.090   5.690   5.711
10018TIP3    H129999   7.150   5.620   5.687
10018TIP3    H230000   7.074   5.677   5.805
10019TIP3   OH230001   0.369   7.261   3.004
10019TIP3    H130002   0.427   7.261   3.079
10019TIP3    H230003   0.313   7.184   3.017
10020TIP3   OH230004   7.190   6.861   2.122
10020TIP3    H130005   7.113   6.858   2.179
10020TIP3    H230006   7.234   6.943   2.145
10021TIP3   OH230007   5.742   6.300   1.203
10021TIP3    H130008   5.674   6.235   1.185
10021TIP3    H230009   5.782   6.316   1.117
10022TIP3   OH230010   3.295   3.553   2.110
10022TIP3    H130011   3.266   3.638   2.144
10022TIP3    H230012   3.220   3.519   2.062
10023TIP3   OH230013   8.231   4.441   4.647
10023TIP3    H130014   8.177   4.476   4.576
10023TIP3    H230015   8.264   4.358   4.613
10024TIP3   OH230016   3.888   5.082   6.069
10024TIP3    H130017   3.835   5.052   6.143
10024TIP3    H230018   3.951   5.143   6.108
10025TIP3   OH230019   7.860   0.947   3.729
10025TIP3    H130020   7.924   1.005   3.689
10025TIP3    H230021   7.794   0.932   3.662
10026TIP3   OH230022   2.712   4.455   3.134
10026TIP3    H130023   2.760   4.378   3.103
10026TIP3    H230024   2.679   4.496   3.054
10027TIP3   OH230025   7.496   2.994   3.655
10027TIP3    H130026   7.450   3.063   3.703
10027TIP3    H230027   7.438   2.972   3.583
10028TIP3   OH230028   2.313   7.667   0.171
10028TIP3    H130029   2.230   7.711   0.151
10028TIP3    H230030   2.343   7.633   0.086
10029TIP3   OH230031   4.928   3.999   0.712
10029TIP3    H130032   4.896   3.990   0.622
10029TIP3    H230033   4.853   3.980   0.767
10030TIP3   OH230034   3.049   7.209   2.089
10030TIP3    H130035   3.046   7.221   1.994
10030TIP3    H230036   2.974   7.259   2.122
10031TIP3   OH230037   3.562   6.413   4.958
10031TIP3    H130038   3.611   6.466   4.896
10031TIP3    H230039   3.609   6.421   5.040
10032TIP3   OH230040   8.170  -0.026   5.685
10032TIP3    H130041   8.093   0.031   5.692
10032TIP3    H230042   8.244   0.035   5.680
10033TIP3   OH230043   7.824   1.989   0.040
10033TIP3    H130044   7.792   1.950  -0.042
10033TIP3    H230045   7.805   1.923   0.107
10034TIP3   OH230046   0.670   5.501   1.038
10034TIP3    H130047   0.681   5.418   1.086
10034TIP3    H230048   0.690   5.568   1.103
10035TIP3   OH230049   8.271   7.055   6.056
10035TIP3    H130050   8.302   7.132   6.009
10035TIP3    H230051   8.348   7.025   6.105
10036TIP3   OH230052   2.335   0.881   3.911
10036TIP3    H130053   2.241   0.869   3.927
10036TIP3    H230054   2.356   0.817   3.843
10037TIP3   OH230055   7.435   0.678   1.141
10037TIP3    H130056   7.493   0.719   1.205
10037TIP3    H230057   7.409   0.596   1.182
10038TIP3   OH230058   2.858   1.896   2.534
10038TIP3    H130059   2.840   1.973   2.479
10038TIP3    H230060   2.944   1.913   2.573
10039TIP3   OH230061   0.251   7.013   3.381
10039TIP3    H130062   0.198   7.047   3.453
10039TIP3    H230063   0.211   6.928   3.360
10040TIP3   OH230064   7.368   5.195   1.289
10040TIP3    H130065   7.459   5.210   1.264
10040TIP3    H230066   7.330   5.283   1.295
10041TIP3   OH230067   3.630   6.117   2.579
10041TIP3    H130068   3.620   6.152   2.667
10041TIP3    H230069   3.569   6.042   2.576
10042TIP3   OH230070   7.469   1.784   5.011
10042TIP3    H130071   7.522   1.828   4.945
10042TIP3    H230072   7.390   1.758   4.965
10043TIP3   OH230073   6.462   3.190   3.814
10043TIP3    H130074   6.469   3.134   3.892
10043TIP3    H230075   6.408   3.264   3.841
10044TIP3   OH230076   5.765   7.544   2.246
10044TIP3    H130077   5.777   7.452   2.267
10044TIP3    H230078   5.849   7.572   2.210
10045TIP3   OH230079   8.087   6.326   3.354
10045TIP3    H130080   8.142   6.328   3.276
10045TIP3    H230081   8.129   6.387   3.415
10046TIP3   OH230082   0.640   6.393   0.774
10046TIP3    H130083   0.701   6.327   0.809
10046TIP3    H230084   0.687   6.432   0.700
10047TIP3   OH230085   6.092   1.735   5.426
10047TIP3    H130086   6.049   1.669   5.371
10047TIP3    H230087   6.122   1.802   5.365
10048TIP3   OH230088   1.826   7.518   5.081
10048TIP3    H130089   1.888   7.590   5.077
10048TIP3    H230090   1.861   7.452   5.021
10049TIP3   OH230091   4.070   5.307   1.161
10049TIP3    H130092   4.060   5.398   1.187
10049TIP3    H230093   4.077   5.258   1.243
10050TIP3   OH230094   2.161   3.715   3.003
10050TIP3    H130095   2.083   3.693   2.952
10050TIP3    H230096   2.216   3.763   2.942
10051TIP3   OH230097   3.583   6.675   5.176
10051TIP3    H130098   3.623   6.589   5.188
10051TIP3    H230099   3.657   6.736   5.179
10052TIP3   OH230100   3.762   2.033   1.081
10052TIP3    H130101   3.708   2.108   1.107
10052TIP3    H230102   3.737   2.017   0.990
10053TIP3   OH230103   4.712   7.532   5.610
10053TIP3    H130104   4.630   7.512   5.655
10053TIP3    H230105   4.742   7.447   5.577
10054TIP3   OH230106   3.416   6.200   0.548
10054TIP3    H130107   3.355   6.258   0.501
10054TIP3    H230108   3.359   6.146   0.603
10055TIP3   OH230109   1.603   2.196   3.885
10055TIP3    H130110   1.679   2.137   3.884
10055TIP3    H230111   1.605   2.238   3.800
10056TIP3   OH230112   0.022   6.872   4.709
10056TIP3    H130113   0.032   6.782   4.740
10056TIP3    H230114  -0.057   6.904   4.752
10057TIP3   OH230115   4.108   6.825   5.214
10057TIP3    H130116   4.059   6.758   5.261
10057TIP3    H230117   4.108   6.795   5.123
10058TIP3   OH230118   5.306   4.717   1.758
10058TIP3    H130119   5.297   4.680   1.845
10058TIP3    H230120   5.321   4.811   1.772
10059TIP3   OH230121   8.066   2.361   1.917
10059TIP3    H130122   8.127   2.297   1.881
10059TIP3    H230123   8.019   2.394   1.840
10060TIP3   OH230124   6.739   3.356   1.295
10060TIP3    H130125   6.647   3.364   1.267
10060TIP3    H230126   6.735   3.360   1.391
10061TIP3   OH230127   7.916   0.844   6.740
10061TIP3    H130128   7.951   0.933   6.739
10061TIP3    H230129   7.835   0.850   6.690
10062TIP3   OH230130   0.536   0.636   0.694
10062TIP3    H130131   0.508   0.566   0.636
10062TIP3    H230132   0.605   0.681   0.646
10063TIP3   OH230133   7.290   3.804   2.126
10063TIP3    H130134   7.217   3.864   2.111
10063TIP3    H230135   7.277   3.771   2.215
10064TIP3   OH230136   1.467   3.307   6.358
10064TIP3    H130137   1.469   3.327   6.451
10064TIP3    H230138   1.535   3.363   6.320
10065TIP3   OH230139   7.158   3.419   6.461
10065TIP3    H130140   7.144   3.471   6.540
10065TIP3    H230141   7.084   3.443   6.404
10066TIP3   OH230142   1.729   3.657   3.295
10066TIP3    H130143   1.741   3.578   3.347
10066TIP3    H230144   1.684   3.627   3.216
10067TIP3   OH230145   4.007   2.539   6.464
10067TIP3    H130146   3.960   2.621   6.482
10067TIP3    H230147   4.089   2.567   6.424
10068TIP3   OH230148   0.459   6.380   4.657
10068TIP3    H130149   0.390   6.365   4.720
10068TIP3    H230150   0.444   6.315   4.588
10069TIP3   OH230151   7.942   0.069   1.830
10069TIP3    H130152   8.019   0.017   1.808
10069TIP3    H230153   7.944   0.142   1.769
10070TIP3   OH230154   4.080   2.336   0.490
10070TIP3    H130155   4.094   2.420   0.534
10070TIP3    H230156   4.146   2.278   0.527
10071TIP3   OH230157   3.652   2.236   4.537
10071TIP3    H130158   3.728   2.208   4.586
10071TIP3    H230159   3.685   2.304   4.478
10072TIP3   OH230160   4.878   0.908   6.199
10072TIP3    H130161   4.909   0.833   6.149
10072TIP3    H230162   4.902   0.984   6.147
10073TIP3   OH230163   7.333   7.675   1.107
10073TIP3    H130164   7.315   7.581   1.105
10073TIP3    H230165   7.259   7.712   1.153
10074TIP3   OH230166   0.333   3.439   4.837
10074TIP3    H130167   0.274   3.509   4.866
10074TIP3    H230168   0.314   3.430   4.743
10075TIP3   OH230169   7.093   7.191   1.970
10075TIP3    H130170   7.176   7.205   2.016
10075TIP3    H230171   7.027   7.191   2.039
10076TIP3   OH230172   2.812   1.719   3.245
10076TIP3    H130173   2.834   1.671   3.165
10076TIP3    H230174   2.897   1.739   3.285
10077TIP3   OH230175   0.392   2.040   2.186
10077TIP3    H130176   0.485   2.061   2.174
10077TIP3    H230177   0.358   2.112   2.239
10078TIP3   OH230178   7.057   6.655   5.960
10078TIP3    H130179   7.098   6.569   5.955
10078TIP3    H230180   6.972   6.644   5.918
10079TIP3   OH230181   1.304   7.587   4.446
10079TIP3    H130182   1.263   7.527   4.383
10079TIP3    H230183   1.240   7.595   4.516
10080TIP3   OH230184   6.886   2.788   1.521
10080TIP3    H130185   6.873   2.832   1.437
10080TIP3    H230186   6.950   2.842   1.567
10081TIP3   OH230187   6.064   0.957   2.761
10081TIP3    H130188   6.069   0.864   2.782
10081TIP3    H230189   6.013   0.961   2.681
10082TIP3   OH230190   6.190   0.995   4.152
10082TIP3    H130191   6.189   0.918   4.209
10082TIP3    H230192   6.132   1.058   4.194
10083TIP3   OH230193   0.231   7.194   5.667
10083TIP3    H130194   0.277   7.201   5.750
10083TIP3    H230195   0.239   7.101   5.643
10084TIP3   OH230196   7.017   0.377   2.469
10084TIP3    H130197   7.043   0.308   2.408
10084TIP3    H230198   6.921   0.382   2.460
10085TIP3   OH230199   7.910   3.300   1.206
10085TIP3    H130200   7.888   3.266   1.292
10085TIP3    H230201   7.958   3.229   1.163
10086TIP3   OH230202   0.610   1.652   6.543
10086TIP3    H130203   0.583   1.560   6.542
10086TIP3    H230204   0.705   1.649   6.543
10087TIP3   OH230205   4.912   2.412   4.422
10087TIP3    H130206   4.820   2.385   4.420
10087TIP3    H230207   4.916   2.488   4.363
10088TIP3   OH230208   7.282   3.063   3.488
10088TIP3    H130209   7.337   3.134   3.454
10088TIP3    H230210   7.193   3.086   3.460
10089TIP3   OH230211   5.392   6.101   1.715
10089TIP3    H130212   5.455   6.150   1.767
10089TIP3    H230213   5.444   6.042   1.661
10090TIP3   OH230214   1.436   2.257   4.122
10090TIP3    H130215   1.430   2.166   4.150
10090TIP3    H230216   1.467   2.253   4.032
10091TIP3   OH230217   2.286   2.186   5.586
10091TIP3    H130218   2.241   2.139   5.657
10091TIP3    H230219   2.246   2.273   5.587
10092TIP3   OH230220   2.418   6.141   1.362
10092TIP3    H130221   2.436   6.068   1.422
10092TIP3    H230222   2.338   6.181   1.396
10093TIP3   OH230223   4.258   1.225   5.048
10093TIP3    H130224   4.262   1.270   5.132
10093TIP3    H230225   4.291   1.137   5.067
10094TIP3   OH230226   6.410   4.568   2.835
10094TIP3    H130227   6.468   4.535   2.903
10094TIP3    H230228   6.346   4.498   2.821
10095TIP3   OH230229   4.757   4.255   0.774
10095TIP3    H130230   4.721   4.191   0.835
10095TIP3    H230231   4.689   4.266   0.708
10096TIP3   OH230232   8.066   7.182   3.710
10096TIP3    H130233   7.986   7.159   3.756
10096TIP3    H230234   8.043   7.258   3.656
10097TIP3   OH230235   2.458   0.850   2.988
10097TIP3    H130236   2.443   0.756   2.998
10097TIP3    H230237   2.525   0.857   2.921
10098TIP3   OH230238  -0.002   0.399   2.184
10098TIP3    H130239   0.043   0.389   2.100
10098TIP3    H230240   0.068   0.417   2.247
10099TIP3   OH230241   1.569   3.410   5.611
10099TIP3    H130242   1.519   3.344   5.659
10099TIP3    H230243   1.503   3.473   5.583
10100TIP3   OH230244   3.732   4.731   4.491
10100TIP3    H130245   3.767   4.816   4.520
10100TIP3    H230246   3.699   4.690   4.571
10101TIP3   OH230247   4.263   4.223  -0.019
10101TIP3    H130248   4.264   4.274   0.062
10101TIP3    H230249   4.184   4.169  -0.012
10102TIP3   OH230250   2.649   6.271   4.712
10102TIP3    H130251   2.667   6.205   4.645
10102TIP3    H230252   2.568   6.314   4.683
10103TIP3   OH230253   7.469   4.097   4.630
10103TIP3    H130254   7.396   4.145   4.669
10103TIP3    H230255   7.547   4.145   4.658
10104TIP3   OH230256   6.307   5.393   5.113
10104TIP3    H130257   6.309   5.489   5.114
10104TIP3    H230258   6.300   5.370   5.020
10105TIP3   OH230259   8.238   4.307   5.722
10105TIP3    H130260   8.275   4.231   5.677
10105TIP3    H230261   8.199   4.360   5.652
10106TIP3   OH230262   1.973   7.594   3.212
10106TIP3    H130263   1.907   7.661   3.233
10106TIP3    H230264   1.978   7.595   3.117
10107TIP3   OH230265   2.174   5.349   0.411
10107TIP3    H130266   2.102   5.289   0.392
10107TIP3    H230267   2.194   5.389   0.326
10108TIP3   OH230268   7.149   0.032   5.237
10108TIP3    H130269   7.080  -0.023   5.200
10108TIP3    H230270   7.128   0.120   5.206
10109TIP3   OH230271   3.436   5.207   5.496
10109TIP3    H130272   3.448   5.118   5.462
10109TIP3    H230273   3.342   5.222   5.492
10110TIP3   OH230274   5.945   6.807   5.630
10110TIP3    H130275   5.962   6.895   5.597
10110TIP3    H230276   5.850   6.798   5.628
10111TIP3   OH230277   6.792   0.973   0.284
10111TIP3    H130278   6.844   0.909   0.333
10111TIP3    H230279   6.845   0.992   0.207
10112TIP3   OH230280   4.763   3.949   3.563
10112TIP3    H130281   4.677   3.988   3.548
10112TIP3    H230282   4.743   3.860   3.592
10113TIP3   OH230283   1.180   1.155   5.586
10113TIP3    H130284   1.087   1.141   5.605
10113TIP3    H230285   1.193   1.249   5.599
10114TIP3   OH230286   7.251   3.210   1.848
10114TIP3    H130287   7.320   3.189   1.910
10114TIP3    H230288   7.267   3.151   1.774
10115TIP3   OH230289   6.059   4.545   4.959
10115TIP3    H130290   6.044   4.639   4.946
10115TIP3    H230291   6.029   4.528   5.048
10116TIP3   OH230292   0.826   4.392   5.515
10116TIP3    H130293   0.883   4.336   5.462
10116TIP3    H230294   0.783   4.449   5.451
10117TIP3   OH230295   4.820   6.813   5.934
10117TIP3    H130296   4.819   6.772   5.848
10117TIP3    H230297   4.849   6.744   5.994
10118TIP3   OH230298   6.925   0.056   3.097
10118TIP3    H130299   7.003   0.108   3.085
10118TIP3    H230300   6.891   0.082   3.183
10119TIP3   OH230301   6.324   6.714   6.391
10119TIP3    H130302   6.302   6.807   6.393
10119TIP3    H230303   6.333   6.693   6.298
10120TIP3   OH230304   3.912   5.370   0.147
10120TIP3    H130305   3.994   5.324   0.162
10120TIP3    H230306   3.881   5.393   0.235
10121TIP3   OH230307   3.115   4.005   6.525
10121TIP3    H130308   3.035   3.953   6.512
10121TIP3    H230309   3.147   4.022   6.437
10122TIP3   OH230310   2.187   0.264   4.921
10122TIP3    H130311   2.273   0.222   4.918
10122TIP3    H230312   2.196   0.340   4.862
10123TIP3   OH230313   1.118   3.030   4.630
10123TIP3    H130314   1.079   3.046   4.544
10123TIP3    H230315   1.046   2.995   4.683
10124TIP3   OH230316   0.349   5.927   4.568
10124TIP3    H130317   0.417   5.895   4.508
10124TIP3    H230318   0.299   5.848   4.591
10125TIP3   OH230319   1.223   1.524   1.712
10125TIP3    H130320   1.220   1.612   1.750
10125TIP3    H230321   1.221   1.538   1.617
10126TIP3   OH230322   1.223   5.542   2.823
10126TIP3    H130323   1.193   5.632   2.809
10126TIP3    H230324   1.146   5.497   2.858
10127TIP3   OH230325   0.949   4.650   0.271
10127TIP3    H130326   0.885   4.587   0.305
10127TIP3    H230327   0.935   4.728   0.324
10128TIP3   OH230328   5.464   6.814   5.633
10128TIP3    H130329   5.409   6.884   5.597
10128TIP3    H230330   5.402   6.750   5.667
10129TIP3   OH230331   6.479   5.944   1.626
10129TIP3    H130332   6.459   5.864   1.578
10129TIP3    H230333   6.414   6.007   1.596
10130TIP3   OH230334   1.010   4.622   5.838
10130TIP3    H130335   1.084   4.675   5.808
10130TIP3    H230336   1.029   4.534   5.806
10131TIP3   OH230337   2.079   1.613   1.539
10131TIP3    H130338   1.999   1.663   1.523
10131TIP3    H230339   2.053   1.545   1.601
10132TIP3   OH230340   5.341   4.148   3.122
10132TIP3    H130341   5.255   4.172   3.086
10132TIP3    H230342   5.386   4.105   3.050
10133TIP3   OH230343   1.385   4.973   3.458
10133TIP3    H130344   1.387   4.894   3.405
10133TIP3    H230345   1.360   4.942   3.546
10134TIP3   OH230346   2.288   0.219   2.566
10134TIP3    H130347   2.207   0.172   2.548
10134TIP3    H230348   2.348   0.192   2.497
10135TIP3   OH230349   5.287   0.076   3.860
10135TIP3    H130350   5.207   0.126   3.842
10135TIP3    H230351   5.358   0.135   3.834
10136TIP3   OH230352   0.333   1.773   6.520
10136TIP3    H130353   0.367   1.844   6.575
10136TIP3    H230354   0.399   1.704   6.527
10137TIP3   OH230355   8.143   0.086   2.110
10137TIP3    H130356   8.121   0.044   2.027
10137TIP3    H230357   8.192   0.019   2.158
10138TIP3   OH230358   2.995   2.736   1.874
10138TIP3    H130359   3.065   2.735   1.939
10138TIP3    H230360   3.024   2.800   1.809
10139TIP3   OH230361   2.046   6.002   6.538
10139TIP3    H130362   2.116   5.937   6.542
10139TIP3    H230363   1.980   5.964   6.481
10140TIP3   OH230364   1.184   0.764   5.006
10140TIP3    H130365   1.231   0.798   4.929
10140TIP3    H230366   1.247   0.772   5.077
10141TIP3   OH230367   6.855   0.665   0.798
10141TIP3    H130368   6.943   0.666   0.759
10141TIP3    H230369   6.810   0.739   0.757
10142TIP3   OH230370   6.575   2.016   2.285
10142TIP3    H130371   6.562   2.101   2.244
10142TIP3    H230372   6.541   1.953   2.222
10143TIP3   OH230373   5.702   2.524   0.196
10143TIP3    H130374   5.625   2.558   0.243
10143TIP3    H230375   5.776   2.544   0.254
10144TIP3   OH230376   1.661   4.242   3.430
10144TIP3    H130377   1.746   4.218   3.393
10144TIP3    H230378   1.643   4.329   3.395
10145TIP3   OH230379   2.870   7.228   4.309
10145TIP3    H130380   2.835   7.150   4.266
10145TIP3    H230381   2.916   7.194   4.386
10146TIP3   OH230382   4.739   4.942   4.873
10146TIP3    H130383   4.706   4.854   4.857
10146TIP3    H230384   4.825   4.944   4.830
10147TIP3   OH230385   0.932   2.517   5.884
10147TIP3    H130386   0.874   2.456   5.838
10147TIP3    H230387   0.874   2.587   5.913
10148TIP3   OH230388   4.545   6.528   1.001
10148TIP3    H130389   4.521   6.615   1.035
10148TIP3    H230390   4.616   6.546   0.939
10149TIP3   OH230391   4.095   0.468   0.078
10149TIP3    H130392   4.068   0.544   0.130
10149TIP3    H230393   4.091   0.394   0.138
10150TIP3   OH230394   2.511   2.704   3.248
10150TIP3    H130395   2.587   2.654   3.279
10150TIP3    H230396   2.549   2.767   3.186
10151TIP3   OH230397   1.836   7.432   0.862
10151TIP3    H130398   1.907   7.459   0.804
10151TIP3    H230399   1.831   7.501   0.927
10152TIP3   OH230400   4.703   5.753   1.098
10152TIP3    H130401   4.619   5.748   1.054
10152TIP3    H230402   4.759   5.692   1.050
10153TIP3   OH230403   7.685   5.802   3.637
10153TIP3    H130404   7.621   5.864   3.672
10153TIP3    H230405   7.668   5.720   3.683
10154TIP3   OH230406   3.219   0.226   6.600
10154TIP3    H130407   3.128   0.251   6.589
10154TIP3    H230408   3.217   0.131   6.614
10155TIP3   OH230409   6.535   2.649   4.558
10155TIP3    H130410   6.589   2.662   4.480
10155TIP3    H230411   6.551   2.727   4.612
10156TIP3   OH230412   3.618   5.306   3.361
10156TIP3    H130413   3.700   5.341   3.394
10156TIP3    H230414   3.640   5.217   3.333
10157TIP3   OH230415   5.179   0.106   4.195
10157TIP3    H130416   5.221   0.186   4.227
10157TIP3    H230417   5.234   0.078   4.122
10158TIP3   OH230418   7.082   2.378   1.270
10158TIP3    H130419   7.023   2.304   1.284
10158TIP3    H230420   7.160   2.356   1.320
10159TIP3   OH230421   5.115   2.454   0.785
10159TIP3    H130422   5.116   2.520   0.854
10159TIP3    H230423   5.110   2.505   0.704
10160TIP3   OH230424   8.163   5.762   1.129
10160TIP3    H130425   8.212   5.731   1.053
10160TIP3    H230426   8.199   5.849   1.148
10161TIP3   OH230427   3.710   4.357   6.523
10161TIP3    H130428   3.799   4.334   6.497
10161TIP3    H230429   3.690   4.436   6.473
10162TIP3   OH230430   2.636   7.270   0.364
10162TIP3    H130431   2.568   7.222   0.318
10162TIP3    H230432   2.701   7.291   0.296
10163TIP3   OH230433   5.680   0.377   2.027
10163TIP3    H130434   5.774   0.387   2.007
10163TIP3    H230435   5.636   0.431   1.962
10164TIP3   OH230436   0.110   4.602   1.357
10164TIP3    H130437   0.103   4.643   1.443
10164TIP3    H230438   0.090   4.510   1.373
10165TIP3   OH230439   4.646   4.206   4.413
10165TIP3    H130440   4.678   4.296   4.419
10165TIP3    H230441   4.693   4.168   4.339
10166TIP3   OH230442   7.168   7.154   4.052
10166TIP3    H130443   7.174   7.058   4.060
10166TIP3    H230444   7.213   7.173   3.969
10167TIP3   OH230445   5.120   5.064   0.229
10167TIP3    H130446   5.098   5.046   0.320
10167TIP3    H230447   5.043   5.109   0.194
10168TIP3   OH230448   4.944   0.265   4.907
10168TIP3    H130449   4.956   0.231   4.995
10168TIP3    H230450   4.872   0.213   4.871
10169TIP3   OH230451   2.751   0.472   5.995
10169TIP3    H130452   2.736   0.542   6.059
10169TIP3    H230453   2.748   0.517   5.910
10170TIP3   OH230454   0.697   0.804   4.908
10170TIP3    H130455   0.775   0.850   4.939
10170TIP3    H230456   0.711   0.796   4.814
10171TIP3   OH230457   1.408   4.559   2.154
10171TIP3    H130458   1.372   4.647   2.143
10171TIP3    H230459   1.502   4.569   2.138
10172TIP3   OH230460   5.044   5.305   1.332
10172TIP3    H130461   5.053   5.291   1.238
10172TIP3    H230462   4.962   5.353   1.342
10173TIP3   OH230463   3.043   5.097   6.698
10173TIP3    H130464   3.019   5.187   6.675
10173TIP3    H230465   3.132   5.104   6.734
10174TIP3   OH230466   7.121   0.845   6.014
10174TIP3    H130467   7.176   0.766   6.022
10174TIP3    H230468   7.089   0.860   6.103
10175TIP3   OH230469   4.638   4.942   2.906
10175TIP3    H130470   4.734   4.947   2.896
10175TIP3    H230471   4.624   4.929   2.999
10176TIP3   OH230472   0.470   2.387   2.297
10176TIP3    H130473   0.518   2.369   2.379
10176TIP3    H230474   0.533   2.434   2.243
10177TIP3   OH230475   6.617   0.824   4.019
10177TIP3    H130476   6.556   0.893   4.046
10177TIP3    H230477   6.599   0.752   4.080
10178TIP3   OH230478   1.868   7.314   1.738
10178TIP3    H130479   1.923   7.390   1.718
10178TIP3    H230480   1.783   7.351   1.761
10179TIP3   OH230481   5.203   5.812   3.602
10179TIP3    H130482   5.140   5.874   3.565
10179TIP3    H230483   5.149   5.751   3.653
10180TIP3   OH230484   6.816   4.462   4.248
10180TIP3    H130485   6.774   4.524   4.189
10180TIP3    H230486   6.770   4.474   4.331
10181TIP3   OH230487   7.920   5.844   6.571
10181TIP3    H130488   7.881   5.757   6.561
10181TIP3    H230489   7.846   5.905   6.565
10182TIP3   OH230490   5.756   6.749   1.775
10182TIP3    H130491   5.797   6.720   1.856
10182TIP3    H230492   5.802   6.830   1.753
10183TIP3   OH230493   1.261   2.473   1.643
10183TIP3    H130494   1.342   2.424   1.660
10183TIP3    H230495   1.242   2.516   1.726
10184TIP3   OH230496   6.029   0.402   1.327
10184TIP3    H130497   6.123   0.383   1.326
10184TIP3    H230498   6.013   0.450   1.246
10185TIP3   OH230499   6.562   0.643   0.254
10185TIP3    H130500   6.639   0.676   0.208
10185TIP3    H230501   6.556   0.551   0.229
10186TIP3   OH230502   5.850   0.907   0.365
10186TIP3    H130503   5.758   0.895   0.343
10186TIP3    H230504   5.853   0.993   0.408
10187TIP3   OH230505   0.276   0.486   5.173
10187TIP3    H130506   0.305   0.521   5.257
10187TIP3    H230507   0.338   0.522   5.109
10188TIP3   OH230508   7.940   6.082   1.641
10188TIP3    H130509   7.984   6.138   1.577
10188TIP3    H230510   7.931   6.137   1.719
10189TIP3   OH230511   5.843   5.146   0.713
10189TIP3    H130512   5.841   5.227   0.763
10189TIP3    H230513   5.792   5.084   0.766
10190TIP3   OH230514   0.172   1.957   5.003
10190TIP3    H130515   0.076   1.957   5.011
10190TIP3    H230516   0.196   1.864   5.002
10191TIP3   OH230517   3.550   2.632   1.557
10191TIP3    H130518   3.561   2.572   1.630
10191TIP3    H230519   3.619   2.697   1.568
10192TIP3   OH230520   5.070   0.911   3.598
10192TIP3    H130521   5.024   0.951   3.672
10192TIP3    H230522   5.153   0.881   3.636
10193TIP3   OH230523   6.161   1.593   6.421
10193TIP3    H130524   6.230   1.568   6.482
10193TIP3    H230525   6.086   1.614   6.477
10194TIP3   OH230526   3.311   6.670   0.535
10194TIP3    H130527   3.359   6.590   0.557
10194TIP3    H230528   3.330   6.684   0.442
10195TIP3   OH230529   5.364   2.516   4.218
10195TIP3    H130530   5.445   2.524   4.166
10195TIP3    H230531   5.366   2.593   4.276
10196TIP3   OH230532   1.826   6.020   1.430
10196TIP3    H130533   1.744   5.971   1.430
10196TIP3    H230534   1.883   5.971   1.370
10197TIP3   OH230535   3.980   2.340   0.226
10197TIP3    H130536   4.025   2.317   0.307
10197TIP3    H230537   3.910   2.275   0.218
10198TIP3   OH230538   1.703   2.579   5.636
10198TIP3    H130539   1.768   2.619   5.694
10198TIP3    H230540   1.754   2.537   5.568
10199TIP3   OH230541   2.118   3.393   3.464
10199TIP3    H130542   2.128   3.309   3.420
10199TIP3    H230543   2.109   3.457   3.393
10200TIP3   OH230544   4.215   6.714   1.127
10200TIP3    H130545   4.249   6.707   1.216
10200TIP3    H230546   4.167   6.797   1.126
10201TIP3   OH230547   1.189   1.882   2.377
10201TIP3    H130548   1.170   1.801   2.329
10201TIP3    H230549   1.108   1.901   2.424
10202TIP3   OH230550   4.898   5.037   2.834
10202TIP3    H130551   4.991   5.054   2.849
10202TIP3    H230552   4.859   5.124   2.828
10203TIP3   OH230553   6.252   3.532   4.910
10203TIP3    H130554   6.173   3.483   4.891
10203TIP3    H230555   6.314   3.505   4.842
10204TIP3   OH230556   2.979   1.260   5.607
10204TIP3    H130557   2.917   1.323   5.570
10204TIP3    H230558   3.052   1.313   5.638
10205TIP3   OH230559   8.015   7.710   1.234
10205TIP3    H130560   8.084   7.648   1.258
10205TIP3    H230561   8.041   7.742   1.148
10206TIP3   OH230562   6.428   6.265   4.230
10206TIP3    H130563   6.386   6.301   4.152
10206TIP3    H230564   6.380   6.306   4.303
10207TIP3   OH230565   1.848   1.784   5.522
10207TIP3    H130566   1.779   1.790   5.456
10207TIP3    H230567   1.928   1.814   5.477
10208TIP3   OH230568   0.692   5.571   4.117
10208TIP3    H130569   0.779   5.541   4.142
10208TIP3    H230570   0.676   5.530   4.032
10209TIP3   OH230571   2.469   6.590   6.088
10209TIP3    H130572   2.437   6.505   6.058
10209TIP3    H230573   2.546   6.570   6.142
10210TIP3   OH230574   4.926   1.690   0.973
10210TIP3    H130575   4.923   1.774   1.018
10210TIP3    H230576   4.974   1.633   1.033
10211TIP3   OH230577   4.590  -0.019   4.230
10211TIP3    H130578   4.634   0.052   4.277
10211TIP3    H230579   4.555   0.022   4.151
10212TIP3   OH230580   2.889   6.403   4.741
10212TIP3    H130581   2.892   6.483   4.793
10212TIP3    H230582   2.803   6.365   4.761
10213TIP3   OH230583   2.635   3.553   3.265
10213TIP3    H130584   2.730   3.551   3.271
10213TIP3    H230585   2.617   3.569   3.172
10214TIP3   OH230586   6.215   2.896   6.116
10214TIP3    H130587   6.245   2.876   6.028
10214TIP3    H230588   6.123   2.922   6.105
10215TIP3   OH230589   5.066   3.175   0.408
10215TIP3    H130590   5.154   3.142   0.390
10215TIP3    H230591   5.009   3.121   0.352
10216TIP3   OH230592   6.445   2.015   5.956
10216TIP3    H130593   6.411   2.062   6.032
10216TIP3    H230594   6.399   1.930   5.958
10217TIP3   OH230595   6.737   2.314   4.657
10217TIP3    H130596   6.792   2.287   4.584
10217TIP3    H230597   6.665   2.250   4.657
10218TIP3   OH230598   1.895   1.693   0.135
10218TIP3    H130599   1.820   1.751   0.146
10218TIP3    H230600   1.944   1.730   0.061
10219TIP3   OH230601   0.357   3.747   5.322
10219TIP3    H130602   0.395   3.675   5.373
10219TIP3    H230603   0.432   3.795   5.287
10220TIP3   OH230604   2.088   3.101   5.959
10220TIP3    H130605   2.026   3.028   5.963
10220TIP3    H230606   2.165   3.064   5.915
10221TIP3   OH230607   7.711   5.303   5.544
10221TIP3    H130608   7.804   5.320   5.560
10221TIP3    H230609   7.681   5.378   5.492
10222TIP3   OH230610   5.352   7.058   2.025
10222TIP3    H130611   5.356   7.083   1.933
10222TIP3    H230612   5.339   7.140   2.072
10223TIP3   OH230613   5.834   0.830   4.198
10223TIP3    H130614   5.824   0.747   4.152
10223TIP3    H230615   5.928   0.849   4.194
10224TIP3   OH230616   4.980   0.937   0.197
10224TIP3    H130617   5.065   0.970   0.225
10224TIP3    H230618   4.934   1.014   0.162
10225TIP3   OH230619   7.693   7.301   4.556
10225TIP3    H130620   7.730   7.264   4.475
10225TIP3    H230621   7.621   7.242   4.578
10226TIP3   OH230622   0.910   6.034   0.368
10226TIP3    H130623   0.924   6.107   0.428
10226TIP3    H230624   0.844   6.066   0.306
10227TIP3   OH230625   6.469   5.170   6.524
10227TIP3    H130626   6.392   5.222   6.502
10227TIP3    H230627   6.462   5.156   6.619
10228TIP3   OH230628   7.964   0.057   2.453
10228TIP3    H130629   7.899  -0.014   2.447
10228TIP3    H230630   8.014   0.050   2.371
10229TIP3   OH230631   1.525   5.915   3.171
10229TIP3    H130632   1.559   6.003   3.186
10229TIP3    H230633   1.540   5.898   3.078
10230TIP3   OH230634   3.006   2.675   1.588
10230TIP3    H130635   2.976   2.605   1.529
10230TIP3    H230636   3.096   2.652   1.609
10231TIP3   OH230637   3.727   2.470   4.400
10231TIP3    H130638   3.817   2.498   4.380
10231TIP3    H230639   3.684   2.468   4.315
10232TIP3   OH230640   4.348   1.750   1.497
10232TIP3    H130641   4.420   1.704   1.541
10232TIP3    H230642   4.269   1.703   1.524
10233TIP3   OH230643   2.249   7.258   2.083
10233TIP3    H130644   2.215   7.283   1.997
10233TIP3    H230645   2.306   7.183   2.066
10234TIP3   OH230646   0.378   7.766   0.679
10234TIP3    H130647   0.460   7.757   0.728
10234TIP3    H230648   0.309   7.764   0.746
10235TIP3   OH230649   8.096   2.044   0.037
10235TIP3    H130650   8.002   2.059   0.026
10235TIP3    H230651   8.134   2.132   0.038
10236TIP3   OH230652   1.830   0.423   2.812
10236TIP3    H130653   1.873   0.439   2.896
10236TIP3    H230654   1.901   0.396   2.753
10237TIP3   OH230655   7.306   1.544   0.968
10237TIP3    H130656   7.315   1.507   0.880
10237TIP3    H230657   7.243   1.616   0.957
10238TIP3   OH230658   4.368   7.067   2.654
10238TIP3    H130659   4.321   7.016   2.587
10238TIP3    H230660   4.314   7.060   2.732
10239TIP3   OH230661   5.385   4.116   2.589
10239TIP3    H130662   5.336   4.102   2.509
10239TIP3    H230663   5.343   4.060   2.654
10240TIP3   OH230664   7.194   5.530   3.786
10240TIP3    H130665   7.193   5.483   3.870
10240TIP3    H230666   7.103   5.554   3.771
10241TIP3   OH230667   0.112   3.960   4.923
10241TIP3    H130668   0.037   3.913   4.958
10241TIP3    H230669   0.084   3.988   4.836
10242TIP3   OH230670   3.426   1.776   0.460
10242TIP3    H130671   3.368   1.701   0.461
10242TIP3    H230672   3.396   1.829   0.385
10243TIP3   OH230673   6.175   1.631   2.139
10243TIP3    H130674   6.253   1.591   2.103
10243TIP3    H230675   6.207   1.703   2.194
10244TIP3   OH230676   5.886   7.465   0.642
10244TIP3    H130677   5.870   7.453   0.549
10244TIP3    H230678   5.799   7.459   0.682
10245TIP3   OH230679   1.264   4.660   0.293
10245TIP3    H130680   1.300   4.571   0.290
10245TIP3    H230681   1.173   4.649   0.321
10246TIP3   OH230682   6.663   2.374   3.070
10246TIP3    H130683   6.710   2.305   3.023
10246TIP3    H230684   6.603   2.327   3.128
10247TIP3   OH230685   4.154   3.269   3.716
10247TIP3    H130686   4.079   3.328   3.716
10247TIP3    H230687   4.223   3.316   3.670
10248TIP3   OH230688   0.989   6.269   3.705
10248TIP3    H130689   0.993   6.337   3.638
10248TIP3    H230690   1.060   6.291   3.766
10249TIP3   OH230691   7.717   5.153   0.498
10249TIP3    H130692   7.800   5.184   0.534
10249TIP3    H230693   7.673   5.111   0.572
10250TIP3   OH230694   2.254   4.091   4.455
10250TIP3    H130695   2.278   4.020   4.395
10250TIP3    H230696   2.190   4.143   4.408
10251TIP3   OH230697   3.827   3.615   4.336
10251TIP3    H130698   3.827   3.621   4.432
10251TIP3    H230699   3.820   3.521   4.319
10252TIP3   OH230700   4.760   5.881   5.207
10252TIP3    H130701   4.775   5.925   5.123
10252TIP3    H230702   4.762   5.788   5.186
10253TIP3   OH230703   3.971   2.662   3.505
10253TIP3    H130704   4.037   2.729   3.490
10253TIP3    H230705   3.964   2.656   3.601
10254TIP3   OH230706   3.192   1.187   2.735
10254TIP3    H130707   3.227   1.099   2.751
10254TIP3    H230708   3.258   1.230   2.682
10255TIP3   OH230709   4.098   1.712   3.303
10255TIP3    H130710   4.145   1.766   3.238
10255TIP3    H230711   4.164   1.650   3.334
10256TIP3   OH230712   1.094   1.962   6.395
10256TIP3    H130713   1.097   1.936   6.303
10256TIP3    H230714   1.181   1.942   6.429
10257TIP3   OH230715   4.704   3.230   5.723
10257TIP3    H130716   4.705   3.139   5.751
10257TIP3    H230717   4.623   3.238   5.672
10258TIP3   OH230718   8.019   5.542   6.544
10258TIP3    H130719   8.058   5.543   6.632
10258TIP3    H230720   7.941   5.487   6.553
10259TIP3   OH230721   0.524   3.463   2.158
10259TIP3    H130722   0.595   3.527   2.163
10259TIP3    H230723   0.545   3.398   2.225
10260TIP3   OH230724   4.497   5.127   2.644
10260TIP3    H130725   4.441   5.102   2.571
10260TIP3    H230726   4.586   5.123   2.609
10261TIP3   OH230727   2.823   4.423   6.262
10261TIP3    H130728   2.916   4.440   6.274
10261TIP3    H230729   2.809   4.336   6.300
10262TIP3   OH230730   0.495   3.602   4.402
10262TIP3    H130731   0.400   3.607   4.416
10262TIP3    H230732   0.527   3.689   4.428
10263TIP3   OH230733   1.090   3.051   3.054
10263TIP3    H130734   0.997   3.052   3.077
10263TIP3    H230735   1.101   3.125   2.994
10264TIP3   OH230736   5.582   0.284   0.194
10264TIP3    H130737   5.491   0.314   0.190
10264TIP3    H230738   5.585   0.208   0.135
10265TIP3   OH230739   5.975   4.970   3.205
10265TIP3    H130740   5.943   4.882   3.185
10265TIP3    H230741   5.900   5.027   3.190
10266TIP3   OH230742   5.940   4.746   0.560
10266TIP3    H130743   5.851   4.710   0.559
10266TIP3    H230744   5.955   4.775   0.470
10267TIP3   OH230745   3.982   4.101   2.884
10267TIP3    H130746   3.927   4.177   2.864
10267TIP3    H230747   3.954   4.035   2.821
10268TIP3   OH230748   7.098   3.002   5.244
10268TIP3    H130749   7.120   3.026   5.334
10268TIP3    H230750   7.107   2.907   5.241
10269TIP3   OH230751   4.740   7.202   0.992
10269TIP3    H130752   4.653   7.180   0.958
10269TIP3    H230753   4.801   7.166   0.927
10270TIP3   OH230754   7.230   2.914   5.756
10270TIP3    H130755   7.202   2.980   5.819
10270TIP3    H230756   7.192   2.832   5.789
10271TIP3   OH230757   4.333   1.521   6.061
10271TIP3    H130758   4.248   1.559   6.039
10271TIP3    H230759   4.337   1.525   6.157
10272TIP3   OH230760   7.196   2.761   3.925
10272TIP3    H130761   7.175   2.826   3.992
10272TIP3    H230762   7.149   2.682   3.953
10273TIP3   OH230763   6.819   2.978   2.424
10273TIP3    H130764   6.877   3.002   2.496
10273TIP3    H230765   6.864   2.907   2.379
10274TIP3   OH230766   4.868   1.910   0.030
10274TIP3    H130767   4.829   1.864   0.104
10274TIP3    H230768   4.955   1.936   0.060
10275TIP3   OH230769   6.421   0.118   3.058
10275TIP3    H130770   6.508   0.111   3.019
10275TIP3    H230771   6.373   0.175   2.998
10276TIP3   OH230772   5.614   6.629   4.376
10276TIP3    H130773   5.555   6.570   4.329
10276TIP3    H230774   5.695   6.627   4.325
10277TIP3   OH230775   6.747   6.627   3.137
10277TIP3    H130776   6.740   6.702   3.077
10277TIP3    H230777   6.713   6.553   3.086
10278TIP3   OH230778   6.420   2.348   4.749
10278TIP3    H130779   6.490   2.387   4.697
10278TIP3    H230780   6.439   2.374   4.839
10279TIP3   OH230781   1.865   1.037   3.055
10279TIP3    H130782   1.861   0.943   3.068
10279TIP3    H230783   1.922   1.048   2.978
10280TIP3   OH230784   4.080   2.162   0.991
10280TIP3    H130785   3.998   2.166   1.040
10280TIP3    H230786   4.128   2.088   1.028
10281TIP3   OH230787   6.547   6.770   1.155
10281TIP3    H130788   6.507   6.737   1.236
10281TIP3    H230789   6.567   6.691   1.105
10282TIP3   OH230790   2.553   1.473   6.513
10282TIP3    H130791   2.483   1.486   6.449
10282TIP3    H230792   2.599   1.557   6.516
10283TIP3   OH230793   6.888   6.593   3.862
10283TIP3    H130794   6.805   6.605   3.909
10283TIP3    H230795   6.862   6.582   3.770
10284TIP3   OH230796   5.951   3.835   2.973
10284TIP3    H130797   5.988   3.856   2.887
10284TIP3    H230798   6.010   3.876   3.036
10285TIP3   OH230799   7.292   0.155   0.610
10285TIP3    H130800   7.370   0.210   0.602
10285TIP3    H230801   7.315   0.073   0.567
10286TIP3   OH230802   1.458   0.734   0.681
10286TIP3    H130803   1.509   0.660   0.648
10286TIP3    H230804   1.411   0.699   0.757
10287TIP3   OH230805   7.571   6.120   1.254
10287TIP3    H130806   7.638   6.188   1.250
10287TIP3    H230807   7.514   6.138   1.179
10288TIP3   OH230808   3.580   0.534   1.487
10288TIP3    H130809   3.601   0.622   1.457
10288TIP3    H230810   3.592   0.478   1.410
10289TIP3   OH230811   3.220   3.177   0.764
10289TIP3    H130812   3.254   3.104   0.713
10289TIP3    H230813   3.290   3.199   0.825
10290TIP3   OH230814   6.733   5.955   1.971
10290TIP3    H130815   6.814   5.926   1.929
10290TIP3    H230816   6.762   6.013   2.042
10291TIP3   OH230817   4.466   5.932   5.374
10291TIP3    H130818   4.420   5.942   5.457
10291TIP3    H230819   4.438   5.846   5.341
10292TIP3   OH230820   4.041   1.805   4.150
10292TIP3    H130821   4.004   1.756   4.222
10292TIP3    H230822   4.032   1.748   4.074
10293TIP3   OH230823   3.357   4.540   3.931
10293TIP3    H130824   3.409   4.527   3.852
10293TIP3    H230825   3.287   4.476   3.925
10294TIP3   OH230826   6.726   1.355   0.305
10294TIP3    H130827   6.745   1.448   0.293
10294TIP3    H230828   6.798   1.310   0.261
10295TIP3   OH230829   3.370   2.458   4.763
10295TIP3    H130830   3.377   2.380   4.708
10295TIP3    H230831   3.426   2.523   4.721
10296TIP3   OH230832   1.762   7.167   2.210
10296TIP3    H130833   1.803   7.149   2.295
10296TIP3    H230834   1.772   7.262   2.199
10297TIP3   OH230835   3.589   0.649   1.059
10297TIP3    H130836   3.515   0.594   1.084
10297TIP3    H230837   3.666   0.595   1.076
10298TIP3   OH230838   7.019   4.924   3.719
10298TIP3    H130839   6.935   4.962   3.693
10298TIP3    H230840   7.082   4.994   3.705
10299TIP3   OH230841   7.459   5.164   5.981
10299TIP3    H130842   7.500   5.112   5.913
10299TIP3    H230843   7.431   5.101   6.047
10300TIP3   OH230844   5.345   5.480   1.590
10300TIP3    H130845   5.257   5.448   1.610
10300TIP3    H230846   5.347   5.568   1.628
10301TIP3   OH230847   2.154   6.088   5.552
10301TIP3    H130848   2.111   6.011   5.588
10301TIP3    H230849   2.182   6.062   5.464
10302TIP3   OH230850   3.803   3.433   4.859
10302TIP3    H130851   3.873   3.497   4.844
10302TIP3    H230852   3.752   3.471   4.931
10303TIP3   OH230853   7.367   2.367   3.103
10303TIP3    H130854   7.384   2.415   3.021
10303TIP3    H230855   7.440   2.392   3.160
10304TIP3   OH230856   1.924   4.434   1.652
10304TIP3    H130857   1.939   4.398   1.565
10304TIP3    H230858   1.896   4.524   1.637
10305TIP3   OH230859   4.527   6.460   0.586
10305TIP3    H130860   4.551   6.551   0.574
10305TIP3    H230861   4.540   6.420   0.500
10306TIP3   OH230862   8.208   0.540   0.933
10306TIP3    H130863   8.235   0.618   0.886
10306TIP3    H230864   8.280   0.478   0.921
10307TIP3   OH230865   8.032   1.969   5.028
10307TIP3    H130866   8.106   1.980   4.968
10307TIP3    H230867   8.008   1.877   5.021
10308TIP3   OH230868   7.010   6.324   2.805
10308TIP3    H130869   7.050   6.392   2.752
10308TIP3    H230870   7.063   6.322   2.885
10309TIP3   OH230871   5.148   2.867   0.493
10309TIP3    H130872   5.182   2.903   0.574
10309TIP3    H230873   5.197   2.912   0.424
10310TIP3   OH230874   2.694   0.634   6.200
10310TIP3    H130875   2.743   0.708   6.164
10310TIP3    H230876   2.729   0.622   6.288
10311TIP3   OH230877   0.705   6.249   5.463
10311TIP3    H130878   0.717   6.164   5.420
10311TIP3    H230879   0.787   6.295   5.446
10312TIP3   OH230880   7.665   3.429   0.035
10312TIP3    H130881   7.677   3.371  -0.040
10312TIP3    H230882   7.575   3.463   0.025
10313TIP3   OH230883   0.830   2.879   2.919
10313TIP3    H130884   0.813   2.833   2.836
10313TIP3    H230885   0.843   2.970   2.893
10314TIP3   OH230886   1.146   4.634   2.929
10314TIP3    H130887   1.182   4.619   2.842
10314TIP3    H230888   1.056   4.602   2.924
10315TIP3   OH230889   3.006   0.568   6.770
10315TIP3    H130890   2.982   0.517   6.693
10315TIP3    H230891   3.065   0.636   6.736
10316TIP3   OH230892   1.522   2.712   2.991
10316TIP3    H130893   1.522   2.639   3.054
10316TIP3    H230894   1.542   2.671   2.907
10317TIP3   OH230895   3.137   7.659   5.040
10317TIP3    H130896   3.133   7.565   5.026
10317TIP3    H230897   3.085   7.674   5.119
10318TIP3   OH230898   3.790   3.750   6.506
10318TIP3    H130899   3.874   3.713   6.481
10318TIP3    H230900   3.733   3.674   6.520
10319TIP3   OH230901   4.945   4.586   1.119
10319TIP3    H130902   4.892   4.647   1.068
10319TIP3    H230903   4.950   4.507   1.064
10320TIP3   OH230904   1.933   2.641   5.829
10320TIP3    H130905   2.007   2.615   5.775
10320TIP3    H230906   1.950   2.601   5.915
10321TIP3   OH230907   5.866   7.752   0.412
10321TIP3    H130908   5.841   7.735   0.503
10321TIP3    H230909   5.910   7.837   0.415
10322TIP3   OH230910   6.173   4.259   2.545
10322TIP3    H130911   6.129   4.280   2.627
10322TIP3    H230912   6.188   4.344   2.504
10323TIP3   OH230913   3.718   2.416   2.508
10323TIP3    H130914   3.765   2.483   2.457
10323TIP3    H230915   3.770   2.407   2.588
10324TIP3   OH230916   6.947   7.638   2.873
10324TIP3    H130917   6.933   7.638   2.779
10324TIP3    H230918   7.041   7.629   2.884
10325TIP3   OH230919   4.816   4.655   3.774
10325TIP3    H130920   4.872   4.605   3.833
10325TIP3    H230921   4.819   4.606   3.691
10326TIP3   OH230922   0.944   2.281   1.700
10326TIP3    H130923   1.029   2.238   1.689
10326TIP3    H230924   0.956   2.338   1.776
10327TIP3   OH230925   1.309   0.266   0.985
10327TIP3    H130926   1.310   0.215   0.904
10327TIP3    H230927   1.262   0.346   0.962
10328TIP3   OH230928   6.909   1.458   1.841
10328TIP3    H130929   6.923   1.454   1.746
10328TIP3    H230930   6.970   1.393   1.876
10329TIP3   OH230931   7.637   1.792   2.842
10329TIP3    H130932   7.696   1.717   2.839
10329TIP3    H230933   7.604   1.792   2.932
10330TIP3   OH230934   6.070   0.034   0.779
10330TIP3    H130935   6.089   0.059   0.869
10330TIP3    H230936   5.975   0.042   0.771
10331TIP3   OH230937   4.822   1.099   4.785
10331TIP3    H130938   4.883   1.125   4.854
10331TIP3    H230939   4.827   1.003   4.784
10332TIP3   OH230940   4.692   3.604   5.060
10332TIP3    H130941   4.726   3.523   5.022
10332TIP3    H230942   4.602   3.610   5.028
10333TIP3   OH230943   5.500   3.930   5.617
10333TIP3    H130944   5.516   4.023   5.631
10333TIP3    H230945   5.415   3.927   5.574
10334TIP3   OH230946   1.446   2.590   4.601
10334TIP3    H130947   1.435   2.597   4.696
10334TIP3    H230948   1.360   2.615   4.565
10335TIP3   OH230949   1.665   3.289   2.767
10335TIP3    H130950   1.617   3.236   2.704
10335TIP3    H230951   1.755   3.287   2.737
10336TIP3   OH230952   2.241   0.902   5.722
10336TIP3    H130953   2.272   0.940   5.640
10336TIP3    H230954   2.301   0.937   5.789
10337TIP3   OH230955   2.989   1.285   0.661
10337TIP3    H130956   2.944   1.265   0.579
10337TIP3    H230957   2.925   1.335   0.712
10338TIP3   OH230958   4.876   1.484   6.437
10338TIP3    H130959   4.794   1.487   6.386
10338TIP3    H230960   4.900   1.392   6.438
10339TIP3   OH230961   7.160   1.327   3.657
10339TIP3    H130962   7.098   1.284   3.597
10339TIP3    H230963   7.244   1.285   3.638
10340TIP3   OH230964   0.905   2.598   5.454
10340TIP3    H130965   0.918   2.597   5.359
10340TIP3    H230966   0.899   2.691   5.476
10341TIP3   OH230967   2.562   4.109   4.106
10341TIP3    H130968   2.502   4.051   4.060
10341TIP3    H230969   2.586   4.060   4.185
10342TIP3   OH230970   4.993   4.548   4.848
10342TIP3    H130971   4.932   4.490   4.803
10342TIP3    H230972   4.984   4.524   4.941
10343TIP3   OH230973   5.512   4.365   2.565
10343TIP3    H130974   5.465   4.284   2.589
10343TIP3    H230975   5.470   4.394   2.484
10344TIP3   OH230976   2.886   0.336   3.291
10344TIP3    H130977   2.869   0.403   3.224
10344TIP3    H230978   2.972   0.301   3.268
10345TIP3   OH230979   1.677   6.523   1.275
10345TIP3    H130980   1.585   6.501   1.291
10345TIP3    H230981   1.726   6.462   1.330
10346TIP3   OH230982   0.292   6.780   2.958
10346TIP3    H130983   0.367   6.736   2.918
10346TIP3    H230984   0.274   6.728   3.036
10347TIP3   OH230985   7.322   1.062   1.834
10347TIP3    H130986   7.392   1.122   1.808
10347TIP3    H230987   7.245   1.117   1.844
10348TIP3   OH230988   6.475   5.695   1.478
10348TIP3    H130989   6.392   5.690   1.431
10348TIP3    H230990   6.536   5.731   1.414
10349TIP3   OH230991   5.798   6.005   0.812
10349TIP3    H130992   5.813   5.913   0.830
10349TIP3    H230993   5.713   6.008   0.769
10350TIP3   OH230994   3.101   6.820   6.667
10350TIP3    H130995   3.152   6.769   6.603
10350TIP3    H230996   3.065   6.754   6.727
10351TIP3   OH230997   0.649   4.602   1.007
10351TIP3    H130998   0.565   4.648   1.010
10351TIP3    H230999   0.636   4.525   1.062
10352TIP3   OH231000   6.994   5.958   3.259
10352TIP3    H131001   7.053   5.996   3.323
10352TIP3    H231002   7.051   5.935   3.185
10353TIP3   OH231003   1.981   2.239   4.053
10353TIP3    H131004   2.023   2.325   4.057
10353TIP3    H231005   1.894   2.254   4.089
10354TIP3   OH231006   4.206   3.341   1.036
10354TIP3    H131007   4.117   3.350   1.002
10354TIP3    H231008   4.196   3.344   1.131
10355TIP3   OH231009   4.981   3.980   5.963
10355TIP3    H131010   4.954   3.945   5.878
10355TIP3    H231011   4.989   3.902   6.019
10356TIP3   OH231012   1.682   2.460   4.880
10356TIP3    H131013   1.687   2.463   4.784
10356TIP3    H231014   1.670   2.368   4.901
10357TIP3   OH231015   3.347   4.789   6.683
10357TIP3    H131016   3.314   4.702   6.662
10357TIP3    H231017   3.418   4.803   6.620
10358TIP3   OH231018   6.484   0.097   2.726
10358TIP3    H131019   6.546   0.083   2.798
10358TIP3    H231020   6.454   0.187   2.738
10359TIP3   OH231021   0.826   1.667   4.295
10359TIP3    H131022   0.835   1.617   4.376
10359TIP3    H231023   0.794   1.603   4.231
10360TIP3   OH231024   5.267   1.370   5.534
10360TIP3    H131025   5.237   1.440   5.476
10360TIP3    H231026   5.359   1.359   5.513
10361TIP3   OH231027   2.106   2.108   2.799
10361TIP3    H131028   2.142   2.171   2.861
10361TIP3    H231029   2.140   2.023   2.829
10362TIP3   OH231030   7.522   3.793   0.310
10362TIP3    H131031   7.436   3.831   0.291
10362TIP3    H231032   7.506   3.726   0.375
10363TIP3   OH231033   6.227   7.764   4.239
10363TIP3    H131034   6.235   7.723   4.153
10363TIP3    H231035   6.159   7.714   4.284
10364TIP3   OH231036   2.437   5.545   6.515
10364TIP3    H131037   2.474   5.524   6.429
10364TIP3    H231038   2.500   5.603   6.556
10365TIP3   OH231039   3.148   7.073   5.680
10365TIP3    H131040   3.227   7.088   5.732
10365TIP3    H231041   3.079   7.122   5.724
10366TIP3   OH231042   7.600   7.358   0.754
10366TIP3    H131043   7.583   7.361   0.659
10366TIP3    H231044   7.598   7.450   0.781
10367TIP3   OH231045   6.590   2.926   4.447
10367TIP3    H131046   6.604   2.910   4.541
10367TIP3    H231047   6.650   2.865   4.403
10368TIP3   OH231048   2.730   6.723   4.167
10368TIP3    H131049   2.710   6.772   4.087
10368TIP3    H231050   2.648   6.724   4.216
10369TIP3   OH231051   6.439   1.876   0.575
10369TIP3    H131052   6.476   1.801   0.621
10369TIP3    H231053   6.353   1.847   0.545
10370TIP3   OH231054   2.376   0.222   1.784
10370TIP3    H131055   2.373   0.317   1.778
10370TIP3    H231056   2.302   0.192   1.730
10371TIP3   OH231057   4.925   6.030   0.705
10371TIP3    H131058   4.862   5.961   0.683
10371TIP3    H231059   4.912   6.096   0.637
10372TIP3   OH231060   7.559   2.138   6.751
10372TIP3    H131061   7.560   2.192   6.672
10372TIP3    H231062   7.615   2.184   6.813
10373TIP3   OH231063   2.065   5.108   3.473
10373TIP3    H131064   2.056   5.038   3.537
10373TIP3    H231065   2.078   5.187   3.525
10374TIP3   OH231066   4.915   1.169   6.079
10374TIP3    H131067   4.990   1.156   6.138
10374TIP3    H231068   4.954   1.183   5.993
10375TIP3   OH231069   3.330   6.640   4.076
10375TIP3    H131070   3.319   6.609   3.986
10375TIP3    H231071   3.259   6.704   4.088
10376TIP3   OH231072   7.949   4.048   2.547
10376TIP3    H131073   7.895   4.004   2.613
10376TIP3    H231074   7.934   3.998   2.467
10377TIP3   OH231075   2.766   2.080   3.181
10377TIP3    H131076   2.717   2.017   3.128
10377TIP3    H231077   2.758   2.163   3.133
10378TIP3   OH231078   0.935   7.818   5.255
10378TIP3    H131079   0.945   7.723   5.248
10378TIP3    H231080   0.872   7.841   5.188
10379TIP3   OH231081   5.207   5.432   6.470
10379TIP3    H131082   5.144   5.376   6.516
10379TIP3    H231083   5.292   5.396   6.494
10380TIP3   OH231084   0.482   1.494   4.860
10380TIP3    H131085   0.443   1.558   4.800
10380TIP3    H231086   0.419   1.422   4.862
10381TIP3   OH231087   5.593   6.021   4.282
10381TIP3    H131088   5.596   6.042   4.376
10381TIP3    H231089   5.680   6.046   4.250
10382TIP3   OH231090   8.200   6.260   2.381
10382TIP3    H131091   8.213   6.233   2.472
10382TIP3    H231092   8.272   6.320   2.363
10383TIP3   OH231093   4.810   3.384   3.287
10383TIP3    H131094   4.762   3.312   3.245
10383TIP3    H231095   4.900   3.353   3.293
10384TIP3   OH231096   1.187   2.870   1.949
10384TIP3    H131097   1.097   2.902   1.953
10384TIP3    H231098   1.203   2.835   2.037
10385TIP3   OH231099   1.517   4.837   0.761
10385TIP3    H131100   1.510   4.795   0.675
10385TIP3    H231101   1.574   4.780   0.811
10386TIP3   OH231102   3.937   4.987   1.193
10386TIP3    H131103   4.004   5.001   1.126
10386TIP3    H231104   3.908   4.896   1.180
10387TIP3   OH231105   1.872   0.390   5.375
10387TIP3    H131106   1.819   0.446   5.431
10387TIP3    H231107   1.858   0.302   5.409
10388TIP3   OH231108   7.031   0.833   3.069
10388TIP3    H131109   7.101   0.842   3.134
10388TIP3    H231110   6.953   0.864   3.114
10389TIP3   OH231111   6.541   0.296   3.973
10389TIP3    H131112   6.516   0.260   4.058
10389TIP3    H231113   6.532   0.391   3.985
10390TIP3   OH231114   8.113   4.901   1.149
10390TIP3    H131115   8.151   4.966   1.091
10390TIP3    H231116   8.128   4.936   1.237
10391TIP3   OH231117   5.375   3.548   4.997
10391TIP3    H131118   5.431   3.567   4.922
10391TIP3    H231119   5.377   3.453   5.004
10392TIP3   OH231120   0.553   5.740   1.167
10392TIP3    H131121   0.588   5.806   1.227
10392TIP3    H231122   0.557   5.782   1.081
10393TIP3   OH231123   3.809   4.446   3.795
10393TIP3    H131124   3.808   4.352   3.777
10393TIP3    H231125   3.885   4.458   3.853
10394TIP3   OH231126   2.953   0.491   0.996
10394TIP3    H131127   2.858   0.480   1.008
10394TIP3    H231128   2.968   0.463   0.905
10395TIP3   OH231129   3.426   0.723   2.916
10395TIP3    H131130   3.394   0.789   2.855
10395TIP3    H231131   3.360   0.720   2.985
10396TIP3   OH231132   7.721   4.028   6.532
10396TIP3    H131133   7.728   3.950   6.587
10396TIP3    H231134   7.807   4.070   6.540
10397TIP3   OH231135   6.336   4.771   5.551
10397TIP3    H131136   6.357   4.799   5.462
10397TIP3    H231137   6.298   4.684   5.541
10398TIP3   OH231138   0.903   5.110   6.153
10398TIP3    H131139   0.943   5.093   6.238
10398TIP3    H231140   0.839   5.040   6.142
10399TIP3   OH231141   1.173   3.797   4.680
10399TIP3    H131142   1.127   3.869   4.724
10399TIP3    H231143   1.107   3.728   4.673
10400TIP3   OH231144   1.062   0.694   0.434
10400TIP3    H131145   1.109   0.763   0.481
10400TIP3    H231146   1.113   0.615   0.450
10401TIP3   OH231147   5.844   7.681   6.426
10401TIP3    H131148   5.829   7.663   6.333
10401TIP3    H231149   5.874   7.772   6.428
10402TIP3   OH231150   6.390   3.703   0.185
10402TIP3    H131151   6.340   3.623   0.206
10402TIP3    H231152   6.416   3.692   0.094
10403TIP3   OH231153   6.796   5.460   4.344
10403TIP3    H131154   6.838   5.403   4.409
10403TIP3    H231155   6.827   5.548   4.367
10404TIP3   OH231156   6.197   1.008   1.923
10404TIP3    H131157   6.172   0.937   1.982
10404TIP3    H231158   6.164   1.087   1.965
10405TIP3   OH231159   4.015   3.189   1.272
10405TIP3    H131160   4.086   3.246   1.303
10405TIP3    H231161   4.026   3.108   1.323
10406TIP3   OH231162   3.624   1.138   4.023
10406TIP3    H131163   3.662   1.091   3.948
10406TIP3    H231164   3.569   1.073   4.067
10407TIP3   OH231165   3.054   7.508   3.637
10407TIP3    H131166   2.973   7.493   3.685
10407TIP3    H231167   3.049   7.600   3.609
10408TIP3   OH231168   2.795   4.698   4.519
10408TIP3    H131169   2.766   4.740   4.438
10408TIP3    H231170   2.770   4.758   4.588
10409TIP3   OH231171   6.919   4.941   2.946
10409TIP3    H131172   6.851   4.922   2.880
10409TIP3    H231173   6.990   4.880   2.925
10410TIP3   OH231174   0.004   5.749   5.046
10410TIP3    H131175   0.099   5.738   5.057
10410TIP3    H231176  -0.006   5.827   4.993
10411TIP3   OH231177   6.616   6.608   3.884
10411TIP3    H131178   6.548   6.673   3.898
10411TIP3    H231179   6.572   6.535   3.841
10412TIP3   OH231180   1.757   5.973   2.629
10412TIP3    H131181   1.799   5.894   2.661
10412TIP3    H231182   1.663   5.954   2.633
10413TIP3   OH231183   3.217   3.478   1.487
10413TIP3    H131184   3.143   3.522   1.443
10413TIP3    H231185   3.284   3.546   1.493
10414TIP3   OH231186   7.846   4.262   0.216
10414TIP3    H131187   7.916   4.323   0.191
10414TIP3    H231188   7.788   4.313   0.272
10415TIP3   OH231189   8.115   5.299   5.034
10415TIP3    H131190   8.068   5.331   5.111
10415TIP3    H231191   8.122   5.205   5.047
10416TIP3   OH231192   0.280   1.783   2.550
10416TIP3    H131193   0.316   1.825   2.627
10416TIP3    H231194   0.329   1.701   2.541
10417TIP3   OH231195   8.019   4.278   2.368
10417TIP3    H131196   8.081   4.238   2.307
10417TIP3    H231197   7.977   4.204   2.412
10418TIP3   OH231198   7.045   3.706   0.112
10418TIP3    H131199   6.954   3.721   0.085
10418TIP3    H231200   7.094   3.702   0.030
10419TIP3   OH231201   6.153   4.325   0.189
10419TIP3    H131202   6.200   4.292   0.266
10419TIP3    H231203   6.107   4.403   0.220
10420TIP3   OH231204   2.408   3.390   3.255
10420TIP3    H131205   2.346   3.457   3.283
10420TIP3    H231206   2.493   3.433   3.258
10421TIP3   OH231207   5.888   7.168   1.867
10421TIP3    H131208   5.815   7.114   1.897
10421TIP3    H231209   5.846   7.245   1.828
10422TIP3   OH231210   0.596   5.878   0.304
10422TIP3    H131211   0.578   5.788   0.278
10422TIP3    H231212   0.514   5.925   0.285
10423TIP3   OH231213   4.153   6.856   3.829
10423TIP3    H131214   4.071   6.894   3.862
10423TIP3    H231215   4.141   6.761   3.841
10424TIP3   OH231216   2.379   3.321   5.940
10424TIP3    H131217   2.401   3.238   5.982
10424TIP3    H231218   2.384   3.385   6.011
10425TIP3   OH231219   5.646   4.672   5.671
10425TIP3    H131220   5.633   4.720   5.589
10425TIP3    H231221   5.735   4.638   5.665
10426TIP3   OH231222   6.818   3.382   5.974
10426TIP3    H131223   6.813   3.362   6.068
10426TIP3    H231224   6.853   3.471   5.971
10427TIP3   OH231225   6.881   3.664   3.760
10427TIP3    H131226   6.857   3.575   3.787
10427TIP3    H231227   6.803   3.717   3.780
10428TIP3   OH231228   7.848   3.821   1.174
10428TIP3    H131229   7.832   3.916   1.168
10428TIP3    H231230   7.819   3.787   1.090
10429TIP3   OH231231   0.626   6.418   1.249
10429TIP3    H131232   0.655   6.477   1.179
10429TIP3    H231233   0.670   6.452   1.327
10430TIP3   OH231234   5.608   7.434   4.620
10430TIP3    H131235   5.600   7.395   4.707
10430TIP3    H231236   5.563   7.519   4.628
10431TIP3   OH231237   7.661   5.988   0.051
10431TIP3    H131238   7.572   5.952   0.060
10431TIP3    H231239   7.685   5.970  -0.039
10432TIP3   OH231240   0.759   0.648   3.514
10432TIP3    H131241   0.701   0.697   3.456
10432TIP3    H231242   0.715   0.651   3.599
10433TIP3   OH231243   2.336   7.533   4.648
10433TIP3    H131244   2.310   7.493   4.565
10433TIP3    H231245   2.431   7.523   4.651
10434TIP3   OH231246   5.785   2.307   3.423
10434TIP3    H131247   5.862   2.350   3.386
10434TIP3    H231248   5.818   2.222   3.453
10435TIP3   OH231249   4.699   7.014   4.172
10435TIP3    H131250   4.704   7.050   4.261
10435TIP3    H231251   4.697   6.919   4.185
10436TIP3   OH231252   4.927   5.089   4.437
10436TIP3    H131253   4.923   5.143   4.358
10436TIP3    H231254   4.975   5.011   4.409
10437TIP3   OH231255   3.551   7.628   3.380
10437TIP3    H131256   3.490   7.558   3.359
10437TIP3    H231257   3.637   7.590   3.366
10438TIP3   OH231258   3.590   6.958   2.241
10438TIP3    H131259   3.648   7.023   2.202
10438TIP3    H231260   3.531   7.008   2.297
10439TIP3   OH231261   0.705   0.263   1.385
10439TIP3    H131262   0.641   0.195   1.364
10439TIP3    H231263   0.672   0.342   1.343
10440TIP3   OH231264   0.543   5.782   2.312
10440TIP3    H131265   0.572   5.764   2.223
10440TIP3    H231266   0.457   5.822   2.301
10441TIP3   OH231267   0.929   6.255   0.063
10441TIP3    H131268   0.889   6.195   0.126
10441TIP3    H231269   1.023   6.247   0.078
10442TIP3   OH231270   7.675   4.544   4.684
10442TIP3    H131271   7.710   4.632   4.673
10442TIP3    H231272   7.623   4.548   4.765
10443TIP3   OH231273   0.394   6.201   2.557
10443TIP3    H131274   0.453   6.251   2.501
10443TIP3    H231275   0.389   6.115   2.516
10444TIP3   OH231276   3.297   3.767   2.259
10444TIP3    H131277   3.391   3.780   2.246
10444TIP3    H231278   3.291   3.696   2.323
10445TIP3   OH231279   7.772   1.904   5.992
10445TIP3    H131280   7.845   1.930   5.936
10445TIP3    H231281   7.758   1.812   5.972
10446TIP3   OH231282   5.519   1.808   3.590
10446TIP3    H131283   5.569   1.834   3.667
10446TIP3    H231284   5.560   1.856   3.518
10447TIP3   OH231285   6.466   3.700   5.441
10447TIP3    H131286   6.371   3.706   5.434
10447TIP3    H231287   6.494   3.670   5.355
10448TIP3   OH231288   0.153   1.006   0.490
10448TIP3    H131289   0.065   1.009   0.527
10448TIP3    H231290   0.211   0.997   0.565
10449TIP3   OH231291   7.936   4.227   3.798
10449TIP3    H131292   8.010   4.217   3.739
10449TIP3    H231293   7.971   4.275   3.873
10450TIP3   OH231294   0.626   1.827   4.289
10450TIP3    H131295   0.553   1.786   4.336
10450TIP3    H231296   0.701   1.771   4.307
10451TIP3   OH231297   7.330   3.982   4.051
10451TIP3    H131298   7.291   3.925   4.117
10451TIP3    H231299   7.325   4.069   4.089
10452TIP3   OH231300   6.650   1.409   3.706
10452TIP3    H131301   6.696   1.483   3.666
10452TIP3    H231302   6.719   1.346   3.725
10453TIP3   OH231303   4.235   1.194   6.281
10453TIP3    H131304   4.285   1.271   6.307
10453TIP3    H231305   4.231   1.139   6.359
10454TIP3   OH231306   2.611   1.400   4.358
10454TIP3    H131307   2.676   1.382   4.289
10454TIP3    H231308   2.527   1.399   4.312
10455TIP3   OH231309   0.850   2.963   4.220
10455TIP3    H131310   0.801   2.908   4.158
10455TIP3    H231311   0.788   2.977   4.292
10456TIP3   OH231312   3.507   6.873   3.576
10456TIP3    H131313   3.437   6.887   3.640
10456TIP3    H231314   3.582   6.919   3.612
10457TIP3   OH231315   2.393   1.906   6.741
10457TIP3    H131316   2.461   1.877   6.681
10457TIP3    H231317   2.416   1.865   6.825
10458TIP3   OH231318   2.961   6.159   3.835
10458TIP3    H131319   2.891   6.203   3.882
10458TIP3    H231320   2.960   6.069   3.868
10459TIP3   OH231321   3.036   2.559   3.149
10459TIP3    H131322   3.105   2.521   3.204
10459TIP3    H231323   3.020   2.492   3.082
10460TIP3   OH231324   5.764   6.925   1.051
10460TIP3    H131325   5.855   6.924   1.024
10460TIP3    H231326   5.721   6.860   0.996
10461TIP3   OH231327   1.928   0.046   1.921
10461TIP3    H131328   1.939   0.134   1.957
10461TIP3    H231329   1.884  -0.003   1.990
10462TIP3   OH231330   7.272   7.272   6.225
10462TIP3    H131331   7.294   7.356   6.266
10462TIP3    H231332   7.220   7.295   6.148
10463TIP3   OH231333   4.795   3.714   3.060
10463TIP3    H131334   4.779   3.807   3.042
10463TIP3    H231335   4.763   3.669   2.982
10464TIP3   OH231336   4.533   0.146   2.700
10464TIP3    H131337   4.566   0.215   2.643
10464TIP3    H231338   4.440   0.139   2.677
10465TIP3   OH231339   7.853   4.315   5.627
10465TIP3    H131340   7.786   4.380   5.607
10465TIP3    H231341   7.818   4.232   5.593
10466TIP3   OH231342   6.291   2.546   2.197
10466TIP3    H131343   6.321   2.590   2.117
10466TIP3    H231344   6.201   2.577   2.208
10467TIP3   OH231345   3.482   1.159   2.162
10467TIP3    H131346   3.457   1.218   2.233
10467TIP3    H231347   3.571   1.184   2.139
10468TIP3   OH231348   1.368   2.942   4.563
10468TIP3    H131349   1.341   2.852   4.542
10468TIP3    H231350   1.285   2.989   4.574
10469TIP3   OH231351   6.516   7.007   3.374
10469TIP3    H131352   6.477   6.974   3.455
10469TIP3    H231353   6.471   7.090   3.357
10470TIP3   OH231354   2.879   2.555   0.718
10470TIP3    H131355   2.824   2.500   0.774
10470TIP3    H231356   2.859   2.645   0.745
10471TIP3   OH231357   7.471   0.595   4.914
10471TIP3    H131358   7.417   0.579   4.837
10471TIP3    H231359   7.554   0.628   4.880
10472TIP3   OH231360   2.080   2.547   2.212
10472TIP3    H131361   2.005   2.590   2.170
10472TIP3    H231362   2.088   2.463   2.166
10473TIP3   OH231363   4.983   2.518   0.266
10473TIP3    H131364   5.038   2.571   0.208
10473TIP3    H231365   4.968   2.575   0.342
10474TIP3   OH231366   5.252   5.933   5.811
10474TIP3    H131367   5.158   5.948   5.797
10474TIP3    H231368   5.295   5.975   5.737
10475TIP3   OH231369   5.069   2.548   2.114
10475TIP3    H131370   5.052   2.483   2.046
10475TIP3    H231371   4.995   2.608   2.109
10476TIP3   OH231372   1.868   3.632   1.935
10476TIP3    H131373   1.850   3.543   1.966
10476TIP3    H231374   1.963   3.642   1.946
10477TIP3   OH231375   0.404   2.631   6.305
10477TIP3    H131376   0.311   2.649   6.320
10477TIP3    H231377   0.450   2.687   6.368
10478TIP3   OH231378   1.573   2.614   1.578
10478TIP3    H131379   1.515   2.546   1.543
10478TIP3    H231380   1.522   2.654   1.650
10479TIP3   OH231381   5.655   0.083   6.505
10479TIP3    H131382   5.631   0.157   6.561
10479TIP3    H231383   5.747   0.066   6.527
10480TIP3   OH231384   7.443   4.963   2.639
10480TIP3    H131385   7.396   4.906   2.578
10480TIP3    H231386   7.453   5.046   2.591
10481TIP3   OH231387   6.688   7.479   3.350
10481TIP3    H131388   6.753   7.501   3.283
10481TIP3    H231389   6.623   7.550   3.344
10482TIP3   OH231390   2.254   1.509   2.513
10482TIP3    H131391   2.305   1.538   2.437
10482TIP3    H231392   2.284   1.566   2.584
10483TIP3   OH231393   4.218   5.368   0.248
10483TIP3    H131394   4.218   5.450   0.298
10483TIP3    H231395   4.292   5.377   0.187
10484TIP3   OH231396   8.040   6.214   2.881
10484TIP3    H131397   7.963   6.208   2.937
10484TIP3    H231398   8.112   6.180   2.936
10485TIP3   OH231399   3.316   0.093   1.362
10485TIP3    H131400   3.380   0.030   1.329
10485TIP3    H231401   3.316   0.164   1.298
10486TIP3   OH231402   6.091   2.185   0.720
10486TIP3    H131403   6.152   2.177   0.647
10486TIP3    H231404   6.021   2.122   0.700
10487TIP3   OH231405   1.153   1.903   3.192
10487TIP3    H131406   1.103   1.981   3.170
10487TIP3    H231407   1.186   1.919   3.281
10488TIP3   OH231408   3.187   2.717   6.017
10488TIP3    H131409   3.112   2.745   6.069
10488TIP3    H231410   3.240   2.664   6.077
10489TIP3   OH231411   1.734   7.713   1.570
10489TIP3    H131412   1.825   7.689   1.588
10489TIP3    H231413   1.698   7.734   1.656
10490TIP3   OH231414   7.970   4.115   3.490
10490TIP3    H131415   7.941   4.040   3.542
10490TIP3    H231416   8.053   4.141   3.529
10491TIP3   OH231417   0.905   7.148   1.607
10491TIP3    H131418   0.866   7.096   1.678
10491TIP3    H231419   0.841   7.143   1.536
10492TIP3   OH231420   4.266   1.033   4.566
10492TIP3    H131421   4.301   0.945   4.576
10492TIP3    H231422   4.241   1.039   4.474
10493TIP3   OH231423   2.653   2.157  -0.017
10493TIP3    H131424   2.697   2.217   0.043
10493TIP3    H231425   2.565   2.192  -0.026
10494TIP3   OH231426   5.949   6.187   0.641
10494TIP3    H131427   5.940   6.112   0.582
10494TIP3    H231428   5.904   6.159   0.722
10495TIP3   OH231429   0.250   0.642   0.591
10495TIP3    H131430   0.250   0.586   0.668
10495TIP3    H231431   0.318   0.606   0.535
10496TIP3   OH231432   6.545   0.298   1.952
10496TIP3    H131433   6.624   0.328   1.998
10496TIP3    H231434   6.521   0.372   1.896
10497TIP3   OH231435   2.963   2.533   1.051
10497TIP3    H131436   2.984   2.443   1.025
10497TIP3    H231437   2.872   2.528   1.082
10498TIP3   OH231438   5.297   0.627   6.031
10498TIP3    H131439   5.299   0.609   6.125
10498TIP3    H231440   5.261   0.716   6.024
10499TIP3   OH231441   3.213   5.819   0.178
10499TIP3    H131442   3.208   5.910   0.149
10499TIP3    H231443   3.267   5.775   0.112
10500TIP3   OH231444   5.876   4.694   5.477
10500TIP3    H131445   5.790   4.711   5.439
10500TIP3    H231446   5.897   4.773   5.527
10501TIP3   OH231447   1.024   2.310   0.330
10501TIP3    H131448   1.083   2.385   0.329
10501TIP3    H231449   1.001   2.296   0.238
10502TIP3   OH231450   0.960   5.496   0.886
10502TIP3    H131451   0.908   5.415   0.882
10502TIP3    H231452   0.914   5.550   0.951
10503TIP3   OH231453   5.013   6.589   2.901
10503TIP3    H131454   5.048   6.627   2.981
10503TIP3    H231455   4.918   6.597   2.911
10504TIP3   OH231456   4.313   3.436   0.106
10504TIP3    H131457   4.265   3.457   0.186
10504TIP3    H231458   4.405   3.448   0.128
10505TIP3   OH231459   2.821   1.826   5.758
10505TIP3    H131460   2.754   1.888   5.787
10505TIP3    H231461   2.883   1.879   5.707
10506TIP3   OH231462   4.757   2.444   0.825
10506TIP3    H131463   4.812   2.460   0.748
10506TIP3    H231464   4.713   2.361   0.806
10507TIP3   OH231465   6.795   2.575   5.910
10507TIP3    H131466   6.742   2.515   5.963
10507TIP3    H231467   6.880   2.577   5.953
10508TIP3   OH231468   8.268   6.803   5.944
10508TIP3    H131469   8.183   6.768   5.917
10508TIP3    H231470   8.252   6.895   5.962
10509TIP3   OH231471   2.219   5.542   1.550
10509TIP3    H131472   2.209   5.576   1.639
10509TIP3    H231473   2.148   5.479   1.541
10510TIP3   OH231474   5.095   2.296   2.272
10510TIP3    H131475   5.104   2.382   2.232
10510TIP3    H231476   5.053   2.242   2.205
10511TIP3   OH231477   6.221   0.206   1.684
10511TIP3    H131478   6.294   0.239   1.631
10511TIP3    H231479   6.255   0.126   1.725
10512TIP3   OH231480   6.964   5.092   6.001
10512TIP3    H131481   7.048   5.054   5.977
10512TIP3    H231482   6.964   5.091   6.097
10513TIP3   OH231483   1.631   2.413   2.319
10513TIP3    H131484   1.607   2.502   2.345
10513TIP3    H231485   1.655   2.370   2.401
10514TIP3   OH231486   2.904   0.525   3.657
10514TIP3    H131487   2.887   0.548   3.748
10514TIP3    H231488   2.915   0.430   3.657
10515TIP3   OH231489   0.862   2.117   1.960
10515TIP3    H131490   0.924   2.178   2.001
10515TIP3    H231491   0.912   2.036   1.949
10516TIP3   OH231492   4.827   6.421   0.103
10516TIP3    H131493   4.794   6.367   0.031
10516TIP3    H231494   4.795   6.509   0.083
10517TIP3   OH231495   1.276   1.622   0.433
10517TIP3    H131496   1.214   1.652   0.501
10517TIP3    H231497   1.357   1.605   0.481
10518TIP3   OH231498   8.144   3.982   1.102
10518TIP3    H131499   8.102   3.947   1.181
10518TIP3    H231500   8.143   4.077   1.114
10519TIP3   OH231501   1.079   5.884   4.997
10519TIP3    H131502   1.044   5.940   4.928
10519TIP3    H231503   1.109   5.944   5.065
10520TIP3   OH231504   0.711   5.256   1.423
10520TIP3    H131505   0.709   5.170   1.465
10520TIP3    H231506   0.745   5.315   1.490
10521TIP3   OH231507   1.625   6.441   4.169
10521TIP3    H131508   1.703   6.409   4.214
10521TIP3    H231509   1.584   6.363   4.133
10522TIP3   OH231510   5.961   7.288   4.202
10522TIP3    H131511   6.037   7.347   4.202
10522TIP3    H231512   5.987   7.214   4.256
10523TIP3   OH231513   0.193   2.625   0.486
10523TIP3    H131514   0.170   2.643   0.577
10523TIP3    H231515   0.117   2.658   0.436
10524TIP3   OH231516   5.308   6.546   3.792
10524TIP3    H131517   5.286   6.461   3.829
10524TIP3    H231518   5.348   6.594   3.864
10525TIP3   OH231519   1.745   0.547   1.309
10525TIP3    H131520   1.761   0.613   1.242
10525TIP3    H231521   1.746   0.595   1.392
10526TIP3   OH231522   5.840   4.309   3.608
10526TIP3    H131523   5.898   4.315   3.684
10526TIP3    H231524   5.809   4.219   3.609
10527TIP3   OH231525   6.275   1.811   2.321
10527TIP3    H131526   6.264   1.906   2.331
10527TIP3    H231527   6.366   1.800   2.293
10528TIP3   OH231528   3.549   2.702   2.638
10528TIP3    H131529   3.561   2.681   2.731
10528TIP3    H231530   3.551   2.797   2.634
10529TIP3   OH231531   5.858   5.720   0.407
10529TIP3    H131532   5.826   5.678   0.327
10529TIP3    H231533   5.876   5.648   0.467
10530TIP3   OH231534   0.298   2.311   6.548
10530TIP3    H131535   0.266   2.254   6.479
10530TIP3    H231536   0.226   2.372   6.564
10531TIP3   OH231537   5.452   2.011   6.632
10531TIP3    H131538   5.485   1.926   6.603
10531TIP3    H231539   5.460   2.008   6.728
10532TIP3   OH231540   6.927   5.746   3.962
10532TIP3    H131541   6.845   5.791   3.944
10532TIP3    H231542   6.902   5.660   3.995
10533TIP3   OH231543   5.941   2.323   6.082
10533TIP3    H131544   5.902   2.258   6.024
10533TIP3    H231545   5.868   2.355   6.135
10534TIP3   OH231546   6.171   1.587   2.793
10534TIP3    H131547   6.228   1.569   2.868
10534TIP3    H231548   6.231   1.614   2.724
10535TIP3   OH231549   0.730   7.506   5.825
10535TIP3    H131550   0.672   7.542   5.757
10535TIP3    H231551   0.746   7.416   5.798
10536TIP3   OH231552   7.217   5.387   5.396
10536TIP3    H131553   7.169   5.305   5.397
10536TIP3    H231554   7.226   5.411   5.488
10537TIP3   OH231555   2.489   3.748   6.253
10537TIP3    H131556   2.554   3.764   6.184
10537TIP3    H231557   2.469   3.835   6.287
10538TIP3   OH231558   4.515   5.172   0.399
10538TIP3    H131559   4.587   5.212   0.446
10538TIP3    H231560   4.555   5.101   0.349
10539TIP3   OH231561   6.642   6.382   6.716
10539TIP3    H131562   6.680   6.402   6.801
10539TIP3    H231563   6.653   6.288   6.707
10540TIP3   OH231564   3.928   2.710   0.623
10540TIP3    H131565   4.011   2.671   0.595
10540TIP3    H231566   3.954   2.791   0.667
10541TIP3   OH231567   0.800   0.650   0.528
10541TIP3    H131568   0.762   0.601   0.455
10541TIP3    H231569   0.877   0.693   0.491
10542TIP3   OH231570   4.335   1.534   5.285
10542TIP3    H131571   4.284   1.455   5.300
10542TIP3    H231572   4.308   1.565   5.198
10543TIP3   OH231573   5.609   3.364   0.157
10543TIP3    H131574   5.517   3.342   0.141
10543TIP3    H231575   5.651   3.355   0.072
10544TIP3   OH231576   2.610   3.368   2.659
10544TIP3    H131577   2.515   3.367   2.669
10544TIP3    H231578   2.629   3.454   2.621
10545TIP3   OH231579   4.072   2.453   4.949
10545TIP3    H131580   4.086   2.505   4.870
10545TIP3    H231581   4.134   2.487   5.012
10546TIP3   OH231582   0.114   5.647   6.529
10546TIP3    H131583   0.172   5.584   6.572
10546TIP3    H231584   0.141   5.732   6.564
10547TIP3   OH231585   5.540   1.598   0.719
10547TIP3    H131586   5.512   1.551   0.640
10547TIP3    H231587   5.479   1.672   0.724
10548TIP3   OH231588   7.346   3.787   5.033
10548TIP3    H131589   7.429   3.803   4.987
10548TIP3    H231590   7.311   3.708   4.992
10549TIP3   OH231591   6.942   5.619   4.883
10549TIP3    H131592   6.969   5.612   4.975
10549TIP3    H231593   7.019   5.595   4.833
10550TIP3   OH231594   3.223   6.322   6.053
10550TIP3    H131595   3.299   6.299   5.999
10550TIP3    H231596   3.166   6.371   5.994
10551TIP3   OH231597   6.604   1.485   1.001
10551TIP3    H131598   6.661   1.410   0.981
10551TIP3    H231599   6.663   1.560   0.998
10552TIP3   OH231600   5.742   2.034   6.236
10552TIP3    H131601   5.751   1.993   6.322
10552TIP3    H231602   5.658   2.079   6.238
10553TIP3   OH231603   7.753   7.576   6.250
10553TIP3    H131604   7.663   7.580   6.283
10553TIP3    H231605   7.744   7.582   6.155
10554TIP3   OH231606   3.498   3.507   3.815
10554TIP3    H131607   3.424   3.459   3.852
10554TIP3    H231608   3.556   3.522   3.890
10555TIP3   OH231609   1.473   0.062   3.452
10555TIP3    H131610   1.416   0.115   3.396
10555TIP3    H231611   1.498  -0.012   3.398
10556TIP3   OH231612   8.006   7.474   0.524
10556TIP3    H131613   7.925   7.525   0.526
10556TIP3    H231614   8.037   7.480   0.433
10557TIP3   OH231615   7.473   0.041   0.400
10557TIP3    H131616   7.568   0.049   0.405
10557TIP3    H231617   7.444   0.126   0.365
10558TIP3   OH231618   5.178   0.903   2.001
10558TIP3    H131619   5.223   0.957   1.936
10558TIP3    H231620   5.249   0.865   2.053
10559TIP3   OH231621   5.383   2.502   6.623
10559TIP3    H131622   5.458   2.456   6.585
10559TIP3    H231623   5.321   2.432   6.645
10560TIP3   OH231624   2.301   4.472   2.603
10560TIP3    H131625   2.322   4.564   2.592
10560TIP3    H231626   2.277   4.442   2.516
10561TIP3   OH231627   3.577   0.500   2.352
10561TIP3    H131628   3.570   0.413   2.314
10561TIP3    H231629   3.660   0.534   2.318
10562TIP3   OH231630   3.463   5.782   3.722
10562TIP3    H131631   3.390   5.746   3.773
10562TIP3    H231632   3.421   5.841   3.660
10563TIP3   OH231633   4.927   0.763   3.395
10563TIP3    H131634   4.983   0.772   3.318
10563TIP3    H231635   4.978   0.800   3.467
10564TIP3   OH231636   1.153   4.703   6.594
10564TIP3    H131637   1.186   4.738   6.511
10564TIP3    H231638   1.132   4.780   6.646
10565TIP3   OH231639   2.330   1.149   3.736
10565TIP3    H131640   2.253   1.154   3.680
10565TIP3    H231641   2.328   1.059   3.771
10566TIP3   OH231642   6.264   2.265   3.185
10566TIP3    H131643   6.241   2.311   3.265
10566TIP3    H231644   6.181   2.250   3.140
10567TIP3   OH231645   4.890   5.915   4.939
10567TIP3    H131646   4.808   5.950   4.903
10567TIP3    H231647   4.896   5.827   4.903
10568TIP3   OH231648   2.244   6.336   5.586
10568TIP3    H131649   2.202   6.252   5.568
10568TIP3    H231650   2.295   6.320   5.665
10569TIP3   OH231651   3.357   5.201   3.169
10569TIP3    H131652   3.448   5.172   3.166
10569TIP3    H231653   3.351   5.251   3.251
10570TIP3   OH231654   4.159   3.983   2.471
10570TIP3    H131655   4.164   3.949   2.382
10570TIP3    H231656   4.197   4.071   2.465
10571TIP3   OH231657   0.844   3.701   1.788
10571TIP3    H131658   0.807   3.766   1.729
10571TIP3    H231659   0.938   3.704   1.772
10572TIP3   OH231660   7.652   6.162   3.346
10572TIP3    H131661   7.705   6.096   3.393
10572TIP3    H231662   7.714   6.232   3.325
10573TIP3   OH231663   1.023   7.042   0.679
10573TIP3    H131664   0.988   7.084   0.600
10573TIP3    H231665   0.970   7.076   0.750
10574TIP3   OH231666   3.028   7.385   1.064
10574TIP3    H131667   3.092   7.455   1.050
10574TIP3    H231668   3.025   7.373   1.159
10575TIP3   OH231669   7.789   4.664   3.825
10575TIP3    H131670   7.694   4.662   3.818
10575TIP3    H231671   7.819   4.698   3.740
10576TIP3   OH231672   7.875   3.349   0.198
10576TIP3    H131673   7.920   3.429   0.173
10576TIP3    H231674   7.813   3.333   0.127
10577TIP3   OH231675   0.893   6.754   0.067
10577TIP3    H131676   0.855   6.749   0.155
10577TIP3    H231677   0.930   6.667   0.052
10578TIP3   OH231678   4.925   1.639   0.345
10578TIP3    H131679   4.930   1.569   0.280
10578TIP3    H231680   4.938   1.595   0.429
10579TIP3   OH231681   3.581   1.881   5.578
10579TIP3    H131682   3.623   1.911   5.497
10579TIP3    H231683   3.631   1.804   5.604
10580TIP3   OH231684   0.936   0.751   1.938
10580TIP3    H131685   0.969   0.736   2.026
10580TIP3    H231686   0.910   0.843   1.937
10581TIP3   OH231687   2.300   0.965   1.072
10581TIP3    H131688   2.316   1.059   1.081
10581TIP3    H231689   2.370   0.933   1.016
10582TIP3   OH231690   6.402   5.991   4.220
10582TIP3    H131691   6.381   5.963   4.131
10582TIP3    H231692   6.413   6.086   4.212
10583TIP3   OH231693   5.356   4.660   0.481
10583TIP3    H131694   5.431   4.602   0.474
10583TIP3    H231695   5.285   4.613   0.437
10584TIP3   OH231696   1.002   3.169   1.789
10584TIP3    H131697   0.999   3.246   1.846
10584TIP3    H231698   0.947   3.105   1.833
10585TIP3   OH231699   2.118   6.548   1.341
10585TIP3    H131700   2.168   6.585   1.269
10585TIP3    H231701   2.066   6.621   1.374
10586TIP3   OH231702   0.424   5.756   0.734
10586TIP3    H131703   0.373   5.733   0.812
10586TIP3    H231704   0.402   5.688   0.670
10587TIP3   OH231705   1.923   5.728   4.741
10587TIP3    H131706   1.995   5.679   4.779
10587TIP3    H231707   1.877   5.766   4.816
10588TIP3   OH231708   0.642   7.620   0.283
10588TIP3    H131709   0.593   7.561   0.340
10588TIP3    H231710   0.733   7.592   0.293
10589TIP3   OH231711   7.308   4.578   6.666
10589TIP3    H131712   7.249   4.629   6.723
10589TIP3    H231713   7.261   4.572   6.583
10590TIP3   OH231714   7.027   3.125   0.950
10590TIP3    H131715   7.121   3.136   0.969
10590TIP3    H231716   6.997   3.213   0.926
10591TIP3   OH231717   2.629   6.063   1.745
10591TIP3    H131718   2.583   6.146   1.757
10591TIP3    H231719   2.667   6.069   1.657
10592TIP3   OH231720   1.129   3.067   1.574
10592TIP3    H131721   1.101   3.119   1.499
10592TIP3    H231722   1.118   3.125   1.649
10593TIP3   OH231723   7.683   4.933   2.334
10593TIP3    H131724   7.765   4.942   2.383
10593TIP3    H231725   7.676   4.840   2.316
10594TIP3   OH231726   4.651   4.440   1.192
10594TIP3    H131727   4.709   4.371   1.225
10594TIP3    H231728   4.683   4.520   1.234
10595TIP3   OH231729   4.956   3.766   1.982
10595TIP3    H131730   4.959   3.673   2.005
10595TIP3    H231731   4.945   3.766   1.887
10596TIP3   OH231732   5.327   5.548   6.267
10596TIP3    H131733   5.276   5.492   6.208
10596TIP3    H231734   5.297   5.524   6.355
10597TIP3   OH231735   8.120   7.293   1.158
10597TIP3    H131736   8.085   7.273   1.071
10597TIP3    H231737   8.096   7.217   1.211
10598TIP3   OH231738   3.540   7.109   1.098
10598TIP3    H131739   3.534   7.025   1.051
10598TIP3    H231740   3.457   7.116   1.146
10599TIP3   OH231741   8.168   3.651   0.359
10599TIP3    H131742   8.140   3.607   0.440
10599TIP3    H231743   8.113   3.730   0.355
10600TIP3   OH231744   3.425   0.651   3.651
10600TIP3    H131745   3.478   0.583   3.610
10600TIP3    H231746   3.482   0.689   3.719
10601TIP3   OH231747   1.293   5.249   1.903
10601TIP3    H131748   1.295   5.261   1.808
10601TIP3    H231749   1.235   5.318   1.935
10602TIP3   OH231750   1.036   5.775   2.041
10602TIP3    H131751   0.979   5.759   2.116
10602TIP3    H231752   1.035   5.870   2.031
10603TIP3   OH231753   6.356   7.293   6.234
10603TIP3    H131754   6.381   7.247   6.153
10603TIP3    H231755   6.270   7.259   6.256
10604TIP3   OH231756   0.845   0.286   5.371
10604TIP3    H131757   0.790   0.343   5.316
10604TIP3    H231758   0.810   0.299   5.460
10605TIP3   OH231759   8.138   4.482   5.955
10605TIP3    H131760   8.118   4.413   6.019
10605TIP3    H231761   8.162   4.434   5.876
10606TIP3   OH231762   2.182   6.112   4.434
10606TIP3    H131763   2.207   6.026   4.469
10606TIP3    H231764   2.190   6.171   4.509
10607TIP3   OH231765   4.367   3.716   2.382
10607TIP3    H131766   4.278   3.725   2.348
10607TIP3    H231767   4.356   3.675   2.468
10608TIP3   OH231768   0.219   7.058   3.770
10608TIP3    H131769   0.167   7.049   3.850
10608TIP3    H231770   0.167   7.115   3.714
10609TIP3   OH231771   5.273   1.689   5.505
10609TIP3    H131772   5.290   1.757   5.440
10609TIP3    H231773   5.323   1.717   5.582
10610TIP3   OH231774   6.644   6.317   6.206
10610TIP3    H131775   6.578   6.386   6.206
10610TIP3    H231776   6.650   6.290   6.114
10611TIP3   OH231777   0.373   4.705   0.498
10611TIP3    H131778   0.361   4.621   0.543
10611TIP3    H231779   0.397   4.766   0.567
10612TIP3   OH231780   3.320   7.224   5.057
10612TIP3    H131781   3.258   7.286   5.019
10612TIP3    H231782   3.316   7.148   5.000
10613TIP3   OH231783   1.823   0.332   0.241
10613TIP3    H131784   1.915   0.331   0.214
10613TIP3    H231785   1.823   0.375   0.327
10614TIP3   OH231786   4.088   1.213   6.759
10614TIP3    H131787   4.183   1.212   6.744
10614TIP3    H231788   4.053   1.154   6.691
10615TIP3   OH231789   2.332   1.907   5.813
10615TIP3    H131790   2.334   1.813   5.795
10615TIP3    H231791   2.249   1.938   5.775
10616TIP3   OH231792   4.842   7.475   0.224
10616TIP3    H131793   4.888   7.480   0.140
10616TIP3    H231794   4.862   7.388   0.258
10617TIP3   OH231795   8.233   5.880   2.764
10617TIP3    H131796   8.221   5.924   2.848
10617TIP3    H231797   8.317   5.836   2.771
10618TIP3   OH231798   0.398   2.729   1.966
10618TIP3    H131799   0.336   2.657   1.980
10618TIP3    H231800   0.387   2.752   1.874
10619TIP3   OH231801   3.692   5.580   0.956
10619TIP3    H131802   3.636   5.583   0.879
10619TIP3    H231803   3.742   5.499   0.947
10620TIP3   OH231804   6.518   5.850   0.478
10620TIP3    H131805   6.463   5.866   0.402
10620TIP3    H231806   6.607   5.860   0.445
10621TIP3   OH231807   2.078   0.351   6.459
10621TIP3    H131808   2.057   0.412   6.389
10621TIP3    H231809   2.142   0.398   6.513
10622TIP3   OH231810   3.820   6.717   2.512
10622TIP3    H131811   3.760   6.752   2.446
10622TIP3    H231812   3.763   6.697   2.587
10623TIP3   OH231813   1.319   4.145   5.056
10623TIP3    H131814   1.330   4.124   4.963
10623TIP3    H231815   1.377   4.084   5.101
10624TIP3   OH231816   8.009   6.115   1.368
10624TIP3    H131817   7.930   6.075   1.332
10624TIP3    H231818   8.063   6.041   1.396
10625TIP3   OH231819   5.426   7.724   1.806
10625TIP3    H131820   5.411   7.682   1.721
10625TIP3    H231821   5.379   7.668   1.868
10626TIP3   OH231822   3.637   4.067   2.659
10626TIP3    H131823   3.612   4.007   2.589
10626TIP3    H231824   3.718   4.031   2.694
10627TIP3   OH231825   4.250   4.763   1.668
10627TIP3    H131826   4.278   4.853   1.686
10627TIP3    H231827   4.213   4.766   1.580
10628TIP3   OH231828   7.838   6.433   4.048
10628TIP3    H131829   7.758   6.458   4.094
10628TIP3    H231830   7.869   6.355   4.093
10629TIP3   OH231831   6.122   4.946   3.439
10629TIP3    H131832   6.217   4.957   3.446
10629TIP3    H231833   6.102   4.966   3.348
10630TIP3   OH231834   2.394   0.776   6.163
10630TIP3    H131835   2.434   0.705   6.213
10630TIP3    H231836   2.320   0.734   6.119
10631TIP3   OH231837   1.930   5.905   1.908
10631TIP3    H131838   1.975   5.966   1.967
10631TIP3    H231839   1.926   5.950   1.824
10632TIP3   OH231840   1.898   2.963   3.846
10632TIP3    H131841   1.929   3.047   3.878
10632TIP3    H231842   1.804   2.976   3.833
10633TIP3   OH231843   3.253   5.781   4.501
10633TIP3    H131844   3.265   5.799   4.594
10633TIP3    H231845   3.273   5.688   4.492
10634TIP3   OH231846   1.553   7.413   5.439
10634TIP3    H131847   1.633   7.381   5.397
10634TIP3    H231848   1.557   7.379   5.528
10635TIP3   OH231849   6.976   4.389   5.151
10635TIP3    H131850   6.883   4.400   5.132
10635TIP3    H231851   6.983   4.300   5.186
10636TIP3   OH231852   4.737   1.815   0.263
10636TIP3    H131853   4.732   1.884   0.329
10636TIP3    H231854   4.812   1.762   0.289
10637TIP3   OH231855   3.050   0.845   2.690
10637TIP3    H131856   2.988   0.899   2.642
10637TIP3    H231857   3.021   0.850   2.781
10638TIP3   OH231858   6.574   5.287   6.088
10638TIP3    H131859   6.667   5.311   6.095
10638TIP3    H231860   6.568   5.235   6.009
10639TIP3   OH231861   8.198   5.020   1.954
10639TIP3    H131862   8.147   5.032   1.873
10639TIP3    H231863   8.162   5.085   2.014
10640TIP3   OH231864   7.884   2.261   6.670
10640TIP3    H131865   7.961   2.301   6.631
10640TIP3    H231866   7.852   2.199   6.604
10641TIP3   OH231867   7.879   1.956   1.040
10641TIP3    H131868   7.855   2.044   1.069
10641TIP3    H231869   7.947   1.971   0.974
10642TIP3   OH231870   6.186   1.791   0.289
10642TIP3    H131871   6.161   1.739   0.213
10642TIP3    H231872   6.281   1.802   0.281
10643TIP3   OH231873   8.194   7.234   6.690
10643TIP3    H131874   8.186   7.195   6.603
10643TIP3    H231875   8.118   7.291   6.698
10644TIP3   OH231876   1.010   7.418   1.697
10644TIP3    H131877   0.967   7.339   1.666
10644TIP3    H231878   0.939   7.476   1.724
10645TIP3   OH231879   0.570   6.851   0.189
10645TIP3    H131880   0.629   6.884   0.256
10645TIP3    H231881   0.603   6.889   0.107
10646TIP3   OH231882   4.658   6.995   1.857
10646TIP3    H131883   4.662   6.981   1.951
10646TIP3    H231884   4.596   7.068   1.847
10647TIP3   OH231885   2.674   3.807   4.775
10647TIP3    H131886   2.686   3.714   4.760
10647TIP3    H231887   2.759   3.846   4.758
10648TIP3   OH231888   5.567   1.459   2.198
10648TIP3    H131889   5.549   1.506   2.116
10648TIP3    H231890   5.634   1.395   2.174
10649TIP3   OH231891   6.873   0.816   6.220
10649TIP3    H131892   6.925   0.758   6.164
10649TIP3    H231893   6.805   0.760   6.256
10650TIP3   OH231894   1.830   1.326   4.521
10650TIP3    H131895   1.805   1.417   4.539
10650TIP3    H231896   1.917   1.318   4.560
10651TIP3   OH231897   0.936   3.653   4.707
10651TIP3    H131898   0.896   3.567   4.717
10651TIP3    H231899   0.890   3.709   4.769
10652TIP3   OH231900   3.177   4.876   5.054
10652TIP3    H131901   3.128   4.931   4.993
10652TIP3    H231902   3.124   4.797   5.063
10653TIP3   OH231903   2.683   7.778   0.487
10653TIP3    H131904   2.650   7.724   0.415
10653TIP3    H231905   2.736   7.845   0.444
10654TIP3   OH231906   7.499   2.749   1.054
10654TIP3    H131907   7.535   2.838   1.059
10654TIP3    H231908   7.530   2.716   0.969
10655TIP3   OH231909   1.683   4.267   6.428
10655TIP3    H131910   1.732   4.185   6.441
10655TIP3    H231911   1.697   4.288   6.336
10656TIP3   OH231912   5.154   7.583   2.393
10656TIP3    H131913   5.244   7.552   2.402
10656TIP3    H231914   5.121   7.586   2.483
10657TIP3   OH231915   4.942   7.657   0.392
10657TIP3    H131916   5.033   7.645   0.365
10657TIP3    H231917   4.892   7.593   0.341
10658TIP3   OH231918   5.348   7.293   0.990
10658TIP3    H131919   5.263   7.295   1.033
10658TIP3    H231920   5.405   7.249   1.053
10659TIP3   OH231921   3.513   6.104   5.990
10659TIP3    H131922   3.512   6.157   5.910
10659TIP3    H231923   3.568   6.154   6.051
10660TIP3   OH231924   2.309   2.139   6.016
10660TIP3    H131925   2.292   2.052   5.979
10660TIP3    H231926   2.310   2.125   6.110
10661TIP3   OH231927   4.634   4.491   4.436
10661TIP3    H131928   4.588   4.462   4.515
10661TIP3    H231929   4.566   4.497   4.369
10662TIP3   OH231930   7.263   6.503   5.855
10662TIP3    H131931   7.310   6.564   5.799
10662TIP3    H231932   7.325   6.431   5.869
10663TIP3   OH231933   0.658   0.432   2.411
10663TIP3    H131934   0.579   0.450   2.360
10663TIP3    H231935   0.663   0.336   2.413
10664TIP3   OH231936   3.280   5.009   4.677
10664TIP3    H131937   3.334   5.049   4.746
10664TIP3    H231938   3.341   4.990   4.607
10665TIP3   OH231939   2.053   2.898   2.338
10665TIP3    H131940   2.080   2.845   2.262
10665TIP3    H231941   2.121   2.882   2.403
10666TIP3   OH231942   2.963   7.210   0.363
10666TIP3    H131943   2.993   7.199   0.273
10666TIP3    H231944   2.893   7.146   0.373
10667TIP3   OH231945   3.933   5.575   3.685
10667TIP3    H131946   3.902   5.631   3.756
10667TIP3    H231947   3.979   5.503   3.729
10668TIP3   OH231948   5.078   3.042   3.803
10668TIP3    H131949   5.146   2.974   3.812
10668TIP3    H231950   5.031   3.039   3.886
10669TIP3   OH231951   7.473   7.563   5.723
10669TIP3    H131952   7.543   7.580   5.660
10669TIP3    H231953   7.509   7.497   5.782
10670TIP3   OH231954   1.515   3.040   0.339
10670TIP3    H131955   1.572   3.111   0.369
10670TIP3    H231956   1.553   2.961   0.377
10671TIP3   OH231957   5.315   3.956   6.576
10671TIP3    H131958   5.382   3.961   6.508
10671TIP3    H231959   5.356   3.904   6.646
10672TIP3   OH231960   3.699   6.588   1.112
10672TIP3    H131961   3.671   6.591   1.021
10672TIP3    H231962   3.698   6.679   1.141
10673TIP3   OH231963   0.761   6.909   3.659
10673TIP3    H131964   0.739   6.893   3.751
10673TIP3    H231965   0.793   6.825   3.627
10674TIP3   OH231966   2.967   6.532   3.346
10674TIP3    H131967   2.924   6.604   3.392
10674TIP3    H231968   2.983   6.466   3.414
10675TIP3   OH231969   1.412   7.574   3.594
10675TIP3    H131970   1.347   7.505   3.586
10675TIP3    H231971   1.495   7.532   3.569
10676TIP3   OH231972   7.194   0.771   2.560
10676TIP3    H131973   7.168   0.782   2.651
10676TIP3    H231974   7.186   0.858   2.521
10677TIP3   OH231975   6.241   4.133   6.522
10677TIP3    H131976   6.298   4.138   6.445
10677TIP3    H231977   6.154   4.117   6.485
10678TIP3   OH231978   7.101   7.455   3.835
10678TIP3    H131979   7.171   7.511   3.802
10678TIP3    H231980   7.021   7.502   3.814
10679TIP3   OH231981   6.762   5.476   3.280
10679TIP3    H131982   6.668   5.475   3.302
10679TIP3    H231983   6.790   5.566   3.299
10680TIP3   OH231984   7.513   5.409   4.508
10680TIP3    H131985   7.482   5.370   4.426
10680TIP3    H231986   7.593   5.360   4.529
10681TIP3   OH231987   2.393   4.875   0.773
10681TIP3    H131988   2.482   4.909   0.780
10681TIP3    H231989   2.338   4.946   0.808
10682TIP3   OH231990   3.149   1.267   4.981
10682TIP3    H131991   3.064   1.238   4.949
10682TIP3    H231992   3.139   1.361   4.997
10683TIP3   OH231993   5.892   5.878   1.755
10683TIP3    H131994   5.870   5.785   1.748
10683TIP3    H231995   5.925   5.902   1.669
10684TIP3   OH231996   4.006   0.355   6.416
10684TIP3    H131997   4.003   0.290   6.486
10684TIP3    H231998   3.926   0.341   6.366
10685TIP3   OH231999   2.847   3.834   4.422
10685TIP3    H132000   2.769   3.890   4.420
10685TIP3    H232001   2.835   3.779   4.499
10686TIP3   OH232002   0.834   2.119   0.465
10686TIP3    H132003   0.781   2.147   0.540
10686TIP3    H232004   0.891   2.194   0.447
10687TIP3   OH232005   4.840   1.972   6.561
10687TIP3    H132006   4.932   1.948   6.567
10687TIP3    H232007   4.811   1.936   6.477
10688TIP3   OH232008   1.174   4.680   1.676
10688TIP3    H132009   1.117   4.613   1.638
10688TIP3    H232010   1.124   4.715   1.750
10689TIP3   OH232011   7.397   2.123   2.946
10689TIP3    H132012   7.444   2.058   2.998
10689TIP3    H232013   7.392   2.200   3.003
10690TIP3   OH232014   3.585   7.698   4.257
10690TIP3    H132015   3.576   7.604   4.243
10690TIP3    H232016   3.561   7.737   4.172
10691TIP3   OH232017   5.609   1.300   1.668
10691TIP3    H132018   5.527   1.293   1.620
10691TIP3    H232019   5.615   1.392   1.694
10692TIP3   OH232020   4.882   7.652   3.724
10692TIP3    H132021   4.949   7.592   3.756
10692TIP3    H232022   4.928   7.736   3.714
10693TIP3   OH232023   6.314   3.408   6.478
10693TIP3    H132024   6.343   3.339   6.418
10693TIP3    H232025   6.257   3.464   6.425
10694TIP3   OH232026   4.388   7.316   6.742
10694TIP3    H132027   4.297   7.286   6.751
10694TIP3    H232028   4.388   7.405   6.775
10695TIP3   OH232029   7.602   7.519   4.852
10695TIP3    H132030   7.599   7.480   4.939
10695TIP3    H232031   7.520   7.492   4.811
10696TIP3   OH232032   8.152   5.105   6.094
10696TIP3    H132033   8.229   5.048   6.096
10696TIP3    H232034   8.185   5.191   6.068
10697TIP3   OH232035   2.451   1.889   2.580
10697TIP3    H132036   2.485   1.948   2.648
10697TIP3    H232037   2.520   1.887   2.513
10698TIP3   OH232038   2.205   0.444   2.664
10698TIP3    H132039   2.242   0.373   2.611
10698TIP3    H232040   2.123   0.408   2.697
10699TIP3   OH232041   4.804   5.468   3.513
10699TIP3    H132042   4.797   5.549   3.463
10699TIP3    H232043   4.748   5.406   3.467
10700TIP3   OH232044   2.625   5.114   0.894
10700TIP3    H132045   2.649   5.178   0.961
10700TIP3    H232046   2.634   5.029   0.938
10701TIP3   OH232047   3.017   0.910   4.558
10701TIP3    H132048   3.099   0.959   4.563
10701TIP3    H232049   2.949   0.976   4.570
10702TIP3   OH232050   6.001   2.504   4.734
10702TIP3    H132051   5.913   2.474   4.712
10702TIP3    H232052   6.058   2.431   4.710
10703TIP3   OH232053   3.178   0.179   0.558
10703TIP3    H132054   3.144   0.090   0.571
10703TIP3    H232055   3.262   0.180   0.604
10704TIP3   OH232056   5.991   2.934   2.686
10704TIP3    H132057   6.004   2.885   2.605
10704TIP3    H232058   5.899   2.922   2.707
10705TIP3   OH232059   2.481   1.696   4.242
10705TIP3    H132060   2.549   1.694   4.309
10705TIP3    H232061   2.481   1.607   4.205
10706TIP3   OH232062   4.990   2.109   3.435
10706TIP3    H132063   5.054   2.170   3.397
10706TIP3    H232064   4.905   2.142   3.404
10707TIP3   OH232065   5.306   4.924   3.821
10707TIP3    H132066   5.224   4.944   3.776
10707TIP3    H232067   5.374   4.964   3.767
10708TIP3   OH232068   7.468   1.470   3.848
10708TIP3    H132069   7.464   1.553   3.800
10708TIP3    H232070   7.559   1.465   3.879
10709TIP3   OH232071   6.633   7.683   2.068
10709TIP3    H132072   6.581   7.713   1.993
10709TIP3    H232073   6.722   7.677   2.035
10710TIP3   OH232074   7.087   6.155   2.064
10710TIP3    H132075   7.180   6.133   2.069
10710TIP3    H232076   7.081   6.244   2.100
10711TIP3   OH232077   3.266   2.719   0.310
10711TIP3    H132078   3.209   2.790   0.340
10711TIP3    H232079   3.354   2.754   0.318
10712TIP3   OH232080   4.131   7.405   0.044
10712TIP3    H132081   4.124   7.476  -0.019
10712TIP3    H232082   4.174   7.444   0.120
10713TIP3   OH232083   3.024   4.263   2.708
10713TIP3    H132084   3.111   4.225   2.721
10713TIP3    H232085   3.010   4.259   2.614
10714TIP3   OH232086   7.326   6.159   1.101
10714TIP3    H132087   7.254   6.097   1.092
10714TIP3    H232088   7.283   6.244   1.109
10715TIP3   OH232089   0.515   4.679   3.399
10715TIP3    H132090   0.461   4.684   3.478
10715TIP3    H232091   0.544   4.588   3.396
10716TIP3   OH232092   5.129   5.480   4.821
10716TIP3    H132093   5.134   5.527   4.904
10716TIP3    H232094   5.038   5.451   4.816
10717TIP3   OH232095   6.772   5.419   5.528
10717TIP3    H132096   6.778   5.414   5.433
10717TIP3    H232097   6.818   5.342   5.560
10718TIP3   OH232098   4.632   1.001   2.936
10718TIP3    H132099   4.556   0.969   2.984
10718TIP3    H232100   4.617   1.095   2.927
10719TIP3   OH232101   6.641   4.396   4.874
10719TIP3    H132102   6.717   4.346   4.903
10719TIP3    H232103   6.573   4.331   4.858
10720TIP3   OH232104   2.960   5.438   1.503
10720TIP3    H132105   2.890   5.503   1.512
10720TIP3    H232106   2.947   5.379   1.578
10721TIP3   OH232107   3.352   6.946   4.970
10721TIP3    H132108   3.389   6.949   5.058
10721TIP3    H232109   3.392   6.870   4.929
10722TIP3   OH232110   5.432   5.634   2.236
10722TIP3    H132111   5.449   5.705   2.299
10722TIP3    H232112   5.519   5.613   2.201
10723TIP3   OH232113   0.010   1.264   1.220
10723TIP3    H132114  -0.075   1.264   1.175
10723TIP3    H232115   0.072   1.292   1.153
10724TIP3   OH232116   7.312   5.921   1.991
10724TIP3    H132117   7.315   5.957   1.902
10724TIP3    H232118   7.395   5.874   2.000
10725TIP3   OH232119   1.656   0.733   3.553
10725TIP3    H132120   1.659   0.775   3.467
10725TIP3    H232121   1.615   0.648   3.538
10726TIP3   OH232122   3.947   7.090   1.469
10726TIP3    H132123   4.040   7.102   1.455
10726TIP3    H232124   3.921   7.164   1.525
10727TIP3   OH232125   1.882   2.075   3.845
10727TIP3    H132126   1.885   2.115   3.932
10727TIP3    H232127   1.948   2.122   3.795
10728TIP3   OH232128   3.690   0.333   2.599
10728TIP3    H132129   3.692   0.332   2.694
10728TIP3    H232130   3.715   0.422   2.575
10729TIP3   OH232131   3.623   0.357   1.732
10729TIP3    H132132   3.610   0.402   1.649
10729TIP3    H232133   3.705   0.392   1.766
10730TIP3   OH232134   3.236   2.071   5.000
10730TIP3    H132135   3.185   2.102   5.074
10730TIP3    H232136   3.280   1.992   5.032
10731TIP3   OH232137   3.801   4.711   3.911
10731TIP3    H132138   3.890   4.737   3.934
10731TIP3    H232139   3.793   4.622   3.944
10732TIP3   OH232140   1.270   0.565   2.038
10732TIP3    H132141   1.264   0.515   2.120
10732TIP3    H232142   1.207   0.636   2.049
10733TIP3   OH232143   3.090   0.681   4.706
10733TIP3    H132144   3.067   0.754   4.649
10733TIP3    H232145   3.119   0.722   4.787
10734TIP3   OH232146   5.161   7.587   3.679
10734TIP3    H132147   5.190   7.574   3.589
10734TIP3    H232148   5.194   7.510   3.726
10735TIP3   OH232149   5.208   6.521   1.189
10735TIP3    H132150   5.145   6.469   1.138
10735TIP3    H232151   5.290   6.515   1.139
10736TIP3   OH232152   1.926   4.960   1.443
10736TIP3    H132153   2.006   5.008   1.463
10736TIP3    H232154   1.858   5.027   1.435
10737TIP3   OH232155   5.177   3.866   5.302
10737TIP3    H132156   5.232   3.926   5.351
10737TIP3    H232157   5.176   3.786   5.354
10738TIP3   OH232158   6.223   4.979   3.069
10738TIP3    H132159   6.141   4.973   3.119
10738TIP3    H232160   6.266   4.895   3.085
10739TIP3   OH232161   7.766   6.480   1.781
10739TIP3    H132162   7.774   6.549   1.714
10739TIP3    H232163   7.761   6.527   1.864
10740TIP3   OH232164   6.106   5.652   0.706
10740TIP3    H132165   6.079   5.575   0.756
10740TIP3    H232166   6.167   5.618   0.640
10741TIP3   OH232167   3.397   3.171   3.380
10741TIP3    H132168   3.339   3.129   3.445
10741TIP3    H232169   3.443   3.098   3.339
10742TIP3   OH232170   1.116   4.407   6.192
10742TIP3    H132171   1.174   4.363   6.254
10742TIP3    H232172   1.152   4.495   6.183
10743TIP3   OH232173   7.818   7.176   0.630
10743TIP3    H132174   7.751   7.112   0.652
10743TIP3    H232175   7.798   7.251   0.687
10744TIP3   OH232176   2.200   3.642   5.422
10744TIP3    H132177   2.127   3.583   5.440
10744TIP3    H232178   2.216   3.632   5.328
10745TIP3   OH232179   6.218   6.903   0.408
10745TIP3    H132180   6.222   6.821   0.359
10745TIP3    H232181   6.309   6.925   0.426
10746TIP3   OH232182   6.882   0.942   1.244
10746TIP3    H132183   6.962   0.892   1.232
10746TIP3    H232184   6.910   1.034   1.236
10747TIP3   OH232185   6.064   6.451   3.986
10747TIP3    H132186   6.043   6.358   3.994
10747TIP3    H232187   5.978   6.495   3.990
10748TIP3   OH232188   6.778   3.678   4.125
10748TIP3    H132189   6.863   3.713   4.100
10748TIP3    H232190   6.785   3.664   4.220
10749TIP3   OH232191   5.716   3.851   5.802
10749TIP3    H132192   5.655   3.842   5.728
10749TIP3    H232193   5.670   3.814   5.877
10750TIP3   OH232194   7.954   5.954   1.941
10750TIP3    H132195   7.887   5.994   1.996
10750TIP3    H232196   7.995   6.028   1.895
10751TIP3   OH232197   2.455   3.355   1.896
10751TIP3    H132198   2.548   3.364   1.878
10751TIP3    H232199   2.445   3.385   1.986
10752TIP3   OH232200   5.809   4.291   0.175
10752TIP3    H132201   5.786   4.340   0.255
10752TIP3    H232202   5.812   4.357   0.106
10753TIP3   OH232203   7.000   3.391   5.756
10753TIP3    H132204   6.930   3.374   5.819
10753TIP3    H232205   6.989   3.483   5.733
10754TIP3   OH232206   3.493   6.381   5.887
10754TIP3    H132207   3.466   6.471   5.906
10754TIP3    H232208   3.505   6.378   5.793
10755TIP3   OH232209   2.691   5.993   5.667
10755TIP3    H132210   2.601   6.008   5.635
10755TIP3    H232211   2.746   6.007   5.590
10756TIP3   OH232212   5.838   4.028   2.280
10756TIP3    H132213   5.933   4.038   2.282
10756TIP3    H232214   5.805   4.115   2.304
10757TIP3   OH232215   6.757   4.764   2.444
10757TIP3    H132216   6.734   4.752   2.352
10757TIP3    H232217   6.685   4.724   2.492
10758TIP3   OH232218   3.832   7.475   2.230
10758TIP3    H132219   3.865   7.558   2.197
10758TIP3    H232220   3.904   7.441   2.284
10759TIP3   OH232221   0.642   3.014   5.266
10759TIP3    H132222   0.610   3.051   5.348
10759TIP3    H232223   0.708   3.076   5.236
10760TIP3   OH232224   4.462   7.503   2.026
10760TIP3    H132225   4.408   7.564   1.976
10760TIP3    H232226   4.435   7.416   1.996
10761TIP3   OH232227   5.165   7.656   0.732
10761TIP3    H132228   5.158   7.731   0.791
10761TIP3    H232229   5.092   7.666   0.672
10762TIP3   OH232230   1.381   1.817   0.779
10762TIP3    H132231   1.454   1.864   0.819
10762TIP3    H232232   1.320   1.886   0.751
10763TIP3   OH232233   3.144   6.171   6.641
10763TIP3    H132234   3.158   6.241   6.706
10763TIP3    H232235   3.135   6.218   6.558
10764TIP3   OH232236   3.382   7.410   3.367
10764TIP3    H132237   3.358   7.319   3.347
10764TIP3    H232238   3.326   7.433   3.442
10765TIP3   OH232239   4.411   6.172   5.202
10765TIP3    H132240   4.322   6.206   5.209
10765TIP3    H232241   4.406   6.083   5.235
10766TIP3   OH232242   1.944   7.189   5.159
10766TIP3    H132243   2.027   7.215   5.198
10766TIP3    H232244   1.947   7.094   5.157
10767TIP3   OH232245   5.919   6.769   3.559
10767TIP3    H132246   5.903   6.680   3.528
10767TIP3    H232247   5.957   6.758   3.647
10768TIP3   OH232248   5.506   5.080   4.802
10768TIP3    H132249   5.511   4.987   4.826
10768TIP3    H232250   5.512   5.080   4.706
10769TIP3   OH232251   1.886   2.684   2.103
10769TIP3    H132252   1.846   2.729   2.177
10769TIP3    H232253   1.818   2.683   2.036
10770TIP3   OH232254   3.519   7.009   1.879
10770TIP3    H132255   3.444   6.984   1.933
10770TIP3    H232256   3.537   6.931   1.826
10771TIP3   OH232257   5.827   1.533   0.730
10771TIP3    H132258   5.738   1.568   0.724
10771TIP3    H232259   5.842   1.491   0.645
10772TIP3   OH232260   2.362   5.502   4.084
10772TIP3    H132261   2.390   5.594   4.087
10772TIP3    H232262   2.320   5.493   3.999
10773TIP3   OH232263   4.236   2.058   1.422
10773TIP3    H132264   4.154   2.065   1.373
10773TIP3    H232265   4.252   1.964   1.430
10774TIP3   OH232266   5.318   4.592   1.491
10774TIP3    H132267   5.254   4.607   1.421
10774TIP3    H232268   5.265   4.582   1.570
10775TIP3   OH232269   3.704   7.407   0.768
10775TIP3    H132270   3.662   7.386   0.684
10775TIP3    H232271   3.646   7.368   0.834
10776TIP3   OH232272   3.034   0.351   0.738
10776TIP3    H132273   2.963   0.396   0.691
10776TIP3    H232274   3.065   0.286   0.676
10777TIP3   OH232275   4.243   3.837   5.066
10777TIP3    H132276   4.245   3.819   5.160
10777TIP3    H232277   4.149   3.842   5.044
10778TIP3   OH232278   4.523   1.902   0.503
10778TIP3    H132279   4.463   1.942   0.441
10778TIP3    H232280   4.604   1.952   0.493
10779TIP3   OH232281   1.113   0.724   4.223
10779TIP3    H132282   1.151   0.794   4.171
10779TIP3    H232283   1.058   0.769   4.288
10780TIP3   OH232284   6.663   0.559   5.284
10780TIP3    H132285   6.663   0.643   5.330
10780TIP3    H232286   6.667   0.583   5.191
10781TIP3   OH232287   7.366   7.224   6.582
10781TIP3    H132288   7.335   7.133   6.581
10781TIP3    H232289   7.419   7.231   6.502
10782TIP3   OH232290   1.521   2.975   2.933
10782TIP3    H132291   1.607   2.995   2.895
10782TIP3    H232292   1.526   2.882   2.955
10783TIP3   OH232293   1.033   5.101   5.748
10783TIP3    H132294   0.970   5.162   5.709
10783TIP3    H232295   1.081   5.065   5.674
10784TIP3   OH232296   1.043   4.310   5.390
10784TIP3    H132297   1.041   4.216   5.372
10784TIP3    H232298   1.127   4.339   5.354
10785TIP3   OH232299   2.923   6.868   5.197
10785TIP3    H132300   2.930   6.896   5.288
10785TIP3    H232301   2.948   6.946   5.146
10786TIP3   OH232302   4.216   3.309   2.754
10786TIP3    H132303   4.298   3.314   2.704
10786TIP3    H232304   4.155   3.264   2.695
10787TIP3   OH232305   2.311   0.571   3.757
10787TIP3    H132306   2.334   0.491   3.805
10787TIP3    H232307   2.231   0.603   3.800
10788TIP3   OH232308   5.660   1.245   1.052
10788TIP3    H132309   5.614   1.326   1.027
10788TIP3    H232310   5.650   1.241   1.147
10789TIP3   OH232311   6.823   0.418   1.182
10789TIP3    H132312   6.842   0.431   1.275
10789TIP3    H232313   6.751   0.478   1.163
10790TIP3   OH232314   1.818   4.848   3.231
10790TIP3    H132315   1.763   4.773   3.206
10790TIP3    H232316   1.827   4.841   3.326
10791TIP3   OH232317   4.623   6.030   1.381
10791TIP3    H132318   4.589   6.080   1.456
10791TIP3    H232319   4.644   5.944   1.417
10792TIP3   OH232320   3.099   2.275   1.298
10792TIP3    H132321   3.101   2.285   1.202
10792TIP3    H232322   3.135   2.187   1.313
10793TIP3   OH232323   1.601   5.515   3.904
10793TIP3    H132324   1.649   5.435   3.884
10793TIP3    H232325   1.517   5.504   3.861
10794TIP3   OH232326   6.144   2.928   4.855
10794TIP3    H132327   6.115   2.996   4.916
10794TIP3    H232328   6.086   2.854   4.871
10795TIP3   OH232329   5.524   3.279   5.675
10795TIP3    H132330   5.488   3.195   5.704
10795TIP3    H232331   5.487   3.343   5.735
10796TIP3   OH232332   7.570   7.255   6.401
10796TIP3    H132333   7.635   7.231   6.335
10796TIP3    H232334   7.565   7.350   6.396
10797TIP3   OH232335   0.877   4.502   3.709
10797TIP3    H132336   0.831   4.575   3.668
10797TIP3    H232337   0.964   4.536   3.728
10798TIP3   OH232338   4.522   3.397   5.865
10798TIP3    H132339   4.601   3.384   5.813
10798TIP3    H232340   4.540   3.354   5.948
10799TIP3   OH232341   6.045   0.241   5.765
10799TIP3    H132342   6.138   0.221   5.752
10799TIP3    H232343   6.044   0.333   5.790
10800TIP3   OH232344   1.097   7.724   5.610
10800TIP3    H132345   1.023   7.770   5.648
10800TIP3    H232346   1.155   7.706   5.684
10801TIP3   OH232347   3.620   4.972   5.728
10801TIP3    H132348   3.635   5.058   5.768
10801TIP3    H232349   3.598   4.992   5.637
10802TIP3   OH232350   4.691   6.683   2.571
10802TIP3    H132351   4.688   6.716   2.660
10802TIP3    H232352   4.603   6.646   2.556
10803TIP3   OH232353   6.398   1.501   5.379
10803TIP3    H132354   6.404   1.452   5.297
10803TIP3    H232355   6.407   1.593   5.353
10804TIP3   OH232356   7.518   2.868   6.178
10804TIP3    H132357   7.475   2.951   6.155
10804TIP3    H232358   7.471   2.837   6.255
10805TIP3   OH232359   0.555   4.395   6.610
10805TIP3    H132360   0.540   4.301   6.626
10805TIP3    H232361   0.479   4.439   6.647
10806TIP3   OH232362   2.248   7.740   5.203
10806TIP3    H132363   2.212   7.714   5.118
10806TIP3    H232364   2.226   7.667   5.261
10807TIP3   OH232365   2.113   7.709   4.955
10807TIP3    H132366   2.087   7.628   4.910
10807TIP3    H232367   2.113   7.776   4.887
10808TIP3   OH232368   6.803   0.268   2.637
10808TIP3    H132369   6.724   0.291   2.588
10808TIP3    H232370   6.801   0.172   2.639
10809TIP3   OH232371   8.041   5.252   4.013
10809TIP3    H132372   7.994   5.293   3.940
10809TIP3    H232373   7.977   5.192   4.051
10810TIP3   OH232374   4.795   5.689   2.934
10810TIP3    H132375   4.865   5.630   2.907
10810TIP3    H232376   4.760   5.650   3.015
10811TIP3   OH232377   2.477   6.028   2.381
10811TIP3    H132378   2.475   6.010   2.287
10811TIP3    H232379   2.476   5.941   2.422
10812TIP3   OH232380   5.893   2.793   1.525
10812TIP3    H132381   5.921   2.876   1.487
10812TIP3    H232382   5.828   2.818   1.591
10813TIP3   OH232383   0.855   6.251   2.954
10813TIP3    H132384   0.934   6.295   2.921
10813TIP3    H232385   0.865   6.160   2.928
10814TIP3   OH232386   2.410   2.028   3.679
10814TIP3    H132387   2.442   1.986   3.599
10814TIP3    H232388   2.488   2.064   3.721
10815TIP3   OH232389   6.335   6.900   4.459
10815TIP3    H132390   6.265   6.957   4.490
10815TIP3    H232391   6.415   6.943   4.488
10816TIP3   OH232392   7.177   2.847   1.893
10816TIP3    H132393   7.254   2.821   1.944
10816TIP3    H232394   7.118   2.886   1.957
10817TIP3   OH232395   3.341   1.268   3.265
10817TIP3    H132396   3.257   1.223   3.268
10817TIP3    H232397   3.320   1.356   3.234
10818TIP3   OH232398   4.049   1.889   0.282
10818TIP3    H132399   4.001   1.809   0.261
10818TIP3    H232400   4.026   1.908   0.373
10819TIP3   OH232401   6.149   0.626   1.782
10819TIP3    H132402   6.087   0.608   1.711
10819TIP3    H232403   6.212   0.687   1.743
10820TIP3   OH232404   4.607   6.263   0.362
10820TIP3    H132405   4.677   6.200   0.380
10820TIP3    H232406   4.542   6.213   0.313
10821TIP3   OH232407   5.173   6.817   2.123
10821TIP3    H132408   5.240   6.884   2.109
10821TIP3    H232409   5.223   6.738   2.145
10822TIP3   OH232410   1.383   0.380   6.472
10822TIP3    H132411   1.298   0.385   6.430
10822TIP3    H232412   1.380   0.446   6.542
10823TIP3   OH232413   5.523   2.246   0.721
10823TIP3    H132414   5.479   2.181   0.667
10823TIP3    H232415   5.548   2.316   0.660
10824TIP3   OH232416   5.720   1.594   3.832
10824TIP3    H132417   5.635   1.579   3.874
10824TIP3    H232418   5.768   1.649   3.895
10825TIP3   OH232419   6.707   5.158   1.706
10825TIP3    H132420   6.645   5.170   1.634
10825TIP3    H232421   6.717   5.063   1.714
10826TIP3   OH232422   0.079   3.370   5.094
10826TIP3    H132423   0.162   3.322   5.099
10826TIP3    H232424   0.094   3.449   5.146
10827TIP3   OH232425   7.106   7.788   1.530
10827TIP3    H132426   7.163   7.813   1.457
10827TIP3    H232427   7.163   7.789   1.606
10828TIP3   OH232428   8.167   0.118   6.012
10828TIP3    H132429   8.182   0.202   6.054
10828TIP3    H232430   8.179   0.053   6.081
10829TIP3   OH232431   7.177   5.900   1.395
10829TIP3    H132432   7.119   5.948   1.454
10829TIP3    H232433   7.136   5.814   1.386
10830TIP3   OH232434   5.286   0.384   0.813
10830TIP3    H132435   5.222   0.340   0.758
10830TIP3    H232436   5.342   0.431   0.751
10831TIP3   OH232437   7.807   7.582   5.499
10831TIP3    H132438   7.807   7.636   5.420
10831TIP3    H232439   7.802   7.644   5.571
10832TIP3   OH232440   2.743   5.990   0.641
10832TIP3    H132441   2.809   5.939   0.688
10832TIP3    H232442   2.793   6.060   0.599
10833TIP3   OH232443   0.081   0.173   3.846
10833TIP3    H132444   0.052   0.229   3.918
10833TIP3    H232445   0.018   0.191   3.776
10834TIP3   OH232446   7.797   0.783   5.391
10834TIP3    H132447   7.889   0.760   5.375
10834TIP3    H232448   7.749   0.739   5.321
10835TIP3   OH232449   4.031   6.640   5.381
10835TIP3    H132450   4.077   6.635   5.465
10835TIP3    H232451   3.958   6.578   5.390
10836TIP3   OH232452   3.284   6.071   2.364
10836TIP3    H132453   3.328   5.989   2.387
10836TIP3    H232454   3.282   6.070   2.268
10837TIP3   OH232455   3.979   4.991   1.673
10837TIP3    H132456   3.931   5.040   1.606
10837TIP3    H232457   4.020   5.058   1.727
10838TIP3   OH232458   6.677   1.389   1.569
10838TIP3    H132459   6.729   1.459   1.530
10838TIP3    H232460   6.599   1.383   1.514
10839TIP3   OH232461   5.611   1.551   0.977
10839TIP3    H132462   5.681   1.617   0.975
10839TIP3    H232463   5.582   1.544   0.886
10840TIP3   OH232464   2.522   2.769   0.302
10840TIP3    H132465   2.614   2.788   0.323
10840TIP3    H232466   2.518   2.775   0.206
10841TIP3   OH232467   3.961   3.225   4.737
10841TIP3    H132468   3.906   3.303   4.725
10841TIP3    H232469   3.930   3.185   4.818
10842TIP3   OH232470   3.822   6.475   3.813
10842TIP3    H132471   3.867   6.437   3.889
10842TIP3    H232472   3.741   6.425   3.805
10843TIP3   OH232473   4.798   6.781   3.710
10843TIP3    H132474   4.764   6.700   3.749
10843TIP3    H232475   4.879   6.754   3.666
10844TIP3   OH232476   6.386   1.351   6.345
10844TIP3    H132477   6.466   1.390   6.381
10844TIP3    H232478   6.416   1.292   6.277
10845TIP3   OH232479   1.437   2.732   1.300
10845TIP3    H132480   1.532   2.719   1.303
10845TIP3    H232481   1.420   2.798   1.367
10846TIP3   OH232482   0.181   7.028   2.000
10846TIP3    H132483   0.112   7.076   1.955
10846TIP3    H232484   0.259   7.083   1.990
10847TIP3   OH232485   3.479   2.706   5.233
10847TIP3    H132486   3.552   2.646   5.247
10847TIP3    H232487   3.444   2.682   5.147
10848TIP3   OH232488   8.290   0.910   1.768
10848TIP3    H132489   8.213   0.895   1.713
10848TIP3    H232490   8.259   0.898   1.857
10849TIP3   OH232491   6.553   5.972   3.119
10849TIP3    H132492   6.589   5.934   3.038
10849TIP3    H232493   6.608   6.048   3.136
10850TIP3   OH232494   4.698   2.908   6.328
10850TIP3    H132495   4.671   2.964   6.402
10850TIP3    H232496   4.620   2.857   6.308
10851TIP3   OH232497   0.096   1.319   4.201
10851TIP3    H132498   0.086   1.279   4.114
10851TIP3    H232499   0.062   1.408   4.191
10852TIP3   OH232500   3.753   4.714   1.560
10852TIP3    H132501   3.717   4.672   1.638
10852TIP3    H232502   3.714   4.801   1.559
10853TIP3   OH232503   2.721   6.760   5.771
10853TIP3    H132504   2.656   6.744   5.703
10853TIP3    H232505   2.764   6.842   5.746
10854TIP3   OH232506   2.950   5.158   5.208
10854TIP3    H132507   2.855   5.157   5.211
10854TIP3    H232508   2.971   5.192   5.120
10855TIP3   OH232509   2.638   6.773   0.584
10855TIP3    H132510   2.590   6.713   0.526
10855TIP3    H232511   2.593   6.857   0.573
10856TIP3   OH232512   5.979   2.053   3.525
10856TIP3    H132513   5.996   1.993   3.452
10856TIP3    H232514   6.054   2.113   3.523
10857TIP3   OH232515   7.897   2.689   3.272
10857TIP3    H132516   7.881   2.689   3.366
10857TIP3    H232517   7.947   2.768   3.256
10858TIP3   OH232518   1.793   6.702   4.714
10858TIP3    H132519   1.705   6.707   4.678
10858TIP3    H232520   1.793   6.623   4.768
10859TIP3   OH232521   2.157   2.246   2.044
10859TIP3    H132522   2.073   2.248   2.089
10859TIP3    H232523   2.148   2.311   1.973
10860TIP3   OH232524   3.610   1.990   3.964
10860TIP3    H132525   3.704   2.011   3.963
10860TIP3    H232526   3.595   1.946   4.047
10861TIP3   OH232527   2.925   2.920   6.439
10861TIP3    H132528   2.944   3.013   6.425
10861TIP3    H232529   2.848   2.920   6.496
10862TIP3   OH232530   6.908   2.170   1.269
10862TIP3    H132531   6.911   2.118   1.189
10862TIP3    H232532   6.907   2.105   1.339
10863TIP3   OH232533   6.698   2.675   1.675
10863TIP3    H132534   6.722   2.589   1.710
10863TIP3    H232535   6.771   2.700   1.619
10864TIP3   OH232536   4.753   7.520   6.003
10864TIP3    H132537   4.787   7.521   5.914
10864TIP3    H232538   4.804   7.587   6.049
10865TIP3   OH232539   6.742   6.818   6.686
10865TIP3    H132540   6.664   6.775   6.650
10865TIP3    H232541   6.793   6.843   6.608
10866TIP3   OH232542   6.937   4.154   5.501
10866TIP3    H132543   6.939   4.059   5.491
10866TIP3    H232544   6.845   4.178   5.486
10867TIP3   OH232545   3.825   2.107   4.712
10867TIP3    H132546   3.840   2.117   4.806
10867TIP3    H232547   3.760   2.038   4.705
10868TIP3   OH232548   5.680   3.829   6.543
10868TIP3    H132549   5.717   3.741   6.551
10868TIP3    H232550   5.693   3.868   6.629
10869TIP3   OH232551   2.139   0.784   4.451
10869TIP3    H132552   2.114   0.713   4.510
10869TIP3    H232553   2.128   0.864   4.502
10870TIP3   OH232554   8.186   1.355   5.258
10870TIP3    H132555   8.161   1.438   5.300
10870TIP3    H232556   8.106   1.325   5.215
10871TIP3   OH232557   2.376   2.705   1.735
10871TIP3    H132558   2.324   2.771   1.689
10871TIP3    H232559   2.460   2.748   1.751
10872TIP3   OH232560   0.496   0.791   3.058
10872TIP3    H132561   0.442   0.715   3.035
10872TIP3    H232562   0.558   0.758   3.122
10873TIP3   OH232563   4.444   5.682   4.172
10873TIP3    H132564   4.532   5.645   4.167
10873TIP3    H232565   4.393   5.618   4.220
10874TIP3   OH232566   1.502   4.204   0.296
10874TIP3    H132567   1.432   4.269   0.298
10874TIP3    H232568   1.564   4.237   0.232
10875TIP3   OH232569   2.664   4.555   2.843
10875TIP3    H132570   2.661   4.634   2.789
10875TIP3    H232571   2.752   4.521   2.830
10876TIP3   OH232572   1.194   0.413   0.199
10876TIP3    H132573   1.240   0.405   0.115
10876TIP3    H232574   1.105   0.441   0.174
10877TIP3   OH232575   2.958   3.221   1.430
10877TIP3    H132576   2.872   3.263   1.422
10877TIP3    H232577   2.939   3.132   1.460
10878TIP3   OH232578   4.799   3.359   2.958
10878TIP3    H132579   4.887   3.323   2.947
10878TIP3    H232580   4.766   3.316   3.037
10879TIP3   OH232581   3.296   2.449   5.247
10879TIP3    H132582   3.377   2.475   5.292
10879TIP3    H232583   3.285   2.514   5.177
10880TIP3   OH232584   6.804   5.972   4.916
10880TIP3    H132585   6.789   6.058   4.877
10880TIP3    H232586   6.721   5.925   4.904
10881TIP3   OH232587   4.414   0.115   5.702
10881TIP3    H132588   4.325   0.149   5.710
10881TIP3    H232589   4.432   0.073   5.786
10882TIP3   OH232590   2.767   5.599   2.579
10882TIP3    H132591   2.835   5.532   2.570
10882TIP3    H232592   2.686   5.553   2.556
10883TIP3   OH232593   8.106   5.612   4.897
10883TIP3    H132594   8.162   5.560   4.840
10883TIP3    H232595   8.166   5.660   4.954
10884TIP3   OH232596   7.641   6.146   0.267
10884TIP3    H132597   7.694   6.223   0.248
10884TIP3    H232598   7.653   6.089   0.191
10885TIP3   OH232599   4.927   5.803   3.928
10885TIP3    H132600   4.988   5.875   3.913
10885TIP3    H232601   4.875   5.831   4.003
10886TIP3   OH232602   4.084   6.342   6.393
10886TIP3    H132603   4.117   6.273   6.451
10886TIP3    H232604   4.163   6.386   6.362
10887TIP3   OH232605   5.074   0.467   4.326
10887TIP3    H132606   5.085   0.427   4.413
10887TIP3    H232607   4.982   0.451   4.305
10888TIP3   OH232608   3.792   0.594   3.159
10888TIP3    H132609   3.866   0.636   3.202
10888TIP3    H232610   3.744   0.553   3.231
10889TIP3   OH232611   7.090   1.793   2.056
10889TIP3    H132612   7.086   1.879   2.014
10889TIP3    H232613   7.007   1.751   2.032
10890TIP3   OH232614   0.765   3.584   2.218
10890TIP3    H132615   0.786   3.515   2.281
10890TIP3    H232616   0.848   3.629   2.203
10891TIP3   OH232617   4.978   0.150   2.054
10891TIP3    H132618   4.950   0.240   2.070
10891TIP3    H232619   5.000   0.148   1.960
10892TIP3   OH232620   1.287   4.121   3.365
10892TIP3    H132621   1.270   4.124   3.271
10892TIP3    H232622   1.354   4.054   3.375
10893TIP3   OH232623   1.228   5.516   4.732
10893TIP3    H132624   1.197   5.441   4.782
10893TIP3    H232625   1.181   5.510   4.649
10894TIP3   OH232626   2.432   0.093   2.373
10894TIP3    H132627   2.391   0.007   2.364
10894TIP3    H232628   2.428   0.131   2.286
10895TIP3   OH232629   2.308   2.878   5.410
10895TIP3    H132630   2.276   2.953   5.461
10895TIP3    H232631   2.402   2.878   5.423
10896TIP3   OH232632   6.415   2.608   5.735
10896TIP3    H132633   6.506   2.629   5.715
10896TIP3    H232634   6.399   2.524   5.693
10897TIP3   OH232635   2.751   7.165   0.579
10897TIP3    H132636   2.692   7.090   0.581
10897TIP3    H232637   2.726   7.213   0.500
10898TIP3   OH232638   0.559   4.434   3.590
10898TIP3    H132639   0.585   4.412   3.500
10898TIP3    H232640   0.642   4.444   3.637
10899TIP3   OH232641   7.909   4.523   0.469
10899TIP3    H132642   8.000   4.549   0.453
10899TIP3    H232643   7.860   4.606   0.469
10900TIP3   OH232644   6.562   4.714   1.193
10900TIP3    H132645   6.556   4.628   1.152
10900TIP3    H232646   6.646   4.714   1.238
10901TIP3   OH232647   1.472   0.626   2.454
10901TIP3    H132648   1.394   0.682   2.450
10901TIP3    H232649   1.514   0.649   2.537
10902TIP3   OH232650   5.215   6.079   1.356
10902TIP3    H132651   5.184   6.108   1.442
10902TIP3    H232652   5.167   6.133   1.294
10903TIP3   OH232653   4.181   3.127   4.606
10903TIP3    H132654   4.116   3.161   4.668
10903TIP3    H232655   4.206   3.203   4.554
10904TIP3   OH232656   5.317   2.970   1.837
10904TIP3    H132657   5.376   2.948   1.910
10904TIP3    H232658   5.233   2.990   1.879
10905TIP3   OH232659   8.019   3.639   5.085
10905TIP3    H132660   8.033   3.546   5.105
10905TIP3    H232661   8.010   3.680   5.171
10906TIP3   OH232662   7.505   2.469   4.942
10906TIP3    H132663   7.525   2.419   5.021
10906TIP3    H232664   7.422   2.432   4.911
10907TIP3   OH232665   4.711   5.202   1.897
10907TIP3    H132666   4.795   5.227   1.936
10907TIP3    H232667   4.711   5.244   1.811
10908TIP3   OH232668   6.941   1.184   0.670
10908TIP3    H132669   6.942   1.093   0.641
10908TIP3    H232670   7.031   1.201   0.698
10909TIP3   OH232671   6.058   6.378   2.163
10909TIP3    H132672   5.970   6.412   2.183
10909TIP3    H232673   6.056   6.362   2.069
10910TIP3   OH232674   7.537   3.825   6.338
10910TIP3    H132675   7.518   3.878   6.261
10910TIP3    H232676   7.588   3.883   6.395
10911TIP3   OH232677   2.755   7.568   0.662
10911TIP3    H132678   2.756   7.640   0.598
10911TIP3    H232679   2.794   7.494   0.615
10912TIP3   OH232680   7.036   6.157   5.307
10912TIP3    H132681   7.110   6.170   5.247
10912TIP3    H232682   7.042   6.230   5.368
10913TIP3   OH232683   1.843   6.945   0.147
10913TIP3    H132684   1.787   6.978   0.217
10913TIP3    H232685   1.929   6.983   0.165
10914TIP3   OH232686   2.669   2.716   2.999
10914TIP3    H132687   2.671   2.767   2.918
10914TIP3    H232688   2.642   2.628   2.972
10915TIP3   OH232689   0.645   5.132   3.131
10915TIP3    H132690   0.728   5.172   3.155
10915TIP3    H232691   0.621   5.174   3.048
10916TIP3   OH232692   2.852   3.539   4.281
10916TIP3    H132693   2.855   3.620   4.332
10916TIP3    H232694   2.814   3.565   4.197
10917TIP3   OH232695   1.411   4.610   6.368
10917TIP3    H132696   1.361   4.563   6.435
10917TIP3    H232697   1.356   4.605   6.290
10918TIP3   OH232698   7.211   0.488   2.636
10918TIP3    H132699   7.150   0.481   2.562
10918TIP3    H232700   7.296   0.462   2.599
10919TIP3   OH232701  -0.010   1.919   1.899
10919TIP3    H132702   0.030   1.998   1.865
10919TIP3    H232703   0.035   1.902   1.981
10920TIP3   OH232704   1.873   4.524   3.206
10920TIP3    H132705   1.788   4.557   3.177
10920TIP3    H232706   1.863   4.510   3.300
10921TIP3   OH232707   8.239   1.548   2.572
10921TIP3    H132708   8.171   1.499   2.525
10921TIP3    H232709   8.310   1.486   2.584
10922TIP3   OH232710   4.905   0.296   0.201
10922TIP3    H132711   4.881   0.203   0.198
10922TIP3    H232712   4.825   0.340   0.231
10923TIP3   OH232713   4.780   2.784   0.248
10923TIP3    H132714   4.698   2.736   0.261
10923TIP3    H232715   4.753   2.876   0.245
10924TIP3   OH232716   3.469   3.137   0.406
10924TIP3    H132717   3.554   3.095   0.405
10924TIP3    H232718   3.441   3.135   0.314
10925TIP3   OH232719   0.486   5.689   3.046
10925TIP3    H132720   0.561   5.716   3.099
10925TIP3    H232721   0.432   5.768   3.040
10926TIP3   OH232722   6.275   7.566   1.930
10926TIP3    H132723   6.316   7.517   1.858
10926TIP3    H232724   6.272   7.504   2.003
10927TIP3   OH232725   5.026   3.545   0.672
10927TIP3    H132726   5.091   3.613   0.686
10927TIP3    H232727   5.068   3.464   0.701
10928TIP3   OH232728   0.766   5.954   5.384
10928TIP3    H132729   0.735   5.932   5.472
10928TIP3    H232730   0.726   5.888   5.327
10929TIP3   OH232731   4.259   3.142   0.503
10929TIP3    H132732   4.202   3.202   0.551
10929TIP3    H232733   4.345   3.183   0.507
10930TIP3   OH232734   4.991   2.319   5.808
10930TIP3    H132735   5.028   2.258   5.744
10930TIP3    H232736   5.066   2.347   5.861
10931TIP3   OH232737   3.572   3.707   4.286
10931TIP3    H132738   3.534   3.628   4.323
10931TIP3    H232739   3.665   3.702   4.308
10932TIP3   OH232740   2.234  -0.001   5.394
10932TIP3    H132741   2.201   0.032   5.310
10932TIP3    H232742   2.302   0.061   5.419
10933TIP3   OH232743   6.687   3.855   3.851
10933TIP3    H132744   6.680   3.951   3.854
10933TIP3    H232745   6.604   3.826   3.813
10934TIP3   OH232746   2.879   4.171   0.850
10934TIP3    H132747   2.901   4.113   0.923
10934TIP3    H232748   2.960   4.176   0.799
10935TIP3   OH232749   4.505   1.169   1.506
10935TIP3    H132750   4.581   1.111   1.506
10935TIP3    H232751   4.507   1.213   1.590
10936TIP3   OH232752   0.509   0.468   1.239
10936TIP3    H132753   0.506   0.549   1.289
10936TIP3    H232754   0.417   0.442   1.229
10937TIP3   OH232755   2.868   1.004   0.743
10937TIP3    H132756   2.814   1.063   0.691
10937TIP3    H232757   2.857   1.034   0.833
10938TIP3   OH232758   5.961   3.562   3.683
10938TIP3    H132759   5.922   3.624   3.622
10938TIP3    H232760   5.995   3.492   3.628
10939TIP3   OH232761   8.149   7.783   5.889
10939TIP3    H132762   8.133   7.873   5.861
10939TIP3    H232763   8.125   7.730   5.813
10940TIP3   OH232764   7.649   4.022   0.773
10940TIP3    H132765   7.692   4.107   0.784
10940TIP3    H232766   7.629   4.018   0.679
10941TIP3   OH232767   2.744   6.559   1.298
10941TIP3    H132768   2.738   6.525   1.209
10941TIP3    H232769   2.701   6.493   1.353
10942TIP3   OH232770   1.988   4.864   2.922
10942TIP3    H132771   2.022   4.775   2.930
10942TIP3    H232772   2.006   4.904   3.007
10943TIP3   OH232773   3.353   7.637   4.403
10943TIP3    H132774   3.285   7.596   4.349
10943TIP3    H232775   3.433   7.630   4.350
10944TIP3   OH232776   2.997   2.073   5.466
10944TIP3    H132777   3.036   2.077   5.553
10944TIP3    H232778   2.932   2.003   5.473
10945TIP3   OH232779   4.125   5.867   6.589
10945TIP3    H132780   4.097   5.808   6.659
10945TIP3    H232781   4.161   5.809   6.522
10946TIP3   OH232782   5.988   3.168   4.299
10946TIP3    H132783   5.921   3.113   4.259
10946TIP3    H232784   6.012   3.230   4.230
10947TIP3   OH232785   5.525   0.954   6.093
10947TIP3    H132786   5.585   1.027   6.075
10947TIP3    H232787   5.531   0.941   6.187
10948TIP3   OH232788   3.836   3.500   3.159
10948TIP3    H132789   3.784   3.459   3.227
10948TIP3    H232790   3.889   3.566   3.206
10949TIP3   OH232791   3.876   4.707   0.396
10949TIP3    H132792   3.795   4.683   0.441
10949TIP3    H232793   3.848   4.739   0.311
10950TIP3   OH232794   3.697   1.605   4.788
10950TIP3    H132795   3.785   1.567   4.785
10950TIP3    H232796   3.668   1.604   4.697
10951TIP3   OH232797   6.737   1.544   5.189
10951TIP3    H132798   6.740   1.493   5.270
10951TIP3    H232799   6.809   1.511   5.137
10952TIP3   OH232800   1.705   3.019   4.085
10952TIP3    H132801   1.742   2.939   4.121
10952TIP3    H232802   1.779   3.080   4.080
10953TIP3   OH232803   6.386   6.207   6.690
10953TIP3    H132804   6.293   6.227   6.699
10953TIP3    H232805   6.422   6.279   6.639
10954TIP3   OH232806   5.249   4.915   5.129
10954TIP3    H132807   5.179   4.866   5.172
10954TIP3    H232808   5.204   4.982   5.077
10955TIP3   OH232809   6.145   1.027   3.873
10955TIP3    H132810   6.134   1.029   3.968
10955TIP3    H232811   6.190   1.109   3.852
10956TIP3   OH232812   1.717   2.951   1.375
10956TIP3    H132813   1.660   2.880   1.347
10956TIP3    H232814   1.717   3.013   1.302
10957TIP3   OH232815   7.080   0.778   5.666
10957TIP3    H132816   7.174   0.797   5.669
10957TIP3    H232817   7.075   0.683   5.672
10958TIP3   OH232818   7.666   2.874   2.059
10958TIP3    H132819   7.698   2.851   1.971
10958TIP3    H232820   7.692   2.966   2.069
10959TIP3   OH232821   1.790   7.028   5.883
10959TIP3    H132822   1.703   6.995   5.861
10959TIP3    H232823   1.840   7.020   5.801
10960TIP3   OH232824   3.832   0.908   0.696
10960TIP3    H132825   3.779   0.877   0.770
10960TIP3    H232826   3.921   0.879   0.717
10961TIP3   OH232827   1.350   7.371   0.931
10961TIP3    H132828   1.298   7.298   0.897
10961TIP3    H232829   1.435   7.361   0.889
10962TIP3   OH232830   0.616   7.542   6.336
10962TIP3    H132831   0.633   7.628   6.376
10962TIP3    H232832   0.669   7.540   6.257
10963TIP3   OH232833   3.952   0.078   6.044
10963TIP3    H132834   3.936   0.162   6.000
10963TIP3    H232835   3.979   0.019   5.974
10964TIP3   OH232836   1.166   1.422   5.615
10964TIP3    H132837   1.112   1.486   5.569
10964TIP3    H232838   1.255   1.454   5.606
10965TIP3   OH232839   7.874   0.895   2.927
10965TIP3    H132840   7.854   0.925   3.016
10965TIP3    H232841   7.967   0.913   2.916
10966TIP3   OH232842   1.596   1.196   0.857
10966TIP3    H132843   1.539   1.272   0.853
10966TIP3    H232844   1.540   1.122   0.832
10967TIP3   OH232845   3.185   6.942   2.823
10967TIP3    H132846   3.177   7.037   2.816
10967TIP3    H232847   3.276   6.924   2.800
10968TIP3   OH232848   4.127   5.576   3.384
10968TIP3    H132849   4.158   5.498   3.429
10968TIP3    H232850   4.087   5.629   3.453
10969TIP3   OH232851   4.953   2.161   2.081
10969TIP3    H132852   4.913   2.238   2.040
10969TIP3    H232853   4.987   2.110   2.007
10970TIP3   OH232854   5.021   7.535   3.998
10970TIP3    H132855   4.985   7.540   4.087
10970TIP3    H232856   5.079   7.610   3.991
10971TIP3   OH232857   7.837   6.882   2.926
10971TIP3    H132858   7.840   6.874   2.831
10971TIP3    H232859   7.921   6.850   2.956
10972TIP3   OH232860   5.662   5.300   3.749
10972TIP3    H132861   5.626   5.387   3.769
10972TIP3    H232862   5.695   5.268   3.833
10973TIP3   OH232863   6.088   4.670   1.634
10973TIP3    H132864   6.118   4.750   1.592
10973TIP3    H232865   5.998   4.687   1.660
10974TIP3   OH232866   5.536   5.845   1.865
10974TIP3    H132867   5.580   5.830   1.948
10974TIP3    H232868   5.596   5.901   1.815
10975TIP3   OH232869   0.565   4.114   2.986
10975TIP3    H132870   0.483   4.139   2.942
10975TIP3    H232871   0.631   4.169   2.944
10976TIP3   OH232872   1.401   2.159   3.300
10976TIP3    H132873   1.496   2.163   3.302
10976TIP3    H232874   1.378   2.176   3.209
10977TIP3   OH232875   8.018   3.186   3.381
10977TIP3    H132876   8.053   3.260   3.332
10977TIP3    H232877   8.052   3.109   3.335
10978TIP3   OH232878   5.983   1.355   0.864
10978TIP3    H132879   5.911   1.408   0.829
10978TIP3    H232880   6.054   1.367   0.800
10979TIP3   OH232881   4.278   2.597   2.901
10979TIP3    H132882   4.262   2.559   2.814
10979TIP3    H232883   4.311   2.685   2.883
10980TIP3   OH232884   2.889   2.187   5.018
10980TIP3    H132885   2.954   2.209   5.084
10980TIP3    H232886   2.903   2.252   4.949
10981TIP3   OH232887   3.667   3.892   2.988
10981TIP3    H132888   3.687   3.906   3.081
10981TIP3    H232889   3.734   3.829   2.959
10982TIP3   OH232890   8.068   4.395   5.456
10982TIP3    H132891   8.005   4.379   5.526
10982TIP3    H232892   8.086   4.308   5.420
10983TIP3   OH232893   0.355   2.130   0.167
10983TIP3    H132894   0.422   2.132   0.235
10983TIP3    H232895   0.401   2.102   0.088
10984TIP3   OH232896   4.517   2.824   5.852
10984TIP3    H132897   4.485   2.792   5.768
10984TIP3    H232898   4.479   2.912   5.860
10985TIP3   OH232899   1.167   3.912   5.499
10985TIP3    H132900   1.232   3.853   5.459
10985TIP3    H232901   1.152   3.979   5.432
10986TIP3   OH232902   2.847   5.550   5.941
10986TIP3    H132903   2.825   5.462   5.970
10986TIP3    H232904   2.930   5.570   5.985
10987TIP3   OH232905   3.832   3.740   5.741
10987TIP3    H132906   3.913   3.755   5.789
10987TIP3    H232907   3.850   3.664   5.686
10988TIP3   OH232908   6.904   5.461   6.293
10988TIP3    H132909   6.850   5.427   6.222
10988TIP3    H232910   6.988   5.482   6.252
10989TIP3   OH232911   8.133   4.824   0.077
10989TIP3    H132912   8.141   4.844   0.170
10989TIP3    H232913   8.138   4.909   0.034
10990TIP3   OH232914   5.254   4.498   4.476
10990TIP3    H132915   5.159   4.496   4.490
10990TIP3    H232916   5.289   4.540   4.554
10991TIP3   OH232917   6.002   6.836   6.309
10991TIP3    H132918   5.926   6.814   6.254
10991TIP3    H232919   6.072   6.781   6.276
10992TIP3   OH232920   0.818   0.657   2.343
10992TIP3    H132921   0.766   0.587   2.382
10992TIP3    H232922   0.770   0.737   2.363
10993TIP3   OH232923   4.948   6.757   5.066
10993TIP3    H132924   4.997   6.764   5.148
10993TIP3    H232925   4.857   6.776   5.091
10994TIP3   OH232926   3.626   1.085   2.873
10994TIP3    H132927   3.698   1.134   2.833
10994TIP3    H232928   3.668   1.015   2.922
10995TIP3   OH232929   4.688   2.320   4.292
10995TIP3    H132930   4.644   2.238   4.314
10995TIP3    H232931   4.752   2.295   4.225
10996TIP3   OH232932   5.721   1.035   0.101
10996TIP3    H132933   5.708   1.130   0.107
10996TIP3    H232934   5.658   0.998   0.163
10997TIP3   OH232935   3.439   1.016   0.015
10997TIP3    H132936   3.413   1.028   0.107
10997TIP3    H232937   3.523   1.061   0.008
10998TIP3   OH232938   5.346   5.893   2.888
10998TIP3    H132939   5.334   5.982   2.854
10998TIP3    H232940   5.431   5.895   2.931
10999TIP3   OH232941   6.101   0.826   5.069
10999TIP3    H132942   6.124   0.783   5.151
10999TIP3    H232943   6.133   0.766   5.001
11000TIP3   OH232944   6.961   0.034  -0.015
11000TIP3    H132945   7.054   0.040  -0.037
11000TIP3    H232946   6.957   0.053   0.078
11001TIP3   OH232947   8.007   7.510   4.619
11001TIP3    H132948   7.922   7.546   4.592
11001TIP3    H232949   7.997   7.493   4.713
11002TIP3   OH232950   2.666   3.055   2.087
11002TIP3    H132951   2.699   2.974   2.126
11002TIP3    H232952   2.572   3.042   2.079
11003TIP3   OH232953   4.630   0.511   4.756
11003TIP3    H132954   4.721   0.540   4.751
11003TIP3    H232955   4.596   0.553   4.836
11004TIP3   OH232956   6.746   4.795   1.962
11004TIP3    H132957   6.801   4.872   1.943
11004TIP3    H232958   6.799   4.721   1.932
11005TIP3   OH232959   5.603   4.406   0.878
11005TIP3    H132960   5.580   4.346   0.949
11005TIP3    H232961   5.567   4.366   0.799
11006TIP3   OH232962   5.913   6.437   4.553
11006TIP3    H132963   6.003   6.454   4.583
11006TIP3    H232964   5.858   6.489   4.611
11007TIP3   OH232965   7.831   7.688   6.554
11007TIP3    H132966   7.896   7.755   6.533
11007TIP3    H232967   7.814   7.644   6.470
11008TIP3   OH232968   4.869   3.495   6.029
11008TIP3    H132969   4.896   3.572   6.080
11008TIP3    H232970   4.831   3.531   5.949
11009TIP3   OH232971   4.260   2.783   4.261
11009TIP3    H132972   4.330   2.821   4.208
11009TIP3    H232973   4.225   2.712   4.207
11010TIP3   OH232974   0.745   5.777   2.622
11010TIP3    H132975   0.834   5.748   2.605
11010TIP3    H232976   0.756   5.861   2.667
11011TIP3   OH232977   1.446   4.261   0.910
11011TIP3    H132978   1.373   4.233   0.966
11011TIP3    H232979   1.439   4.206   0.832
11012TIP3   OH232980   4.575   4.474   0.931
11012TIP3    H132981   4.647   4.531   0.905
11012TIP3    H232982   4.598   4.445   1.019
11013TIP3   OH232983   2.257   6.504   0.778
11013TIP3    H132984   2.319   6.469   0.842
11013TIP3    H232985   2.277   6.597   0.774
11014TIP3   OH232986   3.380   0.646   0.043
11014TIP3    H132987   3.426   0.567   0.071
11014TIP3    H232988   3.412   0.662  -0.046
11015TIP3   OH232989   0.184   7.326   6.279
11015TIP3    H132990   0.175   7.387   6.205
11015TIP3    H232991   0.257   7.362   6.330
11016TIP3   OH232992   0.472   3.953   6.088
11016TIP3    H132993   0.563   3.922   6.093
11016TIP3    H232994   0.443   3.924   6.001
11017TIP3   OH232995   0.985   4.222   2.500
11017TIP3    H132996   0.923   4.283   2.459
11017TIP3    H232997   0.945   4.199   2.584
11018TIP3   OH232998   3.090   6.290   2.250
11018TIP3    H132999   3.046   6.218   2.296
11018TIP3    H233000   3.167   6.249   2.210
11019TIP3   OH233001   0.675   2.267   0.621
11019TIP3    H133002   0.726   2.331   0.670
11019TIP3    H233003   0.585   2.280   0.651
11020TIP3   OH233004   0.980   0.129   3.131
11020TIP3    H133005   0.951   0.074   3.057
11020TIP3    H233006   1.075   0.129   3.125
11021TIP3   OH233007   3.863   3.342   2.908
11021TIP3    H133008   3.853   3.402   2.982
11021TIP3    H233009   3.777   3.301   2.900
11022TIP3   OH233010   6.531   1.249   6.662
11022TIP3    H133011   6.618   1.219   6.688
11022TIP3    H233012   6.547   1.330   6.614
11023TIP3   OH233013   5.161   6.335   0.717
11023TIP3    H133014   5.159   6.308   0.809
11023TIP3    H233015   5.117   6.264   0.670
11024TIP3   OH233016   2.185   6.233   4.706
11024TIP3    H133017   2.146   6.320   4.696
11024TIP3    H233018   2.267   6.238   4.656
11025TIP3   OH233019   0.499   2.752   4.308
11025TIP3    H133020   0.453   2.685   4.257
11025TIP3    H233021   0.428   2.803   4.348
11026TIP3   OH233022   6.979   3.629   5.934
11026TIP3    H133023   6.915   3.684   5.978
11026TIP3    H233024   7.035   3.691   5.887
11027TIP3   OH233025   7.481   4.002   1.168
11027TIP3    H133026   7.449   4.048   1.090
11027TIP3    H233027   7.575   3.996   1.156
11028TIP3   OH233028   0.906   7.182   2.693
11028TIP3    H133029   0.848   7.108   2.712
11028TIP3    H233030   0.985   7.142   2.655
11029TIP3   OH233031   3.721   7.030   3.244
11029TIP3    H133032   3.696   7.121   3.231
11029TIP3    H233033   3.768   7.006   3.164
11030TIP3   OH233034   2.209   1.139   2.102
11030TIP3    H133035   2.285   1.096   2.064
11030TIP3    H233036   2.156   1.068   2.137
11031TIP3   OH233037   5.775   1.686   5.980
11031TIP3    H133038   5.864   1.721   5.966
11031TIP3    H233039   5.768   1.613   5.918
11032TIP3   OH233040   5.103   3.695   0.429
11032TIP3    H133041   5.085   3.652   0.345
11032TIP3    H233042   5.046   3.650   0.491
11033TIP3   OH233043   3.990   5.387   1.644
11033TIP3    H133044   4.062   5.353   1.590
11033TIP3    H233045   4.032   5.416   1.725
11034TIP3   OH233046   7.158   5.237   4.440
11034TIP3    H133047   7.068   5.246   4.469
11034TIP3    H233048   7.208   5.293   4.500
11035TIP3   OH233049   1.185   0.393   3.115
11035TIP3    H133050   1.124   0.405   3.187
11035TIP3    H233051   1.233   0.476   3.110
11036TIP3   OH233052   0.718   3.821   0.534
11036TIP3    H133053   0.724   3.899   0.479
11036TIP3    H233054   0.665   3.760   0.483
11037TIP3   OH233055   2.496   6.805   1.890
11037TIP3    H133056   2.530   6.734   1.943
11037TIP3    H233057   2.435   6.762   1.829
11038TIP3   OH233058   1.682   6.671   5.097
11038TIP3    H133059   1.733   6.752   5.091
11038TIP3    H233060   1.708   6.620   5.020
11039TIP3   OH233061   5.158   1.668   4.919
11039TIP3    H133062   5.215   1.694   4.847
11039TIP3    H233063   5.207   1.600   4.965
11040TIP3   OH233064   8.123   6.100   5.064
11040TIP3    H133065   8.065   6.041   5.017
11040TIP3    H233066   8.149   6.050   5.142
11041TIP3   OH233067   2.112   6.443   5.920
11041TIP3    H133068   2.030   6.424   5.876
11041TIP3    H233069   2.150   6.357   5.938
11042TIP3   OH233070   4.793   4.665   0.905
11042TIP3    H133071   4.784   4.760   0.902
11042TIP3    H233072   4.830   4.641   0.820
11043TIP3   OH233073   2.270   1.624   3.355
11043TIP3    H133074   2.276   1.623   3.450
11043TIP3    H233075   2.357   1.653   3.326
11044TIP3   OH233076   6.298   5.536   0.546
11044TIP3    H133077   6.367   5.498   0.492
11044TIP3    H233078   6.345   5.577   0.619
11045TIP3   OH233079   4.244   5.335   1.540
11045TIP3    H133080   4.270   5.415   1.586
11045TIP3    H233081   4.300   5.267   1.576
11046TIP3   OH233082   2.174   1.553   0.175
11046TIP3    H133083   2.193   1.630   0.228
11046TIP3    H233084   2.186   1.479   0.236
11047TIP3   OH233085   7.870   7.384   5.335
11047TIP3    H133086   7.834   7.464   5.373
11047TIP3    H233087   7.922   7.415   5.260
11048TIP3   OH233088   3.260   1.013   1.020
11048TIP3    H133089   3.307   0.981   0.944
11048TIP3    H233090   3.179   1.051   0.985
11049TIP3   OH233091   7.894   7.393   4.838
11049TIP3    H133092   7.934   7.319   4.794
11049TIP3    H233093   7.800   7.373   4.839
11050TIP3   OH233094   3.390   2.899   2.891
11050TIP3    H133095   3.307   2.858   2.916
11050TIP3    H233096   3.370   2.993   2.886
11051TIP3   OH233097   4.634   1.966   0.853
11051TIP3    H133098   4.545   1.941   0.828
11051TIP3    H233099   4.691   1.920   0.792
11052TIP3   OH233100   2.615   1.524   2.652
11052TIP3    H133101   2.629   1.430   2.637
11052TIP3    H233102   2.658   1.567   2.578
11053TIP3   OH233103   6.662   2.713   5.709
11053TIP3    H133104   6.701   2.666   5.783
11053TIP3    H233105   6.684   2.805   5.725
11054TIP3   OH233106   6.597   3.527   5.793
11054TIP3    H133107   6.613   3.568   5.708
11054TIP3    H233108   6.550   3.594   5.843
11055TIP3   OH233109   8.218   7.694   2.445
11055TIP3    H133110   8.240   7.752   2.372
11055TIP3    H233111   8.297   7.694   2.500
11056TIP3   OH233112   8.152   2.118   2.410
11056TIP3    H133113   8.093   2.061   2.361
11056TIP3    H233114   8.237   2.075   2.405
11057TIP3   OH233115   8.154   0.520   2.826
11057TIP3    H133116   8.129   0.603   2.785
11057TIP3    H233117   8.101   0.516   2.906
11058TIP3   OH233118   3.173   5.196   5.411
11058TIP3    H133119   3.124   5.154   5.340
11058TIP3    H233120   3.173   5.289   5.388
11059TIP3   OH233121   1.421   5.595   5.058
11059TIP3    H133122   1.334   5.634   5.067
11059TIP3    H233123   1.408   5.502   5.076
11060TIP3   OH233124   3.984   0.731   4.409
11060TIP3    H133125   3.890   0.722   4.423
11060TIP3    H233126   4.018   0.762   4.493
11061TIP3   OH233127   7.698   4.003   0.052
11061TIP3    H133128   7.773   4.063   0.048
11061TIP3    H233129   7.726   3.935   0.114
11062TIP3   OH233130   2.208   7.207   4.540
11062TIP3    H133131   2.271   7.223   4.610
11062TIP3    H233132   2.257   7.159   4.473
11063TIP3   OH233133   6.704   6.877   5.404
11063TIP3    H133134   6.709   6.829   5.487
11063TIP3    H233135   6.638   6.944   5.420
11064TIP3   OH233136   2.603   6.845   0.849
11064TIP3    H133137   2.623   6.837   0.755
11064TIP3    H233138   2.670   6.793   0.892
11065TIP3   OH233139   5.887   5.655   1.106
11065TIP3    H133140   5.913   5.733   1.155
11065TIP3    H233141   5.793   5.667   1.091
11066TIP3   OH233142   0.690   7.173   1.387
11066TIP3    H133143   0.612   7.120   1.399
11066TIP3    H233144   0.674   7.223   1.306
11067TIP3   OH233145   6.620   3.975   0.002
11067TIP3    H133146   6.539   4.027   0.006
11067TIP3    H233147   6.645   3.964   0.094
11068TIP3   OH233148   1.891   4.075   6.487
11068TIP3    H133149   1.936   4.156   6.512
11068TIP3    H233150   1.953   4.005   6.510
11069TIP3   OH233151   3.122   7.311   6.676
11069TIP3    H133152   3.039   7.286   6.635
11069TIP3    H233153   3.151   7.231   6.721
11070TIP3   OH233154   4.371   2.234   0.223
11070TIP3    H133155   4.378   2.308   0.284
11070TIP3    H233156   4.399   2.159   0.275
11071TIP3   OH233157   1.262   2.386   2.673
11071TIP3    H133158   1.217   2.463   2.637
11071TIP3    H233159   1.202   2.353   2.740
11072TIP3   OH233160   4.819   0.514   2.775
11072TIP3    H133161   4.724   0.526   2.769
11072TIP3    H233162   4.855   0.566   2.703
11073TIP3   OH233163   1.459   2.864   2.635
11073TIP3    H133164   1.516   2.835   2.706
11073TIP3    H233165   1.483   2.955   2.619
11074TIP3   OH233166   5.001   5.317   0.826
11074TIP3    H133167   4.926   5.262   0.801
11074TIP3    H233168   5.063   5.307   0.755
11075TIP3   OH233169   3.159   0.098   3.574
11075TIP3    H133170   3.105   0.025   3.544
11075TIP3    H233171   3.246   0.061   3.585
11076TIP3   OH233172   7.157   3.034   0.118
11076TIP3    H133173   7.111   3.024   0.035
11076TIP3    H233174   7.190   3.124   0.117
11077TIP3   OH233175   2.050   2.423   0.679
11077TIP3    H133176   1.980   2.440   0.615
11077TIP3    H233177   2.130   2.448   0.633
11078TIP3   OH233178   5.537   7.017   4.999
11078TIP3    H133179   5.556   7.058   5.083
11078TIP3    H233180   5.502   6.931   5.022
11079TIP3   OH233181   1.393   5.266   4.191
11079TIP3    H133182   1.449   5.343   4.195
11079TIP3    H233183   1.449   5.198   4.154
11080TIP3   OH233184   2.550   4.912   4.858
11080TIP3    H133185   2.568   5.005   4.847
11080TIP3    H233186   2.461   4.900   4.827
11081TIP3   OH233187   7.033   3.236   3.536
11081TIP3    H133188   7.055   3.327   3.556
11081TIP3    H233189   6.984   3.241   3.454
11082TIP3   OH233190   0.153   5.668   3.786
11082TIP3    H133191   0.165   5.580   3.750
11082TIP3    H233192   0.086   5.707   3.730
11083TIP3   OH233193   5.175   3.877   0.732
11083TIP3    H133194   5.245   3.936   0.758
11083TIP3    H233195   5.099   3.934   0.717
11084TIP3   OH233196   4.708   6.513   4.874
11084TIP3    H133197   4.729   6.420   4.880
11084TIP3    H233198   4.790   6.554   4.844
11085TIP3   OH233199   4.544   3.548   0.668
11085TIP3    H133200   4.538   3.640   0.640
11085TIP3    H233201   4.617   3.547   0.731
11086TIP3   OH233202   4.028   0.958   5.780
11086TIP3    H133203   3.981   1.016   5.840
11086TIP3    H233204   4.116   0.952   5.816
11087TIP3   OH233205   2.040   6.694   4.499
11087TIP3    H133206   2.039   6.787   4.519
11087TIP3    H233207   1.959   6.679   4.451
11088TIP3   OH233208   2.864   0.424   2.363
11088TIP3    H133209   2.842   0.517   2.363
11088TIP3    H233210   2.782   0.380   2.381
11089TIP3   OH233211   5.029   5.866   1.703
11089TIP3    H133212   5.086   5.870   1.627
11089TIP3    H233213   5.076   5.913   1.771
11090TIP3   OH233214   7.901   5.192   2.744
11090TIP3    H133215   7.807   5.171   2.747
11090TIP3    H233216   7.944   5.110   2.770
11091TIP3   OH233217   8.190   6.846   1.133
11091TIP3    H133218   8.098   6.822   1.142
11091TIP3    H233219   8.238   6.763   1.140
11092TIP3   OH233220   4.468   5.517   0.037
11092TIP3    H133221   4.495   5.430   0.068
11092TIP3    H233222   4.391   5.500  -0.016
11093TIP3   OH233223   2.969   6.406   2.571
11093TIP3    H133224   2.943   6.498   2.568
11093TIP3    H233225   3.059   6.406   2.538
11094TIP3   OH233226   3.122   1.650   0.765
11094TIP3    H133227   3.180   1.726   0.770
11094TIP3    H233228   3.036   1.684   0.787
11095TIP3   OH233229   7.673   0.138   4.373
11095TIP3    H133230   7.673   0.215   4.316
11095TIP3    H233231   7.740   0.081   4.334
11096TIP3   OH233232   4.304   3.277   6.010
11096TIP3    H133233   4.320   3.366   5.978
11096TIP3    H233234   4.217   3.281   6.051
11097TIP3   OH233235   6.412   4.971   4.447
11097TIP3    H133236   6.465   5.047   4.471
11097TIP3    H233237   6.456   4.934   4.371
11098TIP3   OH233238   8.191   6.245   0.854
11098TIP3    H133239   8.182   6.157   0.892
11098TIP3    H233240   8.285   6.260   0.849
11099TIP3   OH233241   1.343   2.245   3.546
11099TIP3    H133242   1.424   2.258   3.594
11099TIP3    H233243   1.368   2.196   3.468
11100TIP3   OH233244   6.294   0.700   2.931
11100TIP3    H133245   6.380   0.662   2.948
11100TIP3    H233246   6.311   0.779   2.881
11101TIP3   OH233247   1.388   1.543   6.333
11101TIP3    H133248   1.445   1.470   6.356
11101TIP3    H233249   1.447   1.618   6.324
11102TIP3   OH233250   7.666   0.751   4.790
11102TIP3    H133251   7.752   0.787   4.770
11102TIP3    H233252   7.606   0.803   4.736
11103TIP3   OH233253   2.323   7.591   1.382
11103TIP3    H133254   2.394   7.653   1.365
11103TIP3    H233255   2.243   7.642   1.366
11104TIP3   OH233256   2.106   6.121   1.171
11104TIP3    H133257   2.045   6.096   1.101
11104TIP3    H233258   2.057   6.183   1.224
11105TIP3   OH233259   5.403   6.862   1.087
11105TIP3    H133260   5.375   6.937   1.034
11105TIP3    H233261   5.473   6.821   1.037
11106TIP3   OH233262   2.748   3.699   1.136
11106TIP3    H133263   2.681   3.713   1.203
11106TIP3    H233264   2.831   3.701   1.183
11107TIP3   OH233265   4.162   3.769   2.638
11107TIP3    H133266   4.145   3.853   2.595
11107TIP3    H233267   4.252   3.747   2.613
11108TIP3   OH233268   1.690   5.109   5.182
11108TIP3    H133269   1.666   5.168   5.111
11108TIP3    H233270   1.622   5.121   5.248
11109TIP3   OH233271   4.353   5.997   5.892
11109TIP3    H133272   4.427   5.969   5.945
11109TIP3    H233273   4.391   6.054   5.825
11110TIP3   OH233274   0.836   3.991   6.626
11110TIP3    H133275   0.898   3.931   6.585
11110TIP3    H233276   0.793   4.035   6.553
11111TIP3   OH233277   0.293   5.073   5.538
11111TIP3    H133278   0.335   5.003   5.487
11111TIP3    H233279   0.199   5.062   5.519
11112TIP3   OH233280   3.392   2.950   3.174
11112TIP3    H133281   3.374   2.857   3.187
11112TIP3    H233282   3.449   2.953   3.097
11113TIP3   OH233283   1.944   1.630   0.401
11113TIP3    H133284   1.933   1.711   0.451
11113TIP3    H233285   1.922   1.655   0.311
11114TIP3   OH233286   4.764   3.575   0.463
11114TIP3    H133287   4.670   3.593   0.462
11114TIP3    H233288   4.772   3.495   0.514
11115TIP3   OH233289   5.044   7.296   4.586
11115TIP3    H133290   5.122   7.243   4.569
11115TIP3    H233291   5.018   7.273   4.675
11116TIP3   OH233292   7.496   4.774   0.946
11116TIP3    H133293   7.435   4.705   0.971
11116TIP3    H233294   7.489   4.779   0.850
11117TIP3   OH233295   8.014   1.222   5.113
11117TIP3    H133296   7.992   1.144   5.165
11117TIP3    H233297   7.932   1.248   5.073
11118TIP3   OH233298   3.710   0.354   2.075
11118TIP3    H133299   3.638   0.335   2.136
11118TIP3    H233300   3.741   0.268   2.048
11119TIP3   OH233301   2.585   4.323   5.601
11119TIP3    H133302   2.539   4.325   5.685
11119TIP3    H233303   2.520   4.353   5.538
11120TIP3   OH233304   7.891   5.339   2.518
11120TIP3    H133305   7.892   5.289   2.600
11120TIP3    H233306   7.979   5.329   2.483
11121TIP3   OH233307   5.414   5.016   6.265
11121TIP3    H133308   5.491   5.051   6.310
11121TIP3    H233309   5.442   4.932   6.230
11122TIP3   OH233310   0.023   5.286   0.077
11122TIP3    H133311   0.061   5.326  -0.002
11122TIP3    H233312  -0.018   5.359   0.123
11123TIP3   OH233313   6.477   0.836   1.070
11123TIP3    H133314   6.435   0.819   0.985
11123TIP3    H233315   6.415   0.802   1.135
11124TIP3   OH233316   6.458   5.967   5.002
11124TIP3    H133317   6.531   5.942   5.059
11124TIP3    H233318   6.412   6.035   5.051
11125TIP3   OH233319   5.048   2.469   6.643
11125TIP3    H133320   5.038   2.517   6.726
11125TIP3    H233321   4.961   2.472   6.603
11126TIP3   OH233322   2.990   7.771   2.314
11126TIP3    H133323   2.933   7.702   2.279
11126TIP3    H233324   3.065   7.772   2.254
11127TIP3   OH233325   4.965   7.326   3.174
11127TIP3    H133326   4.930   7.415   3.174
11127TIP3    H233327   5.002   7.314   3.261
11128TIP3   OH233328   2.121   3.560   5.685
11128TIP3    H133329   2.166   3.476   5.689
11128TIP3    H233330   2.043   3.544   5.633
11129TIP3   OH233331   4.307   6.346   6.061
11129TIP3    H133332   4.352   6.283   6.116
11129TIP3    H233333   4.374   6.412   6.040
11130TIP3   OH233334   7.731   4.053   1.097
11130TIP3    H133335   7.775   4.107   1.031
11130TIP3    H233336   7.722   4.110   1.173
11131TIP3   OH233337   5.258   2.110   6.469
11131TIP3    H133338   5.330   2.092   6.529
11131TIP3    H233339   5.196   2.038   6.483
11132TIP3   OH233340   1.689   3.457   1.391
11132TIP3    H133341   1.779   3.452   1.423
11132TIP3    H233342   1.636   3.470   1.470
11133TIP3   OH233343   3.789   3.618   4.595
11133TIP3    H133344   3.878   3.611   4.627
11133TIP3    H233345   3.743   3.668   4.662
11134TIP3   OH233346   1.779   1.802   1.314
11134TIP3    H133347   1.706   1.790   1.253
11134TIP3    H233348   1.781   1.722   1.366
11135TIP3   OH233349   0.100   1.716   3.288
11135TIP3    H133350   0.071   1.795   3.332
11135TIP3    H233351   0.093   1.647   3.354
11136TIP3   OH233352   6.408   1.720   6.570
11136TIP3    H133353   6.345   1.762   6.511
11136TIP3    H233354   6.354   1.662   6.624
11137TIP3   OH233355   2.890   4.363   4.582
11137TIP3    H133356   2.897   4.350   4.677
11137TIP3    H233357   2.797   4.353   4.562
11138TIP3   OH233358   1.338   2.220   1.959
11138TIP3    H133359   1.327   2.228   1.864
11138TIP3    H233360   1.428   2.247   1.975
11139TIP3   OH233361   8.041   4.833   0.720
11139TIP3    H133362   8.024   4.898   0.652
11139TIP3    H233363   8.136   4.820   0.718
11140TIP3   OH233364   3.899   1.684   5.352
11140TIP3    H133365   3.953   1.619   5.397
11140TIP3    H233366   3.888   1.754   5.417
11141TIP3   OH233367   2.922   2.915   3.007
11141TIP3    H133368   2.884   2.895   3.093
11141TIP3    H233369   2.877   2.856   2.947
11142TIP3   OH233370   2.721   2.545   5.129
11142TIP3    H133371   2.724   2.450   5.125
11142TIP3    H233372   2.628   2.567   5.123
11143TIP3   OH233373   1.005   1.156   1.367
11143TIP3    H133374   1.097   1.130   1.353
11143TIP3    H233375   0.955   1.090   1.318
11144TIP3   OH233376   1.284   4.882   6.161
11144TIP3    H133377   1.246   4.959   6.118
11144TIP3    H233378   1.303   4.911   6.250
11145TIP3   OH233379   5.332   3.292   5.081
11145TIP3    H133380   5.301   3.205   5.106
11145TIP3    H233381   5.346   3.338   5.164
11146TIP3   OH233382   5.958   2.005   0.216
11146TIP3    H133383   5.900   2.076   0.188
11146TIP3    H233384   6.045   2.033   0.186
11147TIP3   OH233385   2.705   7.232   5.507
11147TIP3    H133386   2.624   7.184   5.488
11147TIP3    H233387   2.743   7.248   5.420
11148TIP3   OH233388   3.965   6.551   0.531
11148TIP3    H133389   4.054   6.515   0.530
11148TIP3    H233390   3.908   6.474   0.532
11149TIP3   OH233391   2.874   6.039   3.405
11149TIP3    H133392   2.805   6.091   3.444
11149TIP3    H233393   2.955   6.086   3.427
11150TIP3   OH233394   1.956   6.568   4.143
11150TIP3    H133395   1.913   6.511   4.207
11150TIP3    H233396   1.894   6.639   4.128
11151TIP3   OH233397   6.610   4.570   3.751
11151TIP3    H133398   6.671   4.592   3.822
11151TIP3    H233399   6.663   4.573   3.672
11152TIP3   OH233400   3.429   7.842   6.529
11152TIP3    H133401   3.520   7.872   6.532
11152TIP3    H233402   3.432   7.762   6.476
11153TIP3   OH233403   4.755   7.071   6.546
11153TIP3    H133404   4.682   7.031   6.593
11153TIP3    H233405   4.832   7.049   6.598
11154TIP3   OH233406   6.521   2.196   3.251
11154TIP3    H133407   6.488   2.169   3.337
11154TIP3    H233408   6.443   2.224   3.203
11155TIP3   OH233409   8.075   6.587   4.640
11155TIP3    H133410   8.008   6.518   4.636
11155TIP3    H233411   8.025   6.668   4.630
11156TIP3   OH233412   3.890   3.290   2.307
11156TIP3    H133413   3.915   3.220   2.367
11156TIP3    H233414   3.805   3.321   2.340
11157TIP3   OH233415   1.895   6.629   2.650
11157TIP3    H133416   1.884   6.647   2.557
11157TIP3    H233417   1.974   6.574   2.655
11158TIP3   OH233418   5.977   6.355   5.442
11158TIP3    H133419   5.916   6.360   5.516
11158TIP3    H233420   5.922   6.335   5.366
11159TIP3   OH233421   5.926   7.741   1.489
11159TIP3    H133422   5.888   7.820   1.527
11159TIP3    H233423   5.859   7.709   1.428
11160TIP3   OH233424   4.234   7.851   0.489
11160TIP3    H133425   4.329   7.836   0.487
11160TIP3    H233426   4.200   7.782   0.545
11161TIP3   OH233427   2.920   1.731   5.040
11161TIP3    H133428   2.943   1.814   5.000
11161TIP3    H233429   2.866   1.687   4.975
11162TIP3   OH233430   5.248   6.624   4.952
11162TIP3    H133431   5.188   6.646   5.023
11162TIP3    H233432   5.331   6.667   4.976
11163TIP3   OH233433   2.352   3.321   0.624
11163TIP3    H133434   2.303   3.293   0.547
11163TIP3    H233435   2.345   3.248   0.685
11164TIP3   OH233436   1.991   6.329   0.741
11164TIP3    H133437   1.992   6.375   0.825
11164TIP3    H233438   1.946   6.247   0.759
11165TIP3   OH233439   4.676   5.528   2.609
11165TIP3    H133440   4.587   5.550   2.582
11165TIP3    H233441   4.708   5.608   2.651
11166TIP3   OH233442   8.080   5.954   3.942
11166TIP3    H133443   8.141   5.988   4.007
11166TIP3    H233444   8.095   6.008   3.864
11167TIP3   OH233445   1.672   3.247   0.428
11167TIP3    H133446   1.763   3.228   0.452
11167TIP3    H233447   1.677   3.327   0.376
11168TIP3   OH233448   7.866   2.751   5.930
11168TIP3    H133449   7.797   2.746   5.997
11168TIP3    H233450   7.822   2.790   5.854
11169TIP3   OH233451   5.059   0.362   3.119
11169TIP3    H133452   5.116   0.428   3.158
11169TIP3    H233453   5.116   0.286   3.107
11170TIP3   OH233454   7.291   1.165   3.479
11170TIP3    H133455   7.246   1.164   3.394
11170TIP3    H233456   7.384   1.171   3.456
11171TIP3   OH233457   8.143   7.580   2.926
11171TIP3    H133458   8.098   7.648   2.976
11171TIP3    H233459   8.079   7.550   2.862
11172TIP3   OH233460   6.746   2.459   5.237
11172TIP3    H133461   6.711   2.425   5.320
11172TIP3    H233462   6.781   2.382   5.192
11173TIP3   OH233463   0.941   1.129   2.825
11173TIP3    H133464   0.942   1.223   2.810
11173TIP3    H233465   0.880   1.116   2.898
11174TIP3   OH233466   4.382   6.454   6.334
11174TIP3    H133467   4.359   6.415   6.250
11174TIP3    H233468   4.457   6.403   6.365
11175TIP3   OH233469   7.671   6.803   1.214
11175TIP3    H133470   7.736   6.805   1.144
11175TIP3    H233471   7.596   6.757   1.176
11176TIP3   OH233472   2.906   4.431   1.400
11176TIP3    H133473   2.879   4.515   1.364
11176TIP3    H233474   2.962   4.453   1.474
11177TIP3   OH233475   6.939   2.092   4.761
11177TIP3    H133476   7.015   2.077   4.817
11177TIP3    H233477   6.883   2.151   4.811
11178TIP3   OH233478   3.866   5.435   4.432
11178TIP3    H133479   3.868   5.415   4.338
11178TIP3    H233480   3.794   5.382   4.466
11179TIP3   OH233481   5.118   6.365   4.446
11179TIP3    H133482   5.147   6.335   4.532
11179TIP3    H233483   5.032   6.324   4.435
11180TIP3   OH233484   3.363   2.461   5.872
11180TIP3    H133485   3.316   2.491   5.794
11180TIP3    H233486   3.407   2.381   5.844
11181TIP3   OH233487   0.860   4.159   0.157
11181TIP3    H133488   0.829   4.089   0.100
11181TIP3    H233489   0.950   4.136   0.177
11182TIP3   OH233490   1.534   6.437   5.180
11182TIP3    H133491   1.557   6.523   5.145
11182TIP3    H233492   1.582   6.430   5.262
11183TIP3   OH233493   5.283   1.747   3.972
11183TIP3    H133494   5.223   1.678   3.999
11183TIP3    H233495   5.251   1.775   3.886
11184TIP3   OH233496   7.780   5.423   3.563
11184TIP3    H133497   7.811   5.478   3.635
11184TIP3    H233498   7.845   5.435   3.494
11185TIP3   OH233499   4.444   3.255   1.749
11185TIP3    H133500   4.408   3.282   1.833
11185TIP3    H233501   4.417   3.164   1.739
11186TIP3   OH233502   5.754   3.259   2.938
11186TIP3    H133503   5.668   3.274   2.977
11186TIP3    H233504   5.816   3.287   3.006
11187TIP3   OH233505   0.414   4.878   3.769
11187TIP3    H133506   0.463   4.911   3.844
11187TIP3    H233507   0.356   4.811   3.805
11188TIP3   OH233508   1.716   1.709   5.094
11188TIP3    H133509   1.650   1.641   5.080
11188TIP3    H233510   1.760   1.683   5.175
11189TIP3   OH233511   0.833   7.226   1.942
11189TIP3    H133512   0.865   7.152   1.993
11189TIP3    H233513   0.895   7.297   1.959
11190TIP3   OH233514   8.112   4.348   2.621
11190TIP3    H133515   8.152   4.430   2.590
11190TIP3    H233516   8.076   4.308   2.542
11191TIP3   OH233517   5.569   3.304   5.970
11191TIP3    H133518   5.557   3.307   6.065
11191TIP3    H233519   5.493   3.257   5.937
11192TIP3   OH233520   4.975   2.707   4.342
11192TIP3    H133521   4.899   2.759   4.317
11192TIP3    H233522   5.047   2.744   4.290
11193TIP3   OH233523   6.390   5.921   2.625
11193TIP3    H133524   6.308   5.960   2.656
11193TIP3    H233525   6.414   5.974   2.549
11194TIP3   OH233526   7.347   2.178   3.734
11194TIP3    H133527   7.392   2.098   3.709
11194TIP3    H233528   7.329   2.168   3.827
11195TIP3   OH233529   7.498   1.189   0.691
11195TIP3    H133530   7.480   1.126   0.621
11195TIP3    H233531   7.560   1.144   0.749
11196TIP3   OH233532   6.235   3.135   1.788
11196TIP3    H133533   6.272   3.056   1.828
11196TIP3    H233534   6.218   3.111   1.697
11197TIP3   OH233535   2.618   4.321   1.077
11197TIP3    H133536   2.542   4.283   1.033
11197TIP3    H233537   2.619   4.413   1.050
11198TIP3   OH233538   2.264   5.137   1.080
11198TIP3    H133539   2.295   5.181   1.000
11198TIP3    H233540   2.314   5.055   1.083
11199TIP3   OH233541   0.398   2.523   4.207
11199TIP3    H133542   0.449   2.454   4.250
11199TIP3    H233543   0.335   2.475   4.153
11200TIP3   OH233544   6.312   0.284   3.729
11200TIP3    H133545   6.372   0.293   3.803
11200TIP3    H233546   6.346   0.210   3.679
11201TIP3   OH233547   8.238   0.389   5.968
11201TIP3    H133548   8.234   0.438   5.886
11201TIP3    H233549   8.331   0.370   5.980
11202TIP3   OH233550   4.809   7.061   5.823
11202TIP3    H133551   4.804   6.988   5.886
11202TIP3    H233552   4.900   7.061   5.795
11203TIP3   OH233553   1.921   4.584   3.902
11203TIP3    H133554   1.836   4.542   3.913
11203TIP3    H233555   1.983   4.524   3.942
11204TIP3   OH233556   0.198   5.218   0.265
11204TIP3    H133557   0.135   5.236   0.195
11204TIP3    H233558   0.147   5.172   0.332
11205TIP3   OH233559   5.127   5.598   2.298
11205TIP3    H133560   5.094   5.532   2.237
11205TIP3    H233561   5.217   5.614   2.269
11206TIP3   OH233562   4.832   6.111   2.332
11206TIP3    H133563   4.901   6.047   2.312
11206TIP3    H233564   4.815   6.099   2.426
11207TIP3   OH233565   8.296   3.555   5.881
11207TIP3    H133566   8.389   3.549   5.860
11207TIP3    H233567   8.257   3.595   5.804
11208TIP3   OH233568   5.201   0.524   1.041
11208TIP3    H133569   5.245   0.603   1.011
11208TIP3    H233570   5.219   0.459   0.973
11209TIP3   OH233571   7.052   0.087   1.129
11209TIP3    H133572   7.083   0.076   1.039
11209TIP3    H233573   7.100   0.163   1.162
11210TIP3   OH233574   6.818   3.398   4.352
11210TIP3    H133575   6.822   3.339   4.427
11210TIP3    H233576   6.807   3.341   4.276
11211TIP3   OH233577   0.953   2.309   0.075
11211TIP3    H133578   1.015   2.371   0.038
11211TIP3    H233579   0.952   2.236   0.013
11212TIP3   OH233580   5.744   1.127   5.552
11212TIP3    H133581   5.715   1.036   5.559
11212TIP3    H233582   5.829   1.128   5.596
11213TIP3   OH233583   3.353   7.595   2.948
11213TIP3    H133584   3.294   7.670   2.950
11213TIP3    H233585   3.360   7.572   2.855
11214TIP3   OH233586   1.315   2.248   2.370
11214TIP3    H133587   1.343   2.245   2.461
11214TIP3    H233588   1.361   2.175   2.328
11215TIP3   OH233589   5.889   6.893   4.932
11215TIP3    H133590   5.867   6.929   5.018
11215TIP3    H233591   5.985   6.895   4.930
11216TIP3   OH233592   1.385   0.594   3.115
11216TIP3    H133593   1.455   0.658   3.104
11216TIP3    H233594   1.314   0.643   3.157
11217TIP3   OH233595   0.798   0.281   3.870
11217TIP3    H133596   0.764   0.233   3.945
11217TIP3    H233597   0.728   0.340   3.845
11218TIP3   OH233598   4.611   6.939   3.074
11218TIP3    H133599   4.542   6.958   3.011
11218TIP3    H233600   4.566   6.928   3.158
11219TIP3   OH233601   2.417   1.345   3.226
11219TIP3    H133602   2.493   1.392   3.192
11219TIP3    H233603   2.436   1.333   3.319
11220TIP3   OH233604   3.840   2.737   3.083
11220TIP3    H133605   3.843   2.823   3.126
11220TIP3    H233606   3.755   2.734   3.040
11221TIP3   OH233607   6.687   4.670   5.892
11221TIP3    H133608   6.601   4.655   5.852
11221TIP3    H233609   6.749   4.628   5.832
11222TIP3   OH233610   5.976   4.308   5.856
11222TIP3    H133611   5.910   4.376   5.868
11222TIP3    H233612   5.925   4.227   5.851
11223TIP3   OH233613   7.303   6.078   6.466
11223TIP3    H133614   7.297   6.173   6.474
11223TIP3    H233615   7.363   6.063   6.393
11224TIP3   OH233616   5.729   5.531   3.433
11224TIP3    H133617   5.648   5.491   3.401
11224TIP3    H233618   5.776   5.459   3.476
11225TIP3   OH233619   8.148   1.331   2.372
11225TIP3    H133620   8.215   1.386   2.331
11225TIP3    H233621   8.182   1.242   2.364
11226TIP3   OH233622   6.458   4.135   0.807
11226TIP3    H133623   6.544   4.145   0.848
11226TIP3    H233624   6.396   4.169   0.871
11227TIP3   OH233625   1.927   5.284   3.664
11227TIP3    H133626   1.993   5.252   3.725
11227TIP3    H233627   1.975   5.338   3.601
11228TIP3   OH233628   4.176   0.226   2.689
11228TIP3    H133629   4.089   0.224   2.650
11228TIP3    H233630   4.162   0.199   2.780
11229TIP3   OH233631   5.111   3.181   5.855
11229TIP3    H133632   5.201   3.163   5.827
11229TIP3    H233633   5.057   3.124   5.801
11230TIP3   OH233634   1.471   2.835   0.622
11230TIP3    H133635   1.401   2.803   0.566
11230TIP3    H233636   1.542   2.772   0.609
11231TIP3   OH233637   7.797   7.169   6.250
11231TIP3    H133638   7.877   7.162   6.303
11231TIP3    H233639   7.822   7.132   6.165
11232TIP3   OH233640   2.621   3.579   0.452
11232TIP3    H133641   2.587   3.630   0.525
11232TIP3    H233642   2.633   3.491   0.487
11233TIP3   OH233643   6.064   4.748   1.335
11233TIP3    H133644   6.133   4.682   1.337
11233TIP3    H233645   6.097   4.818   1.392
11234TIP3   OH233646   4.137   1.004   2.265
11234TIP3    H133647   4.132   0.908   2.258
11234TIP3    H233648   4.088   1.036   2.189
11235TIP3   OH233649   4.841   1.415   2.746
11235TIP3    H133650   4.775   1.482   2.730
11235TIP3    H233651   4.813   1.340   2.693
11236TIP3   OH233652   1.618   6.277   4.971
11236TIP3    H133653   1.613   6.198   5.025
11236TIP3    H233654   1.587   6.347   5.029
11237TIP3   OH233655   3.670   0.188   5.469
11237TIP3    H133656   3.671   0.141   5.552
11237TIP3    H233657   3.678   0.120   5.402
11238TIP3   OH233658   7.657   6.579   2.694
11238TIP3    H133659   7.637   6.505   2.751
11238TIP3    H233660   7.606   6.563   2.615
11239TIP3   OH233661   1.647   4.385   0.662
11239TIP3    H133662   1.736   4.419   0.665
11239TIP3    H233663   1.657   4.290   0.666
11240TIP3   OH233664   4.648   5.463   3.741
11240TIP3    H133665   4.692   5.449   3.657
11240TIP3    H233666   4.711   5.433   3.807
11241TIP3   OH233667   0.466   2.109   4.977
11241TIP3    H133668   0.492   2.035   5.031
11241TIP3    H233669   0.380   2.085   4.941
11242TIP3   OH233670   1.371   7.175   5.655
11242TIP3    H133671   1.460   7.209   5.648
11242TIP3    H233672   1.349   7.146   5.566
11243TIP3   OH233673   2.446   3.604   5.521
11243TIP3    H133674   2.482   3.692   5.536
11243TIP3    H233675   2.357   3.620   5.490
11244TIP3   OH233676   3.418   1.648   4.325
11244TIP3    H133677   3.323   1.658   4.327
11244TIP3    H233678   3.433   1.577   4.262
11245TIP3   OH233679   5.780   6.430   5.620
11245TIP3    H133680   5.757   6.441   5.712
11245TIP3    H233681   5.781   6.519   5.585
11246TIP3   OH233682   0.689   5.049   5.634
11246TIP3    H133683   0.681   5.139   5.665
11246TIP3    H233684   0.599   5.016   5.634
11247TIP3   OH233685   4.798   1.556   6.012
11247TIP3    H133686   4.726   1.612   5.984
11247TIP3    H233687   4.820   1.504   5.935
11248TIP3   OH233688   4.279   7.097   3.783
11248TIP3    H133689   4.240   7.024   3.736
11248TIP3    H233690   4.299   7.063   3.870
11249TIP3   OH233691   6.864   1.668   2.001
11249TIP3    H133692   6.812   1.635   2.074
11249TIP3    H233693   6.877   1.592   1.944
11250TIP3   OH233694   6.462   1.057   2.574
11250TIP3    H133695   6.392   1.036   2.511
11250TIP3    H233696   6.450   1.150   2.593
11251TIP3   OH233697   5.866   4.971   4.610
11251TIP3    H133698   5.771   4.974   4.614
11251TIP3    H233699   5.894   4.966   4.701
11252TIP3   OH233700   5.544   2.585   2.477
11252TIP3    H133701   5.621   2.528   2.481
11252TIP3    H233702   5.482   2.539   2.420
11253TIP3   OH233703   2.121   7.325   1.052
11253TIP3    H133704   2.179   7.401   1.043
11253TIP3    H233705   2.063   7.348   1.125
11254TIP3   OH233706   5.809   7.439   1.814
11254TIP3    H133707   5.877   7.488   1.768
11254TIP3    H233708   5.753   7.506   1.853
11255TIP3   OH233709   3.173   5.595   1.516
11255TIP3    H133710   3.108   5.526   1.506
11255TIP3    H233711   3.123   5.676   1.521
11256TIP3   OH233712   1.234   2.095   5.988
11256TIP3    H133713   1.169   2.164   6.000
11256TIP3    H233714   1.188   2.014   6.013
11257TIP3   OH233715   8.159   1.678   0.412
11257TIP3    H133716   8.117   1.735   0.477
11257TIP3    H233717   8.238   1.647   0.455
11258TIP3   OH233718   3.862   3.673   2.469
11258TIP3    H133719   3.767   3.684   2.468
11258TIP3    H233720   3.876   3.579   2.481
11259TIP3   OH233721   3.851   3.052   5.208
11259TIP3    H133722   3.823   3.116   5.272
11259TIP3    H233723   3.770   3.007   5.181
11260TIP3   OH233724   2.481   1.064   4.225
11260TIP3    H133725   2.405   1.007   4.216
11260TIP3    H233726   2.444   1.148   4.253
11261TIP3   OH233727   2.147   4.757   0.449
11261TIP3    H133728   2.088   4.761   0.373
11261TIP3    H233729   2.234   4.747   0.411
11262TIP3   OH233730   6.499   0.238   3.289
11262TIP3    H133731   6.450   0.181   3.231
11262TIP3    H233732   6.438   0.257   3.361
11263TIP3   OH233733   2.404   5.486   2.132
11263TIP3    H133734   2.328   5.533   2.165
11263TIP3    H233735   2.386   5.394   2.151
11264TIP3   OH233736   8.032   1.497   5.890
11264TIP3    H133737   8.028   1.402   5.900
11264TIP3    H233738   8.097   1.526   5.954
11265TIP3   OH233739   0.865   0.003   5.324
11265TIP3    H133740   0.874   0.075   5.385
11265TIP3    H233741   0.937   0.015   5.262
11266TIP3   OH233742   5.299   4.958   4.200
11266TIP3    H133743   5.210   4.971   4.167
11266TIP3    H233744   5.349   5.031   4.163
11267TIP3   OH233745   1.949   6.354   1.205
11267TIP3    H133746   1.860   6.368   1.238
11267TIP3    H233747   2.006   6.390   1.273
11268TIP3   OH233748   0.218   1.484   3.888
11268TIP3    H133749   0.228   1.579   3.879
11268TIP3    H233750   0.302   1.448   3.857
11269TIP3   OH233751   4.003   0.423   0.814
11269TIP3    H133752   4.012   0.379   0.730
11269TIP3    H233753   3.941   0.495   0.798
11270TIP3   OH233754   3.836   2.737   2.452
11270TIP3    H133755   3.780   2.670   2.411
11270TIP3    H233756   3.807   2.740   2.543
11271TIP3   OH233757   3.031   3.424   1.685
11271TIP3    H133758   3.096   3.425   1.615
11271TIP3    H233759   2.948   3.405   1.641
11272TIP3   OH233760   0.225   5.658   2.395
11272TIP3    H133761   0.133   5.677   2.414
11272TIP3    H233762   0.250   5.723   2.329
11273TIP3   OH233763   3.816   0.605   2.623
11273TIP3    H133764   3.903   0.583   2.588
11273TIP3    H233765   3.830   0.616   2.717
11274TIP3   OH233766   0.720   7.156   3.012
11274TIP3    H133767   0.780   7.082   3.016
11274TIP3    H233768   0.684   7.162   3.100
11275TIP3   OH233769   2.228   1.149   3.368
11275TIP3    H133770   2.244   1.244   3.370
11275TIP3    H233771   2.260   1.121   3.282
11276TIP3   OH233772   1.361   4.822   2.060
11276TIP3    H133773   1.380   4.824   1.967
11276TIP3    H233774   1.406   4.899   2.095
11277TIP3   OH233775   7.464   7.804   3.650
11277TIP3    H133776   7.510   7.873   3.698
11277TIP3    H233777   7.533   7.751   3.611
11278TIP3   OH233778   3.852   1.070   5.274
11278TIP3    H133779   3.796   0.998   5.246
11278TIP3    H233780   3.938   1.049   5.237
11279TIP3   OH233781   2.681   5.348   4.369
11279TIP3    H133782   2.716   5.339   4.280
11279TIP3    H233783   2.752   5.390   4.418
11280TIP3   OH233784   1.469   2.674   2.205
11280TIP3    H133785   1.533   2.732   2.164
11280TIP3    H233786   1.388   2.724   2.206
11281TIP3   OH233787   3.468   1.599   3.108
11281TIP3    H133788   3.452   1.678   3.160
11281TIP3    H233789   3.404   1.605   3.036
11282TIP3   OH233790   4.102   5.823   3.547
11282TIP3    H133791   4.116   5.892   3.612
11282TIP3    H233792   4.130   5.863   3.464
11283TIP3   OH233793   0.851   4.674   2.148
11283TIP3    H133794   0.761   4.704   2.138
11283TIP3    H233795   0.877   4.705   2.235
11284TIP3   OH233796   0.200   7.475   3.073
11284TIP3    H133797   0.121   7.429   3.047
11284TIP3    H233798   0.271   7.415   3.052
11285TIP3   OH233799   2.877   2.734   4.969
11285TIP3    H133800   2.847   2.658   5.018
11285TIP3    H233801   2.852   2.716   4.878
11286TIP3   OH233802   1.255   6.738   4.130
11286TIP3    H133803   1.183   6.681   4.158
11286TIP3    H233804   1.326   6.679   4.109
11287TIP3   OH233805   6.388   6.545   0.075
11287TIP3    H133806   6.474   6.585   0.069
11287TIP3    H233807   6.396   6.482   0.147
11288TIP3   OH233808   4.915   1.530   0.595
11288TIP3    H133809   4.954   1.533   0.683
11288TIP3    H233810   4.973   1.474   0.544
11289TIP3   OH233811   6.194   6.206   0.799
11289TIP3    H133812   6.137   6.216   0.876
11289TIP3    H233813   6.133   6.188   0.728
11290TIP3   OH233814   6.693   5.020   5.890
11290TIP3    H133815   6.652   4.988   5.970
11290TIP3    H233816   6.784   5.038   5.915
11291TIP3   OH233817   5.316   2.187   5.098
11291TIP3    H133818   5.287   2.103   5.132
11291TIP3    H233819   5.294   2.184   5.004
11292TIP3   OH233820   1.365   4.488   3.701
11292TIP3    H133821   1.328   4.409   3.662
11292TIP3    H233822   1.302   4.513   3.768
11293TIP3   OH233823   7.650   2.241   0.893
11293TIP3    H133824   7.693   2.199   0.819
11293TIP3    H233825   7.559   2.211   0.888
11294TIP3   OH233826   3.118   7.397   4.971
11294TIP3    H133827   3.053   7.373   4.905
11294TIP3    H233828   3.193   7.430   4.920
11295TIP3   OH233829   4.023   7.578   3.609
11295TIP3    H133830   3.994   7.500   3.562
11295TIP3    H233831   4.017   7.554   3.702
11296TIP3   OH233832   5.202   4.381   4.097
11296TIP3    H133833   5.282   4.357   4.145
11296TIP3    H233834   5.196   4.476   4.107
11297TIP3   OH233835   8.192   3.904   5.446
11297TIP3    H133836   8.278   3.876   5.414
11297TIP3    H233837   8.206   3.921   5.539
11298TIP3   OH233838   2.187   6.570   2.271
11298TIP3    H133839   2.225   6.643   2.222
11298TIP3    H233840   2.182   6.601   2.361
11299TIP3   OH233841   6.901   2.652   4.013
11299TIP3    H133842   6.905   2.720   3.946
11299TIP3    H233843   6.825   2.599   3.989
11300TIP3   OH233844   5.785   6.909   3.354
11300TIP3    H133845   5.699   6.871   3.374
11300TIP3    H233846   5.844   6.872   3.420
11301TIP3   OH233847   1.542   7.273   4.432
11301TIP3    H133848   1.527   7.247   4.342
11301TIP3    H233849   1.463   7.246   4.479
11302TIP3   OH233850   5.961   7.172   0.789
11302TIP3    H133851   5.949   7.258   0.749
11302TIP3    H233852   6.022   7.127   0.731
11303TIP3   OH233853   0.195   2.348   0.243
11303TIP3    H133854   0.223   2.293   0.170
11303TIP3    H233855   0.102   2.364   0.226
11304TIP3   OH233856   5.988   5.989   1.522
11304TIP3    H133857   6.075   6.028   1.530
11304TIP3    H233858   6.002   5.909   1.471
11305TIP3   OH233859   6.939   2.143   2.090
11305TIP3    H133860   6.995   2.102   2.158
11305TIP3    H233861   6.872   2.190   2.140
11306TIP3   OH233862   2.191   6.836   2.077
11306TIP3    H133863   2.199   6.753   2.030
11306TIP3    H233864   2.100   6.863   2.061
11307TIP3   OH233865   0.315   4.493   5.182
11307TIP3    H133866   0.392   4.550   5.181
11307TIP3    H233867   0.268   4.514   5.101
11308TIP3   OH233868   5.168   1.173   5.887
11308TIP3    H133869   5.153   1.265   5.908
11308TIP3    H233870   5.146   1.166   5.794
11309TIP3   OH233871   6.897   4.544   2.229
11309TIP3    H133872   6.865   4.460   2.197
11309TIP3    H233873   6.892   4.602   2.154
11310TIP3   OH233874   2.531   4.066   5.082
11310TIP3    H133875   2.539   4.161   5.080
11310TIP3    H233876   2.521   4.040   4.990
11311TIP3   OH233877   4.060   1.574   0.466
11311TIP3    H133878   4.006   1.559   0.389
11311TIP3    H233879   4.033   1.660   0.499
11312TIP3   OH233880   0.887   4.629   3.240
11312TIP3    H133881   0.961   4.568   3.235
11312TIP3    H233882   0.823   4.585   3.296
11313TIP3   OH233883   4.094   4.002   3.820
11313TIP3    H133884   4.032   4.072   3.800
11313TIP3    H233885   4.162   4.011   3.754
11314TIP3   OH233886   1.681   7.557   6.206
11314TIP3    H133887   1.636   7.553   6.121
11314TIP3    H233888   1.664   7.472   6.246
11315TIP3   OH233889   4.356   2.061   6.434
11315TIP3    H133890   4.275   2.112   6.433
11315TIP3    H233891   4.392   2.074   6.522
11316TIP3   OH233892   2.039   6.086   4.888
11316TIP3    H133893   2.119   6.132   4.861
11316TIP3    H233894   1.973   6.115   4.824
11317TIP3   OH233895   2.273   3.422   1.375
11317TIP3    H133896   2.185   3.453   1.397
11317TIP3    H233897   2.315   3.405   1.459
11318TIP3   OH233898   6.571   2.108   5.604
11318TIP3    H133899   6.647   2.060   5.637
11318TIP3    H233900   6.510   2.039   5.577
11319TIP3   OH233901   8.240   4.904   5.841
11319TIP3    H133902   8.247   4.960   5.763
11319TIP3    H233903   8.294   4.828   5.821
11320TIP3   OH233904   1.525   7.016   3.192
11320TIP3    H133905   1.430   7.021   3.205
11320TIP3    H233906   1.560   7.084   3.249
11321TIP3   OH233907   5.169   3.032   5.179
11321TIP3    H133908   5.170   2.943   5.215
11321TIP3    H233909   5.142   3.020   5.088
11322TIP3   OH233910   3.296   2.981   0.582
11322TIP3    H133911   3.322   3.001   0.492
11322TIP3    H233912   3.226   2.917   0.574
11323TIP3   OH233913   1.816   4.537   3.483
11323TIP3    H133914   1.859   4.454   3.503
11323TIP3    H233915   1.867   4.602   3.530
11324TIP3   OH233916   6.012   7.596   1.720
11324TIP3    H133917   6.104   7.590   1.694
11324TIP3    H233918   5.968   7.633   1.644
11325TIP3   OH233919   5.380   3.539   5.768
11325TIP3    H133920   5.315   3.581   5.823
11325TIP3    H233921   5.330   3.476   5.716
11326TIP3   OH233922   7.704   2.012   2.703
11326TIP3    H133923   7.697   1.917   2.711
11326TIP3    H233924   7.728   2.028   2.612
11327TIP3   OH233925   4.052   3.061   6.706
11327TIP3    H133926   4.084   3.060   6.796
11327TIP3    H233927   3.979   3.123   6.707
11328TIP3   OH233928   2.836   6.939   3.714
11328TIP3    H133929   2.895   7.006   3.680
11328TIP3    H233930   2.893   6.867   3.739
11329TIP3   OH233931   5.867   4.418   6.618
11329TIP3    H133932   5.820   4.496   6.647
11329TIP3    H233933   5.922   4.448   6.545
11330TIP3   OH233934   2.893   7.800   1.863
11330TIP3    H133935   2.846   7.740   1.919
11330TIP3    H233936   2.971   7.824   1.913
11331TIP3   OH233937   3.579   0.253   5.956
11331TIP3    H133938   3.579   0.245   6.051
11331TIP3    H233939   3.560   0.345   5.939
11332TIP3   OH233940   2.108   6.132   0.277
11332TIP3    H133941   2.163   6.054   0.290
11332TIP3    H233942   2.171   6.202   0.260
11333TIP3   OH233943   5.583   4.335   6.646
11333TIP3    H133944   5.524   4.397   6.604
11333TIP3    H233945   5.668   4.351   6.605
11334TIP3   OH233946   7.559   5.698   2.663
11334TIP3    H133947   7.551   5.605   2.642
11334TIP3    H233948   7.509   5.742   2.594
11335TIP3   OH233949   0.547   5.608   1.419
11335TIP3    H133950   0.477   5.624   1.483
11335TIP3    H233951   0.518   5.653   1.340
11336TIP3   OH233952   6.812   0.437   6.638
11336TIP3    H133953   6.867   0.359   6.634
11336TIP3    H233954   6.869   0.505   6.674
11337TIP3   OH233955   0.488   0.237   2.294
11337TIP3    H133956   0.523   0.212   2.208
11337TIP3    H233957   0.523   0.172   2.354
11338TIP3   OH233958   1.029   2.578   2.743
11338TIP3    H133959   1.093   2.626   2.795
11338TIP3    H233960   0.946   2.588   2.791
11339TIP3   OH233961   0.137   4.616   6.450
11339TIP3    H133962   0.147   4.705   6.483
11339TIP3    H233963   0.173   4.620   6.362
11340TIP3   OH233964   4.732   2.195   3.361
11340TIP3    H133965   4.696   2.283   3.366
11340TIP3    H233966   4.676   2.143   3.419
11341TIP3   OH233967   8.130   3.719   0.782
11341TIP3    H133968   8.182   3.786   0.738
11341TIP3    H233969   8.139   3.738   0.875
11342TIP3   OH233970   7.868   4.006   4.812
11342TIP3    H133971   7.860   3.924   4.862
11342TIP3    H233972   7.857   3.979   4.721
11343TIP3   OH233973   4.886   7.312   2.461
11343TIP3    H133974   4.846   7.226   2.471
11343TIP3    H233975   4.962   7.311   2.519
11344TIP3   OH233976   1.115   1.132   5.019
11344TIP3    H133977   1.108   1.190   4.943
11344TIP3    H233978   1.209   1.118   5.030
11345TIP3   OH233979   5.859   1.676   4.463
11345TIP3    H133980   5.813   1.652   4.383
11345TIP3    H233981   5.938   1.721   4.432
11346TIP3   OH233982   8.170   0.659   6.158
11346TIP3    H133983   8.220   0.610   6.093
11346TIP3    H233984   8.115   0.718   6.106
11347TIP3   OH233985   4.003   3.485   3.573
11347TIP3    H133986   3.994   3.517   3.483
11347TIP3    H233987   3.929   3.525   3.620
11348TIP3   OH233988   5.140   5.954   5.029
11348TIP3    H133989   5.197   5.996   4.964
11348TIP3    H233990   5.052   5.962   4.992
11349TIP3   OH233991   7.419   0.874   0.956
11349TIP3    H133992   7.350   0.908   1.013
11349TIP3    H233993   7.454   0.798   1.003
11350TIP3   OH233994   1.019   7.379   4.085
11350TIP3    H133995   1.004   7.284   4.093
11350TIP3    H233996   0.963   7.406   4.013
11351TIP3   OH233997   6.583   7.098   1.469
11351TIP3    H133998   6.569   7.142   1.553
11351TIP3    H233999   6.616   7.011   1.493
11352TIP3   OH234000   1.387   4.728   3.344
11352TIP3    H134001   1.322   4.742   3.275
11352TIP3    H234002   1.372   4.639   3.374
11353TIP3   OH234003   6.172   0.528   3.100
11353TIP3    H134004   6.203   0.456   3.045
11353TIP3    H234005   6.241   0.594   3.093
11354TIP3   OH234006   5.324   3.116   2.857
11354TIP3    H134007   5.412   3.128   2.821
11354TIP3    H234008   5.339   3.071   2.940
11355TIP3   OH234009   2.242   2.021   4.373
11355TIP3    H134010   2.216   2.106   4.338
11355TIP3    H234011   2.303   2.042   4.444
11356TIP3   OH234012   6.122   5.123   0.686
11356TIP3    H134013   6.158   5.046   0.730
11356TIP3    H234014   6.029   5.120   0.704
11357TIP3   OH234015   4.185   7.654   1.388
11357TIP3    H134016   4.169   7.578   1.330
11357TIP3    H234017   4.224   7.616   1.466
11358TIP3   OH234018   0.960   6.042   2.021
11358TIP3    H134019   0.870   6.074   2.035
11358TIP3    H234020   0.985   6.078   1.936
11359TIP3   OH234021   0.306   4.966   5.164
11359TIP3    H134022   0.360   4.898   5.123
11359TIP3    H234023   0.254   4.920   5.229
11360TIP3   OH234024   6.405   7.106   2.190
11360TIP3    H134025   6.379   7.028   2.141
11360TIP3    H234026   6.417   7.076   2.280
11361TIP3   OH234027   2.366   0.742   2.378
11361TIP3    H134028   2.279   0.780   2.389
11361TIP3    H234029   2.395   0.774   2.293
11362TIP3   OH234030   0.285   6.189   5.768
11362TIP3    H134031   0.261   6.112   5.717
11362TIP3    H234032   0.203   6.237   5.778
11363TIP3   OH234033   5.775   7.167   4.886
11363TIP3    H134034   5.682   7.182   4.903
11363TIP3    H234035   5.789   7.075   4.906
11364TIP3   OH234036   5.538   3.999   6.371
11364TIP3    H134037   5.604   4.054   6.330
11364TIP3    H234038   5.587   3.940   6.428
11365TIP3   OH234039   3.693   4.750   0.794
11365TIP3    H134040   3.717   4.842   0.809
11365TIP3    H234041   3.668   4.747   0.702
11366TIP3   OH234042   5.198   4.925   2.397
11366TIP3    H134043   5.271   4.869   2.421
11366TIP3    H234044   5.121   4.868   2.400
11367TIP3   OH234045   2.789   0.056   6.180
11367TIP3    H134046   2.724   0.108   6.228
11367TIP3    H234047   2.833   0.005   6.247
11368TIP3   OH234048   5.813   6.999   3.732
11368TIP3    H134049   5.774   6.935   3.673
11368TIP3    H234050   5.759   7.078   3.721
11369TIP3   OH234051   2.463   2.697   3.784
11369TIP3    H134052   2.546   2.742   3.800
11369TIP3    H234053   2.455   2.634   3.856
11370TIP3   OH234054   3.083   3.047   5.269
11370TIP3    H134055   3.060   3.019   5.358
11370TIP3    H234056   3.084   2.966   5.218
11371TIP3   OH234057   2.116   2.762   6.330
11371TIP3    H134058   2.124   2.707   6.407
11371TIP3    H234059   2.204   2.763   6.292
11372TIP3   OH234060   1.985   3.866   0.429
11372TIP3    H134061   1.902   3.841   0.387
11372TIP3    H234062   2.049   3.866   0.357
11373TIP3   OH234063   4.709   6.983   0.632
11373TIP3    H134064   4.681   6.926   0.561
11373TIP3    H234065   4.730   6.924   0.704
11374TIP3   OH234066   2.068   3.155   5.604
11374TIP3    H134067   1.985   3.196   5.628
11374TIP3    H234068   2.049   3.061   5.602
11375TIP3   OH234069   1.904   6.153   3.952
11375TIP3    H134070   1.928   6.220   3.888
11375TIP3    H234071   1.957   6.174   4.029
11376TIP3   OH234072   3.961   7.242   6.591
11376TIP3    H134073   3.944   7.169   6.531
11376TIP3    H234074   4.006   7.307   6.538
11377TIP3   OH234075   2.790   3.033   0.448
11377TIP3    H134076   2.876   3.076   0.438
11377TIP3    H234077   2.750   3.079   0.521
11378TIP3   OH234078   2.711   0.970   0.164
11378TIP3    H134079   2.777   0.902   0.179
11378TIP3    H234080   2.743   1.046   0.213
11379TIP3   OH234081   5.861   6.901   2.400
11379TIP3    H134082   5.817   6.906   2.315
11379TIP3    H234083   5.954   6.906   2.380
11380TIP3   OH234084   0.043   4.489   2.388
11380TIP3    H134085   0.071   4.487   2.296
11380TIP3    H234086   0.114   4.446   2.435
11381TIP3   OH234087   6.924   4.084   0.177
11381TIP3    H134088   6.960   4.165   0.214
11381TIP3    H234089   6.830   4.090   0.192
11382TIP3   OH234090   4.943   1.653   3.482
11382TIP3    H134091   5.024   1.704   3.481
11382TIP3    H234092   4.876   1.716   3.510
11383TIP3   OH234093   6.495   3.745   5.940
11383TIP3    H134094   6.428   3.749   5.871
11383TIP3    H234095   6.496   3.833   5.977
11384TIP3   OH234096   7.303   2.472   0.932
11384TIP3    H134097   7.250   2.392   0.940
11384TIP3    H234098   7.353   2.476   1.013
11385TIP3   OH234099   7.593   0.789   1.365
11385TIP3    H134100   7.567   0.730   1.436
11385TIP3    H234101   7.610   0.872   1.408
11386TIP3   OH234102   7.309   2.319   4.812
11386TIP3    H134103   7.278   2.288   4.727
11386TIP3    H234104   7.385   2.265   4.832
11387TIP3   OH234105   6.508   6.457   0.795
11387TIP3    H134106   6.600   6.481   0.793
11387TIP3    H234107   6.508   6.361   0.788
11388TIP3   OH234108   6.349   1.919   1.383
11388TIP3    H134109   6.436   1.878   1.384
11388TIP3    H234110   6.289   1.848   1.406
11389TIP3   OH234111   7.899   4.992   1.985
11389TIP3    H134112   7.849   4.918   1.949
11389TIP3    H234113   7.985   4.955   2.006
11390TIP3   OH234114   7.184   1.836   3.141
11390TIP3    H134115   7.219   1.810   3.056
11390TIP3    H234116   7.133   1.915   3.122
11391TIP3   OH234117   7.040   1.782   4.995
11391TIP3    H134118   7.060   1.740   4.912
11391TIP3    H234119   7.077   1.869   4.988
11392TIP3   OH234120   2.071   2.750   3.126
11392TIP3    H134121   2.138   2.739   3.059
11392TIP3    H234122   2.011   2.815   3.089
11393TIP3   OH234123   1.582   0.403   2.335
11393TIP3    H134124   1.510   0.386   2.274
11393TIP3    H234125   1.549   0.473   2.392
11394TIP3   OH234126   0.145   1.956   2.833
11394TIP3    H134127   0.058   1.962   2.795
11394TIP3    H234128   0.195   2.026   2.791
11395TIP3   OH234129   8.284   7.357   2.978
11395TIP3    H134130   8.232   7.432   3.006
11395TIP3    H234131   8.280   7.359   2.882
11396TIP3   OH234132   7.725   6.847   0.880
11396TIP3    H134133   7.688   6.761   0.904
11396TIP3    H234134   7.648   6.903   0.867
11397TIP3   OH234135   5.994   3.575   1.258
11397TIP3    H134136   5.914   3.539   1.296
11397TIP3    H234137   5.983   3.563   1.163
11398TIP3   OH234138   0.768   6.349   4.043
11398TIP3    H134139   0.846   6.337   4.097
11398TIP3    H234140   0.696   6.315   4.096
11399TIP3   OH234141   2.158   1.273   2.355
11399TIP3    H134142   2.230   1.334   2.370
11399TIP3    H234143   2.156   1.260   2.260
11400TIP3   OH234144   2.583   5.814   4.906
11400TIP3    H134145   2.653   5.875   4.883
11400TIP3    H234146   2.506   5.869   4.915
11401TIP3   OH234147   2.695   4.704   3.720
11401TIP3    H134148   2.610   4.674   3.689
11401TIP3    H234149   2.725   4.635   3.780
11402TIP3   OH234150   1.170   3.943   6.308
11402TIP3    H134151   1.121   4.024   6.295
11402TIP3    H234152   1.253   3.958   6.263
11403TIP3   OH234153   4.707   7.228   2.148
11403TIP3    H134154   4.738   7.140   2.170
11403TIP3    H234155   4.642   7.247   2.216
11404TIP3   OH234156   3.897   7.594   6.528
11404TIP3    H134157   3.949   7.633   6.458
11404TIP3    H234158   3.816   7.646   6.529
11405TIP3   OH234159   5.134   7.310   2.636
11405TIP3    H134160   5.095   7.309   2.724
11405TIP3    H234161   5.152   7.403   2.620
11406TIP3   OH234162   1.903   4.813   4.373
11406TIP3    H134163   1.927   4.721   4.381
11406TIP3    H234164   1.841   4.816   4.301
11407TIP3   OH234165   6.193   5.850   0.998
11407TIP3    H134166   6.112   5.899   0.982
11407TIP3    H234167   6.172   5.760   0.973
11408TIP3   OH234168   4.007   4.464   1.236
11408TIP3    H134169   4.030   4.400   1.303
11408TIP3    H234170   4.091   4.487   1.195
11409TIP3   OH234171   6.301   4.785   2.282
11409TIP3    H134172   6.380   4.797   2.334
11409TIP3    H234173   6.295   4.865   2.229
11410TIP3   OH234174   0.463   4.434   4.105
11410TIP3    H134175   0.382   4.392   4.075
11410TIP3    H234176   0.517   4.362   4.138
11411TIP3   OH234177   1.441   1.431   0.271
11411TIP3    H134178   1.390   1.468   0.342
11411TIP3    H234179   1.531   1.457   0.290
11412TIP3   OH234180   2.524   1.771   2.991
11412TIP3    H134181   2.598   1.765   2.930
11412TIP3    H234182   2.498   1.681   3.007
11413TIP3   OH234183   6.137   5.630   5.389
11413TIP3    H134184   6.227   5.662   5.387
11413TIP3    H234185   6.092   5.682   5.323
11414TIP3   OH234186   7.877   0.402   4.345
11414TIP3    H134187   7.946   0.398   4.278
11414TIP3    H234188   7.795   0.406   4.295
11415TIP3   OH234189   2.634   0.200   1.100
11415TIP3    H134190   2.620   0.109   1.075
11415TIP3    H234191   2.674   0.196   1.187
11416TIP3   OH234192   6.772   4.343   0.013
11416TIP3    H134193   6.701   4.354   0.076
11416TIP3    H234194   6.761   4.255  -0.022
11417TIP3   OH234195   1.945   0.081   0.013
11417TIP3    H134196   1.998   0.121   0.083
11417TIP3    H234197   1.872   0.142   0.001
11418TIP3   OH234198   4.416   5.583   4.952
11418TIP3    H134199   4.348   5.645   4.928
11418TIP3    H234200   4.494   5.612   4.905
11419TIP3   OH234201   8.077   7.187   4.718
11419TIP3    H134202   8.131   7.236   4.781
11419TIP3    H234203   8.092   7.095   4.741
11420TIP3   OH234204   0.688   6.562   1.474
11420TIP3    H134205   0.759   6.623   1.453
11420TIP3    H234206   0.652   6.596   1.556
11421TIP3   OH234207   6.058   3.453   4.505
11421TIP3    H134208   6.085   3.445   4.414
11421TIP3    H234209   6.025   3.366   4.528
11422TIP3   OH234210   2.732   7.197   5.225
11422TIP3    H134211   2.702   7.154   5.144
11422TIP3    H234212   2.818   7.233   5.202
11423TIP3   OH234213   4.233   5.059   4.606
11423TIP3    H134214   4.254   5.152   4.604
11423TIP3    H234215   4.286   5.024   4.677
11424TIP3   OH234216   4.285   1.009   6.508
11424TIP3    H134217   4.197   1.009   6.547
11424TIP3    H234218   4.297   0.919   6.477
11425TIP3   OH234219   4.446   0.545   1.918
11425TIP3    H134220   4.412   0.505   1.838
11425TIP3    H234221   4.491   0.624   1.889
11426TIP3   OH234222   0.695   6.605   3.924
11426TIP3    H134223   0.749   6.533   3.955
11426TIP3    H234224   0.647   6.635   4.001
11427TIP3   OH234225   6.090   3.954   4.547
11427TIP3    H134226   6.057   3.871   4.581
11427TIP3    H234227   6.127   3.933   4.462
11428TIP3   OH234228   1.059   0.351   3.835
11428TIP3    H134229   1.039   0.444   3.853
11428TIP3    H234230   0.975   0.307   3.845
11429TIP3   OH234231   5.406   0.365   1.286
11429TIP3    H134232   5.445   0.279   1.298
11429TIP3    H234233   5.420   0.385   1.193
11430TIP3   OH234234   4.921   0.268   3.339
11430TIP3    H134235   4.844   0.227   3.300
11430TIP3    H234236   4.964   0.311   3.265
11431TIP3   OH234237   0.879   0.915   3.114
11431TIP3    H134238   0.880   0.849   3.044
11431TIP3    H234239   0.962   0.962   3.104
11432TIP3   OH234240   5.724   4.888   3.051
11432TIP3    H134241   5.645   4.838   3.070
11432TIP3    H234242   5.783   4.826   3.007
11433TIP3   OH234243   1.259   3.705   2.419
11433TIP3    H134244   1.253   3.784   2.474
11433TIP3    H234245   1.286   3.738   2.333
11434TIP3   OH234246   7.535   0.658   3.843
11434TIP3    H134247   7.460   0.601   3.859
11434TIP3    H234248   7.576   0.668   3.930
11435TIP3   OH234249   1.077   4.032   1.371
11435TIP3    H134250   1.145   4.100   1.372
11435TIP3    H234251   1.001   4.074   1.330
11436TIP3   OH234252   6.445   7.721   1.148
11436TIP3    H134253   6.481   7.797   1.103
11436TIP3    H234254   6.522   7.671   1.176
11437TIP3   OH234255   0.315   5.033   0.878
11437TIP3    H134256   0.392   5.087   0.895
11437TIP3    H234257   0.253   5.092   0.835
11438TIP3   OH234258   0.477   0.079   0.641
11438TIP3    H134259   0.401   0.029   0.668
11438TIP3    H234260   0.545   0.014   0.626
11439TIP3   OH234261   0.180   2.105   6.388
11439TIP3    H134262   0.219   2.040   6.330
11439TIP3    H234263   0.162   2.180   6.331
11440TIP3   OH234264   4.788   5.789   0.027
11440TIP3    H134265   4.850   5.861   0.034
11440TIP3    H234266   4.705   5.831   0.004
11441TIP3   OH234267   4.818   4.181   6.083
11441TIP3    H134268   4.841   4.180   6.177
11441TIP3    H234269   4.882   4.122   6.043
11442TIP3   OH234270   8.152   3.485   6.539
11442TIP3    H134271   8.188   3.482   6.628
11442TIP3    H234272   8.227   3.468   6.482
11443TIP3   OH234273   6.738   3.455   3.926
11443TIP3    H134274   6.752   3.513   4.001
11443TIP3    H234275   6.675   3.390   3.957
11444TIP3   OH234276   5.489   2.137   6.275
11444TIP3    H134277   5.439   2.073   6.225
11444TIP3    H234278   5.438   2.152   6.354
11445TIP3   OH234279   7.822   0.384   0.476
11445TIP3    H134280   7.871   0.391   0.394
11445TIP3    H234281   7.784   0.470   0.490
11446TIP3   OH234282   6.522   1.326   2.759
11446TIP3    H134283   6.430   1.333   2.734
11446TIP3    H234284   6.524   1.259   2.828
11447TIP3   OH234285   6.788   0.736   1.683
11447TIP3    H134286   6.866   0.779   1.717
11447TIP3    H234287   6.800   0.644   1.706
11448TIP3   OH234288   7.155   5.084   4.877
11448TIP3    H134289   7.206   5.061   4.954
11448TIP3    H234290   7.146   5.180   4.881
11449TIP3   OH234291   3.555   3.206   3.944
11449TIP3    H134292   3.566   3.157   3.863
11449TIP3    H234293   3.636   3.257   3.953
11450TIP3   OH234294   0.673   1.376   6.441
11450TIP3    H134295   0.713   1.427   6.371
11450TIP3    H234296   0.734   1.304   6.458
11451TIP3   OH234297   7.239   3.620   1.898
11451TIP3    H134298   7.279   3.667   1.972
11451TIP3    H234299   7.219   3.533   1.932
11452TIP3   OH234300   2.158   0.206   2.237
11452TIP3    H134301   2.135   0.283   2.184
11452TIP3    H234302   2.152   0.237   2.328
11453TIP3   OH234303   7.744   2.406   4.821
11453TIP3    H134304   7.650   2.411   4.837
11453TIP3    H234305   7.753   2.408   4.726
11454TIP3   OH234306   8.223   0.211   3.618
11454TIP3    H134307   8.253   0.221   3.528
11454TIP3    H234308   8.129   0.229   3.614
11455TIP3   OH234309   7.073   0.401   1.066
11455TIP3    H134310   7.077   0.459   0.990
11455TIP3    H234311   6.981   0.400   1.091
11456TIP3   OH234312   0.662   0.931   1.611
11456TIP3    H134313   0.584   0.891   1.572
11456TIP3    H234314   0.627   1.002   1.665
11457TIP3   OH234315   1.323   5.955   0.034
11457TIP3    H134316   1.310   5.914   0.119
11457TIP3    H234317   1.371   5.889  -0.017
11458TIP3   OH234318   6.667   7.207   5.575
11458TIP3    H134319   6.723   7.157   5.635
11458TIP3    H234320   6.600   7.144   5.547
11459TIP3   OH234321   3.717   4.998   2.195
11459TIP3    H134322   3.734   5.091   2.211
11459TIP3    H234323   3.781   4.953   2.250
11460TIP3   OH234324   7.731   4.984   1.619
11460TIP3    H134325   7.642   4.988   1.584
11460TIP3    H234326   7.734   4.903   1.668
11461TIP3   OH234327   0.712   4.083   0.408
11461TIP3    H134328   0.706   4.124   0.322
11461TIP3    H234329   0.633   4.114   0.454
11462TIP3   OH234330   7.246   1.835   5.488
11462TIP3    H134331   7.237   1.742   5.465
11462TIP3    H234332   7.239   1.836   5.583
11463TIP3   OH234333   5.474   1.660   1.978
11463TIP3    H134334   5.515   1.736   1.937
11463TIP3    H234335   5.407   1.698   2.036
11464TIP3   OH234336   8.071   2.882   5.369
11464TIP3    H134337   8.114   2.967   5.381
11464TIP3    H234338   8.142   2.820   5.356
11465TIP3   OH234339   1.474   1.738   1.262
11465TIP3    H134340   1.529   1.729   1.185
11465TIP3    H234341   1.409   1.804   1.239
11466TIP3   OH234342   7.022   1.372   6.261
11466TIP3    H134343   7.002   1.346   6.351
11466TIP3    H234344   7.047   1.464   6.268
11467TIP3   OH234345   4.270   2.551   5.122
11467TIP3    H134346   4.326   2.614   5.076
11467TIP3    H234347   4.229   2.603   5.191
11468TIP3   OH234348   3.501   5.594   3.318
11468TIP3    H134349   3.460   5.514   3.285
11468TIP3    H234350   3.543   5.567   3.400
11469TIP3   OH234351   3.204   3.358   3.342
11469TIP3    H134352   3.177   3.381   3.431
11469TIP3    H234353   3.273   3.294   3.354
11470TIP3   OH234354   2.899   1.726   0.928
11470TIP3    H134355   2.887   1.821   0.940
11470TIP3    H234356   2.928   1.695   1.014
11471TIP3   OH234357   4.084   1.213   4.282
11471TIP3    H134358   4.124   1.126   4.274
11471TIP3    H234359   4.140   1.258   4.345
11472TIP3   OH234360   2.670   3.844   3.494
11472TIP3    H134361   2.617   3.890   3.429
11472TIP3    H234362   2.752   3.825   3.449
11473TIP3   OH234363   3.915   7.114   0.624
11473TIP3    H134364   3.909   7.204   0.656
11473TIP3    H234365   3.945   7.123   0.534
11474TIP3   OH234366   6.877   2.160   3.790
11474TIP3    H134367   6.869   2.186   3.698
11474TIP3    H234368   6.887   2.065   3.787
11475TIP3   OH234369   7.287   7.280   2.124
11475TIP3    H134370   7.371   7.282   2.078
11475TIP3    H234371   7.288   7.360   2.177
11476TIP3   OH234372   1.354   6.727   0.434
11476TIP3    H134373   1.338   6.819   0.451
11476TIP3    H234374   1.348   6.685   0.520
11477TIP3   OH234375   1.754   4.559   6.365
11477TIP3    H134376   1.682   4.605   6.322
11477TIP3    H234377   1.790   4.503   6.296
11478TIP3   OH234378   1.653   5.084   1.324
11478TIP3    H134379   1.610   5.157   1.369
11478TIP3    H234380   1.598   5.008   1.345
11479TIP3   OH234381   5.269   5.987   5.278
11479TIP3    H134382   5.310   5.901   5.269
11479TIP3    H234383   5.208   5.992   5.204
11480TIP3   OH234384   1.416   7.751   3.042
11480TIP3    H134385   1.460   7.766   3.125
11480TIP3    H234386   1.403   7.656   3.038
11481TIP3   OH234387   0.187   4.965   3.597
11481TIP3    H134388   0.113   4.904   3.589
11481TIP3    H234389   0.239   4.930   3.669
11482TIP3   OH234390   6.769   0.520   4.816
11482TIP3    H134391   6.733   0.435   4.791
11482TIP3    H234392   6.854   0.499   4.855
11483TIP3   OH234393   0.865   4.945   2.452
11483TIP3    H134394   0.786   4.902   2.420
11483TIP3    H234395   0.844   4.971   2.542
11484TIP3   OH234396   2.285   2.090   4.758
11484TIP3    H134397   2.227   2.013   4.748
11484TIP3    H234398   2.237   2.148   4.817
11485TIP3   OH234399   7.499   4.914   1.978
11485TIP3    H134400   7.503   4.890   1.886
11485TIP3    H234401   7.568   4.979   1.989
11486TIP3   OH234402   7.098   7.687   3.287
11486TIP3    H134403   7.069   7.660   3.201
11486TIP3    H234404   7.090   7.609   3.342
11487TIP3   OH234405   5.415   7.576   6.756
11487TIP3    H134406   5.472   7.639   6.713
11487TIP3    H234407   5.329   7.618   6.756
11488TIP3   OH234408   2.595   5.283   0.398
11488TIP3    H134409   2.626   5.352   0.339
11488TIP3    H234410   2.599   5.203   0.346
11489TIP3   OH234411   7.778   3.167   3.541
11489TIP3    H134412   7.854   3.208   3.498
11489TIP3    H234413   7.751   3.097   3.482
11490TIP3   OH234414   1.301   6.455   3.660
11490TIP3    H134415   1.262   6.431   3.577
11490TIP3    H234416   1.387   6.492   3.636
11491TIP3   OH234417   4.977   2.755   5.051
11491TIP3    H134418   4.916   2.786   4.985
11491TIP3    H234419   5.020   2.679   5.011
11492TIP3   OH234420   5.857   1.956   1.226
11492TIP3    H134421   5.850   1.861   1.237
11492TIP3    H234422   5.952   1.972   1.223
11493TIP3   OH234423   8.132   1.016   2.923
11493TIP3    H134424   8.196   0.949   2.946
11493TIP3    H234425   8.174   1.099   2.945
11494TIP3   OH234426   5.487   7.492   0.215
11494TIP3    H134427   5.541   7.515   0.139
11494TIP3    H234428   5.524   7.545   0.286
11495TIP3   OH234429   0.430   1.343   6.313
11495TIP3    H134430   0.392   1.255   6.309
11495TIP3    H234431   0.525   1.328   6.317
11496TIP3   OH234432   1.396   3.670   1.975
11496TIP3    H134433   1.464   3.697   2.037
11496TIP3    H234434   1.412   3.725   1.898
11497TIP3   OH234435   4.138   3.797   4.783
11497TIP3    H134436   4.202   3.819   4.851
11497TIP3    H234437   4.095   3.880   4.763
11498TIP3   OH234438   5.212   3.764   5.957
11498TIP3    H134439   5.247   3.809   6.034
11498TIP3    H234440   5.162   3.691   5.994
11499TIP3   OH234441   6.104   6.069   5.438
11499TIP3    H134442   6.070   6.159   5.437
11499TIP3    H234443   6.030   6.017   5.468
11500TIP3   OH234444   6.818   2.488   4.867
11500TIP3    H134445   6.826   2.422   4.936
11500TIP3    H234446   6.777   2.443   4.794
11501TIP3   OH234447   5.746   4.603   2.293
11501TIP3    H134448   5.703   4.633   2.373
11501TIP3    H234449   5.801   4.530   2.322
11502TIP3   OH234450   5.268   0.511   2.874
11502TIP3    H134451   5.338   0.514   2.938
11502TIP3    H234452   5.191   0.546   2.919
11503TIP3   OH234453   2.693   4.076   4.354
11503TIP3    H134454   2.664   4.162   4.385
11503TIP3    H234455   2.766   4.096   4.295
11504TIP3   OH234456   1.144   1.908   0.513
11504TIP3    H134457   1.071   1.926   0.453
11504TIP3    H234458   1.104   1.860   0.586
11505TIP3   OH234459   6.871   1.963   6.015
11505TIP3    H134460   6.910   2.049   6.030
11505TIP3    H234461   6.910   1.906   6.081
11506TIP3   OH234462   6.183   1.269   4.729
11506TIP3    H134463   6.274   1.296   4.731
11506TIP3    H234464   6.146   1.300   4.811
11507TIP3   OH234465   1.463   3.225   4.113
11507TIP3    H134466   1.512   3.285   4.169
11507TIP3    H234467   1.469   3.140   4.157
11508TIP3   OH234468   7.600   4.581   2.277
11508TIP3    H134469   7.645   4.541   2.352
11508TIP3    H234470   7.670   4.619   2.225
11509TIP3   OH234471   7.193   6.279   0.695
11509TIP3    H134472   7.274   6.266   0.745
11509TIP3    H234473   7.148   6.195   0.701
11510TIP3   OH234474   3.071   2.151   6.013
11510TIP3    H134475   3.114   2.066   6.007
11510TIP3    H234476   3.135   2.207   6.056
11511TIP3   OH234477   7.880   4.650   2.605
11511TIP3    H134478   7.846   4.579   2.550
11511TIP3    H234479   7.926   4.605   2.676
11512TIP3   OH234480   6.837   5.768   5.639
11512TIP3    H134481   6.931   5.748   5.642
11512TIP3    H234482   6.809   5.737   5.553
11513TIP3   OH234483   4.505   6.584   5.604
11513TIP3    H134484   4.574   6.519   5.617
11513TIP3    H234485   4.438   6.538   5.555
11514TIP3   OH234486   3.748   7.085   5.081
11514TIP3    H134487   3.683   7.156   5.079
11514TIP3    H234488   3.700   7.011   5.119
11515TIP3   OH234489   3.847   5.228   2.796
11515TIP3    H134490   3.816   5.308   2.755
11515TIP3    H234491   3.835   5.243   2.890
11516TIP3   OH234492   3.717   7.379   3.788
11516TIP3    H134493   3.731   7.464   3.747
11516TIP3    H234494   3.649   7.337   3.735
11517TIP3   OH234495   0.238   2.316   5.458
11517TIP3    H134496   0.175   2.378   5.422
11517TIP3    H234497   0.187   2.264   5.520
11518TIP3   OH234498   5.009   2.615   4.602
11518TIP3    H134499   4.985   2.669   4.527
11518TIP3    H234500   4.980   2.527   4.579
11519TIP3   OH234501   5.289   5.130   1.351
11519TIP3    H134502   5.328   5.217   1.366
11519TIP3    H234503   5.196   5.148   1.338
11520TIP3   OH234504   7.264   6.492   6.171
11520TIP3    H134505   7.306   6.577   6.186
11520TIP3    H234506   7.266   6.481   6.076
11521TIP3   OH234507   4.874   1.059   3.134
11521TIP3    H134508   4.904   0.969   3.146
11521TIP3    H234509   4.796   1.051   3.079
11522TIP3   OH234510   7.025   6.803   6.585
11522TIP3    H134511   7.004   6.865   6.515
11522TIP3    H234512   7.028   6.857   6.664
11523TIP3   OH234513   2.351   7.685   2.179
11523TIP3    H134514   2.267   7.709   2.140
11523TIP3    H234515   2.349   7.723   2.266
11524TIP3   OH234516   4.761   2.238   3.802
11524TIP3    H134517   4.801   2.280   3.726
11524TIP3    H234518   4.668   2.234   3.781
11525TIP3   OH234519   7.713   1.704   5.716
11525TIP3    H134520   7.777   1.650   5.669
11525TIP3    H234521   7.716   1.670   5.806
11526TIP3   OH234522   3.359   4.920   3.881
11526TIP3    H134523   3.316   4.964   3.807
11526TIP3    H234524   3.426   4.865   3.842
11527TIP3   OH234525   5.324   7.089   4.287
11527TIP3    H134526   5.312   7.120   4.377
11527TIP3    H234527   5.400   7.031   4.292
11528TIP3   OH234528   7.580   5.926   4.083
11528TIP3    H134529   7.552   6.016   4.099
11528TIP3    H234530   7.649   5.933   4.017
11529TIP3   OH234531   2.699   7.422   1.492
11529TIP3    H134532   2.636   7.495   1.495
11529TIP3    H234533   2.783   7.464   1.475
11530TIP3   OH234534   5.158   4.231   5.869
11530TIP3    H134535   5.099   4.156   5.865
11530TIP3    H234536   5.183   4.238   5.961
11531TIP3   OH234537   1.751   4.507   0.323
11531TIP3    H134538   1.681   4.572   0.325
11531TIP3    H234539   1.811   4.534   0.392
11532TIP3   OH234540   7.620   5.460   1.805
11532TIP3    H134541   7.639   5.410   1.725
11532TIP3    H234542   7.649   5.550   1.784
11533TIP3   OH234543   2.211   5.920   2.177
11533TIP3    H134544   2.290   5.887   2.134
11533TIP3    H234545   2.183   5.994   2.124
11534TIP3   OH234546   8.148   6.120   4.285
11534TIP3    H134547   8.210   6.156   4.222
11534TIP3    H234548   8.192   6.042   4.319
11535TIP3   OH234549   5.744   7.184   3.399
11535TIP3    H134550   5.754   7.089   3.408
11535TIP3    H234551   5.804   7.220   3.465
11536TIP3   OH234552   7.509   7.490   4.548
11536TIP3    H134553   7.427   7.449   4.575
11536TIP3    H234554   7.573   7.419   4.547
11537TIP3   OH234555   8.086   4.559   2.306
11537TIP3    H134556   8.036   4.487   2.347
11537TIP3    H234557   8.173   4.553   2.346
11538TIP3   OH234558   6.082   7.006   0.627
11538TIP3    H134559   6.121   6.979   0.544
11538TIP3    H234560   6.023   6.934   0.650
11539TIP3   OH234561   7.424   2.954   0.199
11539TIP3    H134562   7.446   2.869   0.161
11539TIP3    H234563   7.341   2.977   0.158
11540TIP3   OH234564   3.779   2.402   6.394
11540TIP3    H134565   3.731   2.484   6.388
11540TIP3    H234566   3.869   2.428   6.414
11541TIP3   OH234567   0.911   4.321   6.008
11541TIP3    H134568   0.982   4.352   6.064
11541TIP3    H234569   0.910   4.381   5.934
11542TIP3   OH234570   2.199   0.874   2.818
11542TIP3    H134571   2.263   0.885   2.889
11542TIP3    H234572   2.247   0.827   2.750
11543TIP3   OH234573   2.183   7.009   2.318
11543TIP3    H134574   2.239   6.964   2.255
11543TIP3    H234575   2.243   7.040   2.385
11544TIP3   OH234576   2.310   5.207   2.883
11544TIP3    H134577   2.269   5.125   2.909
11544TIP3    H234578   2.277   5.271   2.947
11545TIP3   OH234579   5.535   1.315   5.458
11545TIP3    H134580   5.621   1.301   5.498
11545TIP3    H234581   5.552   1.325   5.365
11546TIP3   OH234582   4.829   5.498   2.365
11546TIP3    H134583   4.789   5.520   2.450
11546TIP3    H234584   4.861   5.408   2.377
11547TIP3   OH234585   5.435   2.058   2.791
11547TIP3    H134586   5.342   2.077   2.777
11547TIP3    H234587   5.436   1.993   2.861
11548TIP3   OH234588   2.446   0.207   2.139
11548TIP3    H134589   2.378   0.261   2.097
11548TIP3    H234590   2.525   0.224   2.088
11549TIP3   OH234591   4.355   2.470   0.373
11549TIP3    H134592   4.342   2.555   0.331
11549TIP3    H234593   4.273   2.453   0.420
11550TIP3   OH234594   4.972   4.767   2.398
11550TIP3    H134595   4.943   4.774   2.489
11550TIP3    H234596   4.903   4.811   2.348
11551TIP3   OH234597   0.286   3.808   0.936
11551TIP3    H134598   0.272   3.783   0.844
11551TIP3    H234599   0.219   3.874   0.954
11552TIP3   OH234600   3.775   4.238   0.519
11552TIP3    H134601   3.680   4.225   0.509
11552TIP3    H234602   3.785   4.278   0.605
11553TIP3   OH234603   6.507   2.285   6.225
11553TIP3    H134604   6.512   2.368   6.177
11553TIP3    H234605   6.436   2.299   6.288
11554TIP3   OH234606   2.527   4.552   6.714
11554TIP3    H134607   2.535   4.546   6.619
11554TIP3    H234608   2.515   4.461   6.743
11555TIP3   OH234609   0.906   5.548   5.589
11555TIP3    H134610   0.819   5.564   5.552
11555TIP3    H234611   0.920   5.623   5.648
11556TIP3   OH234612   7.310   7.355   5.653
11556TIP3    H134613   7.300   7.352   5.749
11556TIP3    H234614   7.381   7.417   5.639
11557TIP3   OH234615   4.707   2.890   1.603
11557TIP3    H134616   4.732   2.808   1.645
11557TIP3    H234617   4.744   2.884   1.515
11558TIP3   OH234618   2.641   0.927   2.359
11558TIP3    H134619   2.605   1.015   2.367
11558TIP3    H234620   2.587   0.885   2.292
11559TIP3   OH234621   4.768   5.821   5.673
11559TIP3    H134622   4.818   5.805   5.593
11559TIP3    H234623   4.823   5.881   5.724
11560TIP3   OH234624   2.579   0.639   3.920
11560TIP3    H134625   2.665   0.599   3.909
11560TIP3    H234626   2.548   0.653   3.830
11561TIP3   OH234627   4.099   0.421   1.364
11561TIP3    H134628   4.071   0.391   1.278
11561TIP3    H234629   4.195   0.413   1.363
11562TIP3   OH234630   7.002   0.832   5.300
11562TIP3    H134631   7.009   0.737   5.303
11562TIP3    H234632   6.916   0.849   5.264
11563TIP3   OH234633   5.620   2.664   6.407
11563TIP3    H134634   5.713   2.647   6.425
11563TIP3    H234635   5.577   2.581   6.426
11564TIP3   OH234636   3.453   0.676   5.040
11564TIP3    H134637   3.544   0.650   5.048
11564TIP3    H234638   3.405   0.594   5.032
11565TIP3   OH234639   7.739   2.995   0.332
11565TIP3    H134640   7.748   3.066   0.267
11565TIP3    H234641   7.687   2.928   0.287
11566TIP3   OH234642   8.109   2.675   3.796
11566TIP3    H134643   8.061   2.662   3.878
11566TIP3    H234644   8.161   2.754   3.810
11567TIP3   OH234645   0.837   0.049   4.824
11567TIP3    H134646   0.797   0.111   4.885
11567TIP3    H234647   0.790   0.062   4.742
11568TIP3   OH234648   6.448   4.272   5.951
11568TIP3    H134649   6.430   4.326   6.028
11568TIP3    H234650   6.421   4.184   5.977
11569TIP3   OH234651   7.904   3.915   3.631
11569TIP3    H134652   7.941   3.842   3.581
11569TIP3    H234653   7.833   3.875   3.681
11570TIP3   OH234654   4.989   5.399   3.109
11570TIP3    H134655   4.947   5.449   3.179
11570TIP3    H234656   5.039   5.331   3.155
11571TIP3   OH234657   3.872   7.144   4.255
11571TIP3    H134658   3.807   7.195   4.303
11571TIP3    H234659   3.827   7.114   4.176
11572TIP3   OH234660   7.016   5.506   2.817
11572TIP3    H134661   6.984   5.516   2.907
11572TIP3    H234662   6.941   5.471   2.769
11573TIP3   OH234663   7.831   4.399   6.607
11573TIP3    H134664   7.740   4.377   6.587
11573TIP3    H234665   7.876   4.315   6.611
11574TIP3   OH234666   6.293   1.356   0.184
11574TIP3    H134667   6.346   1.434   0.200
11574TIP3    H234668   6.262   1.367   0.094
11575TIP3   OH234669   2.791   7.751   4.252
11575TIP3    H134670   2.765   7.826   4.198
11575TIP3    H234671   2.880   7.773   4.282
11576TIP3   OH234672   0.757   5.964   4.249
11576TIP3    H134673   0.690   5.937   4.186
11576TIP3    H234674   0.749   6.059   4.254
11577TIP3   OH234675   0.383   1.383   5.367
11577TIP3    H134676   0.402   1.299   5.409
11577TIP3    H234677   0.289   1.381   5.351
11578TIP3   OH234678   3.004   7.268   5.235
11578TIP3    H134679   3.018   7.284   5.141
11578TIP3    H234680   3.086   7.230   5.266
11579TIP3   OH234681   7.075   6.957   5.767
11579TIP3    H134682   7.086   6.871   5.727
11579TIP3    H234683   7.142   7.012   5.724
11580TIP3   OH234684   6.152   1.324   0.634
11580TIP3    H134685   6.211   1.300   0.562
11580TIP3    H234686   6.198   1.395   0.679
11581TIP3   OH234687   8.088   5.594   4.228
11581TIP3    H134688   8.152   5.656   4.264
11581TIP3    H234689   8.009   5.647   4.213
11582TIP3   OH234690   2.610   6.185   0.777
11582TIP3    H134691   2.658   6.126   0.719
11582TIP3    H234692   2.557   6.127   0.831
11583TIP3   OH234693   0.316   1.952   3.055
11583TIP3    H134694   0.258   1.953   2.980
11583TIP3    H234695   0.391   2.007   3.029
11584TIP3   OH234696   7.352   7.515   1.904
11584TIP3    H134697   7.353   7.574   1.980
11584TIP3    H234698   7.445   7.502   1.883
11585TIP3   OH234699   6.143   2.278   0.355
11585TIP3    H134700   6.173   2.280   0.265
11585TIP3    H234701   6.211   2.325   0.404
11586TIP3   OH234702   1.622   0.063   0.561
11586TIP3    H134703   1.668  -0.016   0.532
11586TIP3    H234704   1.590   0.103   0.481
11587TIP3   OH234705   3.105   3.123   4.420
11587TIP3    H134706   3.190   3.085   4.399
11587TIP3    H234707   3.055   3.115   4.339
11588TIP3   OH234708   2.896   2.730   2.320
11588TIP3    H134709   2.929   2.681   2.396
11588TIP3    H234710   2.937   2.816   2.328
11589TIP3   OH234711   0.087   5.132   2.789
11589TIP3    H134712   0.038   5.195   2.736
11589TIP3    H234713   0.102   5.178   2.872
11590TIP3   OH234714   4.578   5.468   2.940
11590TIP3    H134715   4.496   5.476   2.891
11590TIP3    H234716   4.570   5.531   3.012
11591TIP3   OH234717   6.824   2.006   5.555
11591TIP3    H134718   6.839   1.914   5.574
11591TIP3    H234719   6.856   2.018   5.465
11592TIP3   OH234720   2.553   5.554   3.398
11592TIP3    H134721   2.648   5.557   3.405
11592TIP3    H234722   2.537   5.506   3.316
11593TIP3   OH234723   7.870   3.729   6.333
11593TIP3    H134724   7.821   3.653   6.364
11593TIP3    H234725   7.934   3.746   6.402
11594TIP3   OH234726   1.160   1.958   4.536
11594TIP3    H134727   1.099   1.931   4.468
11594TIP3    H234728   1.146   1.896   4.607
11595TIP3   OH234729   2.218   7.413   2.876
11595TIP3    H134730   2.127   7.430   2.898
11595TIP3    H234731   2.267   7.478   2.927
11596TIP3   OH234732   5.274   0.189   3.137
11596TIP3    H134733   5.358   0.201   3.093
11596TIP3    H234734   5.274   0.255   3.207
11597TIP3   OH234735   4.764   5.162   5.022
11597TIP3    H134736   4.771   5.078   4.976
11597TIP3    H234737   4.711   5.141   5.099
11598TIP3   OH234738   5.374   6.018   6.253
11598TIP3    H134739   5.384   6.111   6.277
11598TIP3    H234740   5.292   5.991   6.293
11599TIP3   OH234741   0.281   2.377   2.993
11599TIP3    H134742   0.324   2.308   3.045
11599TIP3    H234743   0.344   2.449   2.993
11600TIP3   OH234744   7.791   4.776   1.265
11600TIP3    H134745   7.795   4.680   1.270
11600TIP3    H234746   7.863   4.807   1.319
11601TIP3   OH234747   7.971   4.929   3.624
11601TIP3    H134748   7.964   4.994   3.554
11601TIP3    H234749   7.880   4.904   3.642
11602TIP3   OH234750   4.460   5.845   2.747
11602TIP3    H134751   4.456   5.889   2.832
11602TIP3    H234752   4.549   5.810   2.743
11603TIP3   OH234753   7.161   6.162   4.446
11603TIP3    H134754   7.128   6.161   4.356
11603TIP3    H234755   7.177   6.070   4.466
11604TIP3   OH234756   3.727   7.628   3.625
11604TIP3    H134757   3.743   7.620   3.531
11604TIP3    H234758   3.814   7.624   3.665
11605TIP3   OH234759   0.208   2.809   6.315
11605TIP3    H134760   0.184   2.870   6.385
11605TIP3    H234761   0.295   2.838   6.288
11606TIP3   OH234762   6.905   6.994   1.069
11606TIP3    H134763   6.981   7.044   1.098
11606TIP3    H234764   6.880   6.941   1.145
11607TIP3   OH234765   7.769   6.632   2.005
11607TIP3    H134766   7.758   6.718   1.964
11607TIP3    H234767   7.694   6.623   2.064
11608TIP3   OH234768   4.017   4.819   0.799
11608TIP3    H134769   4.017   4.874   0.721
11608TIP3    H234770   4.035   4.731   0.766
11609TIP3   OH234771   7.274   6.906   0.416
11609TIP3    H134772   7.226   6.832   0.453
11609TIP3    H234773   7.306   6.954   0.492
11610TIP3   OH234774   1.031   3.680   3.581
11610TIP3    H134775   1.107   3.734   3.599
11610TIP3    H234776   0.997   3.655   3.667
11611TIP3   OH234777   6.154   6.693   1.450
11611TIP3    H134778   6.208   6.770   1.465
11611TIP3    H234779   6.072   6.727   1.415
11612TIP3   OH234780   2.480   2.516   3.984
11612TIP3    H134781   2.450   2.426   3.976
11612TIP3    H234782   2.541   2.516   4.058
11613TIP3   OH234783   6.067   1.001   5.552
11613TIP3    H134784   6.024   0.916   5.548
11613TIP3    H234785   6.158   0.983   5.528
11614TIP3   OH234786   2.323   6.177   6.599
11614TIP3    H134787   2.333   6.243   6.667
11614TIP3    H234788   2.250   6.122   6.628
11615TIP3   OH234789   6.893   6.574   0.377
11615TIP3    H134790   6.862   6.646   0.321
11615TIP3    H234791   6.874   6.495   0.327
11616TIP3   OH234792   1.483   0.090   6.172
11616TIP3    H134793   1.456   0.108   6.262
11616TIP3    H234794   1.403   0.061   6.129
11617TIP3   OH234795   3.708   6.857   4.703
11617TIP3    H134796   3.782   6.894   4.656
11617TIP3    H234797   3.630   6.892   4.660
11618TIP3   OH234798   7.380   1.447   1.871
11618TIP3    H134799   7.430   1.526   1.856
11618TIP3    H234800   7.446   1.378   1.882
11619TIP3   OH234801   1.728   5.782   2.204
11619TIP3    H134802   1.796   5.816   2.262
11619TIP3    H234803   1.705   5.856   2.148
11620TIP3   OH234804   4.608   1.746   1.866
11620TIP3    H134805   4.547   1.672   1.872
11620TIP3    H234806   4.556   1.816   1.826
11621TIP3   OH234807   2.618   2.179   6.293
11621TIP3    H134808   2.666   2.261   6.287
11621TIP3    H234809   2.543   2.198   6.350
11622TIP3   OH234810   2.919   1.471   4.795
11622TIP3    H134811   2.992   1.413   4.771
11622TIP3    H234812   2.844   1.436   4.745
11623TIP3   OH234813   5.306   5.074   5.772
11623TIP3    H134814   5.218   5.041   5.788
11623TIP3    H234815   5.314   5.151   5.828
11624TIP3   OH234816   0.194   7.684   3.881
11624TIP3    H134817   0.206   7.605   3.828
11624TIP3    H234818   0.121   7.663   3.939
11625TIP3   OH234819   7.524   7.076   2.196
11625TIP3    H134820   7.541   7.148   2.135
11625TIP3    H234821   7.582   7.094   2.271
11626TIP3   OH234822   6.996   0.642   2.335
11626TIP3    H134823   6.922   0.598   2.375
11626TIP3    H234824   7.030   0.700   2.404
11627TIP3   OH234825   2.717   3.534   4.701
11627TIP3    H134826   2.804   3.526   4.741
11627TIP3    H234827   2.674   3.451   4.721
11628TIP3   OH234828   7.581   1.367   1.526
11628TIP3    H134829   7.531   1.323   1.595
11628TIP3    H234830   7.526   1.441   1.500
11629TIP3   OH234831   0.149   1.482   5.267
11629TIP3    H134832   0.154   1.536   5.189
11629TIP3    H234833   0.062   1.443   5.263
11630TIP3   OH234834   2.485   3.986   0.902
11630TIP3    H134835   2.423   3.948   0.840
11630TIP3    H234836   2.563   3.931   0.895
11631TIP3   OH234837   0.446   4.623   1.378
11631TIP3    H134838   0.365   4.672   1.395
11631TIP3    H234839   0.428   4.572   1.300
11632TIP3   OH234840   6.420   3.354   1.616
11632TIP3    H134841   6.353   3.304   1.570
11632TIP3    H234842   6.373   3.425   1.659
11633TIP3   OH234843   5.733   7.014   3.081
11633TIP3    H134844   5.657   7.071   3.071
11633TIP3    H234845   5.735   6.993   3.174
11634TIP3   OH234846   1.979   0.411   0.762
11634TIP3    H134847   1.956   0.500   0.736
11634TIP3    H234848   1.990   0.415   0.857
11635TIP3   OH234849   3.699   5.763   0.106
11635TIP3    H134850   3.678   5.804   0.021
11635TIP3    H234851   3.779   5.713   0.089
11636TIP3   OH234852   7.141   4.738   2.796
11636TIP3    H134853   7.075   4.782   2.742
11636TIP3    H234854   7.190   4.683   2.734
11637TIP3   OH234855   3.498   4.516   5.325
11637TIP3    H134856   3.483   4.590   5.266
11637TIP3    H234857   3.521   4.443   5.268
11638TIP3   OH234858   2.211   2.396   5.274
11638TIP3    H134859   2.197   2.409   5.367
11638TIP3    H234860   2.160   2.318   5.252
11639TIP3   OH234861   1.772   5.544   3.366
11639TIP3    H134862   1.828   5.480   3.323
11639TIP3    H234863   1.703   5.562   3.302
11640TIP3   OH234864   2.101   2.761   0.532
11640TIP3    H134865   2.155   2.717   0.466
11640TIP3    H234866   2.150   2.751   0.614
11641TIP3   OH234867   5.830   3.216   5.744
11641TIP3    H134868   5.771   3.142   5.760
11641TIP3    H234869   5.771   3.289   5.723
11642TIP3   OH234870   7.921   5.673   1.182
11642TIP3    H134871   8.007   5.704   1.153
11642TIP3    H234872   7.938   5.636   1.269
11643TIP3   OH234873   1.190   7.341   0.120
11643TIP3    H134874   1.117   7.335   0.182
11643TIP3    H234875   1.154   7.309   0.037
11644TIP3   OH234876   2.926   6.647   1.787
11644TIP3    H134877   2.916   6.558   1.753
11644TIP3    H234878   3.009   6.646   1.835
11645TIP3   OH234879   4.283   3.755   3.504
11645TIP3    H134880   4.280   3.833   3.559
11645TIP3    H234881   4.291   3.790   3.415
11646TIP3   OH234882   6.444   1.019   4.707
11646TIP3    H134883   6.386   1.093   4.729
11646TIP3    H234884   6.532   1.054   4.717
11647TIP3   OH234885   3.927   2.219   0.785
11647TIP3    H134886   3.900   2.311   0.783
11647TIP3    H234887   4.001   2.218   0.845
11648TIP3   OH234888   5.932   4.360   5.146
11648TIP3    H134889   5.962   4.318   5.065
11648TIP3    H234890   5.913   4.288   5.206
11649TIP3   OH234891   0.479   4.302   5.587
11649TIP3    H134892   0.438   4.218   5.606
11649TIP3    H234893   0.549   4.310   5.652
11650TIP3   OH234894   3.465   3.694   3.129
11650TIP3    H134895   3.556   3.721   3.139
11650TIP3    H234896   3.442   3.654   3.213
11651TIP3   OH234897   6.704   7.003   0.200
11651TIP3    H134898   6.681   7.063   0.271
11651TIP3    H234899   6.712   7.059   0.123
11652TIP3   OH234900   2.687   6.333   0.078
11652TIP3    H134901   2.748   6.280   0.129
11652TIP3    H234902   2.719   6.328  -0.012
11653TIP3   OH234903   0.787   4.722   3.562
11653TIP3    H134904   0.790   4.818   3.562
11653TIP3    H234905   0.711   4.701   3.508
11654TIP3   OH234906   1.000   2.876   0.426
11654TIP3    H134907   0.975   2.815   0.495
11654TIP3    H234908   0.917   2.901   0.385
11655TIP3   OH234909   5.395   2.779   1.250
11655TIP3    H134910   5.437   2.735   1.323
11655TIP3    H234911   5.390   2.713   1.181
11656TIP3   OH234912   0.588   7.537   2.084
11656TIP3    H134913   0.612   7.555   2.175
11656TIP3    H234914   0.503   7.492   2.090
11657TIP3   OH234915   6.839   6.761   0.181
11657TIP3    H134916   6.790   6.843   0.196
11657TIP3    H234917   6.917   6.789   0.133
11658TIP3   OH234918   2.049   1.423   5.889
11658TIP3    H134919   2.073   1.456   5.803
11658TIP3    H234920   2.077   1.332   5.889
11659TIP3   OH234921   0.210   7.607   1.389
11659TIP3    H134922   0.284   7.666   1.402
11659TIP3    H234923   0.245   7.520   1.403
11660TIP3   OH234924   1.266   1.682   4.415
11660TIP3    H134925   1.280   1.762   4.466
11660TIP3    H234926   1.182   1.649   4.447
11661TIP3   OH234927   3.506   1.444   1.642
11661TIP3    H134928   3.512   1.362   1.691
11661TIP3    H234929   3.424   1.437   1.593
11662TIP3   OH234930   4.945   5.840   6.160
11662TIP3    H134931   4.992   5.796   6.231
11662TIP3    H234932   4.937   5.773   6.092
11663TIP3   OH234933   7.655   3.824   2.366
11663TIP3    H134934   7.594   3.873   2.421
11663TIP3    H234935   7.720   3.889   2.340
11664TIP3   OH234936   4.097   5.207   6.196
11664TIP3    H134937   4.187   5.237   6.209
11664TIP3    H234938   4.075   5.163   6.279
11665TIP3   OH234939   5.812   6.143   1.848
11665TIP3    H134940   5.774   6.097   1.923
11665TIP3    H234941   5.884   6.086   1.820
11666TIP3   OH234942   6.736   0.935   3.261
11666TIP3    H134943   6.741   0.840   3.248
11666TIP3    H234944   6.734   0.945   3.357
11667TIP3   OH234945   8.069   7.219   0.883
11667TIP3    H134946   7.977   7.193   0.891
11667TIP3    H234947   8.066   7.309   0.849
11668TIP3   OH234948   6.690   1.057   5.909
11668TIP3    H134949   6.761   1.094   5.857
11668TIP3    H234950   6.728   1.046   5.997
11669TIP3   OH234951   2.949   5.718   4.674
11669TIP3    H134952   2.880   5.779   4.647
11669TIP3    H234953   3.010   5.717   4.600
11670TIP3   OH234954   2.821   5.743   1.048
11670TIP3    H134955   2.908   5.746   1.086
11670TIP3    H234956   2.784   5.660   1.077
11671TIP3   OH234957   3.023   7.172   6.021
11671TIP3    H134958   2.932   7.153   6.042
11671TIP3    H234959   3.022   7.196   5.928
11672TIP3   OH234960   0.551   2.329   3.417
11672TIP3    H134961   0.493   2.366   3.352
11672TIP3    H234962   0.606   2.402   3.445
11673TIP3   OH234963   0.561   5.284   6.731
11673TIP3    H134964   0.513   5.201   6.734
11673TIP3    H234965   0.589   5.292   6.640
11674TIP3   OH234966   0.736   0.877   3.356
11674TIP3    H134967   0.786   0.893   3.276
11674TIP3    H234968   0.801   0.883   3.426
11675TIP3   OH234969   6.080   1.781   3.369
11675TIP3    H134970   6.030   1.714   3.414
11675TIP3    H234971   6.172   1.758   3.384
11676TIP3   OH234972   5.264   3.060   1.404
11676TIP3    H134973   5.201   3.114   1.451
11676TIP3    H234974   5.217   3.030   1.326
11677TIP3   OH234975   3.198   2.895   6.395
11677TIP3    H134976   3.241   2.817   6.430
11677TIP3    H234977   3.104   2.875   6.398
11678TIP3   OH234978   7.715   7.088   5.026
11678TIP3    H134979   7.725   7.177   5.060
11678TIP3    H234980   7.800   7.048   5.038
11679TIP3   OH234981   1.511   3.677   0.014
11679TIP3    H134982   1.484   3.768   0.010
11679TIP3    H234983   1.433   3.629   0.042
11680TIP3   OH234984   4.923   4.831   0.380
11680TIP3    H134985   4.966   4.902   0.428
11680TIP3    H234986   4.841   4.869   0.348
11681TIP3   OH234987   5.756   6.598   2.018
11681TIP3    H134988   5.796   6.512   2.012
11681TIP3    H234989   5.665   6.585   1.991
11682TIP3   OH234990   5.396   6.142   2.700
11682TIP3    H134991   5.429   6.214   2.754
11682TIP3    H234992   5.453   6.141   2.624
11683TIP3   OH234993   2.731   2.075   0.849
11683TIP3    H134994   2.683   2.042   0.925
11683TIP3    H234995   2.728   2.003   0.786
11684TIP3   OH234996   0.207   4.042   0.046
11684TIP3    H134997   0.276   4.090   0.000
11684TIP3    H234998   0.236   3.951   0.044
11685TIP3   OH234999   6.567   2.491   6.057
11685TIP3    H135000   6.513   2.445   5.993
11685TIP3    H235001   6.552   2.584   6.038
11686TIP3   OH235002   3.574   2.387   6.706
11686TIP3    H135003   3.630   2.450   6.753
11686TIP3    H235004   3.634   2.338   6.650
11687TIP3   OH235005   7.038   3.683   4.558
11687TIP3    H135006   7.117   3.722   4.597
11687TIP3    H235007   6.980   3.668   4.633
11688TIP3   OH235008   8.283   7.411   3.763
11688TIP3    H135009   8.234   7.336   3.730
11688TIP3    H235010   8.265   7.412   3.857
11689TIP3   OH235011   1.212   5.642   5.526
11689TIP3    H135012   1.143   5.630   5.591
11689TIP3    H235013   1.275   5.573   5.545
11690TIP3   OH235014   6.054   0.359   2.695
11690TIP3    H135015   6.019   0.299   2.629
11690TIP3    H235016   6.108   0.420   2.645
11691TIP3   OH235017   0.547   7.491   3.311
11691TIP3    H135018   0.452   7.499   3.301
11691TIP3    H235019   0.558   7.451   3.398
11692TIP3   OH235020   7.695   4.130   3.566
11692TIP3    H135021   7.663   4.203   3.618
11692TIP3    H235022   7.790   4.131   3.578
11693TIP3   OH235023   0.078   5.113   1.590
11693TIP3    H135024   0.065   5.208   1.582
11693TIP3    H235025   0.147   5.104   1.655
11694TIP3   OH235026   1.113   7.033   2.313
11694TIP3    H135027   1.022   7.056   2.292
11694TIP3    H235028   1.122   6.942   2.284
11695TIP3   OH235029   0.649   2.161   6.435
11695TIP3    H135030   0.594   2.108   6.377
11695TIP3    H235031   0.617   2.250   6.425
11696TIP3   OH235032   5.413   4.339   2.088
11696TIP3    H135033   5.445   4.249   2.090
11696TIP3    H235034   5.477   4.386   2.035
11697TIP3   OH235035   2.167   0.083   6.304
11697TIP3    H135036   2.260   0.085   6.284
11697TIP3    H235037   2.135   0.004   6.260
11698TIP3   OH235038   7.935   2.744   1.767
11698TIP3    H135039   8.019   2.746   1.813
11698TIP3    H235040   7.932   2.657   1.726
11699TIP3   OH235041   5.650   5.781   4.076
11699TIP3    H135042   5.602   5.796   4.157
11699TIP3    H235043   5.670   5.687   4.077
11700TIP3   OH235044   5.569   5.732   6.027
11700TIP3    H135045   5.546   5.824   6.013
11700TIP3    H235046   5.625   5.710   5.953
11701TIP3   OH235047   5.129   1.017   0.627
11701TIP3    H135048   5.076   0.966   0.566
11701TIP3    H235049   5.114   0.976   0.712
11702TIP3   OH235050   8.243   5.808   3.630
11702TIP3    H135051   8.156   5.847   3.626
11702TIP3    H235052   8.261   5.780   3.540
11703TIP3   OH235053   6.515   1.121   2.939
11703TIP3    H135054   6.484   1.035   2.909
11703TIP3    H235055   6.495   1.122   3.033
11704TIP3   OH235056   6.787   6.903   0.498
11704TIP3    H135057   6.763   6.863   0.582
11704TIP3    H235058   6.709   6.892   0.443
11705TIP3   OH235059   5.722   7.385   3.171
11705TIP3    H135060   5.805   7.362   3.129
11705TIP3    H235061   5.732   7.356   3.262
11706TIP3   OH235062   0.464   6.161   3.243
11706TIP3    H135063   0.402   6.105   3.290
11706TIP3    H235064   0.411   6.207   3.178
11707TIP3   OH235065   0.871   5.834   3.161
11707TIP3    H135066   0.882   5.888   3.239
11707TIP3    H235067   0.880   5.744   3.193
11708TIP3   OH235068   7.176   5.680   5.258
11708TIP3    H135069   7.119   5.757   5.258
11708TIP3    H235070   7.117   5.606   5.244
11709TIP3   OH235071   5.283   2.312   4.376
11709TIP3    H135072   5.342   2.239   4.358
11709TIP3    H235073   5.310   2.381   4.314
11710TIP3   OH235074   8.098   1.786   5.685
11710TIP3    H135075   8.032   1.718   5.683
11710TIP3    H235076   8.178   1.742   5.716
11711TIP3   OH235077   4.235   0.605   5.616
11711TIP3    H135078   4.297   0.667   5.656
11711TIP3    H235079   4.166   0.595   5.682
11712TIP3   OH235080   7.424   6.654   3.268
11712TIP3    H135081   7.476   6.689   3.196
11712TIP3    H235082   7.488   6.636   3.337
11713TIP3   OH235083   1.371   7.282   3.010
11713TIP3    H135084   1.296   7.279   2.950
11713TIP3    H235085   1.353   7.357   3.067
11714TIP3   OH235086   4.655   6.765   6.250
11714TIP3    H135087   4.659   6.845   6.199
11714TIP3    H235088   4.734   6.716   6.227
11715TIP3   OH235089   7.798   4.094   3.240
11715TIP3    H135090   7.855   4.087   3.317
11715TIP3    H235091   7.710   4.078   3.273
11716TIP3   OH235092   4.664   1.858   6.760
11716TIP3    H135093   4.702   1.907   6.686
11716TIP3    H235094   4.716   1.777   6.764
11717TIP3   OH235095   1.710   1.341   4.046
11717TIP3    H135096   1.739   1.305   4.129
11717TIP3    H235097   1.659   1.418   4.070
11718TIP3   OH235098   6.906   7.472   3.104
11718TIP3    H135099   6.929   7.507   3.018
11718TIP3    H235100   6.966   7.399   3.118
11719TIP3   OH235101   0.757   3.316   2.355
11719TIP3    H135102   0.720   3.354   2.435
11719TIP3    H235103   0.737   3.222   2.362
11720TIP3   OH235104   4.991   2.153   5.561
11720TIP3    H135105   4.903   2.143   5.595
11720TIP3    H235106   4.979   2.183   5.471
11721TIP3   OH235107   4.123   4.568   5.322
11721TIP3    H135108   4.107   4.618   5.242
11721TIP3    H235109   4.144   4.633   5.388
11722TIP3   OH235110   1.814   3.029   6.473
11722TIP3    H135111   1.854   3.016   6.559
11722TIP3    H235112   1.720   3.037   6.490
11723TIP3   OH235113   4.568   4.518   0.196
11723TIP3    H135114   4.518   4.528   0.276
11723TIP3    H235115   4.620   4.439   0.210
11724TIP3   OH235116   0.090   6.595   5.180
11724TIP3    H135117   0.040   6.513   5.175
11724TIP3    H235118   0.150   6.591   5.105
11725TIP3   OH235119   7.227   2.734   2.248
11725TIP3    H135120   7.193   2.646   2.237
11725TIP3    H235121   7.287   2.728   2.322
11726TIP3   OH235122   2.617   6.134   5.907
11726TIP3    H135123   2.607   6.062   5.845
11726TIP3    H235124   2.678   6.194   5.864
11727TIP3   OH235125   0.065   1.162   3.038
11727TIP3    H135126   0.070   1.159   2.942
11727TIP3    H235127   0.133   1.101   3.067
11728TIP3   OH235128   2.538   0.641   1.280
11728TIP3    H135129   2.462   0.699   1.285
11728TIP3    H235130   2.596   0.684   1.217
11729TIP3   OH235131   1.673   1.792   3.014
11729TIP3    H135132   1.698   1.822   3.101
11729TIP3    H235133   1.630   1.708   3.029
11730TIP3   OH235134   2.421   7.341   3.235
11730TIP3    H135135   2.365   7.335   3.313
11730TIP3    H235136   2.399   7.262   3.185
11731TIP3   OH235137   0.105   7.516   0.850
11731TIP3    H135138   0.061   7.538   0.932
11731TIP3    H235139   0.187   7.565   0.852
11732TIP3   OH235140   2.874   5.071   0.436
11732TIP3    H135141   2.917   5.142   0.389
11732TIP3    H235142   2.824   5.116   0.504
11733TIP3   OH235143   2.398   1.073   6.055
11733TIP3    H135144   2.369   0.986   6.082
11733TIP3    H235145   2.489   1.061   6.029
11734TIP3   OH235146   4.794   2.304   4.700
11734TIP3    H135147   4.722   2.265   4.650
11734TIP3    H235148   4.865   2.240   4.693
11735TIP3   OH235149   0.992   4.918   1.354
11735TIP3    H135150   0.928   4.934   1.424
11735TIP3    H235151   1.077   4.921   1.398
11736TIP3   OH235152   4.733   5.266   2.803
11736TIP3    H135153   4.694   5.350   2.828
11736TIP3    H235154   4.669   5.226   2.745
11737TIP3   OH235155   5.919   2.070   3.141
11737TIP3    H135156   5.904   1.977   3.124
11737TIP3    H235157   5.990   2.093   3.081
11738TIP3   OH235158   4.376   4.116   4.373
11738TIP3    H135159   4.467   4.145   4.382
11738TIP3    H235160   4.340   4.124   4.461
11739TIP3   OH235161   2.241   3.936   1.841
11739TIP3    H135162   2.245   3.860   1.784
11739TIP3    H235163   2.312   3.993   1.810
11740TIP3   OH235164   0.766   0.983   4.620
11740TIP3    H135165   0.856   0.953   4.637
11740TIP3    H235166   0.772   1.078   4.621
11741TIP3   OH235167   3.164   0.787   5.591
11741TIP3    H135168   3.096   0.758   5.531
11741TIP3    H235169   3.122   0.790   5.676
11742TIP3   OH235170   4.475   1.698   3.557
11742TIP3    H135171   4.401   1.686   3.497
11742TIP3    H235172   4.497   1.610   3.585
11743TIP3   OH235173   4.353   6.919   0.337
11743TIP3    H135174   4.283   6.886   0.394
11743TIP3    H235175   4.430   6.868   0.362
11744TIP3   OH235176   1.416   6.001   2.263
11744TIP3    H135177   1.386   6.083   2.302
11744TIP3    H235178   1.403   5.936   2.331
11745TIP3   OH235179   0.217   0.286   4.212
11745TIP3    H135180   0.269   0.343   4.268
11745TIP3    H235181   0.160   0.345   4.163
11746TIP3   OH235182   4.975   2.095   4.698
11746TIP3    H135183   4.962   2.012   4.652
11746TIP3    H235184   5.059   2.084   4.743
11747TIP3   OH235185   1.931   1.792   4.226
11747TIP3    H135186   1.950   1.884   4.244
11747TIP3    H235187   1.882   1.793   4.144
11748TIP3   OH235188   1.989   2.458   2.973
11748TIP3    H135189   2.004   2.519   3.045
11748TIP3    H235190   2.076   2.438   2.939
11749TIP3   OH235191   8.097   0.049   0.450
11749TIP3    H135192   8.108   0.084   0.538
11749TIP3    H235193   8.087   0.127   0.395
11750TIP3   OH235194   3.885   7.164   3.819
11750TIP3    H135195   3.968   7.212   3.820
11750TIP3    H235196   3.820   7.229   3.795
11751TIP3   OH235197   6.935   5.800   6.357
11751TIP3    H135198   7.009   5.745   6.384
11751TIP3    H235199   6.976   5.879   6.322
11752TIP3   OH235200   0.318   7.110   5.910
11752TIP3    H135201   0.261   7.070   5.976
11752TIP3    H235202   0.398   7.132   5.957
11753TIP3   OH235203   2.234   3.550   6.752
11753TIP3    H135204   2.275   3.622   6.704
11753TIP3    H235205   2.261   3.471   6.706
11754TIP3   OH235206   7.279   2.205   1.966
11754TIP3    H135207   7.199   2.237   1.926
11754TIP3    H235208   7.315   2.144   1.901
11755TIP3   OH235209   2.718   7.150   6.737
11755TIP3    H135210   2.779   7.077   6.730
11755TIP3    H235211   2.649   7.119   6.795
11756TIP3   OH235212   8.269   0.381   4.533
11756TIP3    H135213   8.296   0.453   4.477
11756TIP3    H235214   8.308   0.400   4.619
11757TIP3   OH235215   2.429   4.381   3.681
11757TIP3    H135216   2.505   4.384   3.739
11757TIP3    H235217   2.409   4.472   3.661
11758TIP3   OH235218   1.721   7.145   6.547
11758TIP3    H135219   1.653   7.167   6.610
11758TIP3    H235220   1.786   7.096   6.598
11759TIP3   OH235221   2.089   3.076   6.278
11759TIP3    H135222   2.073   2.988   6.244
11759TIP3    H235223   2.007   3.123   6.261
11760TIP3   OH235224   4.915   7.312   3.463
11760TIP3    H135225   4.935   7.301   3.556
11760TIP3    H235226   4.851   7.383   3.460
11761TIP3   OH235227   3.509   6.679   0.301
11761TIP3    H135228   3.534   6.714   0.216
11761TIP3    H235229   3.505   6.584   0.289
11762TIP3   OH235230   5.129   1.668   6.462
11762TIP3    H135231   5.212   1.641   6.501
11762TIP3    H235232   5.078   1.588   6.454
11763TIP3   OH235233   4.043   5.885   4.381
11763TIP3    H135234   4.006   5.972   4.396
11763TIP3    H235235   4.011   5.832   4.454
11764TIP3   OH235236   3.827   4.545   2.981
11764TIP3    H135237   3.864   4.479   2.922
11764TIP3    H235238   3.741   4.564   2.944
11765TIP3   OH235239   2.553   3.657   1.325
11765TIP3    H135240   2.518   3.664   1.413
11765TIP3    H235241   2.487   3.699   1.269
11766TIP3   OH235242   7.676   6.546   6.621
11766TIP3    H135243   7.725   6.628   6.627
11766TIP3    H235244   7.739   6.478   6.644
11767TIP3   OH235245   4.587   7.727   2.368
11767TIP3    H135246   4.635   7.794   2.415
11767TIP3    H235247   4.642   7.706   2.292
11768TIP3   OH235248   3.959   3.055   2.855
11768TIP3    H135249   3.991   3.068   2.945
11768TIP3    H235250   3.880   3.109   2.849
11769TIP3   OH235251   1.687   6.385   3.903
11769TIP3    H135252   1.744   6.319   3.942
11769TIP3    H235253   1.605   6.338   3.886
11770TIP3   OH235254   6.895   5.260   1.898
11770TIP3    H135255   6.910   5.166   1.886
11770TIP3    H235256   6.833   5.283   1.828
11771TIP3   OH235257   7.078   2.681   6.465
11771TIP3    H135258   7.107   2.745   6.530
11771TIP3    H235259   6.988   2.661   6.490
11772TIP3   OH235260   5.630   1.916   0.776
11772TIP3    H135261   5.540   1.949   0.771
11772TIP3    H235262   5.681   1.978   0.723
11773TIP3   OH235263   0.999   0.234   5.015
11773TIP3    H135264   0.904   0.240   5.018
11773TIP3    H235265   1.028   0.322   4.990
11774TIP3   OH235266   5.238   6.535   2.222
11774TIP3    H135267   5.192   6.520   2.140
11774TIP3    H235268   5.173   6.518   2.290
11775TIP3   OH235269   6.786   0.359   5.789
11775TIP3    H135270   6.721   0.377   5.856
11775TIP3    H235271   6.825   0.275   5.814
11776TIP3   OH235272   7.710   4.549   0.732
11776TIP3    H135273   7.801   4.519   0.725
11776TIP3    H235274   7.696   4.601   0.653
11777TIP3   OH235275   3.763   0.225   0.636
11777TIP3    H135276   3.690   0.239   0.576
11777TIP3    H235277   3.841   0.231   0.581
11778TIP3   OH235278   3.205   6.970   1.790
11778TIP3    H135279   3.132   6.915   1.762
11778TIP3    H235280   3.276   6.949   1.730
11779TIP3   OH235281   2.043   4.379   0.013
11779TIP3    H135282   2.068   4.339   0.096
11779TIP3    H235283   2.123   4.422  -0.017
11780TIP3   OH235284   3.595   7.333   2.257
11780TIP3    H135285   3.652   7.408   2.272
11780TIP3    H235286   3.639   7.283   2.188
11781TIP3   OH235287   0.458   7.166   6.516
11781TIP3    H135288   0.501   7.145   6.433
11781TIP3    H235289   0.440   7.259   6.511
11782TIP3   OH235290   1.800   6.182   2.318
11782TIP3    H135291   1.887   6.143   2.307
11782TIP3    H235292   1.804   6.226   2.403
11783TIP3   OH235293   2.531   3.071   6.761
11783TIP3    H135294   2.550   3.131   6.689
11783TIP3    H235295   2.513   2.987   6.719
11784TIP3   OH235296   7.742   6.717   5.164
11784TIP3    H135297   7.721   6.625   5.172
11784TIP3    H235298   7.698   6.759   5.238
11785TIP3   OH235299   7.403   6.577   0.037
11785TIP3    H135300   7.478   6.615   0.081
11785TIP3    H235301   7.403   6.618  -0.050
11786TIP3   OH235302   4.494   3.277   5.562
11786TIP3    H135303   4.424   3.223   5.599
11786TIP3    H235304   4.463   3.367   5.575
11787TIP3   OH235305   6.109   7.676   0.090
11787TIP3    H135306   6.125   7.664  -0.004
11787TIP3    H235307   6.178   7.627   0.133
11788TIP3   OH235308   7.879   4.925   0.957
11788TIP3    H135309   7.934   4.914   0.880
11788TIP3    H235310   7.911   4.859   1.019
11789TIP3   OH235311   2.286   3.681   3.812
11789TIP3    H135312   2.240   3.619   3.755
11789TIP3    H235313   2.379   3.670   3.789
11790TIP3   OH235314   7.427   5.147   3.428
11790TIP3    H135315   7.403   5.133   3.336
11790TIP3    H235316   7.520   5.170   3.425
11791TIP3   OH235317   4.325   4.102   6.281
11791TIP3    H135318   4.395   4.085   6.218
11791TIP3    H235319   4.370   4.120   6.363
11792TIP3   OH235320   3.434   3.957   3.378
11792TIP3    H135321   3.387   3.874   3.389
11792TIP3    H235322   3.366   4.019   3.352
11793TIP3   OH235323   6.222   4.263   1.777
11793TIP3    H135324   6.241   4.171   1.762
11793TIP3    H235325   6.204   4.269   1.871
11794TIP3   OH235326   4.247   5.200   0.452
11794TIP3    H135327   4.335   5.162   0.445
11794TIP3    H235328   4.240   5.258   0.376
11795TIP3   OH235329   2.645   7.374   3.507
11795TIP3    H135330   2.581   7.433   3.468
11795TIP3    H235331   2.621   7.371   3.600
11796TIP3   OH235332   0.472   1.406   5.758
11796TIP3    H135333   0.381   1.428   5.739
11796TIP3    H235334   0.468   1.324   5.807
11797TIP3   OH235335   7.258   6.782   3.041
11797TIP3    H135336   7.316   6.837   3.093
11797TIP3    H235337   7.317   6.736   2.981
11798TIP3   OH235338   1.581   1.031   0.426
11798TIP3    H135339   1.502   0.977   0.417
11798TIP3    H235340   1.550   1.110   0.471
11799TIP3   OH235341   5.893   0.189   5.191
11799TIP3    H135342   5.897   0.280   5.220
11799TIP3    H235343   5.985   0.163   5.182
11800TIP3   OH235344   3.248   3.294   2.542
11800TIP3    H135345   3.336   3.268   2.572
11800TIP3    H235346   3.195   3.294   2.622
11801TIP3   OH235347   4.367   5.583   2.791
11801TIP3    H135348   4.364   5.678   2.800
11801TIP3    H235349   4.345   5.568   2.698
11802TIP3   OH235350   5.088   4.570   2.270
11802TIP3    H135351   5.077   4.632   2.342
11802TIP3    H235352   5.002   4.567   2.228
11803TIP3   OH235353   5.535   7.567   5.650
11803TIP3    H135354   5.507   7.655   5.675
11803TIP3    H235355   5.625   7.577   5.622
11804TIP3   OH235356   8.233   3.673   2.627
11804TIP3    H135357   8.266   3.660   2.716
11804TIP3    H235358   8.245   3.588   2.585
11805TIP3   OH235359   0.556   0.320   5.788
11805TIP3    H135360   0.543   0.227   5.804
11805TIP3    H235361   0.611   0.350   5.860
11806TIP3   OH235362   4.599   7.791   3.025
11806TIP3    H135363   4.523   7.850   3.023
11806TIP3    H235364   4.565   7.707   2.993
11807TIP3   OH235365   6.120   4.105   5.299
11807TIP3    H135366   6.098   4.033   5.357
11807TIP3    H235367   6.187   4.155   5.346
11808TIP3   OH235368   0.938   5.003   4.246
11808TIP3    H135369   0.923   5.032   4.336
11808TIP3    H235370   0.917   5.079   4.192
11809TIP3   OH235371   2.131   4.601   3.229
11809TIP3    H135372   2.168   4.518   3.198
11809TIP3    H235373   2.036   4.584   3.235
11810TIP3   OH235374   1.538   7.097   2.457
11810TIP3    H135375   1.476   7.105   2.384
11810TIP3    H235376   1.611   7.153   2.433
11811TIP3   OH235377   1.939   2.844   0.837
11811TIP3    H135378   1.885   2.923   0.850
11811TIP3    H235379   1.912   2.810   0.752
11812TIP3   OH235380   7.925   1.641   3.909
11812TIP3    H135381   7.929   1.700   3.833
11812TIP3    H235382   7.980   1.567   3.884
11813TIP3   OH235383   8.149   3.654   5.658
11813TIP3    H135384   8.160   3.591   5.587
11813TIP3    H235385   8.063   3.694   5.641
11814TIP3   OH235386   4.712   0.248   5.842
11814TIP3    H135387   4.726   0.342   5.854
11814TIP3    H235388   4.625   0.232   5.877
11815TIP3   OH235389   2.238   4.838   3.076
11815TIP3    H135390   2.267   4.765   3.131
11815TIP3    H235391   2.191   4.896   3.136
11816TIP3   OH235392   2.919   6.124   5.909
11816TIP3    H135393   2.881   6.039   5.886
11816TIP3    H235394   3.012   6.105   5.923
11817TIP3   OH235395   2.711   4.198   3.857
11817TIP3    H135396   2.771   4.137   3.816
11817TIP3    H235397   2.679   4.152   3.935
11818TIP3   OH235398   6.969   7.847   2.312
11818TIP3    H135399   6.890   7.794   2.300
11818TIP3    H235400   7.014   7.807   2.386
11819TIP3   OH235401   5.282   7.249   6.286
11819TIP3    H135402   5.259   7.304   6.212
11819TIP3    H235403   5.198   7.227   6.327
11820TIP3   OH235404   3.425   4.914   5.172
11820TIP3    H135405   3.343   4.902   5.125
11820TIP3    H235406   3.481   4.843   5.140
11821TIP3   OH235407   4.704   6.947   2.135
11821TIP3    H135408   4.635   6.907   2.188
11821TIP3    H235409   4.765   6.875   2.118
11822TIP3   OH235410   4.068   1.624   6.001
11822TIP3    H135411   4.037   1.589   5.918
11822TIP3    H235412   3.990   1.663   6.041
11823TIP3   OH235413   4.704   4.692   5.388
11823TIP3    H135414   4.738   4.696   5.299
11823TIP3    H235415   4.714   4.600   5.413
11824TIP3   OH235416   1.514   6.374   0.932
11824TIP3    H135417   1.607   6.384   0.949
11824TIP3    H235418   1.506   6.290   0.886
11825TIP3   OH235419   5.047   5.149   5.104
11825TIP3    H135420   4.984   5.154   5.176
11825TIP3    H235421   4.993   5.149   5.025
11826TIP3   OH235422   2.143   3.510   6.285
11826TIP3    H135423   2.139   3.602   6.310
11826TIP3    H235424   2.117   3.509   6.193
11827TIP3   OH235425   2.667   0.165   3.186
11827TIP3    H135426   2.733   0.227   3.217
11827TIP3    H235427   2.680   0.161   3.091
11828TIP3   OH235428   5.573   2.261   5.496
11828TIP3    H135429   5.658   2.223   5.516
11828TIP3    H235430   5.515   2.186   5.482
11829TIP3   OH235431   5.670   7.400   5.334
11829TIP3    H135432   5.601   7.457   5.298
11829TIP3    H235433   5.636   7.375   5.420
11830TIP3   OH235434   2.808   6.175   2.685
11830TIP3    H135435   2.869   6.217   2.623
11830TIP3    H235436   2.841   6.201   2.771
11831TIP3   OH235437   4.913   3.641   4.507
11831TIP3    H135438   4.977   3.573   4.487
11831TIP3    H235439   4.893   3.629   4.600
11832TIP3   OH235440   4.941   5.915   5.874
11832TIP3    H135441   4.948   5.821   5.891
11832TIP3    H235442   4.976   5.957   5.953
11833TIP3   OH235443   7.163   5.908   5.539
11833TIP3    H135444   7.163   5.830   5.595
11833TIP3    H235445   7.107   5.885   5.465
11834TIP3   OH235446   2.742   0.130   2.931
11834TIP3    H135447   2.838   0.131   2.938
11834TIP3    H235448   2.723   0.202   2.870
11835TIP3   OH235449   7.359   6.240   5.866
11835TIP3    H135450   7.359   6.251   5.770
11835TIP3    H235451   7.439   6.191   5.884
11836TIP3   OH235452   7.910   5.565   5.103
11836TIP3    H135453   7.976   5.570   5.034
11836TIP3    H235454   7.937   5.490   5.156
11837TIP3   OH235455   1.792   6.061   0.670
11837TIP3    H135456   1.714   6.091   0.717
11837TIP3    H235457   1.799   6.121   0.595
11838TIP3   OH235458   6.140   1.450   4.098
11838TIP3    H135459   6.217   1.457   4.154
11838TIP3    H235460   6.098   1.535   4.104
11839TIP3   OH235461   1.638   6.604   5.994
11839TIP3    H135462   1.729   6.609   5.965
11839TIP3    H235463   1.599   6.686   5.964
11840TIP3   OH235464   0.704   0.489   2.058
11840TIP3    H135465   0.658   0.414   2.021
11840TIP3    H235466   0.724   0.462   2.148
11841TIP3   OH235467   4.764   3.140   2.516
11841TIP3    H135468   4.728   3.111   2.600
11841TIP3    H235469   4.859   3.132   2.528
11842TIP3   OH235470   4.404   4.354   1.259
11842TIP3    H135471   4.358   4.406   1.193
11842TIP3    H235472   4.497   4.375   1.244
11843TIP3   OH235473   6.807   7.325   4.607
11843TIP3    H135474   6.716   7.312   4.583
11843TIP3    H235475   6.827   7.414   4.581
11844TIP3   OH235476   5.575   3.200   2.757
11844TIP3    H135477   5.611   3.240   2.677
11844TIP3    H235478   5.647   3.204   2.819
11845TIP3   OH235479   7.809   5.468   6.254
11845TIP3    H135480   7.818   5.373   6.255
11845TIP3    H235481   7.817   5.494   6.345
11846TIP3   OH235482   3.115   0.084   3.880
11846TIP3    H135483   3.186   0.069   3.818
11846TIP3    H235484   3.064   0.003   3.878
11847TIP3   OH235485   0.982   0.072   0.745
11847TIP3    H135486   0.979  -0.008   0.797
11847TIP3    H235487   1.060   0.062   0.690
11848TIP3   OH235488   4.125   2.197   3.924
11848TIP3    H135489   4.050   2.204   3.983
11848TIP3    H235490   4.144   2.287   3.898
11849TIP3   OH235491   0.377   0.706   4.178
11849TIP3    H135492   0.387   0.693   4.272
11849TIP3    H235493   0.385   0.618   4.141
11850TIP3   OH235494   6.009   3.422   2.161
11850TIP3    H135495   5.978   3.374   2.084
11850TIP3    H235496   5.953   3.499   2.166
11851TIP3   OH235497   0.495   0.910   6.355
11851TIP3    H135498   0.513   0.980   6.417
11851TIP3    H235499   0.404   0.923   6.328
11852TIP3   OH235500   7.195   0.234   3.474
11852TIP3    H135501   7.129   0.204   3.537
11852TIP3    H235502   7.195   0.330   3.484
11853TIP3   OH235503   4.530   1.824   4.975
11853TIP3    H135504   4.583   1.876   4.916
11853TIP3    H235505   4.470   1.886   5.015
11854TIP3   OH235506   4.978   2.295   5.316
11854TIP3    H135507   4.921   2.372   5.319
11854TIP3    H235508   5.055   2.324   5.267
11855TIP3   OH235509   5.500   0.685   4.872
11855TIP3    H135510   5.442   0.621   4.829
11855TIP3    H235511   5.556   0.717   4.801
11856TIP3   OH235512   1.622   2.006   2.194
11856TIP3    H135513   1.676   1.962   2.260
11856TIP3    H235514   1.532   1.996   2.226
11857TIP3   OH235515   5.434   7.806   3.988
11857TIP3    H135516   5.502   7.872   3.978
11857TIP3    H235517   5.481   7.722   3.982
11858TIP3   OH235518   1.248   3.748   6.741
11858TIP3    H135519   1.201   3.726   6.821
11858TIP3    H235520   1.293   3.830   6.762
11859TIP3   OH235521   5.941   7.383   5.383
11859TIP3    H135522   5.966   7.302   5.339
11859TIP3    H235523   5.848   7.395   5.362
11860TIP3   OH235524   2.252   4.636   1.728
11860TIP3    H135525   2.293   4.642   1.642
11860TIP3    H235526   2.171   4.589   1.713
11861TIP3   OH235527   2.153   1.148   5.923
11861TIP3    H135528   2.123   1.058   5.929
11861TIP3    H235529   2.245   1.145   5.950
11862TIP3   OH235530   1.192   1.667   6.478
11862TIP3    H135531   1.100   1.669   6.450
11862TIP3    H235532   1.239   1.627   6.405
11863TIP3   OH235533   3.071   5.018   4.825
11863TIP3    H135534   3.147   5.013   4.767
11863TIP3    H235535   2.998   4.991   4.769
11864TIP3   OH235536   1.771   1.313   3.766
11864TIP3    H135537   1.755   1.337   3.858
11864TIP3    H235538   1.798   1.221   3.770
11865TIP3   OH235539   3.174   2.996   0.317
11865TIP3    H135540   3.129   3.067   0.362
11865TIP3    H235541   3.156   3.011   0.224
11866TIP3   OH235542   3.850   5.802   1.016
11866TIP3    H135543   3.846   5.891   0.981
11866TIP3    H235544   3.785   5.754   0.965
11867TIP3   OH235545   5.028   0.082   6.093
11867TIP3    H135546   5.088   0.144   6.051
11867TIP3    H235547   5.033   0.104   6.186
11868TIP3   OH235548   2.102   4.896   6.764
11868TIP3    H135549   2.107   4.938   6.679
11868TIP3    H235550   2.090   4.969   6.826
11869TIP3   OH235551   7.848   7.038   6.009
11869TIP3    H135552   7.773   7.037   5.950
11869TIP3    H235553   7.913   7.093   5.964
11870TIP3   OH235554   3.693   1.790   3.628
11870TIP3    H135555   3.606   1.751   3.635
11870TIP3    H235556   3.680   1.870   3.577
11871TIP3   OH235557   0.159   5.270   4.050
11871TIP3    H135558   0.161   5.212   3.974
11871TIP3    H235559   0.072   5.310   4.048
11872TIP3   OH235560   3.393   2.215   4.618
11872TIP3    H135561   3.347   2.187   4.539
11872TIP3    H235562   3.482   2.236   4.588
11873TIP3   OH235563   0.770   2.710   4.095
11873TIP3    H135564   0.806   2.638   4.042
11873TIP3    H235565   0.685   2.728   4.055
11874TIP3   OH235566   4.782   2.751   4.832
11874TIP3    H135567   4.804   2.665   4.868
11874TIP3    H235568   4.691   2.743   4.804
11875TIP3   OH235569   4.732   6.308   3.080
11875TIP3    H135570   4.807   6.350   3.123
11875TIP3    H235571   4.714   6.362   3.003
11876TIP3   OH235572   6.439   4.801   5.168
11876TIP3    H135573   6.485   4.884   5.157
11876TIP3    H235574   6.501   4.745   5.215
11877TIP3   OH235575   7.063   4.237   2.255
11877TIP3    H135576   6.996   4.266   2.192
11877TIP3    H235577   7.073   4.143   2.237
11878TIP3   OH235578   6.921   4.647   0.712
11878TIP3    H135579   6.965   4.581   0.660
11878TIP3    H235580   6.902   4.718   0.650
11879TIP3   OH235581   6.792   5.906   0.970
11879TIP3    H135582   6.807   5.976   1.033
11879TIP3    H235583   6.763   5.952   0.891
11880TIP3   OH235584   6.890   3.854   6.513
11880TIP3    H135585   6.910   3.902   6.594
11880TIP3    H235586   6.899   3.762   6.538
11881TIP3   OH235587   1.878   3.551   0.518
11881TIP3    H135588   1.958   3.520   0.560
11881TIP3    H235589   1.898   3.547   0.424
11882TIP3   OH235590   7.013   5.636   0.404
11882TIP3    H135591   7.080   5.652   0.471
11882TIP3    H235592   7.009   5.541   0.397
11883TIP3   OH235593   5.221   0.643   1.769
11883TIP3    H135594   5.195   0.639   1.861
11883TIP3    H235595   5.312   0.612   1.768
11884TIP3   OH235596   1.278   4.205   1.401
11884TIP3    H135597   1.373   4.208   1.416
11884TIP3    H235598   1.240   4.248   1.477
11885TIP3   OH235599   4.251   1.388   4.463
11885TIP3    H135600   4.339   1.351   4.454
11885TIP3    H235601   4.265   1.483   4.464
11886TIP3   OH235602   4.144   4.492   5.744
11886TIP3    H135603   4.203   4.468   5.816
11886TIP3    H235604   4.192   4.559   5.695
11887TIP3   OH235605   1.321   0.394   5.135
11887TIP3    H135606   1.238   0.373   5.178
11887TIP3    H235607   1.369   0.445   5.201
11888TIP3   OH235608   2.298   6.453   5.108
11888TIP3    H135609   2.365   6.474   5.042
11888TIP3    H235610   2.340   6.471   5.192
11889TIP3   OH235611   6.970   7.736   4.110
11889TIP3    H135612   6.882   7.697   4.107
11889TIP3    H235613   7.021   7.676   4.164
11890TIP3   OH235614   1.083   6.258   6.509
11890TIP3    H135615   1.063   6.171   6.476
11890TIP3    H235616   1.067   6.316   6.435
11891TIP3   OH235617   5.037   3.021   1.947
11891TIP3    H135618   5.010   2.930   1.962
11891TIP3    H235619   4.955   3.067   1.929
11892TIP3   OH235620   2.435   4.449   5.239
11892TIP3    H135621   2.347   4.469   5.208
11892TIP3    H235622   2.429   4.358   5.269
11893TIP3   OH235623   4.072   6.584   3.824
11893TIP3    H135624   3.981   6.556   3.814
11893TIP3    H235625   4.097   6.553   3.911
11894TIP3   OH235626   2.280   3.883   4.246
11894TIP3    H135627   2.358   3.828   4.257
11894TIP3    H235628   2.241   3.853   4.164
11895TIP3   OH235629   6.456   5.401   3.572
11895TIP3    H135630   6.473   5.478   3.517
11895TIP3    H235631   6.509   5.332   3.534
11896TIP3   OH235632   1.390   4.572   3.045
11896TIP3    H135633   1.367   4.525   3.126
11896TIP3    H235634   1.307   4.610   3.016
11897TIP3   OH235635   4.056   2.569   3.806
11897TIP3    H135636   4.008   2.539   3.884
11897TIP3    H235637   4.103   2.647   3.835
11898TIP3   OH235638   3.750   6.282   3.106
11898TIP3    H135639   3.714   6.236   3.182
11898TIP3    H235640   3.682   6.276   3.039
11899TIP3   OH235641   0.248   2.728   2.511
11899TIP3    H135642   0.274   2.677   2.434
11899TIP3    H235643   0.168   2.687   2.542
11900TIP3   OH235644   4.968   3.785   6.145
11900TIP3    H135645   4.904   3.791   6.216
11900TIP3    H235646   5.050   3.761   6.188
11901TIP3   OH235647   2.853   5.812   5.138
11901TIP3    H135648   2.852   5.719   5.117
11901TIP3    H235649   2.845   5.855   5.053
11902TIP3   OH235650   5.245   0.662   0.511
11902TIP3    H135651   5.162   0.686   0.471
11902TIP3    H235652   5.247   0.712   0.593
11903TIP3   OH235653   6.544   1.235   0.496
11903TIP3    H135654   6.607   1.268   0.432
11903TIP3    H235655   6.523   1.311   0.550
11904TIP3   OH235656   0.803   5.975   5.931
11904TIP3    H135657   0.761   6.012   6.009
11904TIP3    H235658   0.880   6.031   5.917
11905TIP3   OH235659   6.657   0.725   5.783
11905TIP3    H135660   6.660   0.668   5.707
11905TIP3    H235661   6.698   0.806   5.754
11906TIP3   OH235662   4.091   6.341   0.833
11906TIP3    H135663   4.138   6.423   0.820
11906TIP3    H235664   4.019   6.364   0.891
11907TIP3   OH235665   7.785   5.908   1.312
11907TIP3    H135666   7.703   5.956   1.302
11907TIP3    H235667   7.805   5.876   1.223
11908TIP3   OH235668   7.248   5.254   1.983
11908TIP3    H135669   7.339   5.279   2.000
11908TIP3    H235670   7.254   5.191   1.912
11909TIP3   OH235671   5.762   5.846   2.017
11909TIP3    H135672   5.831   5.818   1.957
11909TIP3    H235673   5.769   5.786   2.091
11910TIP3   OH235674   5.608   5.299   0.874
11910TIP3    H135675   5.615   5.373   0.814
11910TIP3    H235676   5.617   5.339   0.961
11911TIP3   OH235677   3.323   1.615   1.861
11911TIP3    H135678   3.314   1.634   1.768
11911TIP3    H235679   3.408   1.573   1.870
11912TIP3   OH235680   2.660   3.094   2.998
11912TIP3    H135681   2.685   3.019   3.052
11912TIP3    H235682   2.681   3.066   2.908
11913TIP3   OH235683   2.663   0.306   5.641
11913TIP3    H135684   2.576   0.346   5.634
11913TIP3    H235685   2.675   0.293   5.735
11914TIP3   OH235686   1.857   5.332   5.236
11914TIP3    H135687   1.939   5.362   5.197
11914TIP3    H235688   1.841   5.247   5.195
11915TIP3   OH235689   5.944   1.742   3.967
11915TIP3    H135690   6.016   1.696   3.922
11915TIP3    H235691   5.926   1.817   3.911
11916TIP3   OH235692   6.136   7.341   5.851
11916TIP3    H135693   6.190   7.417   5.872
11916TIP3    H235694   6.152   7.280   5.923
11917TIP3   OH235695   6.712   1.688   3.629
11917TIP3    H135696   6.708   1.767   3.574
11917TIP3    H235697   6.643   1.700   3.693
11918TIP3   OH235698   8.040   6.702   4.023
11918TIP3    H135699   8.010   6.663   4.105
11918TIP3    H235700   7.984   6.778   4.010
11919TIP3   OH235701   2.418   2.989   2.631
11919TIP3    H135702   2.503   3.026   2.610
11919TIP3    H235703   2.421   2.900   2.597
11920TIP3   OH235704   5.785   3.415   1.377
11920TIP3    H135705   5.776   3.363   1.297
11920TIP3    H235706   5.812   3.353   1.444
11921TIP3   OH235707   1.599   2.780   4.727
11921TIP3    H135708   1.565   2.694   4.704
11921TIP3    H235709   1.595   2.831   4.646
11922TIP3   OH235710   0.826   1.386   5.881
11922TIP3    H135711   0.800   1.324   5.949
11922TIP3    H235712   0.921   1.375   5.874
11923TIP3   OH235713   0.695   3.738   3.376
11923TIP3    H135714   0.703   3.646   3.400
11923TIP3    H235715   0.685   3.784   3.459
11924TIP3   OH235716   6.653   0.620   1.147
11924TIP3    H135717   6.620   0.698   1.102
11924TIP3    H235718   6.576   0.584   1.191
11925TIP3   OH235719   1.841   5.252   3.193
11925TIP3    H135720   1.911   5.315   3.181
11925TIP3    H235721   1.820   5.256   3.287
11926TIP3   OH235722   7.791   0.467   5.950
11926TIP3    H135723   7.731   0.492   6.020
11926TIP3    H235724   7.869   0.435   5.997
11927TIP3   OH235725   0.129   4.439   2.782
11927TIP3    H135726   0.182   4.423   2.704
11927TIP3    H235727   0.177   4.507   2.829
11928TIP3   OH235728   5.079   1.659   5.258
11928TIP3    H135729   5.042   1.675   5.171
11928TIP3    H235730   5.060   1.739   5.307
11929TIP3   OH235731   4.647   2.555   4.595
11929TIP3    H135732   4.724   2.541   4.651
11929TIP3    H235733   4.596   2.475   4.606
11930TIP3   OH235734   8.305   7.098   0.971
11930TIP3    H135735   8.255   7.041   1.028
11930TIP3    H235736   8.240   7.146   0.920
11931TIP3   OH235737   0.388   4.102   1.225
11931TIP3    H135738   0.409   4.123   1.134
11931TIP3    H235739   0.299   4.136   1.237
11932TIP3   OH235740   6.885   1.128   4.666
11932TIP3    H135741   6.821   1.147   4.735
11932TIP3    H235742   6.928   1.048   4.695
11933TIP3   OH235743   6.806   1.570   1.380
11933TIP3    H135744   6.852   1.530   1.306
11933TIP3    H235745   6.829   1.663   1.375
11934TIP3   OH235746   6.262   6.736   6.108
11934TIP3    H135747   6.258   6.819   6.061
11934TIP3    H235748   6.283   6.671   6.041
11935TIP3   OH235749   2.400   0.519   0.891
11935TIP3    H135750   2.326   0.579   0.886
11935TIP3    H235751   2.415   0.491   0.800
11936TIP3   OH235752   7.306   3.506   4.960
11936TIP3    H135753   7.385   3.465   4.923
11936TIP3    H235754   7.293   3.462   5.044
11937TIP3   OH235755   3.705   6.578   4.801
11937TIP3    H135756   3.788   6.547   4.764
11937TIP3    H235757   3.691   6.663   4.760
11938TIP3   OH235758   3.653   1.899   5.849
11938TIP3    H135759   3.622   1.930   5.764
11938TIP3    H235760   3.748   1.906   5.844
11939TIP3   OH235761   4.783   4.558   6.265
11939TIP3    H135762   4.765   4.499   6.338
11939TIP3    H235763   4.800   4.643   6.306
11940TIP3   OH235764   3.103   6.583   5.919
11940TIP3    H135765   3.102   6.532   5.838
11940TIP3    H235766   3.070   6.669   5.893
11941TIP3   OH235767   7.988   0.387   4.060
11941TIP3    H135768   7.933   0.455   4.021
11941TIP3    H235769   7.943   0.305   4.037
11942TIP3   OH235770   4.393   3.453   2.127
11942TIP3    H135771   4.365   3.372   2.084
11942TIP3    H235772   4.353   3.449   2.214
11943TIP3   OH235773   8.219   2.753   0.424
11943TIP3    H135774   8.233   2.845   0.447
11943TIP3    H235775   8.140   2.754   0.370
11944TIP3   OH235776   0.445   2.657   2.700
11944TIP3    H135777   0.453   2.569   2.663
11944TIP3    H235778   0.380   2.700   2.644
11945TIP3   OH235779   5.467   0.827   2.333
11945TIP3    H135780   5.403   0.898   2.340
11945TIP3    H235781   5.551   0.872   2.321
11946TIP3   OH235782   0.751   1.546   4.543
11946TIP3    H135783   0.684   1.478   4.547
11946TIP3    H235784   0.724   1.610   4.609
11947TIP3   OH235785   7.296   1.012   0.084
11947TIP3    H135786   7.320   0.974   0.000
11947TIP3    H235787   7.364   1.077   0.102
11948TIP3   OH235788   1.276   2.173   0.311
11948TIP3    H135789   1.185   2.193   0.331
11948TIP3    H235790   1.293   2.217   0.228
11949TIP3   OH235791   0.180   5.074   5.832
11949TIP3    H135792   0.143   5.058   5.745
11949TIP3    H235793   0.110   5.052   5.893
11950TIP3   OH235794   0.687   1.693   3.347
11950TIP3    H135795   0.694   1.783   3.314
11950TIP3    H235796   0.593   1.675   3.347
11951TIP3   OH235797   2.162   3.738   4.046
11951TIP3    H135798   2.215   3.730   3.967
11951TIP3    H235799   2.153   3.648   4.078
11952TIP3   OH235800   1.054   4.190   0.717
11952TIP3    H135801   1.045   4.145   0.801
11952TIP3    H235802   1.034   4.123   0.651
11953TIP3   OH235803   0.062   0.330   0.934
11953TIP3    H135804   0.157   0.340   0.935
11953TIP3    H235805   0.044   0.282   0.853
11954TIP3   OH235806   5.963   3.977   5.566
11954TIP3    H135807   5.961   4.065   5.528
11954TIP3    H235808   6.005   3.988   5.651
11955TIP3   OH235809   3.507   3.585   1.885
11955TIP3    H135810   3.520   3.521   1.815
11955TIP3    H235811   3.412   3.594   1.893
11956TIP3   OH235812   0.603   5.757   3.312
11956TIP3    H135813   0.577   5.793   3.397
11956TIP3    H235814   0.699   5.758   3.314
11957TIP3   OH235815   3.880   0.562   5.405
11957TIP3    H135816   3.920   0.476   5.390
11957TIP3    H235817   3.787   0.549   5.385
11958TIP3   OH235818   2.358   6.484   3.768
11958TIP3    H135819   2.407   6.562   3.745
11958TIP3    H235820   2.274   6.495   3.723
11959TIP3   OH235821   7.935   4.833   3.253
11959TIP3    H135822   7.967   4.866   3.169
11959TIP3    H235823   7.873   4.764   3.229
11960TIP3   OH235824   0.171   3.341   0.949
11960TIP3    H135825   0.218   3.314   1.027
11960TIP3    H235826   0.083   3.363   0.980
11961TIP3   OH235827   1.526   7.313   2.125
11961TIP3    H135828   1.535   7.249   2.055
11961TIP3    H235829   1.482   7.266   2.196
11962TIP3   OH235830   1.449   4.754   5.904
11962TIP3    H135831   1.450   4.659   5.889
11962TIP3    H235832   1.541   4.780   5.897
11963TIP3   OH235833   4.799   5.096   3.154
11963TIP3    H135834   4.826   5.029   3.216
11963TIP3    H235835   4.879   5.115   3.103
11964TIP3   OH235836   2.238   1.446   1.781
11964TIP3    H135837   2.264   1.450   1.873
11964TIP3    H235838   2.147   1.416   1.783
11965TIP3   OH235839   0.249   4.021   3.721
11965TIP3    H135840   0.327   4.076   3.715
11965TIP3    H235841   0.183   4.076   3.764
11966TIP3   OH235842   0.051   1.294   4.526
11966TIP3    H135843  -0.032   1.246   4.534
11966TIP3    H235844   0.053   1.322   4.434
11967TIP3   OH235845   7.865   0.019   3.708
11967TIP3    H135846   7.876  -0.071   3.678
11967TIP3    H235847   7.905   0.073   3.640
11968TIP3   OH235848   2.125   7.219   0.815
11968TIP3    H135849   2.124   7.303   0.769
11968TIP3    H235850   2.108   7.242   0.906
11969TIP3   OH235851   0.027   6.750   2.871
11969TIP3    H135852   0.105   6.777   2.919
11969TIP3    H235853  -0.022   6.695   2.933
11970TIP3   OH235854   6.574   5.593   6.027
11970TIP3    H135855   6.629   5.519   6.001
11970TIP3    H235856   6.629   5.643   6.087
11971TIP3   OH235857   0.919   7.652   0.132
11971TIP3    H135858   0.873   7.578   0.173
11971TIP3    H235859   0.938   7.622   0.043
11972TIP3   OH235860   5.118   4.966   3.633
11972TIP3    H135861   5.091   5.054   3.608
11972TIP3    H235862   5.191   4.945   3.575
11973TIP3   OH235863   0.293   1.911   6.170
11973TIP3    H135864   0.210   1.865   6.179
11973TIP3    H235865   0.358   1.853   6.209
11974TIP3   OH235866   8.130   0.329   3.370
11974TIP3    H135867   8.218   0.352   3.340
11974TIP3    H235868   8.083   0.307   3.289
11975TIP3   OH235869   4.289   2.875   1.336
11975TIP3    H135870   4.371   2.826   1.324
11975TIP3    H235871   4.312   2.946   1.396
11976TIP3   OH235872   3.679   3.860   1.406
11976TIP3    H135873   3.747   3.814   1.455
11976TIP3    H235874   3.644   3.924   1.468
11977TIP3   OH235875   6.033   3.484   5.637
11977TIP3    H135876   5.983   3.537   5.699
11977TIP3    H235877   5.981   3.483   5.557
11978TIP3   OH235878   6.123   7.088   3.385
11978TIP3    H135879   6.100   7.096   3.293
11978TIP3    H235880   6.137   7.178   3.414
11979TIP3   OH235881   1.276   6.547   1.853
11979TIP3    H135882   1.283   6.471   1.911
11979TIP3    H235883   1.332   6.613   1.892
11980TIP3   OH235884   0.893   5.974   4.519
11980TIP3    H135885   0.867   5.950   4.430
11980TIP3    H235886   0.879   5.895   4.571
11981TIP3   OH235887   6.024   2.607   2.190
11981TIP3    H135888   6.041   2.669   2.119
11981TIP3    H235889   5.951   2.554   2.159
11982TIP3   OH235890   7.109   7.335   4.518
11982TIP3    H135891   7.036   7.284   4.483
11982TIP3    H235892   7.185   7.278   4.506
11983TIP3   OH235893   6.463   1.842   1.677
11983TIP3    H135894   6.426   1.894   1.748
11983TIP3    H235895   6.554   1.870   1.672
11984TIP3   OH235896   1.038   0.648   3.838
11984TIP3    H135897   0.947   0.644   3.865
11984TIP3    H235898   1.087   0.649   3.920
11985TIP3   OH235899   3.633   1.715   6.672
11985TIP3    H135900   3.573   1.662   6.723
11985TIP3    H235901   3.671   1.777   6.735
11986TIP3   OH235902   6.344   1.817   5.664
11986TIP3    H135903   6.333   1.722   5.656
11986TIP3    H235904   6.280   1.854   5.604
11987TIP3   OH235905   0.203   7.800   0.041
11987TIP3    H135906   0.177   7.892   0.045
11987TIP3    H235907   0.143   7.756   0.100
11988TIP3   OH235908   6.785   5.335   6.661
11988TIP3    H135909   6.846   5.395   6.705
11988TIP3    H235910   6.703   5.385   6.654
11989TIP3   OH235911   4.350   6.085   0.608
11989TIP3    H135912   4.363   5.998   0.569
11989TIP3    H235913   4.427   6.098   0.663
11990TIP3   OH235914   1.669   6.567   1.865
11990TIP3    H135915   1.638   6.653   1.892
11990TIP3    H235916   1.655   6.511   1.942
11991TIP3   OH235917   1.478   0.988   3.802
11991TIP3    H135918   1.419   1.051   3.844
11991TIP3    H235919   1.482   1.016   3.711
11992TIP3   OH235920   3.381   0.700   5.793
11992TIP3    H135921   3.354   0.651   5.715
11992TIP3    H235922   3.300   0.737   5.827
11993TIP3   OH235923   2.780   1.851   0.696
11993TIP3    H135924   2.826   1.794   0.757
11993TIP3    H235925   2.746   1.792   0.629
11994TIP3   OH235926   0.438   6.016   5.328
11994TIP3    H135927   0.490   5.996   5.405
11994TIP3    H235928   0.502   6.031   5.258
11995TIP3   OH235929   2.098   3.910   4.934
11995TIP3    H135930   2.139   3.823   4.930
11995TIP3    H235931   2.111   3.947   4.847
11996TIP3   OH235932   7.807   5.930   0.468
11996TIP3    H135933   7.859   5.975   0.401
11996TIP3    H235934   7.747   5.874   0.419
11997TIP3   OH235935   1.629   6.641   6.643
11997TIP3    H135936   1.722   6.624   6.631
11997TIP3    H235937   1.621   6.736   6.633
11998TIP3   OH235938   1.943   3.808   4.516
11998TIP3    H135939   1.963   3.883   4.460
11998TIP3    H235940   1.871   3.839   4.571
11999TIP3   OH235941   4.906   6.466   3.217
11999TIP3    H135942   4.903   6.435   3.307
11999TIP3    H235943   4.974   6.533   3.216
12000TIP3   OH235944   3.275   2.882   2.451
12000TIP3    H135945   3.209   2.900   2.518
12000TIP3    H235946   3.241   2.923   2.371
12001TIP3   OH235947   2.073   6.847   5.840
12001TIP3    H135948   2.150   6.791   5.832
12001TIP3    H235949   2.094   6.924   5.787
12002TIP3   OH235950   3.751   7.663   0.981
12002TIP3    H135951   3.697   7.645   1.059
12002TIP3    H235952   3.777   7.577   0.949
12003TIP3   OH235953   3.696   7.488   1.872
12003TIP3    H135954   3.619   7.540   1.895
12003TIP3    H235955   3.662   7.421   1.813
12004TIP3   OH235956   2.015   4.996   2.495
12004TIP3    H135957   1.935   4.949   2.471
12004TIP3    H235958   2.001   5.024   2.585
12005TIP3   OH235959   5.703   4.142   6.192
12005TIP3    H135960   5.659   4.138   6.108
12005TIP3    H235961   5.787   4.099   6.178
12006TIP3   OH235962   4.149   7.672   2.891
12006TIP3    H135963   4.195   7.752   2.918
12006TIP3    H235964   4.173   7.607   2.956
12007TIP3   OH235965   4.012   1.196   2.974
12007TIP3    H135966   3.963   1.206   2.893
12007TIP3    H235967   3.989   1.108   3.006
12008TIP3   OH235968   7.036   1.112   5.362
12008TIP3    H135969   7.051   1.132   5.455
12008TIP3    H235970   7.047   1.017   5.355
12009TIP3   OH235971   3.373   6.885   5.524
12009TIP3    H135972   3.416   6.969   5.508
12009TIP3    H235973   3.400   6.861   5.613
12010TIP3   OH235974   5.206   7.437   3.055
12010TIP3    H135975   5.292   7.395   3.043
12010TIP3    H235976   5.227   7.521   3.096
12011TIP3   OH235977   0.618   0.447   5.283
12011TIP3    H135978   0.565   0.454   5.363
12011TIP3    H235979   0.605   0.531   5.238
12012TIP3   OH235980   1.265   0.247   1.696
12012TIP3    H135981   1.182   0.238   1.651
12012TIP3    H235982   1.283   0.341   1.695
12013TIP3   OH235983   8.132   3.485   1.335
12013TIP3    H135984   8.133   3.577   1.363
12013TIP3    H235985   8.077   3.484   1.257
12014TIP3   OH235986   2.832   0.110   2.282
12014TIP3    H135987   2.806   0.139   2.369
12014TIP3    H235988   2.900   0.172   2.255
12015TIP3   OH235989   0.595   7.765   3.490
12015TIP3    H135990   0.545   7.721   3.422
12015TIP3    H235991   0.685   7.766   3.457
12016TIP3   OH235992   7.490   7.153   4.661
12016TIP3    H135993   7.437   7.200   4.725
12016TIP3    H235994   7.521   7.076   4.708
12017TIP3   OH235995   1.164   2.145   1.638
12017TIP3    H135996   1.165   2.148   1.542
12017TIP3    H235997   1.245   2.100   1.661
12018TIP3   OH235998   1.931   3.973   3.455
12018TIP3    H135999   1.928   3.987   3.549
12018TIP3    H236000   2.008   3.918   3.442
12019TIP3   OH236001   5.582   0.377   0.765
12019TIP3    H136002   5.672   0.372   0.734
12019TIP3    H236003   5.531   0.403   0.688
12020TIP3   OH236004   5.308   0.780   3.501
12020TIP3    H136005   5.374   0.726   3.457
12020TIP3    H236006   5.283   0.845   3.435
12021TIP3   OH236007   3.666   4.573   6.351
12021TIP3    H136008   3.731   4.525   6.300
12021TIP3    H236009   3.593   4.586   6.291
12022TIP3   OH236010   1.065   3.259   1.390
12022TIP3    H136011   0.996   3.325   1.388
12022TIP3    H236012   1.125   3.284   1.320
12023TIP3   OH236013   5.895   7.609   4.791
12023TIP3    H136014   5.882   7.690   4.840
12023TIP3    H236015   5.837   7.546   4.833
12024TIP3   OH236016   2.861   4.396   4.893
12024TIP3    H136017   2.895   4.360   4.975
12024TIP3    H236018   2.912   4.476   4.880
12025TIP3   OH236019   4.037   4.643   3.156
12025TIP3    H136020   4.018   4.735   3.136
12025TIP3    H236021   3.980   4.593   3.099
12026TIP3   OH236022   1.192   0.623   1.206
12026TIP3    H136023   1.171   0.530   1.198
12026TIP3    H236024   1.169   0.645   1.296
12027TIP3   OH236025   6.714   7.311   2.496
12027TIP3    H136026   6.699   7.231   2.548
12027TIP3    H236027   6.809   7.315   2.486
12028TIP3   OH236028   6.043   7.200   2.150
12028TIP3    H136029   5.960   7.233   2.184
12028TIP3    H236030   6.024   7.180   2.058
12029TIP3   OH236031  -0.001   3.217   0.676
12029TIP3    H136032   0.072   3.215   0.615
12029TIP3    H236033  -0.009   3.310   0.700
12030TIP3   OH236034   7.033   3.824   0.654
12030TIP3    H136035   7.104   3.772   0.691
12030TIP3    H236036   7.077   3.888   0.599
12031TIP3   OH236037   6.721   0.822   3.524
12031TIP3    H136038   6.697   0.732   3.501
12031TIP3    H236039   6.668   0.842   3.601
12032TIP3   OH236040   6.520   4.422   0.160
12032TIP3    H136041   6.464   4.359   0.115
12032TIP3    H236042   6.460   4.475   0.212
12033TIP3   OH236043   0.584   6.183   6.495
12033TIP3    H136044   0.524   6.118   6.529
12033TIP3    H236045   0.608   6.237   6.570
12034TIP3   OH236046   0.611   1.348   2.604
12034TIP3    H136047   0.700   1.314   2.612
12034TIP3    H236048   0.562   1.304   2.673
12035TIP3   OH236049   5.743   1.464   3.026
12035TIP3    H136050   5.744   1.500   2.937
12035TIP3    H236051   5.776   1.375   3.017
12036TIP3   OH236052   7.859   5.145   1.168
12036TIP3    H136053   7.880   5.089   1.092
12036TIP3    H236054   7.763   5.148   1.169
12037TIP3   OH236055   3.542   4.350   5.083
12037TIP3    H136056   3.594   4.302   5.019
12037TIP3    H236057   3.463   4.298   5.094
12038TIP3   OH236058   3.054   6.509   5.434
12038TIP3    H136059   3.074   6.478   5.522
12038TIP3    H236060   3.108   6.587   5.423
12039TIP3   OH236061   5.050   2.129   2.818
12039TIP3    H136062   5.086   2.055   2.769
12039TIP3    H236063   5.092   2.206   2.779
12040TIP3   OH236064   6.283   6.582   1.193
12040TIP3    H136065   6.340   6.629   1.254
12040TIP3    H236066   6.194   6.610   1.216
12041TIP3   OH236067   0.793   5.255   3.552
12041TIP3    H136068   0.828   5.224   3.468
12041TIP3    H236069   0.806   5.350   3.548
12042TIP3   OH236070   4.269   3.418   4.836
12042TIP3    H136071   4.243   3.336   4.879
12042TIP3    H236072   4.317   3.466   4.904
12043TIP3   OH236073   6.137   6.482   4.259
12043TIP3    H136074   6.157   6.395   4.225
12043TIP3    H236075   6.090   6.526   4.188
12044TIP3   OH236076   0.823   0.040   1.637
12044TIP3    H136077   0.863   0.120   1.602
12044TIP3    H236078   0.807  -0.014   1.560
12045TIP3   OH236079   2.419   6.356   5.793
12045TIP3    H136080   2.497   6.389   5.748
12045TIP3    H236081   2.449   6.336   5.882
12046TIP3   OH236082   4.043   1.788   2.868
12046TIP3    H136083   4.003   1.717   2.918
12046TIP3    H236084   3.995   1.867   2.894
12047TIP3   OH236085   0.171   6.274   6.501
12047TIP3    H136086   0.084   6.237   6.486
12047TIP3    H236087   0.166   6.311   6.589
12048TIP3   OH236088   6.760   6.359   0.561
12048TIP3    H136089   6.788   6.377   0.651
12048TIP3    H236090   6.813   6.418   0.507
12049TIP3   OH236091   7.208   6.486   5.443
12049TIP3    H136092   7.238   6.415   5.499
12049TIP3    H236093   7.146   6.535   5.497
12050TIP3   OH236094   2.050   6.923   3.262
12050TIP3    H136095   2.002   6.842   3.252
12050TIP3    H236096   2.123   6.916   3.200
12051TIP3   OH236097   4.224   6.492   1.794
12051TIP3    H136098   4.318   6.511   1.790
12051TIP3    H236099   4.182   6.574   1.767
12052TIP3   OH236100   5.537   0.626   1.863
12052TIP3    H136101   5.561   0.584   1.780
12052TIP3    H236102   5.581   0.711   1.860
12053TIP3   OH236103   3.435   4.161   5.347
12053TIP3    H136104   3.390   4.218   5.284
12053TIP3    H236105   3.366   4.102   5.378
12054TIP3   OH236106   0.710   3.451   4.751
12054TIP3    H136107   0.726   3.360   4.774
12054TIP3    H236108   0.672   3.446   4.663
12055TIP3   OH236109   7.883   6.949   3.972
12055TIP3    H136110   7.803   6.905   4.000
12055TIP3    H236111   7.930   6.969   4.053
12056TIP3   OH236112   5.099   7.059   6.095
12056TIP3    H136113   5.037   7.001   6.140
12056TIP3    H236114   5.072   7.147   6.120
12057TIP3   OH236115   6.897   1.215   5.084
12057TIP3    H136116   6.944   1.299   5.091
12057TIP3    H236117   6.907   1.175   5.170
12058TIP3   OH236118   5.275   0.194   6.400
12058TIP3    H136119   5.344   0.142   6.361
12058TIP3    H236120   5.210   0.129   6.428
12059TIP3   OH236121   0.321   2.725   5.296
12059TIP3    H136122   0.410   2.731   5.262
12059TIP3    H236123   0.330   2.684   5.381
12060TIP3   OH236124   2.872   6.764   0.251
12060TIP3    H136125   2.819   6.844   0.250
12060TIP3    H236126   2.815   6.697   0.287
12061TIP3   OH236127   3.300   0.272   5.939
12061TIP3    H136128   3.289   0.205   6.007
12061TIP3    H236129   3.391   0.265   5.913
12062TIP3   OH236130   8.015   6.589   0.585
12062TIP3    H136131   7.977   6.502   0.598
12062TIP3    H236132   8.108   6.572   0.570
12063TIP3   OH236133   5.819   0.542   5.803
12063TIP3    H136134   5.739   0.536   5.856
12063TIP3    H236135   5.787   0.548   5.712
12064TIP3   OH236136   0.126   3.635   5.167
12064TIP3    H136137   0.104   3.673   5.082
12064TIP3    H236138   0.209   3.678   5.192
12065TIP3   OH236139   5.049   7.790   5.738
12065TIP3    H136140   5.080   7.880   5.732
12065TIP3    H236141   5.011   7.771   5.652
12066TIP3   OH236142   3.626   7.849   6.779
12066TIP3    H136143   3.689   7.785   6.812
12066TIP3    H236144   3.669   7.889   6.703
12067TIP3   OH236145   1.176   3.125   4.899
12067TIP3    H136146   1.231   3.069   4.954
12067TIP3    H236147   1.233   3.148   4.825
12068TIP3   OH236148   2.998   4.646   5.179
12068TIP3    H136149   2.923   4.602   5.218
12068TIP3    H236150   2.996   4.734   5.214
12069TIP3   OH236151   3.300   5.949   6.765
12069TIP3    H136152   3.309   5.854   6.756
12069TIP3    H236153   3.357   5.985   6.697
12070TIP3   OH236154   3.778   3.632   5.305
12070TIP3    H136155   3.731   3.709   5.338
12070TIP3    H236156   3.864   3.636   5.346
12071TIP3   OH236157   1.420   6.647   3.005
12071TIP3    H136158   1.425   6.557   3.039
12071TIP3    H236159   1.354   6.689   3.059
12072TIP3   OH236160   5.352   4.337   5.298
12072TIP3    H136161   5.294   4.411   5.315
12072TIP3    H236162   5.357   4.331   5.203
12073TIP3   OH236163   2.466   2.775   2.484
12073TIP3    H136164   2.408   2.730   2.422
12073TIP3    H236165   2.544   2.797   2.432
12074TIP3   OH236166   3.693   6.151   0.063
12074TIP3    H136167   3.715   6.147  -0.030
12074TIP3    H236168   3.643   6.232   0.073
12075TIP3   OH236169   4.171   6.336   5.820
12075TIP3    H136170   4.152   6.428   5.804
12075TIP3    H236171   4.220   6.334   5.902
12076TIP3   OH236172   0.858   5.757   3.678
12076TIP3    H136173   0.799   5.814   3.727
12076TIP3    H236174   0.934   5.746   3.736
12077TIP3   OH236175   7.242   3.205   0.593
12077TIP3    H136176   7.308   3.233   0.656
12077TIP3    H236177   7.293   3.183   0.514
12078TIP3   OH236178   3.912   3.795   0.992
12078TIP3    H136179   3.941   3.886   0.991
12078TIP3    H236180   3.938   3.761   0.907
12079TIP3   OH236181   2.798   7.507   6.752
12079TIP3    H136182   2.773   7.478   6.840
12079TIP3    H236183   2.841   7.430   6.713
12080TIP3   OH236184   0.297   0.449   4.431
12080TIP3    H136185   0.264   0.379   4.488
12080TIP3    H236186   0.344   0.508   4.489
12081TIP3   OH236187   6.011   4.780   6.606
12081TIP3    H136188   6.069   4.766   6.531
12081TIP3    H236189   6.065   4.827   6.669
12082TIP3   OH236190   1.673   3.745   3.618
12082TIP3    H136191   1.676   3.742   3.714
12082TIP3    H236192   1.593   3.697   3.595
12083TIP3   OH236193   7.845   5.126   6.046
12083TIP3    H136194   7.916   5.124   6.110
12083TIP3    H236195   7.817   5.035   6.039
12084TIP3   OH236196   3.496   4.627   5.566
12084TIP3    H136197   3.402   4.619   5.578
12084TIP3    H236198   3.514   4.585   5.482
12085TIP3   OH236199   0.355   2.135   5.998
12085TIP3    H136200   0.351   2.058   6.055
12085TIP3    H236201   0.306   2.110   5.920
12086TIP3   OH236202   0.668   6.863   4.734
12086TIP3    H136203   0.720   6.784   4.747
12086TIP3    H236204   0.586   6.846   4.780
12087TIP3   OH236205   6.182   3.815   5.492
12087TIP3    H136206   6.134   3.736   5.470
12087TIP3    H236207   6.114   3.878   5.518
12088TIP3   OH236208   5.827   2.086   0.501
12088TIP3    H136209   5.876   2.032   0.564
12088TIP3    H236210   5.843   2.044   0.416
12089TIP3   OH236211   7.814   6.594   3.842
12089TIP3    H136212   7.897   6.561   3.807
12089TIP3    H236213   7.815   6.570   3.934
12090TIP3   OH236214   6.074   2.956   0.543
12090TIP3    H136215   6.030   2.942   0.460
12090TIP3    H236216   6.033   3.034   0.580
12091TIP3   OH236217   0.317   2.868   4.754
12091TIP3    H136218   0.300   2.776   4.773
12091TIP3    H236219   0.401   2.869   4.709
12092TIP3   OH236220   2.378   4.234   0.939
12092TIP3    H136221   2.415   4.146   0.941
12092TIP3    H236222   2.437   4.284   0.883
12093TIP3   OH236223   0.300   0.651   2.651
12093TIP3    H136224   0.289   0.562   2.617
12093TIP3    H236225   0.301   0.640   2.746
12094TIP3   OH236226   6.199   6.682   2.005
12094TIP3    H136227   6.269   6.619   1.986
12094TIP3    H236228   6.121   6.627   2.016
12095TIP3   OH236229   0.637   7.171   3.738
12095TIP3    H136230   0.638   7.077   3.722
12095TIP3    H236231   0.727   7.192   3.766
12096TIP3   OH236232   0.259   1.809   4.247
12096TIP3    H136233   0.326   1.741   4.243
12096TIP3    H236234   0.300   1.885   4.205
12097TIP3   OH236235   0.027   3.757   6.637
12097TIP3    H136236   0.107   3.733   6.590
12097TIP3    H236237   0.057   3.801   6.716
12098TIP3   OH236238   7.337   3.790   6.653
12098TIP3    H136239   7.293   3.852   6.594
12098TIP3    H236240   7.272   3.720   6.666
12099TIP3   OH236241   7.173   6.624   0.483
12099TIP3    H136242   7.078   6.633   0.482
12099TIP3    H236243   7.197   6.611   0.392
12100TIP3   OH236244   4.881   2.958   1.038
12100TIP3    H136245   4.867   3.052   1.037
12100TIP3    H236246   4.837   2.925   0.960
12101TIP3   OH236247   4.145   6.808   5.593
12101TIP3    H136248   4.132   6.884   5.650
12101TIP3    H236249   4.224   6.829   5.544
12102TIP3   OH236250   2.529   0.543   3.258
12102TIP3    H136251   2.602   0.594   3.292
12102TIP3    H236252   2.542   0.542   3.164
12103TIP3   OH236253   0.434   5.217   4.179
12103TIP3    H136254   0.347   5.234   4.145
12103TIP3    H236255   0.430   5.242   4.271
12104TIP3   OH236256   4.756   7.062   2.433
12104TIP3    H136257   4.703   7.035   2.508
12104TIP3    H236258   4.732   7.001   2.363
12105TIP3   OH236259   5.180   4.428   1.828
12105TIP3    H136260   5.231   4.471   1.897
12105TIP3    H236261   5.128   4.497   1.789
12106TIP3   OH236262   1.021   0.851   2.751
12106TIP3    H136263   1.043   0.882   2.839
12106TIP3    H236264   0.992   0.761   2.764
12107TIP3   OH236265   5.911   0.139   2.567
12107TIP3    H136266   5.817   0.121   2.568
12107TIP3    H236267   5.933   0.143   2.474
12108TIP3   OH236268   5.559   6.377   4.923
12108TIP3    H136269   5.483   6.395   4.979
12108TIP3    H236270   5.626   6.437   4.956
12109TIP3   OH236271   3.800   7.545   4.462
12109TIP3    H136272   3.831   7.485   4.530
12109TIP3    H236273   3.821   7.501   4.380
12110TIP3   OH236274   2.883   5.987   4.616
12110TIP3    H136275   2.798   6.009   4.578
12110TIP3    H236276   2.933   5.951   4.542
12111TIP3   OH236277   2.737   4.583   1.102
12111TIP3    H136278   2.764   4.575   1.193
12111TIP3    H236279   2.819   4.582   1.053
12112TIP3   OH236280   3.854   4.611   3.574
12112TIP3    H136281   3.868   4.706   3.582
12112TIP3    H236282   3.809   4.587   3.655
12113TIP3   OH236283   5.687   4.077   0.804
12113TIP3    H136284   5.629   4.123   0.864
12113TIP3    H236285   5.638   3.999   0.778
12114TIP3   OH236286   2.133   6.627   0.332
12114TIP3    H136287   2.094   6.606   0.417
12114TIP3    H236288   2.184   6.549   0.309
12115TIP3   OH236289   7.668   5.593   2.109
12115TIP3    H136290   7.743   5.544   2.075
12115TIP3    H236291   7.662   5.567   2.201
12116TIP3   OH236292   0.190   5.809   2.736
12116TIP3    H136293   0.279   5.843   2.733
12116TIP3    H236294   0.200   5.715   2.747
12117TIP3   OH236295   4.690   1.015   5.324
12117TIP3    H136296   4.611   1.021   5.269
12117TIP3    H236297   4.730   0.932   5.299
12118TIP3   OH236298   4.386   0.317   2.523
12118TIP3    H136299   4.314   0.285   2.577
12118TIP3    H236300   4.405   0.404   2.556
12119TIP3   OH236301   7.565   7.343   1.185
12119TIP3    H136302   7.520   7.409   1.237
12119TIP3    H236303   7.537   7.259   1.222
12120TIP3   OH236304   0.512   5.927   6.235
12120TIP3    H136305   0.479   6.014   6.259
12120TIP3    H236306   0.570   5.903   6.306
12121TIP3   OH236307   5.031   3.483   5.443
12121TIP3    H136308   4.993   3.504   5.358
12121TIP3    H236309   4.972   3.419   5.481
12122TIP3   OH236310   4.258   5.350   3.500
12122TIP3    H136311   4.201   5.274   3.496
12122TIP3    H236312   4.298   5.355   3.414
12123TIP3   OH236313   0.114   2.960   3.324
12123TIP3    H136314   0.102   3.032   3.262
12123TIP3    H236315   0.197   2.921   3.299
12124TIP3   OH236316   7.457   3.149   2.010
12124TIP3    H136317   7.536   3.179   2.056
12124TIP3    H236318   7.406   3.103   2.077
12125TIP3   OH236319   4.303   0.440   5.398
12125TIP3    H136320   4.274   0.495   5.471
12125TIP3    H236321   4.370   0.382   5.437
12126TIP3   OH236322   4.887   0.601   4.589
12126TIP3    H136323   4.973   0.623   4.624
12126TIP3    H236324   4.856   0.681   4.547
12127TIP3   OH236325   7.985   2.056   0.801
12127TIP3    H136326   8.016   2.147   0.796
12127TIP3    H236327   7.912   2.052   0.739
12128TIP3   OH236328   1.189   1.382   3.359
12128TIP3    H136329   1.131   1.307   3.349
12128TIP3    H236330   1.273   1.352   3.325
12129TIP3   OH236331   8.266   0.447   6.584
12129TIP3    H136332   8.216   0.368   6.606
12129TIP3    H236333   8.208   0.519   6.609
12130TIP3   OH236334   3.758   6.613   3.232
12130TIP3    H136335   3.698   6.665   3.286
12130TIP3    H236336   3.701   6.563   3.174
12131TIP3   OH236337   6.000   3.135   0.790
12131TIP3    H136338   6.009   3.174   0.877
12131TIP3    H236339   5.976   3.209   0.733
12132TIP3   OH236340   2.996   2.644   3.546
12132TIP3    H136341   2.959   2.631   3.633
12132TIP3    H236342   3.028   2.557   3.521
12133TIP3   OH236343   2.713   5.193   1.653
12133TIP3    H136344   2.718   5.289   1.655
12133TIP3    H236345   2.757   5.165   1.733
12134TIP3   OH236346   4.325   4.010   5.874
12134TIP3    H136347   4.388   4.033   5.941
12134TIP3    H236348   4.258   3.959   5.920
12135TIP3   OH236349   3.848   4.420   6.223
12135TIP3    H136350   3.884   4.356   6.284
12135TIP3    H236351   3.924   4.453   6.175
12136TIP3   OH236352   8.012   5.520   4.567
12136TIP3    H136353   8.031   5.460   4.639
12136TIP3    H236354   7.967   5.594   4.608
12137TIP3   OH236355   2.322   1.012   6.749
12137TIP3    H136356   2.333   1.084   6.687
12137TIP3    H236357   2.322   1.054   6.835
12138TIP3   OH236358   6.579   6.211   2.157
12138TIP3    H136359   6.544   6.249   2.237
12138TIP3    H236360   6.657   6.163   2.185
12139TIP3   OH236361   0.196   4.195   6.008
12139TIP3    H136362   0.171   4.154   5.926
12139TIP3    H236363   0.139   4.155   6.074
12140TIP3   OH236364   1.487   6.339   2.754
12140TIP3    H136365   1.544   6.379   2.688
12140TIP3    H236366   1.399   6.365   2.728
12141TIP3   OH236367   0.289   3.563   2.721
12141TIP3    H136368   0.254   3.516   2.797
12141TIP3    H236369   0.262   3.512   2.646
12142TIP3   OH236370   7.064   4.331   6.659
12142TIP3    H136371   7.080   4.408   6.603
12142TIP3    H236372   7.016   4.366   6.734
12143TIP3   OH236373   1.991   1.248   6.224
12143TIP3    H136374   1.997   1.175   6.163
12143TIP3    H236375   1.938   1.214   6.296
12144TIP3   OH236376   0.785   3.974   1.060
12144TIP3    H136377   0.690   3.984   1.051
12144TIP3    H236378   0.807   3.902   1.001
12145TIP3   OH236379   4.417   2.804   3.667
12145TIP3    H136380   4.408   2.735   3.601
12145TIP3    H236381   4.365   2.877   3.634
12146TIP3   OH236382   2.680   0.472   1.809
12146TIP3    H136383   2.675   0.430   1.895
12146TIP3    H236384   2.594   0.460   1.771
12147TIP3   OH236385   4.541   3.240   4.587
12147TIP3    H136386   4.496   3.324   4.602
12147TIP3    H236387   4.583   3.251   4.502
12148TIP3   OH236388   6.247   3.085   3.079
12148TIP3    H136389   6.223   3.059   3.168
12148TIP3    H236390   6.190   3.033   3.022
12149TIP3   OH236391   2.694   2.439   6.362
12149TIP3    H136392   2.605   2.431   6.398
12149TIP3    H236393   2.697   2.528   6.327
12150TIP3   OH236394   8.042   4.563   0.798
12150TIP3    H136395   8.046   4.642   0.745
12150TIP3    H236396   8.068   4.492   0.739
12151TIP3   OH236397   4.604   0.374   5.218
12151TIP3    H136398   4.647   0.423   5.288
12151TIP3    H236399   4.606   0.283   5.247
12152TIP3   OH236400   0.790   6.896   5.901
12152TIP3    H136401   0.818   6.839   5.973
12152TIP3    H236402   0.870   6.913   5.852
12153TIP3   OH236403   4.936   4.276   6.597
12153TIP3    H136404   4.949   4.310   6.685
12153TIP3    H236405   4.996   4.202   6.591
12154TIP3   OH236406   6.369   3.728   0.896
12154TIP3    H136407   6.434   3.737   0.827
12154TIP3    H236408   6.294   3.688   0.852
12155TIP3   OH236409   5.806   6.443   4.276
12155TIP3    H136410   5.841   6.360   4.243
12155TIP3    H236411   5.797   6.430   4.370
12156TIP3   OH236412   0.799   3.343   6.501
12156TIP3    H136413   0.710   3.340   6.537
12156TIP3    H236414   0.855   3.338   6.578
12157TIP3   OH236415   6.074   7.236   6.679
12157TIP3    H136416   6.068   7.325   6.644
12157TIP3    H236417   6.037   7.181   6.610
12158TIP3   OH236418   5.046   1.306   0.677
12158TIP3    H136419   5.014   1.306   0.767
12158TIP3    H236420   5.092   1.222   0.669
12159TIP3   OH236421   2.648   4.111   5.739
12159TIP3    H136422   2.635   4.172   5.667
12159TIP3    H236423   2.699   4.161   5.804
12160TIP3   OH236424   2.468   5.989   2.062
12160TIP3    H136425   2.537   6.041   2.102
12160TIP3    H236426   2.490   5.987   1.969
12161TIP3   OH236427   3.192   4.792   0.607
12161TIP3    H136428   3.110   4.787   0.559
12161TIP3    H236429   3.258   4.813   0.540
12162TIP3   OH236430   1.332   0.764   1.468
12162TIP3    H136431   1.314   0.826   1.539
12162TIP3    H236432   1.247   0.748   1.427
12163TIP3   OH236433   8.223   0.145   1.314
12163TIP3    H136434   8.211   0.154   1.408
12163TIP3    H236435   8.137   0.121   1.281
12164TIP3   OH236436   6.437   6.057   0.229
12164TIP3    H136437   6.369   6.059   0.162
12164TIP3    H236438   6.492   5.982   0.206
12165TIP3   OH236439   7.758   6.813   2.643
12165TIP3    H136440   7.795   6.818   2.555
12165TIP3    H236441   7.698   6.737   2.639
12166TIP3   OH236442   4.766   1.442   0.019
12166TIP3    H136443   4.855   1.460   0.049
12166TIP3    H236444   4.713   1.444   0.099
12167TIP3   OH236445   3.523   0.021   0.947
12167TIP3    H136446   3.445   0.032   0.893
12167TIP3    H236447   3.596   0.044   0.890
12168TIP3   OH236448   2.188   6.172   3.730
12168TIP3    H136449   2.211   6.149   3.640
12168TIP3    H236450   2.101   6.212   3.723
12169TIP3   OH236451   6.630   3.411   6.598
12169TIP3    H136452   6.553   3.432   6.652
12169TIP3    H236453   6.622   3.468   6.522
12170TIP3   OH236454   0.203   3.020   6.498
12170TIP3    H136455   0.273   3.084   6.509
12170TIP3    H236456   0.161   3.015   6.584
12171TIP3   OH236457   5.898   4.683   3.113
12171TIP3    H136458   5.890   4.631   3.193
12171TIP3    H236459   5.983   4.661   3.077
12172TIP3   OH236460   3.035   2.095   0.888
12172TIP3    H136461   3.063   2.159   0.953
12172TIP3    H236462   2.960   2.052   0.927
12173TIP3   OH236463   0.124   1.286   0.298
12173TIP3    H136464   0.198   1.326   0.343
12173TIP3    H236465   0.153   1.275   0.208
12174TIP3   OH236466   5.804   5.119   2.110
12174TIP3    H136467   5.767   5.054   2.171
12174TIP3    H236468   5.844   5.066   2.041
12175TIP3   OH236469   6.138   3.775   5.998
12175TIP3    H136470   6.168   3.833   5.928
12175TIP3    H236471   6.140   3.687   5.960
12176TIP3   OH236472   4.701   2.836   5.499
12176TIP3    H136473   4.611   2.851   5.468
12176TIP3    H236474   4.756   2.862   5.425
12177TIP3   OH236475   2.102   7.462   4.865
12177TIP3    H136476   2.174   7.406   4.836
12177TIP3    H236477   2.033   7.401   4.892
12178TIP3   OH236478   2.184   2.834   0.147
12178TIP3    H136479   2.199   2.761   0.208
12178TIP3    H236480   2.203   2.796   0.061
12179TIP3   OH236481   3.559   0.779   0.194
12179TIP3    H136482   3.583   0.868   0.168
12179TIP3    H236483   3.489   0.755   0.133
12180TIP3   OH236484   3.947   7.021   4.883
12180TIP3    H136485   3.912   7.021   4.793
12180TIP3    H236486   3.870   7.031   4.938
12181TIP3   OH236487   4.799   0.080   4.777
12181TIP3    H136488   4.803   0.087   4.682
12181TIP3    H236489   4.712   0.043   4.795
12182TIP3   OH236490   1.728   2.558   6.509
12182TIP3    H136491   1.682   2.642   6.506
12182TIP3    H236492   1.694   2.509   6.435
12183TIP3   OH236493   5.696   4.890   6.332
12183TIP3    H136494   5.735   4.942   6.401
12183TIP3    H236495   5.748   4.810   6.330
12184TIP3   OH236496   5.816   3.566   0.169
12184TIP3    H136497   5.794   3.648   0.124
12184TIP3    H236498   5.737   3.513   0.161
12185TIP3   OH236499   0.254   5.158   4.649
12185TIP3    H136500   0.217   5.113   4.725
12185TIP3    H236501   0.290   5.088   4.595
12186TIP3   OH236502   5.747   2.918   4.947
12186TIP3    H136503   5.744   2.860   5.023
12186TIP3    H236504   5.663   2.964   4.949
12187TIP3   OH236505   3.977   5.469   1.933
12187TIP3    H136506   3.957   5.561   1.947
12187TIP3    H236507   3.966   5.428   2.019
12188TIP3   OH236508   6.032   3.930   2.737
12188TIP3    H136509   5.958   3.934   2.676
12188TIP3    H236510   6.094   3.995   2.704
12189TIP3   OH236511   4.657   6.747   2.830
12189TIP3    H136512   4.693   6.738   2.918
12189TIP3    H236513   4.566   6.773   2.844
12190TIP3   OH236514   5.059   3.956   0.374
12190TIP3    H136515   5.071   3.867   0.407
12190TIP3    H236516   5.079   3.950   0.281
12191TIP3   OH236517   2.578   6.802   5.093
12191TIP3    H136518   2.527   6.875   5.057
12191TIP3    H236519   2.579   6.817   5.187
12192TIP3   OH236520   4.803   0.862   2.751
12192TIP3    H136521   4.745   0.914   2.807
12192TIP3    H236522   4.886   0.910   2.750
12193TIP3   OH236523   4.778   3.238   3.625
12193TIP3    H136524   4.871   3.245   3.606
12193TIP3    H236525   4.738   3.211   3.542
12194TIP3   OH236526   1.812   3.468   6.473
12194TIP3    H136527   1.851   3.514   6.548
12194TIP3    H236528   1.745   3.528   6.440
12195TIP3   OH236529   3.610   2.088   2.208
12195TIP3    H136530   3.577   1.998   2.199
12195TIP3    H236531   3.704   2.078   2.223
12196TIP3   OH236532   3.794   2.822   6.131
12196TIP3    H136533   3.851   2.844   6.205
12196TIP3    H236534   3.706   2.846   6.160
12197TIP3   OH236535   4.365   5.383   3.248
12197TIP3    H136536   4.340   5.458   3.193
12197TIP3    H236537   4.428   5.334   3.195
12198TIP3   OH236538   7.397   3.979   6.123
12198TIP3    H136539   7.321   3.922   6.111
12198TIP3    H236540   7.371   4.039   6.193
12199TIP3   OH236541   2.730   5.471   1.692
12199TIP3    H136542   2.791   5.489   1.763
12199TIP3    H236543   2.686   5.555   1.677
12200TIP3   OH236544   0.530   5.467   5.024
12200TIP3    H136545   0.591   5.520   5.075
12200TIP3    H236546   0.572   5.381   5.018
12201TIP3   OH236547   7.133   5.663   1.974
12201TIP3    H136548   7.204   5.652   1.912
12201TIP3    H236549   7.116   5.575   2.007
12202TIP3   OH236550   3.576   6.803   3.329
12202TIP3    H136551   3.558   6.826   3.420
12202TIP3    H236552   3.606   6.885   3.289
12203TIP3   OH236553   3.594   1.525   6.038
12203TIP3    H136554   3.515   1.525   6.093
12203TIP3    H236555   3.563   1.554   5.952
12204TIP3   OH236556   6.552   5.473   1.615
12204TIP3    H136557   6.526   5.558   1.579
12204TIP3    H236558   6.484   5.413   1.585
12205TIP3   OH236559   7.452   4.356   4.356
12205TIP3    H136560   7.523   4.325   4.412
12205TIP3    H236561   7.414   4.277   4.320
12206TIP3   OH236562   0.856   5.301   5.753
12206TIP3    H136563   0.844   5.385   5.709
12206TIP3    H236564   0.845   5.321   5.846
12207TIP3   OH236565   8.217   1.583   1.208
12207TIP3    H136566   8.147   1.620   1.153
12207TIP3    H236567   8.175   1.511   1.254
12208TIP3   OH236568   7.802   0.128   0.378
12208TIP3    H136569   7.827   0.210   0.421
12208TIP3    H236570   7.884   0.081   0.367
12209TIP3   OH236571   3.586   0.526   5.894
12209TIP3    H136572   3.507   0.579   5.879
12209TIP3    H236573   3.639   0.540   5.816
12210TIP3   OH236574   7.803   4.684   2.979
12210TIP3    H136575   7.781   4.637   3.060
12210TIP3    H236576   7.733   4.661   2.918
12211TIP3   OH236577   8.241   6.246   0.079
12211TIP3    H136578   8.295   6.169   0.063
12211TIP3    H236579   8.162   6.232   0.026
12212TIP3   OH236580   3.802   4.319   0.777
12212TIP3    H136581   3.817   4.405   0.817
12212TIP3    H236582   3.852   4.258   0.831
12213TIP3   OH236583   5.471   7.493   5.109
12213TIP3    H136584   5.423   7.566   5.071
12213TIP3    H236585   5.412   7.457   5.175
12214TIP3   OH236586   2.409   5.318   1.697
12214TIP3    H136587   2.359   5.313   1.616
12214TIP3    H236588   2.499   5.332   1.669
12215TIP3   OH236589   4.036   3.141   2.593
12215TIP3    H136590   4.008   3.103   2.677
12215TIP3    H236591   4.012   3.075   2.528
12216TIP3   OH236592   2.271   3.140   1.791
12216TIP3    H136593   2.198   3.143   1.852
12216TIP3    H236594   2.348   3.160   1.845
12217TIP3   OH236595   6.343   6.498   2.244
12217TIP3    H136596   6.337   6.469   2.153
12217TIP3    H236597   6.264   6.550   2.258
12218TIP3   OH236598   3.839   4.349   5.636
12218TIP3    H136599   3.930   4.345   5.608
12218TIP3    H236600   3.813   4.440   5.622
12219TIP3   OH236601   7.692   3.040   3.090
12219TIP3    H136602   7.635   3.085   3.029
12219TIP3    H236603   7.746   3.109   3.128
12220TIP3   OH236604   6.731   4.226   5.082
12220TIP3    H136605   6.657   4.249   5.137
12220TIP3    H236606   6.753   4.136   5.107
12221TIP3   OH236607   7.134   1.302   1.917
12221TIP3    H136608   7.221   1.342   1.914
12221TIP3    H236609   7.129   1.262   2.004
12222TIP3   OH236610   4.134   2.372   3.644
12222TIP3    H136611   4.047   2.333   3.645
12222TIP3    H236612   4.128   2.448   3.701
12223TIP3   OH236613   2.434   4.194   4.636
12223TIP3    H136614   2.386   4.156   4.562
12223TIP3    H236615   2.499   4.252   4.596
12224TIP3   OH236616   0.346   3.812   3.915
12224TIP3    H136617   0.265   3.780   3.955
12224TIP3    H236618   0.368   3.890   3.967
12225TIP3   OH236619   6.771   1.856   4.374
12225TIP3    H136620   6.774   1.780   4.317
12225TIP3    H236621   6.848   1.847   4.430
12226TIP3   OH236622   8.220   4.780   6.597
12226TIP3    H136623   8.148   4.755   6.655
12226TIP3    H236624   8.197   4.740   6.513
12227TIP3   OH236625   7.307   2.447   2.231
12227TIP3    H136626   7.212   2.454   2.242
12227TIP3    H236627   7.333   2.381   2.295
12228TIP3   OH236628   0.795   0.731   2.926
12228TIP3    H136629   0.786   0.652   2.872
12228TIP3    H236630   0.775   0.701   3.015
12229TIP3   OH236631   4.344   6.940   5.882
12229TIP3    H136632   4.399   6.862   5.872
12229TIP3    H236633   4.270   6.911   5.936
12230TIP3   OH236634   3.796   2.149   1.989
12230TIP3    H136635   3.731   2.198   1.938
12230TIP3    H236636   3.754   2.137   2.074
12231TIP3   OH236637   1.172   7.010   6.465
12231TIP3    H136638   1.235   6.948   6.430
12231TIP3    H236639   1.095   6.957   6.487
12232TIP3   OH236640   7.135   1.977   0.091
12232TIP3    H136641   7.092   1.942   0.013
12232TIP3    H236642   7.169   2.063   0.063
12233TIP3   OH236643   1.625   7.067   1.985
12233TIP3    H136644   1.696   7.058   1.922
12233TIP3    H236645   1.669   7.081   2.069
12234TIP3   OH236646   7.510   5.984   5.211
12234TIP3    H136647   7.455   6.022   5.144
12234TIP3    H236648   7.469   5.899   5.231
12235TIP3   OH236649   3.154   3.507   0.115
12235TIP3    H136650   3.074   3.495   0.064
12235TIP3    H236651   3.223   3.510   0.049
12236TIP3   OH236652   4.310   4.003   3.650
12236TIP3    H136653   4.287   4.048   3.569
12236TIP3    H236654   4.405   4.007   3.654
12237TIP3   OH236655   7.539   1.085   3.351
12237TIP3    H136656   7.609   1.109   3.412
12237TIP3    H236657   7.536   1.157   3.288
12238TIP3   OH236658   5.872   5.372   5.543
12238TIP3    H136659   5.840   5.306   5.604
12238TIP3    H236660   5.916   5.437   5.597
12239TIP3   OH236661   7.508   6.991   4.174
12239TIP3    H136662   7.427   6.957   4.139
12239TIP3    H236663   7.575   6.929   4.146
12240TIP3   OH236664   5.810   2.924   6.536
12240TIP3    H136665   5.858   2.986   6.590
12240TIP3    H236666   5.726   2.913   6.581
12241TIP3   OH236667   5.863   5.899   4.575
12241TIP3    H136668   5.862   5.877   4.668
12241TIP3    H236669   5.787   5.955   4.563
12242TIP3   OH236670   1.670   2.101   1.467
12242TIP3    H136671   1.633   2.022   1.505
12242TIP3    H236672   1.736   2.070   1.405
12243TIP3   OH236673   2.461   3.241   5.230
12243TIP3    H136674   2.383   3.245   5.285
12243TIP3    H236675   2.533   3.270   5.287
12244TIP3   OH236676   6.626   5.363   5.020
12244TIP3    H136677   6.554   5.346   4.958
12244TIP3    H236678   6.704   5.328   4.977
12245TIP3   OH236679   6.647   6.000   0.728
12245TIP3    H136680   6.559   6.033   0.709
12245TIP3    H236681   6.664   5.937   0.658
12246TIP3   OH236682   7.278   4.518   4.083
12246TIP3    H136683   7.293   4.583   4.015
12246TIP3    H236684   7.321   4.555   4.161
12247TIP3   OH236685   1.014   7.508   0.958
12247TIP3    H136686   0.948   7.539   1.019
12247TIP3    H236687   0.975   7.432   0.916
12248TIP3   OH236688   7.793   3.222   5.678
12248TIP3    H136689   7.763   3.166   5.749
12248TIP3    H236690   7.859   3.278   5.717
12249TIP3   OH236691   0.568   2.663   0.295
12249TIP3    H136692   0.520   2.584   0.322
12249TIP3    H236693   0.506   2.710   0.239
12250TIP3   OH236694   5.034   0.449   0.440
12250TIP3    H136695   4.949   0.476   0.407
12250TIP3    H236696   5.073   0.399   0.369
12251TIP3   OH236697   0.441   7.522   0.532
12251TIP3    H136698   0.364   7.466   0.541
12251TIP3    H236699   0.408   7.611   0.545
12252TIP3   OH236700   0.320   5.816   6.610
12252TIP3    H136701   0.354   5.906   6.611
12252TIP3    H236702   0.351   5.779   6.528
12253TIP3   OH236703   1.055   2.832   1.655
12253TIP3    H136704   1.037   2.908   1.598
12253TIP3    H236705   1.115   2.865   1.721
12254TIP3   OH236706   2.775   6.433   5.116
12254TIP3    H136707   2.862   6.394   5.124
12254TIP3    H236708   2.758   6.473   5.201
12255TIP3   OH236709   4.335   6.356   3.872
12255TIP3    H136710   4.252   6.310   3.876
12255TIP3    H236711   4.350   6.388   3.961
12256TIP3   OH236712   5.725   7.195   4.053
12256TIP3    H136713   5.675   7.132   4.105
12256TIP3    H236714   5.798   7.220   4.109
12257TIP3   OH236715   0.401   0.665   5.695
12257TIP3    H136716   0.364   0.753   5.703
12257TIP3    H236717   0.386   0.625   5.781
12258TIP3   OH236718   5.168   5.054   2.988
12258TIP3    H136719   5.112   5.077   3.063
12258TIP3    H236720   5.228   5.129   2.980
12259TIP3   OH236721   4.312   6.964   3.531
12259TIP3    H136722   4.336   6.907   3.604
12259TIP3    H236723   4.219   6.982   3.544
12260TIP3   OH236724   0.359   3.325   6.162
12260TIP3    H136725   0.277   3.372   6.143
12260TIP3    H236726   0.349   3.241   6.116
12261TIP3   OH236727   1.792   1.128   6.375
12261TIP3    H136728   1.821   1.044   6.410
12261TIP3    H236729   1.705   1.111   6.339
12262TIP3   OH236730   3.658   2.693   0.605
12262TIP3    H136731   3.754   2.688   0.610
12262TIP3    H236732   3.639   2.707   0.512
12263TIP3   OH236733   1.895   7.719   0.916
12263TIP3    H136734   1.844   7.781   0.967
12263TIP3    H236735   1.986   7.748   0.927
12264TIP3   OH236736   5.379   7.583   1.067
12264TIP3    H136737   5.354   7.490   1.063
12264TIP3    H236738   5.466   7.582   1.108
12265TIP3   OH236739   5.319   5.282   2.973
12265TIP3    H136740   5.332   5.352   2.910
12265TIP3    H236741   5.291   5.327   3.053
12266TIP3   OH236742   3.093   4.966   3.602
12266TIP3    H136743   3.068   4.880   3.633
12266TIP3    H236744   3.052   4.973   3.515
12267TIP3   OH236745   3.104   5.054   1.156
12267TIP3    H136746   3.178   5.026   1.209
12267TIP3    H236747   3.041   4.982   1.163
12268TIP3   OH236748   2.416   4.911   2.826
12268TIP3    H136749   2.381   4.887   2.912
12268TIP3    H236750   2.345   4.891   2.765
12269TIP3   OH236751   0.485   3.474   5.367
12269TIP3    H136752   0.438   3.407   5.317
12269TIP3    H236753   0.549   3.509   5.305
12270TIP3   OH236754   3.957   1.556   1.083
12270TIP3    H136755   3.890   1.609   1.126
12270TIP3    H236756   4.010   1.521   1.155
12271TIP3   OH236757   0.412   1.246   4.353
12271TIP3    H136758   0.474   1.182   4.318
12271TIP3    H236759   0.424   1.324   4.298
12272TIP3   OH236760   1.321   2.102   2.845
12272TIP3    H136761   1.323   2.065   2.757
12272TIP3    H236762   1.243   2.158   2.845
12273TIP3   OH236763   3.643   7.818   0.140
12273TIP3    H136764   3.615   7.842   0.052
12273TIP3    H236765   3.739   7.820   0.136
12274TIP3   OH236766   6.320   4.728   3.073
12274TIP3    H136767   6.255   4.683   3.018
12274TIP3    H236768   6.312   4.686   3.159
12275TIP3   OH236769   1.213   5.935   5.796
12275TIP3    H136770   1.179   5.955   5.884
12275TIP3    H236771   1.278   5.866   5.811
12276TIP3   OH236772   0.901   5.702   5.832
12276TIP3    H136773   0.888   5.790   5.867
12276TIP3    H236774   0.994   5.684   5.845
12277TIP3   OH236775   3.966   2.315   5.169
12277TIP3    H136776   3.925   2.239   5.128
12277TIP3    H236777   3.997   2.369   5.096
12278TIP3   OH236778   5.732   4.413   1.133
12278TIP3    H136779   5.726   4.319   1.150
12278TIP3    H236780   5.754   4.420   1.041
12279TIP3   OH236781   7.999   4.724   5.898
12279TIP3    H136782   8.035   4.639   5.924
12279TIP3    H236783   8.076   4.778   5.880
12280TIP3   OH236784   2.603   3.400  -0.014
12280TIP3    H136785   2.625   3.493  -0.016
12280TIP3    H236786   2.602   3.377   0.078
12281TIP3   OH236787   1.773   1.155   1.344
12281TIP3    H136788   1.737   1.195   1.423
12281TIP3    H236789   1.698   1.150   1.284
12282TIP3   OH236790   4.734   2.103   2.564
12282TIP3    H136791   4.815   2.109   2.514
12282TIP3    H236792   4.705   2.193   2.576
12283TIP3   OH236793   5.153   0.880   1.568
12283TIP3    H136794   5.214   0.951   1.588
12283TIP3    H236795   5.151   0.826   1.647
12284TIP3   OH236796   7.000   0.287   5.502
12284TIP3    H136797   6.948   0.273   5.423
12284TIP3    H236798   7.016   0.199   5.536
12285TIP3   OH236799   5.654   6.928   2.813
12285TIP3    H136800   5.658   7.021   2.836
12285TIP3    H236801   5.608   6.887   2.886
12286TIP3   OH236802   7.405   5.879   4.817
12286TIP3    H136803   7.498   5.890   4.833
12286TIP3    H236804   7.373   5.967   4.797
12287TIP3   OH236805   1.005   2.684   3.621
12287TIP3    H136806   1.022   2.747   3.691
12287TIP3    H236807   1.012   2.735   3.540
12288TIP3   OH236808   4.173   1.546   0.905
12288TIP3    H136809   4.086   1.536   0.945
12288TIP3    H236810   4.234   1.516   0.973
12289TIP3   OH236811   2.181   2.384   0.219
12289TIP3    H136812   2.137   2.303   0.245
12289TIP3    H236813   2.112   2.441   0.187
12290TIP3   OH236814   1.175   4.813   3.134
12290TIP3    H136815   1.151   4.897   3.097
12290TIP3    H236816   1.154   4.749   3.066
12291TIP3   OH236817   6.426   5.011   2.159
12291TIP3    H136818   6.415   5.023   2.065
12291TIP3    H236819   6.374   5.081   2.198
12292TIP3   OH236820   1.814   3.623   1.680
12292TIP3    H136821   1.838   3.637   1.771
12292TIP3    H236822   1.796   3.529   1.674
12293TIP3   OH236823   5.809   5.071   1.130
12293TIP3    H136824   5.795   5.007   1.200
12293TIP3    H236825   5.741   5.051   1.066
12294TIP3   OH236826   3.281   1.051   1.989
12294TIP3    H136827   3.360   1.080   2.034
12294TIP3    H236828   3.275   1.106   1.912
12295TIP3   OH236829   2.184   1.463   6.163
12295TIP3    H136830   2.120   1.421   6.106
12295TIP3    H236831   2.182   1.555   6.138
12296TIP3   OH236832   3.159   6.722   4.558
12296TIP3    H136833   3.064   6.713   4.560
12296TIP3    H236834   3.185   6.671   4.481
12297TIP3   OH236835   5.393   3.098   5.881
12297TIP3    H136836   5.407   3.090   5.976
12297TIP3    H236837   5.358   3.013   5.854
12298TIP3   OH236838   4.025   1.724   4.902
12298TIP3    H136839   3.958   1.657   4.912
12298TIP3    H236840   4.091   1.684   4.845
12299TIP3   OH236841   5.278   0.093   1.009
12299TIP3    H136842   5.234   0.177   1.017
12299TIP3    H236843   5.304   0.087   0.917
12300TIP3   OH236844   5.078   7.218   5.178
12300TIP3    H136845   5.017   7.259   5.239
12300TIP3    H236846   5.124   7.153   5.230
12301TIP3   OH236847   3.783   1.976   6.185
12301TIP3    H136848   3.850   2.026   6.230
12301TIP3    H236849   3.738   1.928   6.255
12302TIP3   OH236850   7.756   1.124   6.508
12302TIP3    H136851   7.691   1.153   6.444
12302TIP3    H236852   7.709   1.065   6.567
12303TIP3   OH236853   3.653   7.809   5.033
12303TIP3    H136854   3.628   7.892   4.992
12303TIP3    H236855   3.579   7.787   5.090
12304TIP3   OH236856   0.816   3.003   1.365
12304TIP3    H136857   0.800   3.072   1.429
12304TIP3    H236858   0.733   2.992   1.319
12305TIP3   OH236859   1.112   0.116   3.491
12305TIP3    H136860   1.154   0.097   3.574
12305TIP3    H236861   1.177   0.090   3.425
12306TIP3   OH236862   2.173   3.948   3.228
12306TIP3    H136863   2.091   3.908   3.199
12306TIP3    H236864   2.204   3.999   3.153
12307TIP3   OH236865   3.379   4.804   2.031
12307TIP3    H136866   3.463   4.764   2.007
12307TIP3    H236867   3.321   4.781   1.959
12308TIP3   OH236868   1.491   5.751   6.415
12308TIP3    H136869   1.446   5.671   6.388
12308TIP3    H236870   1.449   5.820   6.364
12309TIP3   OH236871   0.127   4.560   4.965
12309TIP3    H136872   0.072   4.637   4.983
12309TIP3    H236873   0.149   4.568   4.872
12310TIP3   OH236874   6.968   7.180   1.721
12310TIP3    H136875   6.936   7.268   1.741
12310TIP3    H236876   7.039   7.166   1.783
12311TIP3   OH236877   4.553   0.136   1.959
12311TIP3    H136878   4.627   0.082   1.931
12311TIP3    H236879   4.562   0.217   1.909
12312TIP3   OH236880   3.052   5.729   1.211
12312TIP3    H136881   3.041   5.775   1.294
12312TIP3    H236882   3.146   5.730   1.194
12313TIP3   OH236883   2.166   0.775   3.244
12313TIP3    H136884   2.146   0.746   3.333
12313TIP3    H236885   2.160   0.695   3.191
12314TIP3   OH236886   3.343   6.578   4.702
12314TIP3    H136887   3.253   6.609   4.692
12314TIP3    H236888   3.375   6.621   4.781
12315TIP3   OH236889   1.260   7.852   1.157
12315TIP3    H136890   1.285   7.828   1.247
12315TIP3    H236891   1.273   7.772   1.107
12316TIP3   OH236892   2.227   0.565   2.020
12316TIP3    H136893   2.302   0.545   1.964
12316TIP3    H236894   2.215   0.660   2.011
12317TIP3   OH236895   4.160   0.762   0.996
12317TIP3    H136896   4.236   0.708   0.976
12317TIP3    H236897   4.188   0.852   0.978
12318TIP3   OH236898   1.255   6.187   1.025
12318TIP3    H136899   1.321   6.178   0.956
12318TIP3    H236900   1.286   6.259   1.079
12319TIP3   OH236901   7.028   3.761   6.271
12319TIP3    H136902   6.996   3.674   6.248
12319TIP3    H236903   7.008   3.770   6.364
12320TIP3   OH236904   5.520   6.423   2.322
12320TIP3    H136905   5.428   6.420   2.295
12320TIP3    H236906   5.525   6.497   2.382
12321TIP3   OH236907   2.060   0.314   3.464
12321TIP3    H136908   2.100   0.235   3.427
12321TIP3    H236909   2.130   0.357   3.512
12322TIP3   OH236910   2.935   3.414   6.164
12322TIP3    H136911   3.004   3.479   6.149
12322TIP3    H236912   2.872   3.430   6.094
12323TIP3   OH236913   8.230   5.232   4.223
12323TIP3    H136914   8.156   5.261   4.169
12323TIP3    H236915   8.236   5.138   4.205
12324TIP3   OH236916   1.666   1.108   3.295
12324TIP3    H136917   1.726   1.109   3.220
12324TIP3    H236918   1.708   1.164   3.360
12325TIP3   OH236919   0.189   7.742   3.486
12325TIP3    H136920   0.237   7.670   3.445
12325TIP3    H236921   0.159   7.705   3.569
12326TIP3   OH236922   4.164   0.720   2.557
12326TIP3    H136923   4.227   0.721   2.629
12326TIP3    H236924   4.133   0.630   2.553
12327TIP3   OH236925   1.227   3.034   3.450
12327TIP3    H136926   1.263   3.101   3.392
12327TIP3    H236927   1.167   3.082   3.508
12328TIP3   OH236928   2.440   2.421   4.622
12328TIP3    H136929   2.435   2.327   4.602
12328TIP3    H236930   2.359   2.440   4.669
12329TIP3   OH236931   4.589   1.708   6.427
12329TIP3    H136932   4.663   1.728   6.370
12329TIP3    H236933   4.513   1.710   6.369
12330TIP3   OH236934   3.003   7.604   2.607
12330TIP3    H136935   2.940   7.661   2.652
12330TIP3    H236936   2.950   7.554   2.544
12331TIP3   OH236937   1.995   7.063   0.607
12331TIP3    H136938   2.036   6.976   0.609
12331TIP3    H236939   2.050   7.117   0.663
12332TIP3   OH236940   3.446   2.023   1.772
12332TIP3    H136941   3.355   2.051   1.781
12332TIP3    H236942   3.441   1.932   1.742
12333TIP3   OH236943   4.053   7.443   5.067
12333TIP3    H136944   4.116   7.383   5.107
12333TIP3    H236945   3.968   7.411   5.095
12334TIP3   OH236946   3.044   7.588   6.491
12334TIP3    H136947   3.103   7.514   6.506
12334TIP3    H236948   3.090   7.664   6.526
12335TIP3   OH236949   4.878   2.000   1.634
12335TIP3    H136950   4.797   1.993   1.584
12335TIP3    H236951   4.899   2.094   1.633
12336TIP3   OH236952   5.193   0.823   5.685
12336TIP3    H136953   5.275   0.788   5.651
12336TIP3    H236954   5.216   0.861   5.770
12337TIP3   OH236955   1.758   6.457   1.018
12337TIP3    H136956   1.754   6.496   1.105
12337TIP3    H236957   1.851   6.456   0.996
12338TIP3   OH236958   0.554   0.226   2.014
12338TIP3    H136959   0.618   0.160   1.987
12338TIP3    H236960   0.498   0.238   1.938
12339TIP3   OH236961   3.867   7.788   4.372
12339TIP3    H136962   3.865   7.766   4.279
12339TIP3    H236963   3.845   7.707   4.417
12340TIP3   OH236964   2.144   5.884   3.778
12340TIP3    H136965   2.239   5.875   3.769
12340TIP3    H236966   2.131   5.974   3.808
12341TIP3   OH236967   3.119   5.959   6.274
12341TIP3    H136968   3.047   5.915   6.228
12341TIP3    H236969   3.109   5.932   6.366
12342TIP3   OH236970   0.187   6.737   0.059
12342TIP3    H136971   0.152   6.649   0.077
12342TIP3    H236972   0.118   6.779   0.006
12343TIP3   OH236973   2.513   0.573   6.538
12343TIP3    H136974   2.515   0.668   6.525
12343TIP3    H236975   2.601   0.551   6.568
12344TIP3   OH236976   4.142   5.186   4.974
12344TIP3    H136977   4.223   5.215   5.017
12344TIP3    H236978   4.086   5.263   4.973
12345TIP3   OH236979   3.630   6.211   0.383
12345TIP3    H136980   3.631   6.119   0.355
12345TIP3    H236981   3.558   6.216   0.445
12346TIP3   OH236982   0.012   5.560   0.955
12346TIP3    H136983  -0.073   5.522   0.974
12346TIP3    H236984   0.075   5.497   0.989
12347TIP3   OH236985   4.702   1.510   3.004
12347TIP3    H136986   4.632   1.574   3.002
12347TIP3    H236987   4.781   1.562   3.019
12348TIP3   OH236988   5.341   5.854   1.213
12348TIP3    H136989   5.272   5.792   1.236
12348TIP3    H236990   5.311   5.938   1.249
12349TIP3   OH236991   6.198   3.433   5.988
12349TIP3    H136992   6.201   3.463   6.078
12349TIP3    H236993   6.111   3.395   5.978
12350TIP3   OH236994   2.695   0.873   5.432
12350TIP3    H136995   2.661   0.957   5.461
12350TIP3    H236996   2.676   0.870   5.338
12351TIP3   OH236997   4.744   2.374   1.729
12351TIP3    H136998   4.818   2.367   1.668
12351TIP3    H236999   4.674   2.324   1.687
12352TIP3   OH237000   4.850   7.049   1.664
12352TIP3    H137001   4.759   7.049   1.693
12352TIP3    H237002   4.895   6.990   1.725
12353TIP3   OH237003   3.352   3.513   1.081
12353TIP3    H137004   3.432   3.548   1.119
12353TIP3    H237005   3.324   3.444   1.142
12354TIP3   OH237006   7.534   4.349   3.987
12354TIP3    H137007   7.449   4.324   4.022
12354TIP3    H237008   7.543   4.298   3.906
12355TIP3   OH237009   8.071   3.063   0.776
12355TIP3    H137010   8.152   3.111   0.761
12355TIP3    H237011   8.097   2.971   0.768
12356TIP3   OH237012   1.512   1.894   3.936
12356TIP3    H137013   1.605   1.877   3.923
12356TIP3    H237014   1.505   1.915   4.029
12357TIP3   OH237015   7.666   6.445   5.121
12357TIP3    H137016   7.739   6.397   5.083
12357TIP3    H237017   7.624   6.383   5.181
12358TIP3   OH237018   1.311   3.236   6.613
12358TIP3    H137019   1.248   3.303   6.588
12358TIP3    H237020   1.349   3.267   6.695
12359TIP3   OH237021   0.409   6.478   3.410
12359TIP3    H137022   0.434   6.558   3.456
12359TIP3    H237023   0.421   6.408   3.474
12360TIP3   OH237024   2.006   7.733   5.744
12360TIP3    H137025   2.079   7.752   5.803
12360TIP3    H237026   2.034   7.767   5.659
12361TIP3   OH237027   0.242   2.965   3.761
12361TIP3    H137028   0.171   3.027   3.745
12361TIP3    H237029   0.216   2.886   3.714
12362TIP3   OH237030   4.026   0.260   0.236
12362TIP3    H137031   3.999   0.177   0.197
12362TIP3    H237032   3.948   0.294   0.279
12363TIP3   OH237033   4.679   3.423   2.537
12363TIP3    H137034   4.634   3.465   2.464
12363TIP3    H237035   4.727   3.351   2.497
12364TIP3   OH237036   3.523   7.396   0.561
12364TIP3    H137037   3.450   7.334   0.552
12364TIP3    H237038   3.484   7.472   0.604
12365TIP3   OH237039   7.713   3.146   2.181
12365TIP3    H137040   7.650   3.148   2.254
12365TIP3    H237041   7.773   3.218   2.200
12366TIP3   OH237042   6.897   5.265   3.408
12366TIP3    H137043   6.985   5.296   3.386
12366TIP3    H237044   6.838   5.331   3.371
12367TIP3   OH237045   7.554   0.154   2.961
12367TIP3    H137046   7.495   0.081   2.979
12367TIP3    H237047   7.642   0.117   2.965
12368TIP3   OH237048   3.257   6.785   2.520
12368TIP3    H137049   3.190   6.848   2.492
12368TIP3    H237050   3.213   6.730   2.584
12369TIP3   OH237051   3.136   6.733   3.519
12369TIP3    H137052   3.168   6.643   3.530
12369TIP3    H237053   3.197   6.772   3.456
12370TIP3   OH237054   8.262   1.083   0.817
12370TIP3    H137055   8.328   1.150   0.802
12370TIP3    H237056   8.303   1.022   0.879
12371TIP3   OH237057   7.836   5.745   0.086
12371TIP3    H137058   7.914   5.692   0.098
12371TIP3    H237059   7.765   5.692   0.121
12372TIP3   OH237060   4.832   6.285   6.672
12372TIP3    H137061   4.882   6.360   6.701
12372TIP3    H237062   4.749   6.321   6.641
12373TIP3   OH237063   3.276   6.032   3.268
12373TIP3    H137064   3.292   5.941   3.242
12373TIP3    H237065   3.195   6.056   3.223
12374TIP3   OH237066   2.903   5.805   0.784
12374TIP3    H137067   2.852   5.776   0.860
12374TIP3    H237068   2.950   5.726   0.756
12375TIP3   OH237069   5.150   1.087   4.377
12375TIP3    H137070   5.067   1.096   4.332
12375TIP3    H237071   5.151   1.159   4.441
12376TIP3   OH237072   4.983   6.455   1.042
12376TIP3    H137073   4.898   6.495   1.022
12376TIP3    H237074   4.991   6.383   0.979
12377TIP3   OH237075   5.911   0.890   3.715
12377TIP3    H137076   5.933   0.958   3.778
12377TIP3    H237077   5.827   0.917   3.679
12378TIP3   OH237078   4.283   5.374   2.076
12378TIP3    H137079   4.285   5.305   2.009
12378TIP3    H237080   4.375   5.397   2.089
12379TIP3   OH237081   1.450   5.543   4.481
12379TIP3    H137082   1.449   5.450   4.461
12379TIP3    H237083   1.358   5.570   4.478
12380TIP3   OH237084   7.482   1.330   4.429
12380TIP3    H137085   7.476   1.426   4.420
12380TIP3    H237086   7.397   1.304   4.463
12381TIP3   OH237087   2.923   3.724   2.954
12381TIP3    H137088   3.003   3.768   2.983
12381TIP3    H237089   2.900   3.768   2.872
12382TIP3   OH237090   3.137   4.437   5.042
12382TIP3    H137091   3.122   4.450   4.949
12382TIP3    H237092   3.090   4.509   5.084
12383TIP3   OH237093   3.630   0.457   3.704
12383TIP3    H137094   3.575   0.415   3.770
12383TIP3    H237095   3.661   0.537   3.747
12384TIP3   OH237096   6.346   4.929   6.068
12384TIP3    H137097   6.336   4.869   5.994
12384TIP3    H237098   6.440   4.940   6.078
12385TIP3   OH237099   6.827   3.410   6.256
12385TIP3    H137100   6.787   3.473   6.315
12385TIP3    H237101   6.810   3.325   6.296
12386TIP3   OH237102   4.878   5.163   3.469
12386TIP3    H137103   4.819   5.105   3.517
12386TIP3    H237104   4.825   5.241   3.450
12387TIP3   OH237105   4.881   7.801   0.620
12387TIP3    H137106   4.903   7.764   0.535
12387TIP3    H237107   4.893   7.896   0.609
12388TIP3   OH237108   5.311   4.740   4.893
12388TIP3    H137109   5.268   4.667   4.937
12388TIP3    H237110   5.280   4.818   4.939
12389TIP3   OH237111   5.605   4.445   3.555
12389TIP3    H137112   5.698   4.423   3.549
12389TIP3    H237113   5.599   4.498   3.635
12390TIP3   OH237114   5.763   7.101   5.438
12390TIP3    H137115   5.732   7.168   5.499
12390TIP3    H237116   5.847   7.073   5.473
12391TIP3   OH237117   5.752   1.669   4.178
12391TIP3    H137118   5.683   1.727   4.147
12391TIP3    H237119   5.828   1.688   4.123
12392TIP3   OH237120   7.382   1.417   6.317
12392TIP3    H137121   7.354   1.445   6.230
12392TIP3    H237122   7.369   1.494   6.372
12393TIP3   OH237123   6.383   4.616   4.951
12393TIP3    H137124   6.299   4.590   4.915
12393TIP3    H237125   6.362   4.685   5.014
12394TIP3   OH237126   2.933   7.422   0.536
12394TIP3    H137127   2.963   7.344   0.488
12394TIP3    H237128   3.003   7.439   0.599
12395TIP3   OH237129   8.297   6.541   4.141
12395TIP3    H137130   8.249   6.623   4.139
12395TIP3    H237131   8.352   6.547   4.219
12396TIP3   OH237132   6.746   1.628   4.184
12396TIP3    H137133   6.654   1.612   4.200
12396TIP3    H237134   6.784   1.542   4.167
12397TIP3   OH237135   5.312   5.142   6.681
12397TIP3    H137136   5.368   5.065   6.669
12397TIP3    H237137   5.359   5.212   6.635
12398TIP3   OH237138   3.871   2.599   1.334
12398TIP3    H137139   3.914   2.514   1.327
12398TIP3    H237140   3.778   2.579   1.344
12399TIP3   OH237141   4.711   1.698   1.326
12399TIP3    H137142   4.706   1.640   1.250
12399TIP3    H237143   4.773   1.766   1.299
12400TIP3   OH237144   4.576   1.267   2.949
12400TIP3    H137145   4.507   1.316   2.993
12400TIP3    H237146   4.648   1.330   2.940
12401TIP3   OH237147   1.992   1.628   3.844
12401TIP3    H137148   2.025   1.547   3.805
12401TIP3    H237149   2.069   1.669   3.883
12402TIP3   OH237150   2.991   6.859   5.927
12402TIP3    H137151   3.050   6.853   6.002
12402TIP3    H237152   2.905   6.873   5.965
12403TIP3   OH237153   2.008   5.149   0.363
12403TIP3    H137154   1.943   5.103   0.310
12403TIP3    H237155   2.083   5.090   0.366
12404TIP3   OH237156   6.612   5.374   2.298
12404TIP3    H137157   6.566   5.443   2.345
12404TIP3    H237158   6.592   5.294   2.347
12405TIP3   OH237159   2.929   3.894   4.732
12405TIP3    H137160   2.967   3.980   4.712
12405TIP3    H237161   3.002   3.833   4.726
12406TIP3   OH237162   2.930   0.747   5.490
12406TIP3    H137163   2.858   0.810   5.483
12406TIP3    H237164   2.888   0.662   5.472
12407TIP3   OH237165   4.717   7.854   4.157
12407TIP3    H137166   4.800   7.808   4.168
12407TIP3    H237167   4.690   7.832   4.067
12408TIP3   OH237168   2.732   2.641   1.659
12408TIP3    H137169   2.712   2.552   1.630
12408TIP3    H237170   2.822   2.635   1.691
12409TIP3   OH237171   3.887   6.304   1.226
12409TIP3    H137172   3.917   6.383   1.181
12409TIP3    H237173   3.947   6.235   1.196
12410TIP3   OH237174   1.600   5.458   4.206
12410TIP3    H137175   1.658   5.478   4.133
12410TIP3    H237176   1.659   5.450   4.281
12411TIP3   OH237177   2.676   6.666   2.098
12411TIP3    H137178   2.653   6.743   2.150
12411TIP3    H237179   2.711   6.603   2.161
12412TIP3   OH237180   2.493   0.189   5.168
12412TIP3    H137181   2.466   0.280   5.166
12412TIP3    H237182   2.482   0.159   5.078
12413TIP3   OH237183   7.829   6.769   3.462
12413TIP3    H137184   7.856   6.823   3.537
12413TIP3    H237185   7.877   6.806   3.388
12414TIP3   OH237186   5.614   3.940   3.359
12414TIP3    H137187   5.638   3.919   3.269
12414TIP3    H237188   5.520   3.924   3.363
12415TIP3   OH237189   3.237   6.698   5.370
12415TIP3    H137190   3.237   6.719   5.277
12415TIP3    H237191   3.297   6.761   5.409
12416TIP3   OH237192   6.613   3.678   3.073
12416TIP3    H137193   6.632   3.620   3.147
12416TIP3    H237194   6.543   3.735   3.106
12417TIP3   OH237195   3.635   0.441   5.381
12417TIP3    H137196   3.542   0.440   5.403
12417TIP3    H237197   3.670   0.360   5.420
12418TIP3   OH237198   6.409   1.552   1.966
12418TIP3    H137199   6.494   1.521   1.934
12418TIP3    H237200   6.361   1.575   1.887
12419TIP3   OH237201   3.266   2.584   5.612
12419TIP3    H137202   3.346   2.545   5.576
12419TIP3    H237203   3.212   2.604   5.535
12420TIP3   OH237204   5.695   4.920   0.825
12420TIP3    H137205   5.658   4.834   0.845
12420TIP3    H237206   5.650   4.981   0.883
12421TIP3   OH237207   1.119   2.593   2.472
12421TIP3    H137208   1.075   2.581   2.556
12421TIP3    H237209   1.129   2.688   2.463
12422TIP3   OH237210   2.921   4.809   0.439
12422TIP3    H137211   2.933   4.904   0.437
12422TIP3    H237212   2.867   4.790   0.362
12423TIP3   OH237213   0.868   2.416   0.748
12423TIP3    H137214   0.828   2.419   0.835
12423TIP3    H237215   0.957   2.384   0.763
12424TIP3   OH237216   1.595   7.537   4.477
12424TIP3    H137217   1.624   7.446   4.491
12424TIP3    H237218   1.502   7.530   4.455
12425TIP3   OH237219   5.379   2.687   2.684
12425TIP3    H137220   5.446   2.682   2.616
12425TIP3    H237221   5.308   2.631   2.652
12426TIP3   OH237222   2.475   5.702   5.150
12426TIP3    H137223   2.520   5.675   5.070
12426TIP3    H237224   2.544   5.738   5.206
12427TIP3   OH237225   0.762   1.088   0.395
12427TIP3    H137226   0.738   1.024   0.462
12427TIP3    H237227   0.851   1.064   0.371
12428TIP3   OH237228   6.480   2.849   1.651
12428TIP3    H137229   6.523   2.933   1.633
12428TIP3    H237230   6.553   2.788   1.664
12429TIP3   OH237231   3.042   5.519   2.563
12429TIP3    H137232   3.015   5.524   2.655
12429TIP3    H237233   3.116   5.457   2.563
12430TIP3   OH237234   1.598   1.447   3.107
12430TIP3    H137235   1.649   1.383   3.057
12430TIP3    H237236   1.518   1.458   3.057
12431TIP3   OH237237   7.496   3.130   5.074
12431TIP3    H137238   7.499   3.110   5.167
12431TIP3    H237239   7.403   3.141   5.055
12432TIP3   OH237240   3.072   4.764   1.169
12432TIP3    H137241   3.061   4.677   1.129
12432TIP3    H237242   3.165   4.769   1.191
12433TIP3   OH237243   1.768   5.671   3.099
12433TIP3    H137244   1.813   5.710   3.174
12433TIP3    H237245   1.684   5.642   3.134
12434TIP3   OH237246   7.268   2.599   0.678
12434TIP3    H137247   7.295   2.564   0.763
12434TIP3    H237248   7.191   2.653   0.698
12435TIP3   OH237249   7.460   4.331   1.144
12435TIP3    H137250   7.543   4.347   1.099
12435TIP3    H237251   7.394   4.335   1.075
12436TIP3   OH237252   6.483   5.687   0.690
12436TIP3    H137253   6.560   5.639   0.718
12436TIP3    H237254   6.505   5.721   0.603
12437TIP3   OH237255   4.840   6.984   6.294
12437TIP3    H137256   4.928   6.953   6.317
12437TIP3    H237257   4.801   7.009   6.378
12438TIP3   OH237258   6.298   6.085   3.446
12438TIP3    H137259   6.374   6.142   3.458
12438TIP3    H237260   6.266   6.105   3.358
12439TIP3   OH237261   6.740   2.149   1.897
12439TIP3    H137262   6.726   2.059   1.867
12439TIP3    H237263   6.801   2.141   1.970
12440TIP3   OH237264   7.551   1.009   4.700
12440TIP3    H137265   7.467   0.994   4.745
12440TIP3    H237266   7.592   1.079   4.750
12441TIP3   OH237267   1.386   2.658   5.250
12441TIP3    H137268   1.350   2.600   5.317
12441TIP3    H237269   1.460   2.610   5.213
12442TIP3   OH237270   3.490   0.058   6.633
12442TIP3    H137271   3.476   0.083   6.541
12442TIP3    H237272   3.431   0.116   6.682
12443TIP3   OH237273   1.195   2.375   4.888
12443TIP3    H137274   1.123   2.401   4.831
12443TIP3    H237275   1.157   2.372   4.976
12444TIP3   OH237276   0.956   5.684   2.375
12444TIP3    H137277   0.969   5.635   2.457
12444TIP3    H237278   1.019   5.645   2.314
12445TIP3   OH237279   6.144   2.165   2.960
12445TIP3    H137280   6.126   2.074   2.936
12445TIP3    H237281   6.145   2.211   2.876
12446TIP3   OH237282   4.929   2.498   2.757
12446TIP3    H137283   4.969   2.435   2.696
12446TIP3    H237284   4.908   2.446   2.834
12447TIP3   OH237285   0.776   6.827   1.919
12447TIP3    H137286   0.697   6.879   1.935
12447TIP3    H237287   0.802   6.795   2.005
12448TIP3   OH237288   5.922   2.126   5.629
12448TIP3    H137289   6.007   2.099   5.665
12448TIP3    H237290   5.943   2.184   5.556
12449TIP3   OH237291   4.512   4.012   3.442
12449TIP3    H137292   4.466   4.074   3.386
12449TIP3    H237293   4.572   3.966   3.383
12450TIP3   OH237294   7.332   4.160   0.332
12450TIP3    H137295   7.310   4.067   0.324
12450TIP3    H237296   7.407   4.172   0.273
12451TIP3   OH237297   5.783   5.140   5.677
12451TIP3    H137298   5.835   5.072   5.634
12451TIP3    H237299   5.707   5.093   5.713
12452TIP3   OH237300   7.016   1.746   0.252
12452TIP3    H137301   7.036   1.840   0.243
12452TIP3    H237302   6.973   1.723   0.170
12453TIP3   OH237303   5.322   1.426   3.741
12453TIP3    H137304   5.366   1.373   3.675
12453TIP3    H237305   5.320   1.514   3.703
12454TIP3   OH237306   5.103   5.872   6.598
12454TIP3    H137307   5.117   5.907   6.510
12454TIP3    H237308   5.009   5.882   6.613
12455TIP3   OH237309   1.094   5.359   4.503
12455TIP3    H137310   1.128   5.286   4.554
12455TIP3    H237311   1.104   5.332   4.412
12456TIP3   OH237312   7.547   6.281   6.479
12456TIP3    H137313   7.576   6.363   6.519
12456TIP3    H237314   7.468   6.304   6.431
12457TIP3   OH237315   2.138   4.417   4.761
12457TIP3    H137316   2.181   4.492   4.721
12457TIP3    H237317   2.201   4.345   4.754
12458TIP3   OH237318   7.360   7.804   3.263
12458TIP3    H137319   7.285   7.757   3.299
12458TIP3    H237320   7.336   7.897   3.270
12459TIP3   OH237321   3.432   2.908   1.551
12459TIP3    H137322   3.500   2.876   1.610
12459TIP3    H237323   3.465   2.889   1.463
12460TIP3   OH237324   0.349   2.879   5.755
12460TIP3    H137325   0.265   2.922   5.773
12460TIP3    H237326   0.414   2.937   5.795
12461TIP3   OH237327   6.620   5.232   0.932
12461TIP3    H137328   6.673   5.220   0.854
12461TIP3    H237329   6.673   5.290   0.988
12462TIP3   OH237330   6.003   2.591   1.120
12462TIP3    H137331   6.011   2.525   1.051
12462TIP3    H237332   6.075   2.652   1.104
12463TIP3   OH237333   1.570   5.786   1.704
12463TIP3    H137334   1.659   5.765   1.674
12463TIP3    H237335   1.528   5.826   1.627
12464TIP3   OH237336   6.900   6.287   1.319
12464TIP3    H137337   6.922   6.358   1.380
12464TIP3    H237338   6.917   6.325   1.232
12465TIP3   OH237339   1.148   5.652   4.436
12465TIP3    H137340   1.109   5.567   4.457
12465TIP3    H237341   1.091   5.688   4.368
12466TIP3   OH237342   1.898   4.953   6.370
12466TIP3    H137343   1.837   4.888   6.405
12466TIP3    H237344   1.920   4.920   6.282
12467TIP3   OH237345   0.894   2.673   1.134
12467TIP3    H137346   0.945   2.742   1.177
12467TIP3    H237347   0.811   2.715   1.111
12468TIP3   OH237348   7.292   4.080   1.976
12468TIP3    H137349   7.215   4.112   1.929
12468TIP3    H237350   7.325   4.009   1.922
12469TIP3   OH237351   6.422   5.744   4.867
12469TIP3    H137352   6.411   5.831   4.905
12469TIP3    H237353   6.514   5.722   4.882
12470TIP3   OH237354   1.525   5.230   5.383
12470TIP3    H137355   1.585   5.304   5.396
12470TIP3    H237356   1.517   5.191   5.470
12471TIP3   OH237357   6.833   3.913   6.016
12471TIP3    H137358   6.781   3.922   5.936
12471TIP3    H237359   6.843   4.002   6.048
12472TIP3   OH237360   2.453   1.613   2.354
12472TIP3    H137361   2.540   1.611   2.395
12472TIP3    H237362   2.442   1.703   2.323
12473TIP3   OH237363   3.968   2.603   4.338
12473TIP3    H137364   4.011   2.532   4.386
12473TIP3    H237365   3.993   2.683   4.386
12474TIP3   OH237366   1.333   1.195   3.970
12474TIP3    H137367   1.300   1.267   3.917
12474TIP3    H237368   1.377   1.237   4.044
12475TIP3   OH237369   5.929   1.878   0.636
12475TIP3    H137370   5.920   1.880   0.731
12475TIP3    H237371   5.970   1.794   0.618
12476TIP3   OH237372   8.215   4.863   2.429
12476TIP3    H137373   8.230   4.952   2.397
12476TIP3    H237374   8.262   4.858   2.512
12477TIP3   OH237375   4.484   1.889   3.770
12477TIP3    H137376   4.449   1.834   3.700
12477TIP3    H237377   4.408   1.912   3.823
12478TIP3   OH237378   4.708   2.380   1.373
12478TIP3    H137379   4.775   2.357   1.309
12478TIP3    H237380   4.631   2.402   1.320
12479TIP3   OH237381   2.280   5.821   1.391
12479TIP3    H137382   2.354   5.814   1.451
12479TIP3    H237383   2.279   5.738   1.344
12480TIP3   OH237384   4.186   4.738   1.005
12480TIP3    H137385   4.190   4.802   1.077
12480TIP3    H237386   4.124   4.777   0.942
12481TIP3   OH237387   2.165   6.649   3.650
12481TIP3    H137388   2.215   6.615   3.575
12481TIP3    H237389   2.148   6.741   3.628
12482TIP3   OH237390   4.646   7.236   5.999
12482TIP3    H137391   4.676   7.192   5.920
12482TIP3    H237392   4.662   7.329   5.983
12483TIP3   OH237393   1.114   2.237   3.727
12483TIP3    H137394   1.147   2.152   3.756
12483TIP3    H237395   1.166   2.258   3.649
12484TIP3   OH237396   7.588   6.598   3.482
12484TIP3    H137397   7.655   6.666   3.483
12484TIP3    H237398   7.528   6.623   3.552
12485TIP3   OH237399   3.262   1.001   4.629
12485TIP3    H137400   3.326   1.072   4.637
12485TIP3    H237401   3.248   0.971   4.719
12486TIP3   OH237402   8.193   2.034   1.261
12486TIP3    H137403   8.168   1.946   1.288
12486TIP3    H237404   8.269   2.055   1.315
12487TIP3   OH237405   1.277   2.873   2.237
12487TIP3    H137406   1.278   2.968   2.222
12487TIP3    H237407   1.228   2.862   2.318
12488TIP3   OH237408   4.326   7.282   0.647
12488TIP3    H137409   4.239   7.297   0.612
12488TIP3    H237410   4.378   7.254   0.571
12489TIP3   OH237411   7.806   0.620   1.039
12489TIP3    H137412   7.786   0.709   1.067
12489TIP3    H237413   7.893   0.602   1.074
12490TIP3   OH237414   7.720   2.166   2.144
12490TIP3    H137415   7.721   2.247   2.195
12490TIP3    H237416   7.629   2.136   2.146
12491TIP3   OH237417   4.617   7.731   1.922
12491TIP3    H137418   4.582   7.651   1.962
12491TIP3    H237419   4.694   7.751   1.974
12492TIP3   OH237420   0.419   6.827   1.657
12492TIP3    H137421   0.448   6.807   1.568
12492TIP3    H237422   0.401   6.742   1.696
12493TIP3   OH237423   4.911   0.084   0.534
12493TIP3    H137424   4.888   0.089   0.441
12493TIP3    H237425   4.983   0.020   0.538
12494TIP3   OH237426   5.017   2.785   0.146
12494TIP3    H137427   4.923   2.790   0.164
12494TIP3    H237428   5.044   2.875   0.130
12495TIP3   OH237429   4.308   1.660   2.873
12495TIP3    H137430   4.235   1.714   2.903
12495TIP3    H237431   4.317   1.682   2.780
12496TIP3   OH237432   3.228   2.779   3.631
12496TIP3    H137433   3.259   2.733   3.709
12496TIP3    H237434   3.195   2.709   3.574
12497TIP3   OH237435   2.458   0.182   3.746
12497TIP3    H137436   2.417   0.242   3.809
12497TIP3    H237437   2.493   0.111   3.799
12498TIP3   OH237438   2.256   0.696   6.727
12498TIP3    H137439   2.283   0.674   6.816
12498TIP3    H237440   2.328   0.749   6.693
12499TIP3   OH237441   3.323   4.393   6.019
12499TIP3    H137442   3.333   4.371   5.926
12499TIP3    H237443   3.229   4.381   6.036
12500TIP3   OH237444   3.847   6.257   6.510
12500TIP3    H137445   3.931   6.301   6.495
12500TIP3    H237446   3.862   6.166   6.483
12501TIP3   OH237447   7.768   7.312   2.662
12501TIP3    H137448   7.846   7.284   2.615
12501TIP3    H237449   7.767   7.257   2.741
12502TIP3   OH237450   7.589   6.899   4.824
12502TIP3    H137451   7.600   6.959   4.897
12502TIP3    H237452   7.656   6.832   4.838
12503TIP3   OH237453   3.902   4.160   0.990
12503TIP3    H137454   3.825   4.128   1.036
12503TIP3    H237455   3.975   4.110   1.027
12504TIP3   OH237456   5.313   4.876   4.635
12504TIP3    H137457   5.262   4.813   4.686
12504TIP3    H237458   5.368   4.822   4.578
12505TIP3   OH237459   6.433   5.073   5.487
12505TIP3    H137460   6.396   5.078   5.399
12505TIP3    H237461   6.357   5.061   5.544
12506TIP3   OH237462   0.345   4.163   0.794
12506TIP3    H137463   0.250   4.173   0.783
12506TIP3    H237464   0.379   4.252   0.798
12507TIP3   OH237465   3.818   4.990   6.524
12507TIP3    H137466   3.745   5.039   6.562
12507TIP3    H237467   3.789   4.969   6.436
12508TIP3   OH237468   7.856   0.752   6.481
12508TIP3    H137469   7.771   0.780   6.445
12508TIP3    H237470   7.917   0.819   6.451
12509TIP3   OH237471   6.691   0.819   5.410
12509TIP3    H137472   6.662   0.901   5.372
12509TIP3    H237473   6.733   0.844   5.493
12510TIP3   OH237474   5.478   3.331   4.457
12510TIP3    H137475   5.412   3.282   4.506
12510TIP3    H237476   5.524   3.383   4.524
12511TIP3   OH237477   7.595   6.569   4.136
12511TIP3    H137478   7.523   6.565   4.073
12511TIP3    H237479   7.552   6.569   4.222
12512TIP3   OH237480   6.062   4.480   5.535
12512TIP3    H137481   6.069   4.496   5.630
12512TIP3    H237482   5.993   4.540   5.506
12513TIP3   OH237483   0.378   7.402   6.436
12513TIP3    H137484   0.322   7.466   6.480
12513TIP3    H237485   0.449   7.453   6.398
12514TIP3   OH237486   3.707   2.633   5.453
12514TIP3    H137487   3.777   2.581   5.414
12514TIP3    H237488   3.731   2.640   5.545
12515TIP3   OH237489   1.405   0.163   1.374
12515TIP3    H137490   1.458   0.209   1.309
12515TIP3    H237491   1.444   0.188   1.458
12516TIP3   OH237492   5.747   1.768   1.032
12516TIP3    H137493   5.784   1.837   0.978
12516TIP3    H237494   5.668   1.807   1.069
12517TIP3   OH237495   7.763   3.297   0.945
12517TIP3    H137496   7.676   3.337   0.948
12517TIP3    H237497   7.806   3.327   1.025
12518TIP3   OH237498   3.690   3.848   5.110
12518TIP3    H137499   3.721   3.912   5.174
12518TIP3    H237500   3.630   3.793   5.160
12519TIP3   OH237501   5.087   7.746   6.158
12519TIP3    H137502   5.061   7.673   6.102
12519TIP3    H237503   5.067   7.824   6.106
12520TIP3   OH237504   5.766   1.449   3.311
12520TIP3    H137505   5.790   1.476   3.222
12520TIP3    H237506   5.832   1.489   3.367
12521TIP3   OH237507   3.397   6.956   1.584
12521TIP3    H137508   3.375   6.930   1.494
12521TIP3    H237509   3.390   7.051   1.584
12522TIP3   OH237510   1.483   4.887   4.188
12522TIP3    H137511   1.390   4.908   4.200
12522TIP3    H237512   1.510   4.938   4.112
12523TIP3   OH237513   3.590   1.712   1.652
12523TIP3    H137514   3.685   1.714   1.643
12523TIP3    H237515   3.569   1.619   1.663
12524TIP3   OH237516   2.991   7.282   5.766
12524TIP3    H137517   2.944   7.348   5.818
12524TIP3    H237518   3.029   7.331   5.693
12525TIP3   OH237519   5.959   6.205   4.094
12525TIP3    H137520   5.939   6.190   4.186
12525TIP3    H237521   5.975   6.118   4.059
12526TIP3   OH237522   1.133   4.125   6.655
12526TIP3    H137523   1.104   4.050   6.603
12526TIP3    H237524   1.218   4.149   6.617
12527TIP3   OH237525   4.566   4.353   3.879
12527TIP3    H137526   4.489   4.407   3.897
12527TIP3    H237527   4.537   4.263   3.894
12528TIP3   OH237528   2.204   4.958   5.914
12528TIP3    H137529   2.207   5.040   5.865
12528TIP3    H237530   2.287   4.955   5.962
12529TIP3   OH237531   1.342   3.513   4.150
12529TIP3    H137532   1.255   3.544   4.124
12529TIP3    H237533   1.348   3.426   4.111
12530TIP3   OH237534   0.582   4.274   1.458
12530TIP3    H137535   0.594   4.241   1.547
12530TIP3    H237536   0.637   4.216   1.404
12531TIP3   OH237537   4.063   6.388   2.636
12531TIP3    H137538   3.989   6.372   2.694
12531TIP3    H237539   4.050   6.327   2.563
12532TIP3   OH237540   5.911   5.343   3.929
12532TIP3    H137541   5.943   5.395   3.856
12532TIP3    H237542   5.964   5.263   3.927
12533TIP3   OH237543   5.673   2.852   0.732
12533TIP3    H137544   5.742   2.878   0.793
12533TIP3    H237545   5.664   2.926   0.673
12534TIP3   OH237546   1.852   7.299   4.918
12534TIP3    H137547   1.878   7.240   4.989
12534TIP3    H237548   1.828   7.240   4.846
12535TIP3   OH237549   6.749   5.072   2.709
12535TIP3    H137550   6.688   5.118   2.766
12535TIP3    H237551   6.784   5.140   2.652
12536TIP3   OH237552   4.353   7.633   2.253
12536TIP3    H137553   4.390   7.574   2.186
12536TIP3    H237554   4.430   7.668   2.298
12537TIP3   OH237555   2.366   5.221   0.834
12537TIP3    H137556   2.360   5.245   0.741
12537TIP3    H237557   2.458   5.199   0.847
12538TIP3   OH237558   0.601   4.935   1.467
12538TIP3    H137559   0.534   5.002   1.477
12538TIP3    H237560   0.615   4.902   1.556
12539TIP3   OH237561   2.693   3.144   4.848
12539TIP3    H137562   2.633   3.212   4.881
12539TIP3    H237563   2.664   3.129   4.758
12540TIP3   OH237564   2.547   3.594   3.723
12540TIP3    H137565   2.595   3.677   3.728
12540TIP3    H237566   2.504   3.596   3.638
12541TIP3   OH237567   6.590   2.764   2.062
12541TIP3    H137568   6.679   2.743   2.035
12541TIP3    H237569   6.536   2.694   2.026
12542TIP3   OH237570   5.265   5.706   5.957
12542TIP3    H137571   5.349   5.721   6.001
12542TIP3    H237572   5.270   5.759   5.877
12543TIP3   OH237573   0.570   3.884   5.247
12543TIP3    H137574   0.569   3.921   5.158
12543TIP3    H237575   0.620   3.946   5.299
12544TIP3   OH237576   1.320   5.774   1.549
12544TIP3    H137577   1.307   5.683   1.524
12544TIP3    H237578   1.318   5.822   1.467
12545TIP3   OH237579   2.387   2.828   6.408
12545TIP3    H137580   2.404   2.816   6.501
12545TIP3    H237581   2.464   2.791   6.365
12546TIP3   OH237582   2.134   6.927   5.445
12546TIP3    H137583   2.184   6.968   5.374
12546TIP3    H237584   2.119   6.838   5.414
12547TIP3   OH237585   0.602   1.132   2.435
12547TIP3    H137586   0.633   1.162   2.350
12547TIP3    H237587   0.611   1.209   2.493
12548TIP3   OH237588   4.673   2.752   2.953
12548TIP3    H137589   4.724   2.792   3.023
12548TIP3    H237590   4.681   2.812   2.879
12549TIP3   OH237591   1.288   1.619   5.973
12549TIP3    H137592   1.373   1.589   6.005
12549TIP3    H237593   1.230   1.543   5.984
12550TIP3   OH237594   1.206   1.185   6.705
12550TIP3    H137595   1.290   1.200   6.749
12550TIP3    H237596   1.212   1.095   6.673
12551TIP3   OH237597   7.490   7.751   5.463
12551TIP3    H137598   7.476   7.660   5.487
12551TIP3    H237599   7.584   7.758   5.446
12552TIP3   OH237600   5.701   6.362   6.630
12552TIP3    H137601   5.775   6.376   6.570
12552TIP3    H237602   5.636   6.315   6.578
12553TIP3   OH237603   3.632   5.967   0.260
12553TIP3    H137604   3.597   6.030   0.197
12553TIP3    H237605   3.637   5.885   0.210
12554TIP3   OH237606   0.415   4.274   3.351
12554TIP3    H137607   0.427   4.347   3.290
12554TIP3    H237608   0.500   4.231   3.354
12555TIP3   OH237609   3.064   1.440   5.169
12555TIP3    H137610   3.007   1.503   5.125
12555TIP3    H237611   3.004   1.376   5.206
12556TIP3   OH237612   0.563   5.146   5.869
12556TIP3    H137613   0.495   5.084   5.896
12556TIP3    H237614   0.640   5.092   5.853
12557TIP3   OH237615   7.315   4.991   1.137
12557TIP3    H137616   7.409   4.988   1.118
12557TIP3    H237617   7.303   5.075   1.181
12558TIP3   OH237618   2.893   1.177   4.905
12558TIP3    H137619   2.888   1.136   4.819
12558TIP3    H237620   2.801   1.195   4.928
12559TIP3   OH237621   6.049   3.577   5.334
12559TIP3    H137622   5.977   3.515   5.338
12559TIP3    H237623   6.026   3.636   5.262
12560TIP3   OH237624   0.988   3.788   2.258
12560TIP3    H137625   1.065   3.785   2.200
12560TIP3    H237626   1.012   3.852   2.326
12561TIP3   OH237627   1.297   4.764   3.689
12561TIP3    H137628   1.304   4.689   3.630
12561TIP3    H237629   1.354   4.742   3.763
12562TIP3   OH237630   1.618   1.455   5.338
12562TIP3    H137631   1.561   1.381   5.360
12562TIP3    H237632   1.705   1.416   5.327
12563TIP3   OH237633   4.268   0.792   3.367
12563TIP3    H137634   4.283   0.876   3.410
12563TIP3    H237635   4.339   0.736   3.401
12564TIP3   OH237636   1.410   3.757   1.433
12564TIP3    H137637   1.362   3.826   1.479
12564TIP3    H237638   1.499   3.762   1.468
12565TIP3   OH237639   2.225   2.130   0.629
12565TIP3    H137640   2.175   2.079   0.566
12565TIP3    H237641   2.221   2.079   0.710
12566TIP3   OH237642   6.752   2.375   3.327
12566TIP3    H137643   6.662   2.405   3.321
12566TIP3    H237644   6.801   2.432   3.268
12567TIP3   OH237645   1.218   2.858   4.277
12567TIP3    H137646   1.303   2.862   4.233
12567TIP3    H237647   1.162   2.811   4.214
12568TIP3   OH237648   0.202   0.213   5.929
12568TIP3    H137649   0.256   0.134   5.931
12568TIP3    H237650   0.153   0.206   5.847
12569TIP3   OH237651   3.655   3.541   5.051
12569TIP3    H137652   3.697   3.573   5.131
12569TIP3    H237653   3.574   3.500   5.080
12570TIP3   OH237654   5.084   7.145   0.588
12570TIP3    H137655   5.095   7.181   0.676
12570TIP3    H237656   5.086   7.051   0.600
12571TIP3   OH237657   5.671   7.386   3.872
12571TIP3    H137658   5.686   7.308   3.925
12571TIP3    H237659   5.757   7.428   3.866
12572TIP3   OH237660   0.210   3.115   4.807
12572TIP3    H137661   0.297   3.141   4.836
12572TIP3    H237662   0.222   3.028   4.769
12573TIP3   OH237663   2.143   2.051   3.696
12573TIP3    H137664   2.239   2.045   3.701
12573TIP3    H237665   2.127   2.137   3.657
12574TIP3   OH237666   6.007   2.713   5.819
12574TIP3    H137667   6.065   2.788   5.814
12574TIP3    H237668   6.062   2.642   5.852
12575TIP3   OH237669   7.779   3.819   6.095
12575TIP3    H137670   7.818   3.906   6.086
12575TIP3    H237671   7.798   3.794   6.186
12576TIP3   OH237672   4.736   4.199   2.784
12576TIP3    H137673   4.749   4.176   2.876
12576TIP3    H237674   4.786   4.134   2.735
12577TIP3   OH237675   4.417   6.705   2.587
12577TIP3    H137676   4.393   6.614   2.603
12577TIP3    H237677   4.364   6.755   2.650
12578TIP3   OH237678   4.891   2.757   2.676
12578TIP3    H137679   4.876   2.667   2.706
12578TIP3    H237680   4.856   2.758   2.587
12579TIP3   OH237681   0.340   5.855   3.200
12579TIP3    H137682   0.306   5.848   3.289
12579TIP3    H237683   0.435   5.848   3.211
12580TIP3   OH237684   7.150   5.536   2.293
12580TIP3    H137685   7.116   5.478   2.224
12580TIP3    H237686   7.244   5.519   2.295
12581TIP3   OH237687   7.775   5.460   6.570
12581TIP3    H137688   7.754   5.370   6.594
12581TIP3    H237689   7.765   5.510   6.651
12582TIP3   OH237690   3.984   1.252   5.437
12582TIP3    H137691   3.923   1.230   5.367
12582TIP3    H237692   3.999   1.169   5.483
12583TIP3   OH237693   3.080   3.985   2.249
12583TIP3    H137694   3.092   3.890   2.250
12583TIP3    H237695   3.169   4.021   2.248
12584TIP3   OH237696   1.091   7.649   1.816
12584TIP3    H137697   1.057   7.705   1.746
12584TIP3    H237698   1.098   7.562   1.776
12585TIP3   OH237699   3.980   2.590   6.023
12585TIP3    H137700   3.893   2.603   5.985
12585TIP3    H237701   3.977   2.638   6.106
12586TIP3   OH237702   6.065   1.226   2.820
12586TIP3    H137703   6.021   1.283   2.757
12586TIP3    H237704   6.042   1.138   2.792
12587TIP3   OH237705   8.022   3.302   5.008
12587TIP3    H137706   8.109   3.262   4.997
12587TIP3    H237707   8.010   3.310   5.102
12588TIP3   OH237708   4.878   6.460   3.515
12588TIP3    H137709   4.907   6.527   3.576
12588TIP3    H237710   4.945   6.392   3.519
12589TIP3   OH237711   0.624   5.207   4.984
12589TIP3    H137712   0.647   5.116   4.999
12589TIP3    H237713   0.618   5.215   4.889
12590TIP3   OH237714   8.272   3.251   4.433
12590TIP3    H137715   8.207   3.232   4.366
12590TIP3    H237716   8.264   3.179   4.495
12591TIP3   OH237717   1.587   2.546   1.056
12591TIP3    H137718   1.673   2.532   1.016
12591TIP3    H237719   1.607   2.575   1.145
12592TIP3   OH237720   3.780   1.914   0.039
12592TIP3    H137721   3.692   1.926   0.002
12592TIP3    H237722   3.806   1.827   0.009
12593TIP3   OH237723   5.419   6.200   3.381
12593TIP3    H137724   5.323   6.199   3.377
12593TIP3    H237725   5.441   6.292   3.395
12594TIP3   OH237726   7.877   3.765   5.631
12594TIP3    H137727   7.799   3.727   5.671
12594TIP3    H237728   7.852   3.783   5.540
12595TIP3   OH237729   7.670   1.182   6.085
12595TIP3    H137730   7.663   1.153   6.176
12595TIP3    H237731   7.597   1.139   6.040
12596TIP3   OH237732   2.685   2.541   4.782
12596TIP3    H137733   2.618   2.479   4.810
12596TIP3    H237734   2.638   2.604   4.727
12597TIP3   OH237735   3.278   2.891   0.020
12597TIP3    H137736   3.300   2.861   0.108
12597TIP3    H237737   3.235   2.975   0.032
12598TIP3   OH237738   7.505   2.179   4.601
12598TIP3    H137739   7.414   2.190   4.573
12598TIP3    H237740   7.549   2.260   4.573
12599TIP3   OH237741   5.738   5.541   4.324
12599TIP3    H137742   5.822   5.583   4.305
12599TIP3    H237743   5.675   5.613   4.326
12600TIP3   OH237744   5.698   3.071   0.519
12600TIP3    H137745   5.753   3.011   0.469
12600TIP3    H237746   5.734   3.158   0.500
12601TIP3   OH237747   1.264   2.840   5.458
12601TIP3    H137748   1.335   2.797   5.410
12601TIP3    H237749   1.278   2.934   5.443
12602TIP3   OH237750   1.478   1.627   1.684
12602TIP3    H137751   1.417   1.580   1.627
12602TIP3    H237752   1.470   1.583   1.769
12603TIP3   OH237753   2.751   2.565   3.402
12603TIP3    H137754   2.792   2.499   3.459
12603TIP3    H237755   2.770   2.648   3.445
12604TIP3   OH237756   6.271   3.694   3.094
12604TIP3    H137757   6.267   3.602   3.068
12604TIP3    H237758   6.203   3.704   3.161
12605TIP3   OH237759   4.475   3.682   5.897
12605TIP3    H137760   4.496   3.589   5.904
12605TIP3    H237761   4.386   3.683   5.861
12606TIP3   OH237762   4.749   4.102   4.187
12606TIP3    H137763   4.786   4.018   4.212
12606TIP3    H237764   4.822   4.149   4.144
12607TIP3   OH237765   2.529   6.851   0.044
12607TIP3    H137766   2.513   6.757   0.059
12607TIP3    H237767   2.527   6.860  -0.052
12608TIP3   OH237768   0.911   6.982   3.119
12608TIP3    H137769   0.891   6.934   3.200
12608TIP3    H237770   0.921   6.913   3.053
12609TIP3   OH237771   5.888   0.919   2.513
12609TIP3    H137772   5.799   0.954   2.517
12609TIP3    H237773   5.880   0.842   2.457
12610TIP3   OH237774   8.241   6.741   5.666
12610TIP3    H137775   8.160   6.730   5.717
12610TIP3    H237776   8.247   6.835   5.652
12611TIP3   OH237777   8.189   0.130   4.537
12611TIP3    H137778   8.151   0.113   4.450
12611TIP3    H237779   8.219   0.220   4.533
12612TIP3   OH237780   2.094   5.674   6.084
12612TIP3    H137781   2.033   5.643   6.017
12612TIP3    H237782   2.108   5.598   6.140
12613TIP3   OH237783   7.753   1.547   0.857
12613TIP3    H137784   7.694   1.496   0.911
12613TIP3    H237785   7.726   1.638   0.871
12614TIP3   OH237786   6.692   4.045   6.654
12614TIP3    H137787   6.684   3.994   6.573
12614TIP3    H237788   6.778   4.021   6.688
12615TIP3   OH237789   8.268   2.906   2.974
12615TIP3    H137790   8.190   2.960   2.974
12615TIP3    H237791   8.316   2.932   2.895
12616TIP3   OH237792   7.561   4.890   1.213
12616TIP3    H137793   7.530   4.848   1.133
12616TIP3    H237794   7.646   4.850   1.231
12617TIP3   OH237795   0.941   2.627   0.541
12617TIP3    H137796   0.895   2.559   0.590
12617TIP3    H237797   0.925   2.605   0.449
12618TIP3   OH237798   4.942   2.116   5.043
12618TIP3    H137799   4.942   2.021   5.044
12618TIP3    H237800   4.965   2.141   5.133
12619TIP3   OH237801   6.570   7.709   4.950
12619TIP3    H137802   6.528   7.795   4.956
12619TIP3    H237803   6.653   7.720   4.996
12620TIP3   OH237804   3.221   4.584   1.520
12620TIP3    H137805   3.242   4.553   1.431
12620TIP3    H237806   3.296   4.637   1.545
12621TIP3   OH237807   3.123   2.702   1.247
12621TIP3    H137808   3.040   2.658   1.230
12621TIP3    H237809   3.138   2.690   1.341
12622TIP3   OH237810   5.493   5.351   1.829
12622TIP3    H137811   5.511   5.292   1.755
12622TIP3    H237812   5.400   5.372   1.820
12623TIP3   OH237813   0.265   0.907   5.824
12623TIP3    H137814   0.239   0.993   5.791
12623TIP3    H237815   0.182   0.861   5.838
12624TIP3   OH237816   2.339   7.369   0.297
12624TIP3    H137817   2.278   7.436   0.265
12624TIP3    H237818   2.333   7.299   0.231
12625TIP3   OH237819   3.020   4.724   5.693
12625TIP3    H137820   3.097   4.701   5.744
12625TIP3    H237821   2.978   4.640   5.675
12626TIP3   OH237822   4.562   5.726   6.265
12626TIP3    H137823   4.641   5.679   6.238
12626TIP3    H237824   4.592   5.786   6.334
12627TIP3   OH237825   5.823   3.871   1.978
12627TIP3    H137826   5.817   3.962   2.007
12627TIP3    H237827   5.905   3.866   1.930
12628TIP3   OH237828   1.838   6.245   2.620
12628TIP3    H137829   1.800   6.157   2.621
12628TIP3    H237830   1.930   6.232   2.642
12629TIP3   OH237831   7.312   6.099   5.089
12629TIP3    H137832   7.379   6.153   5.047
12629TIP3    H237833   7.270   6.052   5.016
12630TIP3   OH237834   3.747   6.436   2.092
12630TIP3    H137835   3.827   6.467   2.048
12630TIP3    H237836   3.678   6.493   2.058
12631TIP3   OH237837   8.186   4.189   3.653
12631TIP3    H137838   8.211   4.279   3.634
12631TIP3    H237839   8.245   4.162   3.724
12632TIP3   OH237840   2.469   6.598   4.717
12632TIP3    H137841   2.491   6.572   4.806
12632TIP3    H237842   2.538   6.560   4.663
12633TIP3   OH237843   7.201   1.804   6.142
12633TIP3    H137844   7.288   1.813   6.102
12633TIP3    H237845   7.182   1.890   6.178
12634TIP3   OH237846   5.065   4.692   0.214
12634TIP3    H137847   5.079   4.614   0.268
12634TIP3    H237848   5.024   4.755   0.273
12635TIP3   OH237849   2.951   0.233   1.892
12635TIP3    H137850   2.978   0.307   1.837
12635TIP3    H237851   3.004   0.159   1.862
12636TIP3   OH237852   4.139   1.375   2.676
12636TIP3    H137853   4.128   1.305   2.611
12636TIP3    H237854   4.218   1.351   2.724
12637TIP3   OH237855   4.544   6.039   0.077
12637TIP3    H137856   4.590   6.000   0.151
12637TIP3    H237857   4.494   5.967   0.039
12638TIP3   OH237858   1.705   4.353   6.700
12638TIP3    H137859   1.713   4.257   6.703
12638TIP3    H237860   1.694   4.372   6.607
12639TIP3   OH237861   0.205   6.492   2.078
12639TIP3    H137862   0.291   6.518   2.043
12639TIP3    H237863   0.176   6.569   2.128
12640TIP3   OH237864   4.484   2.925   4.407
12640TIP3    H137865   4.421   2.876   4.459
12640TIP3    H237866   4.470   3.017   4.433
12641TIP3   OH237867   7.373   3.074   6.088
12641TIP3    H137868   7.433   3.149   6.085
12641TIP3    H237869   7.308   3.092   6.020
12642TIP3   OH237870   6.767   5.498   5.806
12642TIP3    H137871   6.814   5.572   5.766
12642TIP3    H237872   6.766   5.431   5.738
12643TIP3   OH237873   6.826   3.635   0.712
12643TIP3    H137874   6.760   3.701   0.734
12643TIP3    H237875   6.899   3.686   0.675
12644TIP3   OH237876   6.938   1.280   0.163
12644TIP3    H137877   6.890   1.215   0.111
12644TIP3    H237878   7.002   1.317   0.102
12645TIP3   OH237879   6.594  -0.016   1.458
12645TIP3    H137880   6.610   0.042   1.384
12645TIP3    H237881   6.672  -0.009   1.513
12646TIP3   OH237882   0.474   3.180   2.273
12646TIP3    H137883   0.394   3.128   2.283
12646TIP3    H237884   0.544   3.124   2.306
12647TIP3   OH237885   1.271   1.610   0.957
12647TIP3    H137886   1.301   1.693   0.919
12647TIP3    H237887   1.341   1.548   0.935
12648TIP3   OH237888   2.847   3.908   1.842
12648TIP3    H137889   2.820   3.825   1.805
12648TIP3    H237890   2.814   3.907   1.931
12649TIP3   OH237891   0.278   2.883   0.234
12649TIP3    H137892   0.285   2.827   0.156
12649TIP3    H237893   0.184   2.895   0.246
12650TIP3   OH237894   7.722   0.063   1.579
12650TIP3    H137895   7.730  -0.016   1.633
12650TIP3    H237896   7.678   0.033   1.500
12651TIP3   OH237897   2.398   3.688   3.490
12651TIP3    H137898   2.481   3.717   3.452
12651TIP3    H237899   2.342   3.669   3.414
12652TIP3   OH237900   1.189   0.875   0.607
12652TIP3    H137901   1.266   0.820   0.597
12652TIP3    H237902   1.198   0.913   0.695
12653TIP3   OH237903   1.400   6.999   4.903
12653TIP3    H137904   1.344   6.927   4.875
12653TIP3    H237905   1.372   7.074   4.850
12654TIP3   OH237906   2.233   5.739   0.080
12654TIP3    H137907   2.227   5.821   0.129
12654TIP3    H237908   2.143   5.719   0.055
12655TIP3   OH237909   2.536   0.390   0.241
12655TIP3    H137910   2.516   0.337   0.319
12655TIP3    H237911   2.631   0.401   0.244
12656TIP3   OH237912   3.651   0.869   5.212
12656TIP3    H137913   3.598   0.806   5.261
12656TIP3    H237914   3.595   0.896   5.139
12657TIP3   OH237915   5.991   6.595   0.922
12657TIP3    H137916   6.061   6.530   0.916
12657TIP3    H237917   5.949   6.593   0.835
12658TIP3   OH237918   0.135   2.554   6.643
12658TIP3    H137919   0.076   2.603   6.584
12658TIP3    H237920   0.169   2.621   6.702
12659TIP3   OH237921   3.335   0.798   0.413
12659TIP3    H137922   3.315   0.717   0.459
12659TIP3    H237923   3.429   0.810   0.425
12660TIP3   OH237924   0.161   5.546   6.094
12660TIP3    H137925   0.214   5.607   6.145
12660TIP3    H237926   0.150   5.590   6.009
12661TIP3   OH237927   0.100   4.569   2.114
12661TIP3    H137928   0.118   4.657   2.145
12661TIP3    H237929   0.012   4.575   2.076
12662TIP3   OH237930   0.085   3.925   1.240
12662TIP3    H137931   0.017   3.938   1.174
12662TIP3    H237932   0.148   3.995   1.224
12663TIP3   OH237933   7.848   0.445   2.774
12663TIP3    H137934   7.877   0.455   2.865
12663TIP3    H237935   7.927   0.419   2.726
12664TIP3   OH237936   1.588   3.041   4.435
12664TIP3    H137937   1.647   2.966   4.442
12664TIP3    H237938   1.507   3.012   4.477
12665TIP3   OH237939   3.049   0.472   5.898
12665TIP3    H137940   2.988   0.453   5.970
12665TIP3    H237941   3.123   0.414   5.914
12666TIP3   OH237942   7.045   1.938   4.258
12666TIP3    H137943   7.032   1.974   4.346
12666TIP3    H237944   6.995   1.996   4.201
12667TIP3   OH237945   1.312   5.967   3.694
12667TIP3    H137946   1.315   5.884   3.647
12667TIP3    H237947   1.404   5.988   3.710
12668TIP3   OH237948   3.396   6.626   5.910
12668TIP3    H137949   3.398   6.721   5.898
12668TIP3    H237950   3.303   6.605   5.919
12669TIP3   OH237951   5.285   0.275   5.240
12669TIP3    H137952   5.373   0.240   5.227
12669TIP3    H237953   5.296   0.344   5.305
12670TIP3   OH237954   6.383   6.443   3.260
12670TIP3    H137955   6.298   6.437   3.302
12670TIP3    H237956   6.365   6.481   3.174
12671TIP3   OH237957   7.478   3.139   2.324
12671TIP3    H137958   7.494   3.166   2.415
12671TIP3    H237959   7.437   3.215   2.283
12672TIP3   OH237960   1.642   4.594   1.769
12672TIP3    H137961   1.578   4.538   1.814
12672TIP3    H237962   1.688   4.639   1.840
12673TIP3   OH237963   6.920   7.463   2.077
12673TIP3    H137964   6.964   7.536   2.032
12673TIP3    H237965   6.952   7.468   2.167
12674TIP3   OH237966   6.288   7.319   2.037
12674TIP3    H137967   6.222   7.273   2.091
12674TIP3    H237968   6.294   7.267   1.957
12675TIP3   OH237969   3.845   1.974   1.811
12675TIP3    H137970   3.880   2.048   1.860
12675TIP3    H237971   3.785   1.931   1.873
12676TIP3   OH237972   1.052   1.541   5.154
12676TIP3    H137973   1.018   1.453   5.140
12676TIP3    H237974   1.038   1.558   5.247
12677TIP3   OH237975   0.783   4.848   4.525
12677TIP3    H137976   0.872   4.815   4.540
12677TIP3    H237977   0.726   4.772   4.541
12678TIP3   OH237978   1.329   6.525   4.350
12678TIP3    H137979   1.240   6.558   4.339
12678TIP3    H237980   1.344   6.470   4.273
12679TIP3   OH237981   0.210   3.988   1.959
12679TIP3    H137982   0.166   4.061   1.916
12679TIP3    H237983   0.301   3.994   1.930
12680TIP3   OH237984   6.074   1.433   5.756
12680TIP3    H137985   6.168   1.448   5.746
12680TIP3    H237986   6.034   1.517   5.732
12681TIP3   OH237987   1.970   3.247   3.122
12681TIP3    H137988   1.913   3.200   3.182
12681TIP3    H237989   2.052   3.197   3.122
12682TIP3   OH237990   5.814   1.631   1.308
12682TIP3    H137991   5.886   1.609   1.248
12682TIP3    H237992   5.754   1.682   1.255
12683TIP3   OH237993   1.362   5.033   3.021
12683TIP3    H137994   1.362   4.971   2.947
12683TIP3    H237995   1.270   5.052   3.036
12684TIP3   OH237996   2.912   4.467   2.847
12684TIP3    H137997   2.935   4.415   2.770
12684TIP3    H237998   2.989   4.462   2.904
12685TIP3   OH237999   2.195   3.810   0.243
12685TIP3    H138000   2.154   3.764   0.170
12685TIP3    H238001   2.254   3.745   0.282
12686TIP3   OH238002   0.563   3.057   5.856
12686TIP3    H138003   0.633   3.120   5.872
12686TIP3    H238004   0.496   3.079   5.921
12687TIP3   OH238005   3.074   0.666   6.181
12687TIP3    H138006   3.114   0.579   6.186
12687TIP3    H238007   3.148   0.727   6.184
12688TIP3   OH238008   6.161   2.245   3.520
12688TIP3    H138009   6.216   2.318   3.550
12688TIP3    H238010   6.223   2.176   3.498
12689TIP3   OH238011   1.657   7.530   4.825
12689TIP3    H138012   1.732   7.565   4.777
12689TIP3    H238013   1.676   7.437   4.836
12690TIP3   OH238014   2.791   1.584   6.224
12690TIP3    H138015   2.724   1.640   6.264
12690TIP3    H238016   2.806   1.622   6.137
12691TIP3   OH238017   1.169   5.224   3.670
12691TIP3    H138018   1.118   5.172   3.608
12691TIP3    H238019   1.258   5.193   3.659
12692TIP3   OH238020   6.421   4.232   4.915
12692TIP3    H138021   6.349   4.231   4.851
12692TIP3    H238022   6.438   4.140   4.933
12693TIP3   OH238023   0.686   4.701   4.786
12693TIP3    H138024   0.729   4.786   4.798
12693TIP3    H238025   0.600   4.723   4.750
12694TIP3   OH238026   0.464   0.393   6.139
12694TIP3    H138027   0.477   0.343   6.219
12694TIP3    H238028   0.540   0.372   6.085
12695TIP3   OH238029   7.168   4.150   5.204
12695TIP3    H138030   7.192   4.230   5.158
12695TIP3    H238031   7.176   4.172   5.297
12696TIP3   OH238032   3.605   3.628   2.777
12696TIP3    H138033   3.601   3.539   2.811
12696TIP3    H238034   3.625   3.682   2.854
12697TIP3   OH238035   6.353   0.292   6.512
12697TIP3    H138036   6.299   0.311   6.435
12697TIP3    H238037   6.394   0.208   6.491
12698TIP3   OH238038   4.864   4.396   5.045
12698TIP3    H138039   4.779   4.404   5.002
12698TIP3    H238040   4.916   4.342   4.985
12699TIP3   OH238041   2.822   2.094   2.349
12699TIP3    H138042   2.913   2.121   2.338
12699TIP3    H238043   2.777   2.173   2.380
12700TIP3   OH238044   6.696   4.040   3.292
12700TIP3    H138045   6.613   4.008   3.254
12700TIP3    H238046   6.706   3.990   3.373
12701TIP3   OH238047   2.018   7.618   4.209
12701TIP3    H138048   1.970   7.687   4.253
12701TIP3    H238049   2.109   7.629   4.238
12702TIP3   OH238050   1.703   7.538   4.222
12702TIP3    H138051   1.674   7.532   4.312
12702TIP3    H238052   1.742   7.625   4.214
12703TIP3   OH238053   8.006   3.600   0.148
12703TIP3    H138054   8.012   3.692   0.121
12703TIP3    H238055   8.084   3.585   0.201
12704TIP3   OH238056   5.735   2.123   4.057
12704TIP3    H138057   5.824   2.147   4.079
12704TIP3    H238058   5.691   2.110   4.141
12705TIP3   OH238059   6.423   1.871   2.781
12705TIP3    H138060   6.469   1.949   2.751
12705TIP3    H238061   6.397   1.826   2.700
12706TIP3   OH238062   8.267   5.371   6.021
12706TIP3    H138063   8.358   5.393   6.043
12706TIP3    H238064   8.237   5.444   5.967
12707TIP3   OH238065   2.862   7.441   3.828
12707TIP3    H138066   2.775   7.407   3.805
12707TIP3    H238067   2.845   7.525   3.870
12708TIP3   OH238068   6.974   1.505   5.351
12708TIP3    H138069   6.945   1.587   5.311
12708TIP3    H238070   6.895   1.468   5.390
12709TIP3   OH238071   1.870   7.605   5.421
12709TIP3    H138072   1.827   7.684   5.388
12709TIP3    H238073   1.827   7.588   5.505
12710TIP3   OH238074   4.342   3.857   1.343
12710TIP3    H138075   4.412   3.792   1.332
12710TIP3    H238076   4.388   3.940   1.355
12711TIP3   OH238077   3.371   6.373   5.304
12711TIP3    H138078   3.348   6.419   5.385
12711TIP3    H238079   3.340   6.430   5.234
12712TIP3   OH238080   7.080   0.245   2.719
12712TIP3    H138081   7.006   0.254   2.660
12712TIP3    H238082   7.128   0.327   2.709
12713TIP3   OH238083   4.828   0.673   6.604
12713TIP3    H138084   4.922   0.688   6.594
12713TIP3    H238085   4.820   0.616   6.681
12714TIP3   OH238086   0.902   2.094   1.253
12714TIP3    H138087   0.960   2.159   1.291
12714TIP3    H238088   0.931   2.086   1.162
12715TIP3   OH238089   5.005   3.184   1.357
12715TIP3    H138090   5.032   3.243   1.287
12715TIP3    H238091   5.009   3.097   1.319
12716TIP3   OH238092   2.212   3.205   2.279
12716TIP3    H138093   2.218   3.298   2.257
12716TIP3    H238094   2.157   3.202   2.357
12717TIP3   OH238095   5.694   2.645   5.087
12717TIP3    H138096   5.600   2.631   5.075
12717TIP3    H238097   5.705   2.653   5.181
12718TIP3   OH238098   4.268   2.379   4.287
12718TIP3    H138099   4.223   2.424   4.215
12718TIP3    H238100   4.331   2.444   4.319
12719TIP3   OH238101   1.359   4.373   2.325
12719TIP3    H138102   1.374   4.434   2.253
12719TIP3    H238103   1.443   4.329   2.336
12720TIP3   OH238104   1.931   3.637   0.872
12720TIP3    H138105   1.896   3.710   0.821
12720TIP3    H238106   1.912   3.659   0.963
12721TIP3   OH238107   4.545   5.513   2.107
12721TIP3    H138108   4.616   5.520   2.171
12721TIP3    H238109   4.589   5.515   2.022
12722TIP3   OH238110   2.021   7.328   2.218
12722TIP3    H138111   1.965   7.364   2.150
12722TIP3    H238112   2.095   7.289   2.171
12723TIP3   OH238113   3.120   7.743   1.545
12723TIP3    H138114   3.056   7.675   1.527
12723TIP3    H238115   3.187   7.700   1.598
12724TIP3   OH238116   3.953   6.422   6.772
12724TIP3    H138117   3.907   6.495   6.813
12724TIP3    H238118   3.961   6.448   6.680
12725TIP3   OH238119   3.615   3.244   4.845
12725TIP3    H138120   3.617   3.228   4.751
12725TIP3    H238121   3.672   3.320   4.857
12726TIP3   OH238122   3.714   5.585   6.341
12726TIP3    H138123   3.742   5.649   6.274
12726TIP3    H238124   3.791   5.572   6.395
12727TIP3   OH238125   2.640   4.805   4.021
12727TIP3    H138126   2.714   4.799   4.081
12727TIP3    H238127   2.668   4.870   3.956
12728TIP3   OH238128   1.544   5.133   1.051
12728TIP3    H138129   1.610   5.149   0.983
12728TIP3    H238130   1.592   5.139   1.133
12729TIP3   OH238131   1.332   4.395   3.318
12729TIP3    H138132   1.405   4.424   3.372
12729TIP3    H238133   1.320   4.303   3.340
12730TIP3   OH238134   6.634   4.136   3.848
12730TIP3    H138135   6.688   4.193   3.794
12730TIP3    H238136   6.678   4.136   3.934
12731TIP3   OH238137   4.075   4.003   0.741
12731TIP3    H138138   4.011   4.052   0.689
12731TIP3    H238139   4.039   3.915   0.747
12732TIP3   OH238140   2.220   5.794   0.598
12732TIP3    H138141   2.157   5.839   0.654
12732TIP3    H238142   2.304   5.836   0.617
12733TIP3   OH238143   2.133   7.571   5.385
12733TIP3    H138144   2.039   7.589   5.388
12733TIP3    H238145   2.163   7.582   5.475
12734TIP3   OH238146   8.045   2.902   6.089
12734TIP3    H138147   8.089   2.931   6.009
12734TIP3    H238148   7.991   2.828   6.060
12735TIP3   OH238149   7.499   0.978   0.510
12735TIP3    H138150   7.479   0.938   0.426
12735TIP3    H238151   7.503   0.904   0.571
12736TIP3   OH238152   2.662   7.272   5.806
12736TIP3    H138153   2.682   7.268   5.712
12736TIP3    H238154   2.735   7.227   5.848
12737TIP3   OH238155   0.859   4.915   1.655
12737TIP3    H138156   0.809   4.833   1.653
12737TIP3    H238157   0.814   4.969   1.720
12738TIP3   OH238158   0.105   6.866   6.417
12738TIP3    H138159   0.093   6.841   6.325
12738TIP3    H238160   0.016   6.883   6.449
12739TIP3   OH238161   6.894   4.173   6.040
12739TIP3    H138162   6.984   4.204   6.048
12739TIP3    H238163   6.841   4.242   6.080
12740TIP3   OH238164   2.555   1.514   5.927
12740TIP3    H138165   2.651   1.505   5.927
12740TIP3    H238166   2.526   1.450   5.992
12741TIP3   OH238167   0.892   1.503   0.731
12741TIP3    H138168   0.843   1.579   0.761
12741TIP3    H238169   0.876   1.436   0.798
12742TIP3   OH238170   5.695   4.592   3.769
12742TIP3    H138171   5.626   4.644   3.810
12742TIP3    H238172   5.776   4.641   3.786
12743TIP3   OH238173   7.249   0.173   1.528
12743TIP3    H138174   7.246   0.244   1.465
12743TIP3    H238175   7.324   0.192   1.584
12744TIP3   OH238176   0.789   0.852   6.404
12744TIP3    H138177   0.826   0.937   6.428
12744TIP3    H238178   0.703   0.872   6.367
12745TIP3   OH238179   2.513   4.257   0.334
12745TIP3    H138180   2.465   4.211   0.265
12745TIP3    H238181   2.481   4.219   0.415
12746TIP3   OH238182   8.095   2.259   6.108
12746TIP3    H138183   8.153   2.330   6.137
12746TIP3    H238184   8.066   2.218   6.190
12747TIP3   OH238185   3.595   5.506   1.982
12747TIP3    H138186   3.608   5.483   1.890
12747TIP3    H238187   3.625   5.597   1.988
12748TIP3   OH238188   6.567   6.001   6.274
12748TIP3    H138189   6.593   6.089   6.301
12748TIP3    H238190   6.539   5.959   6.355
12749TIP3   OH238191   4.359   0.305   0.333
12749TIP3    H138192   4.293   0.343   0.276
12749TIP3    H238193   4.318   0.228   0.371
12750TIP3   OH238194   7.016   6.147   4.202
12750TIP3    H138195   7.006   6.118   4.112
12750TIP3    H238196   6.988   6.238   4.201
12751TIP3   OH238197   0.570   5.551   6.515
12751TIP3    H138198   0.475   5.546   6.502
12751TIP3    H238199   0.601   5.462   6.498
12752TIP3   OH238200   5.168   6.368   4.899
12752TIP3    H138201   5.089   6.343   4.945
12752TIP3    H238202   5.195   6.450   4.942
12753TIP3   OH238203   1.511   7.143   0.147
12753TIP3    H138204   1.551   7.105   0.225
12753TIP3    H238205   1.464   7.220   0.179
12754TIP3   OH238206   5.479   7.245   3.432
12754TIP3    H138207   5.563   7.200   3.424
12754TIP3    H238208   5.484   7.291   3.516
12755TIP3   OH238209   0.641   4.524   6.365
12755TIP3    H138210   0.712   4.463   6.345
12755TIP3    H238211   0.602   4.491   6.445
12756TIP3   OH238212   4.802   4.015   4.818
12756TIP3    H138213   4.776   3.991   4.729
12756TIP3    H238214   4.849   3.939   4.851
12757TIP3   OH238215   0.324   5.377   1.645
12757TIP3    H138216   0.286   5.311   1.702
12757TIP3    H238217   0.249   5.422   1.606
12758TIP3   OH238218   1.726   1.411   0.392
12758TIP3    H138219   1.784   1.487   0.383
12758TIP3    H238220   1.756   1.367   0.471
12759TIP3   OH238221   8.003   5.387   5.548
12759TIP3    H138222   8.087   5.348   5.527
12759TIP3    H238223   7.987   5.362   5.639
12760TIP3   OH238224   3.376   3.559   0.715
12760TIP3    H138225   3.304   3.533   0.773
12760TIP3    H238226   3.337   3.623   0.656
12761TIP3   OH238227   5.964   5.105   4.407
12761TIP3    H138228   5.933   5.075   4.492
12761TIP3    H238229   5.977   5.200   4.419
12762TIP3   OH238230   5.609   5.405   5.911
12762TIP3    H138231   5.645   5.487   5.878
12762TIP3    H238232   5.648   5.338   5.853
12763TIP3   OH238233   4.368   0.524   3.864
12763TIP3    H138234   4.419   0.551   3.788
12763TIP3    H238235   4.277   0.542   3.840
12764TIP3   OH238236   2.483   0.827   0.505
12764TIP3    H138237   2.566   0.790   0.537
12764TIP3    H238238   2.429   0.836   0.583
12765TIP3   OH238239   5.134   2.575   4.855
12765TIP3    H138240   5.109   2.582   4.762
12765TIP3    H238241   5.148   2.481   4.869
12766TIP3   OH238242   7.351   0.673   0.733
12766TIP3    H138243   7.414   0.623   0.783
12766TIP3    H238244   7.367   0.764   0.758
12767TIP3   OH238245   0.475   7.274   5.372
12767TIP3    H138246   0.411   7.331   5.329
12767TIP3    H238247   0.524   7.234   5.300
12768TIP3   OH238248   1.071   3.588   1.446
12768TIP3    H138249   0.986   3.554   1.417
12768TIP3    H238250   1.098   3.648   1.376
12769TIP3   OH238251   5.573   6.904   3.643
12769TIP3    H138252   5.480   6.908   3.623
12769TIP3    H238253   5.578   6.897   3.738
12770TIP3   OH238254   2.961   4.737   3.604
12770TIP3    H138255   3.026   4.673   3.631
12770TIP3    H238256   2.883   4.715   3.655
12771TIP3   OH238257   0.239   4.514   1.743
12771TIP3    H138258   0.160   4.563   1.720
12771TIP3    H238259   0.269   4.478   1.660
12772TIP3   OH238260   6.074   5.423   0.848
12772TIP3    H138261   6.035   5.414   0.935
12772TIP3    H238262   6.143   5.357   0.846
12773TIP3   OH238263   6.875   2.565   1.322
12773TIP3    H138264   6.899   2.626   1.392
12773TIP3    H238265   6.956   2.517   1.302
12774TIP3   OH238266   7.381   0.813   6.596
12774TIP3    H138267   7.348   0.829   6.508
12774TIP3    H238268   7.344   0.729   6.621
12775TIP3   OH238269   3.692   5.814   4.343
12775TIP3    H138270   3.623   5.837   4.281
12775TIP3    H238271   3.649   5.755   4.406
12776TIP3   OH238272   5.167   3.903   0.109
12776TIP3    H138273   5.203   3.837   0.051
12776TIP3    H238274   5.227   3.977   0.102
12777TIP3   OH238275   1.882   6.181   0.961
12777TIP3    H138276   1.893   6.261   1.013
12777TIP3    H238277   1.794   6.150   0.985
12778TIP3   OH238278   2.316   2.595   1.243
12778TIP3    H138279   2.314   2.506   1.209
12778TIP3    H238280   2.351   2.587   1.331
12779TIP3   OH238281   4.154   6.314   5.221
12779TIP3    H138282   4.085   6.376   5.196
12779TIP3    H238283   4.112   6.228   5.214
12780TIP3   OH238284   0.924   4.992   0.827
12780TIP3    H138285   0.904   4.905   0.794
12780TIP3    H238286   1.008   5.014   0.786
12781TIP3   OH238287   7.801   4.506   1.297
12781TIP3    H138288   7.717   4.465   1.316
12781TIP3    H238289   7.865   4.447   1.337
12782TIP3   OH238290   1.635   3.095   5.219
12782TIP3    H138291   1.670   3.103   5.130
12782TIP3    H238292   1.708   3.060   5.270
12783TIP3   OH238293   0.282   1.305   4.925
12783TIP3    H138294   0.189   1.286   4.937
12783TIP3    H238295   0.324   1.219   4.924
12784TIP3   OH238296   4.783   6.511   2.164
12784TIP3    H138297   4.828   6.474   2.087
12784TIP3    H238298   4.698   6.537   2.130
12785TIP3   OH238299   1.639   2.994   3.518
12785TIP3    H138300   1.700   2.921   3.508
12785TIP3    H238301   1.630   3.006   3.612
12786TIP3   OH238302   2.262   2.094   1.108
12786TIP3    H138303   2.327   2.035   1.068
12786TIP3    H238304   2.215   2.039   1.170
12787TIP3   OH238305   6.604   2.562   1.380
12787TIP3    H138306   6.602   2.621   1.456
12787TIP3    H238307   6.697   2.547   1.364
12788TIP3   OH238308   7.455   5.590   5.951
12788TIP3    H138309   7.497   5.531   5.889
12788TIP3    H238310   7.465   5.547   6.036
12789TIP3   OH238311   7.654   4.227   2.617
12789TIP3    H138312   7.713   4.168   2.665
12789TIP3    H238313   7.579   4.238   2.675
12790TIP3   OH238314   0.745   0.418   5.962
12790TIP3    H138315   0.784   0.457   5.883
12790TIP3    H238316   0.816   0.419   6.026
12791TIP3   OH238317   6.407   2.473   5.492
12791TIP3    H138318   6.374   2.520   5.415
12791TIP3    H238319   6.491   2.438   5.464
12792TIP3   OH238320   1.029   5.079   3.459
12792TIP3    H138321   1.039   4.990   3.425
12792TIP3    H238322   1.024   5.134   3.381
12793TIP3   OH238323   5.147   6.946   3.951
12793TIP3    H138324   5.092   6.994   4.012
12793TIP3    H238325   5.196   6.884   4.006
12794TIP3   OH238326   5.381   0.406   6.536
12794TIP3    H138327   5.423   0.370   6.614
12794TIP3    H238328   5.343   0.330   6.492
12795TIP3   OH238329   1.357   4.497   5.828
12795TIP3    H138330   1.305   4.498   5.748
12795TIP3    H238331   1.366   4.405   5.850
12796TIP3   OH238332   7.412   0.186   1.781
12796TIP3    H138333   7.369   0.218   1.860
12796TIP3    H238334   7.500   0.162   1.809
12797TIP3   OH238335   7.110   1.642   1.326
12797TIP3    H138336   7.095   1.658   1.419
12797TIP3    H238337   7.192   1.592   1.324
12798TIP3   OH238338   6.376   6.386   4.477
12798TIP3    H138339   6.340   6.302   4.505
12798TIP3    H238340   6.326   6.451   4.528
12799TIP3   OH238341   4.264   6.085   3.640
12799TIP3    H138342   4.309   6.168   3.625
12799TIP3    H238343   4.333   6.019   3.634
12800TIP3   OH238344   7.721   3.730   3.687
12800TIP3    H138345   7.627   3.746   3.689
12800TIP3    H238346   7.729   3.637   3.667
12801TIP3   OH238347   7.066   0.855   6.556
12801TIP3    H138348   7.120   0.859   6.477
12801TIP3    H238349   6.980   0.886   6.527
12802TIP3   OH238350   1.022   5.949   5.359
12802TIP3    H138351   1.028   5.855   5.346
12802TIP3    H238352   0.929   5.965   5.375
12803TIP3   OH238353   2.584   3.845   5.584
12803TIP3    H138354   2.603   3.886   5.668
12803TIP3    H238355   2.663   3.794   5.563
12804TIP3   OH238356   0.106   7.592   0.224
12804TIP3    H138357   0.142   7.602   0.312
12804TIP3    H238358   0.013   7.572   0.237
12805TIP3   OH238359   0.135   5.760   0.746
12805TIP3    H138360   0.144   5.668   0.721
12805TIP3    H238361   0.118   5.757   0.840
12806TIP3   OH238362   5.282   6.601   5.659
12806TIP3    H138363   5.280   6.515   5.618
12806TIP3    H238364   5.238   6.589   5.744
12807TIP3   OH238365   0.182   4.428   0.301
12807TIP3    H138366   0.098   4.399   0.337
12807TIP3    H238367   0.175   4.408   0.207
12808TIP3   OH238368   1.082   4.446   3.180
12808TIP3    H138369   1.103   4.414   3.092
12808TIP3    H238370   1.163   4.434   3.230
12809TIP3   OH238371   3.818   6.852   6.085
12809TIP3    H138372   3.846   6.825   6.173
12809TIP3    H238373   3.810   6.947   6.090
12810TIP3   OH238374   7.483   4.012   3.834
12810TIP3    H138375   7.428   4.015   3.756
12810TIP3    H238376   7.421   4.005   3.907
12811TIP3   OH238377   3.111   4.196   1.633
12811TIP3    H138378   3.173   4.142   1.683
12811TIP3    H238379   3.113   4.158   1.545
12812TIP3   OH238380   0.732   1.797   4.767
12812TIP3    H138381   0.750   1.867   4.705
12812TIP3    H238382   0.770   1.828   4.850
12813TIP3   OH238383   1.149   4.823   1.148
12813TIP3    H138384   1.175   4.780   1.229
12813TIP3    H238385   1.231   4.834   1.100
12814TIP3   OH238386   3.241   1.605   0.518
12814TIP3    H138387   3.215   1.519   0.485
12814TIP3    H238388   3.194   1.613   0.601
12815TIP3   OH238389   7.303   2.256   1.353
12815TIP3    H138390   7.301   2.182   1.292
12815TIP3    H238391   7.395   2.283   1.354
12816TIP3   OH238392   4.649   4.548   6.004
12816TIP3    H138393   4.586   4.478   6.024
12816TIP3    H238394   4.694   4.564   6.086
12817TIP3   OH238395   7.810   0.457   5.506
12817TIP3    H138396   7.811   0.459   5.411
12817TIP3    H238397   7.887   0.508   5.533
12818TIP3   OH238398   1.119   0.083   5.210
12818TIP3    H138399   1.202   0.057   5.170
12818TIP3    H238400   1.076   0.136   5.143
12819TIP3   OH238401   7.044   7.653   1.220
12819TIP3    H138402   7.101   7.592   1.267
12819TIP3    H238403   7.009   7.710   1.289
12820TIP3   OH238404   0.186   4.422   0.980
12820TIP3    H138405   0.095   4.427   0.952
12820TIP3    H238406   0.236   4.415   0.898
12821TIP3   OH238407   4.256   2.666   5.623
12821TIP3    H138408   4.323   2.598   5.620
12821TIP3    H238409   4.209   2.650   5.705
12822TIP3   OH238410   3.613   4.882   4.747
12822TIP3    H138411   3.639   4.933   4.824
12822TIP3    H238412   3.547   4.821   4.779
12823TIP3   OH238413   1.278   6.951   6.037
12823TIP3    H138414   1.280   7.039   6.075
12823TIP3    H238415   1.207   6.906   6.083
12824TIP3   OH238416   0.998   5.720   2.882
12824TIP3    H138417   0.908   5.707   2.911
12824TIP3    H238418   1.047   5.734   2.962
12825TIP3   OH238419   2.730   2.759   3.759
12825TIP3    H138420   2.815   2.800   3.773
12825TIP3    H238421   2.739   2.670   3.791
12826TIP3   OH238422   7.812   0.169   5.417
12826TIP3    H138423   7.841   0.235   5.481
12826TIP3    H238424   7.756   0.110   5.467
12827TIP3   OH238425   7.373   5.306   4.270
12827TIP3    H138426   7.405   5.228   4.225
12827TIP3    H238427   7.287   5.281   4.304
12828TIP3   OH238428   0.983   1.488   2.112
12828TIP3    H138429   0.997   1.527   2.026
12828TIP3    H238430   0.975   1.395   2.095
12829TIP3   OH238431   2.433   4.957   0.493
12829TIP3    H138432   2.413   5.051   0.488
12829TIP3    H238433   2.404   4.931   0.580
12830TIP3   OH238434   5.905   4.734   2.495
12830TIP3    H138435   5.879   4.825   2.507
12830TIP3    H238436   5.944   4.732   2.408
12831TIP3   OH238437   5.333   6.523   0.624
12831TIP3    H138438   5.403   6.463   0.596
12831TIP3    H238439   5.257   6.466   0.636
12832TIP3   OH238440   5.510   1.588   4.906
12832TIP3    H138441   5.518   1.520   4.838
12832TIP3    H238442   5.449   1.551   4.969
12833TIP3   OH238443   0.073   4.907   0.910
12833TIP3    H138444   0.151   4.957   0.887
12833TIP3    H238445   0.092   4.873   0.998
12834TIP3   OH238446   5.922   6.163   0.036
12834TIP3    H138447   5.904   6.201   0.123
12834TIP3    H238448   5.958   6.077   0.055
12835TIP3   OH238449   1.772   1.283   3.479
12835TIP3    H138450   1.821   1.289   3.561
12835TIP3    H238451   1.771   1.372   3.445
12836TIP3   OH238452   3.099   3.434   2.757
12836TIP3    H138453   3.023   3.425   2.815
12836TIP3    H238454   3.163   3.484   2.809
12837TIP3   OH238455   4.935   1.047   1.686
12837TIP3    H138456   5.014   1.000   1.658
12837TIP3    H238457   4.968   1.130   1.721
12838TIP3   OH238458   1.743   7.310   6.335
12838TIP3    H138459   1.734   7.262   6.417
12838TIP3    H238460   1.690   7.261   6.272
12839TIP3   OH238461   2.115   5.407   6.165
12839TIP3    H138462   2.173   5.379   6.235
12839TIP3    H238463   2.085   5.326   6.124
12840TIP3   OH238464   2.020   3.337   5.852
12840TIP3    H138465   1.928   3.339   5.881
12840TIP3    H238466   2.050   3.249   5.875
12841TIP3   OH238467   7.585   0.368   6.349
12841TIP3    H138468   7.663   0.370   6.405
12841TIP3    H238469   7.512   0.376   6.410
12842TIP3   OH238470   7.894   0.473   5.196
12842TIP3    H138471   7.905   0.485   5.102
12842TIP3    H238472   7.800   0.490   5.211
12843TIP3   OH238473   3.545   6.623   2.073
12843TIP3    H138474   3.532   6.679   2.149
12843TIP3    H238475   3.489   6.546   2.090
12844TIP3   OH238476   4.695   3.191   4.081
12844TIP3    H138477   4.613   3.157   4.047
12844TIP3    H238478   4.759   3.173   4.012
12845TIP3   OH238479   6.739   6.239   4.823
12845TIP3    H138480   6.799   6.208   4.755
12845TIP3    H238481   6.665   6.276   4.776
12846TIP3   OH238482   6.467   4.832   2.494
12846TIP3    H138483   6.468   4.741   2.525
12846TIP3    H238484   6.466   4.884   2.574
12847TIP3   OH238485   0.300   2.606   2.271
12847TIP3    H138486   0.354   2.531   2.246
12847TIP3    H238487   0.341   2.681   2.228
12848TIP3   OH238488   3.349   5.088   3.562
12848TIP3    H138489   3.407   5.034   3.509
12848TIP3    H238490   3.276   5.030   3.585
12849TIP3   OH238491   1.387   4.099   5.388
12849TIP3    H138492   1.461   4.085   5.328
12849TIP3    H238493   1.398   4.032   5.455
12850TIP3   OH238494   1.749   2.872   3.157
12850TIP3    H138495   1.664   2.886   3.198
12850TIP3    H238496   1.729   2.823   3.078
12851TIP3   OH238497   7.044   2.946   1.663
12851TIP3    H138498   7.105   2.914   1.729
12851TIP3    H238499   6.995   3.016   1.708
12852TIP3   OH238500   7.299   4.764   5.783
12852TIP3    H138501   7.248   4.750   5.703
12852TIP3    H238502   7.265   4.700   5.845
12853TIP3   OH238503   6.717   6.373   3.614
12853TIP3    H138504   6.719   6.454   3.563
12853TIP3    H238505   6.809   6.355   3.633
12854TIP3   OH238506   1.605   3.685   0.559
12854TIP3    H138507   1.680   3.691   0.619
12854TIP3    H238508   1.564   3.771   0.562
12855TIP3   OH238509   6.319   0.640   6.160
12855TIP3    H138510   6.407   0.665   6.134
12855TIP3    H238511   6.319   0.544   6.157
12856TIP3   OH238512   8.229   4.029   3.273
12856TIP3    H138513   8.203   4.108   3.226
12856TIP3    H238514   8.283   4.061   3.345
12857TIP3   OH238515   0.947   2.511   1.919
12857TIP3    H138516   0.941   2.523   2.014
12857TIP3    H238517   0.868   2.551   1.884
12858TIP3   OH238518   1.781   7.581   5.685
12858TIP3    H138519   1.861   7.628   5.709
12858TIP3    H238520   1.715   7.615   5.746
12859TIP3   OH238521   0.015   0.501   5.720
12859TIP3    H138522  -0.009   0.587   5.685
12859TIP3    H238523   0.111   0.503   5.725
12860TIP3   OH238524   0.480   0.829   0.383
12860TIP3    H138525   0.406   0.779   0.349
12860TIP3    H238526   0.555   0.801   0.330
12861TIP3   OH238527   5.508   1.723   6.666
12861TIP3    H138528   5.430   1.701   6.717
12861TIP3    H238529   5.557   1.641   6.660
12862TIP3   OH238530   0.036   6.337   3.147
12862TIP3    H138531   0.016   6.246   3.125
12862TIP3    H238532   0.131   6.343   3.143
12863TIP3   OH238533   7.724   4.085   4.253
12863TIP3    H138534   7.678   4.018   4.203
12863TIP3    H238535   7.752   4.041   4.333
12864TIP3   OH238536   7.329   6.854   5.005
12864TIP3    H138537   7.360   6.764   4.992
12864TIP3    H238538   7.236   6.844   5.028
12865TIP3   OH238539   6.549   0.829   3.754
12865TIP3    H138540   6.610   0.815   3.826
12865TIP3    H238541   6.462   0.818   3.793
12866TIP3   OH238542   5.469   3.087   2.126
12866TIP3    H138543   5.396   3.139   2.090
12866TIP3    H238544   5.439   3.060   2.212
12867TIP3   OH238545   5.712   3.915   3.087
12867TIP3    H138546   5.775   3.872   3.030
12867TIP3    H238547   5.753   3.998   3.110
12868TIP3   OH238548   8.290   3.131   3.790
12868TIP3    H138549   8.230   3.191   3.833
12868TIP3    H238550   8.298   3.165   3.700
12869TIP3   OH238551   1.935   0.248   4.950
12869TIP3    H138552   2.024   0.233   4.918
12869TIP3    H238553   1.937   0.336   4.986
12870TIP3   OH238554   1.065   2.328   6.050
12870TIP3    H138555   1.053   2.398   5.986
12870TIP3    H238556   0.979   2.316   6.090
12871TIP3   OH238557   0.302   0.619   2.104
12871TIP3    H138558   0.386   0.647   2.141
12871TIP3    H238559   0.313   0.526   2.085
12872TIP3   OH238560   6.210   4.953   5.191
12872TIP3    H138561   6.252   5.038   5.180
12872TIP3    H238562   6.280   4.895   5.219
12873TIP3   OH238563   0.469   4.162   4.684
12873TIP3    H138564   0.544   4.219   4.668
12873TIP3    H238565   0.425   4.156   4.599
12874TIP3   OH238566   5.079   6.455   0.214
12874TIP3    H138567   5.085   6.539   0.259
12874TIP3    H238568   4.989   6.451   0.182
12875TIP3   OH238569   4.302   5.207   1.300
12875TIP3    H138570   4.292   5.234   1.391
12875TIP3    H238571   4.278   5.114   1.300
12876TIP3   OH238572   6.333   7.133   4.987
12876TIP3    H138573   6.321   7.198   4.918
12876TIP3    H238574   6.270   7.158   5.054
12877TIP3   OH238575   3.999   1.895   1.114
12877TIP3    H138576   3.909   1.923   1.097
12877TIP3    H238577   4.033   1.871   1.028
12878TIP3   OH238578   7.841   7.666   2.398
12878TIP3    H138579   7.907   7.603   2.425
12878TIP3    H238580   7.758   7.621   2.412
12879TIP3   OH238581   2.644   5.969   1.037
12879TIP3    H138582   2.714   5.910   1.065
12879TIP3    H238583   2.606   5.925   0.961
12880TIP3   OH238584   5.089   7.013   5.808
12880TIP3    H138585   5.147   7.088   5.791
12880TIP3    H238586   5.100   6.996   5.902
12881TIP3   OH238587   2.615   4.152   3.544
12881TIP3    H138588   2.533   4.108   3.567
12881TIP3    H238589   2.606   4.171   3.450
12882TIP3   OH238590   7.872   3.392   1.901
12882TIP3    H138591   7.787   3.375   1.942
12882TIP3    H238592   7.856   3.468   1.844
12883TIP3   OH238593   2.962   3.670   1.319
12883TIP3    H138594   3.024   3.735   1.286
12883TIP3    H238595   2.936   3.703   1.405
12884TIP3   OH238596   2.224   3.348   6.544
12884TIP3    H138597   2.218   3.424   6.486
12884TIP3    H238598   2.159   3.287   6.509
12885TIP3   OH238599   5.933   5.718   3.443
12885TIP3    H138600   5.855   5.664   3.434
12885TIP3    H238601   5.915   5.775   3.518
12886TIP3   OH238602   4.901   6.754   2.096
12886TIP3    H138603   4.866   6.670   2.127
12886TIP3    H238604   4.996   6.742   2.098
12887TIP3   OH238605   5.269   4.016   1.102
12887TIP3    H138606   5.224   4.017   1.187
12887TIP3    H238607   5.200   4.036   1.038
12888TIP3   OH238608   1.861   6.266   6.088
12888TIP3    H138609   1.908   6.265   6.004
12888TIP3    H238610   1.854   6.359   6.110
12889TIP3   OH238611   3.060   5.719   3.179
12889TIP3    H138612   3.078   5.709   3.272
12889TIP3    H238613   3.147   5.723   3.138
12890TIP3   OH238614   5.970   7.338   4.939
12890TIP3    H138615   5.922   7.411   4.977
12890TIP3    H238616   5.908   7.265   4.941
12891TIP3   OH238617   5.482   7.396   1.681
12891TIP3    H138618   5.560   7.428   1.727
12891TIP3    H238619   5.438   7.476   1.651
12892TIP3   OH238620   0.580   2.199   0.337
12892TIP3    H138621   0.658   2.178   0.388
12892TIP3    H238622   0.528   2.254   0.396
12893TIP3   OH238623   0.838   0.385   0.961
12893TIP3    H138624   0.748   0.415   0.950
12893TIP3    H238625   0.892   0.456   0.927
12894TIP3   OH238626   6.817   4.298   2.111
12894TIP3    H138627   6.834   4.257   2.026
12894TIP3    H238628   6.734   4.260   2.140
12895TIP3   OH238629   2.096   5.359   5.769
12895TIP3    H138630   2.015   5.308   5.774
12895TIP3    H238631   2.157   5.312   5.825
12896TIP3   OH238632   0.546   1.244   4.030
12896TIP3    H138633   0.619   1.233   3.969
12896TIP3    H238634   0.550   1.167   4.087
12897TIP3   OH238635   4.941   7.545   4.492
12897TIP3    H138636   4.955   7.596   4.572
12897TIP3    H238637   4.975   7.458   4.514
12898TIP3   OH238638   4.532   6.307   0.832
12898TIP3    H138639   4.474   6.358   0.889
12898TIP3    H238640   4.554   6.366   0.761
12899TIP3   OH238641   5.876   1.481   0.451
12899TIP3    H138642   5.812   1.527   0.395
12899TIP3    H238643   5.916   1.416   0.394
12900TIP3   OH238644   3.258   3.825   5.840
12900TIP3    H138645   3.245   3.910   5.797
12900TIP3    H238646   3.174   3.780   5.828
12901TIP3   OH238647   7.495   7.325   2.712
12901TIP3    H138648   7.584   7.337   2.679
12901TIP3    H238649   7.476   7.232   2.699
12902TIP3   OH238650   6.122   1.334   3.836
12902TIP3    H138651   6.217   1.321   3.831
12902TIP3    H238652   6.107   1.359   3.928
12903TIP3   OH238653   4.044   6.058   5.212
12903TIP3    H138654   3.964   6.025   5.173
12903TIP3    H238655   4.085   5.982   5.253
12904TIP3   OH238656   7.689   1.316   5.541
12904TIP3    H138657   7.631   1.389   5.563
12904TIP3    H238658   7.739   1.347   5.465
12905TIP3   OH238659   3.023   7.294   2.513
12905TIP3    H138660   2.948   7.238   2.531
12905TIP3    H238661   3.096   7.254   2.561
12906TIP3   OH238662   7.791   4.352   4.133
12906TIP3    H138663   7.756   4.287   4.193
12906TIP3    H238664   7.721   4.366   4.069
12907TIP3   OH238665   4.745   6.762   4.265
12907TIP3    H138666   4.782   6.835   4.315
12907TIP3    H238667   4.717   6.699   4.330
12908TIP3   OH238668   6.675   3.658   5.119
12908TIP3    H138669   6.639   3.588   5.065
12908TIP3    H238670   6.757   3.623   5.152
12909TIP3   OH238671   2.979   3.233   2.479
12909TIP3    H138672   3.068   3.268   2.482
12909TIP3    H238673   2.923   3.305   2.508
12910TIP3   OH238674   3.212   0.308   4.243
12910TIP3    H138675   3.256   0.224   4.251
12910TIP3    H238676   3.242   0.359   4.319
12911TIP3   OH238677   3.956   1.843   5.818
12911TIP3    H138678   4.038   1.893   5.816
12911TIP3    H238679   3.943   1.821   5.910
12912TIP3   OH238680   3.438   0.732   5.345
12912TIP3    H138681   3.409   0.671   5.412
12912TIP3    H238682   3.399   0.699   5.264
12913TIP3   OH238683  -0.019   2.089   0.561
12913TIP3    H138684  -0.009   2.073   0.467
12913TIP3    H238685   0.035   2.166   0.578
12914TIP3   OH238686   0.540   0.931   3.946
12914TIP3    H138687   0.590   0.879   4.009
12914TIP3    H238688   0.461   0.955   3.994
12915TIP3   OH238689   7.949   0.670   0.625
12915TIP3    H138690   7.915   0.747   0.671
12915TIP3    H238691   8.023   0.703   0.574
12916TIP3   OH238692   8.094   2.510   3.300
12916TIP3    H138693   8.055   2.595   3.323
12916TIP3    H238694   8.173   2.505   3.354
12917TIP3   OH238695   7.254   7.685   3.766
12917TIP3    H138696   7.322   7.727   3.713
12917TIP3    H238697   7.289   7.686   3.855
12918TIP3   OH238698   0.791   0.101   0.095
12918TIP3    H138699   0.734   0.102   0.018
12918TIP3    H238700   0.861   0.039   0.072
12919TIP3   OH238701   5.389   4.798   2.509
12919TIP3    H138702   5.477   4.759   2.501
12919TIP3    H238703   5.337   4.730   2.551
12920TIP3   OH238704   7.248   5.672   4.898
12920TIP3    H138705   7.315   5.740   4.894
12920TIP3    H238706   7.289   5.602   4.950
12921TIP3   OH238707   7.162   3.804   5.322
12921TIP3    H138708   7.235   3.762   5.275
12921TIP3    H238709   7.103   3.834   5.252
12922TIP3   OH238710   5.803   2.225   0.141
12922TIP3    H138711   5.725   2.232   0.085
12922TIP3    H238712   5.808   2.310   0.184
12923TIP3   OH238713   7.495   5.425   2.620
12923TIP3    H138714   7.478   5.415   2.526
12923TIP3    H238715   7.409   5.417   2.661
12924TIP3   OH238716   4.972   3.577   1.434
12924TIP3    H138717   5.064   3.604   1.443
12924TIP3    H238718   4.922   3.654   1.459
12925TIP3   OH238719   7.965   7.083   1.261
12925TIP3    H138720   8.038   7.041   1.307
12925TIP3    H238721   7.965   7.044   1.174
12926TIP3   OH238722   0.566   6.737   6.201
12926TIP3    H138723   0.516   6.783   6.268
12926TIP3    H238724   0.500   6.690   6.150
12927TIP3   OH238725   3.203   4.859   5.505
12927TIP3    H138726   3.146   4.797   5.551
12927TIP3    H238727   3.162   4.870   5.419
12928TIP3   OH238728   4.976   7.310   6.097
12928TIP3    H138729   4.890   7.349   6.111
12928TIP3    H238730   4.976   7.285   6.005
12929TIP3   OH238731   4.119   1.305   4.838
12929TIP3    H138732   4.162   1.270   4.916
12929TIP3    H238733   4.083   1.228   4.794
12930TIP3   OH238734   5.470   5.297   4.965
12930TIP3    H138735   5.495   5.226   4.906
12930TIP3    H238736   5.548   5.311   5.019
12931TIP3   OH238737   7.827   4.845   6.058
12931TIP3    H138738   7.887   4.785   6.013
12931TIP3    H238739   7.836   4.822   6.150
12932TIP3   OH238740   5.087   1.566   2.452
12932TIP3    H138741   5.169   1.548   2.406
12932TIP3    H238742   5.039   1.484   2.449
12933TIP3   OH238743   0.025   2.987   2.714
12933TIP3    H138744   0.120   2.981   2.723
12933TIP3    H238745   0.011   3.049   2.643
12934TIP3   OH238746   3.225   3.016   6.123
12934TIP3    H138747   3.164   2.947   6.099
12934TIP3    H238748   3.237   3.007   6.217
12935TIP3   OH238749   2.077   7.663   1.901
12935TIP3    H138750   2.152   7.604   1.891
12935TIP3    H238751   2.090   7.705   1.985
12936TIP3   OH238752   4.078   1.126   2.046
12936TIP3    H138753   4.016   1.198   2.054
12936TIP3    H238754   4.052   1.082   1.965
12937TIP3   OH238755   7.774   0.367   2.014
12937TIP3    H138756   7.829   0.345   2.090
12937TIP3    H238757   7.687   0.383   2.052
12938TIP3   OH238758   7.120   7.610   4.313
12938TIP3    H138759   7.109   7.523   4.275
12938TIP3    H238760   7.214   7.627   4.309
12939TIP3   OH238761   8.177   4.958   4.111
12939TIP3    H138762   8.190   4.928   4.021
12939TIP3    H238763   8.102   4.906   4.142
12940TIP3   OH238764   5.136   0.260   1.266
12940TIP3    H138765   5.194   0.332   1.290
12940TIP3    H238766   5.122   0.271   1.172
12941TIP3   OH238767   3.741   5.526   5.073
12941TIP3    H138768   3.679   5.529   5.001
12941TIP3    H238769   3.690   5.491   5.147
12942TIP3   OH238770   0.304   0.324   4.905
12942TIP3    H138771   0.354   0.400   4.932
12942TIP3    H238772   0.310   0.263   4.978
12943TIP3   OH238773   8.261   1.069   1.440
12943TIP3    H138774   8.273   1.116   1.522
12943TIP3    H238775   8.320   1.112   1.378
12944TIP3   OH238776   4.695   3.139   4.786
12944TIP3    H138777   4.644   3.095   4.854
12944TIP3    H238778   4.629   3.171   4.724
12945TIP3   OH238779   0.163   1.896   0.180
12945TIP3    H138780   0.137   1.815   0.224
12945TIP3    H238781   0.255   1.881   0.155
12946TIP3   OH238782   4.487   2.165   5.998
12946TIP3    H138783   4.568   2.192   5.955
12946TIP3    H238784   4.516   2.118   6.076
12947TIP3   OH238785   4.935   6.131   4.624
12947TIP3    H138786   5.024   6.096   4.613
12947TIP3    H238787   4.896   6.075   4.692
12948TIP3   OH238788   7.356   1.855   4.607
12948TIP3    H138789   7.440   1.897   4.628
12948TIP3    H238790   7.340   1.878   4.516
12949TIP3   OH238791   5.408   2.850   5.016
12949TIP3    H138792   5.432   2.898   5.096
12949TIP3    H238793   5.406   2.918   4.948
12950TIP3   OH238794   6.021   7.580   3.587
12950TIP3    H138795   6.052   7.661   3.547
12950TIP3    H238796   5.928   7.575   3.563
12951TIP3   OH238797   3.417   7.508   1.948
12951TIP3    H138798   3.432   7.600   1.969
12951TIP3    H238799   3.367   7.474   2.022
12952TIP3   OH238800   7.263   7.033   1.699
12952TIP3    H138801   7.223   7.025   1.613
12952TIP3    H238802   7.325   7.106   1.690
12953TIP3   OH238803   3.024   4.964   6.279
12953TIP3    H138804   3.027   5.060   6.283
12953TIP3    H238805   3.050   4.936   6.367
12954TIP3   OH238806   4.198   7.676   4.579
12954TIP3    H138807   4.288   7.678   4.612
12954TIP3    H238808   4.150   7.623   4.643
12955TIP3   OH238809   3.594   1.576   1.912
12955TIP3    H138810   3.603   1.634   1.837
12955TIP3    H238811   3.661   1.605   1.974
12956TIP3   OH238812   4.330   0.032   5.976
12956TIP3    H138813   4.241   0.035   5.941
12956TIP3    H238814   4.346  -0.061   5.994
12957TIP3   OH238815   0.465   4.701   0.222
12957TIP3    H138816   0.476   4.778   0.167
12957TIP3    H238817   0.438   4.735   0.307
12958TIP3   OH238818   0.079   7.697   2.903
12958TIP3    H138819  -0.004   7.649   2.907
12958TIP3    H238820   0.139   7.645   2.957
12959TIP3   OH238821   0.703   0.615   3.161
12959TIP3    H138822   0.695   0.683   3.228
12959TIP3    H238823   0.752   0.545   3.204
12960TIP3   OH238824   3.154   5.681   2.368
12960TIP3    H138825   3.111   5.615   2.423
12960TIP3    H238826   3.083   5.737   2.337
12961TIP3   OH238827   4.750   7.790   1.410
12961TIP3    H138828   4.706   7.796   1.324
12961TIP3    H238829   4.724   7.704   1.444
12962TIP3   OH238830   6.504   6.562   5.702
12962TIP3    H138831   6.534   6.472   5.685
12962TIP3    H238832   6.555   6.589   5.778
12963TIP3   OH238833   6.185   6.124   2.689
12963TIP3    H138834   6.238   6.186   2.639
12963TIP3    H238835   6.095   6.137   2.657
12964TIP3   OH238836   0.750   3.108   2.787
12964TIP3    H138837   0.777   3.191   2.825
12964TIP3    H238838   0.697   3.133   2.711
12965TIP3   OH238839   7.259   5.207   5.759
12965TIP3    H138840   7.350   5.221   5.785
12965TIP3    H238841   7.232   5.129   5.808
12966TIP3   OH238842   3.690   0.328   2.861
12966TIP3    H138843   3.776   0.365   2.877
12966TIP3    H238844   3.635   0.363   2.931
12967TIP3   OH238845   0.907   5.089   4.512
12967TIP3    H138846   0.865   5.007   4.540
12967TIP3    H238847   0.853   5.157   4.553
12968TIP3   OH238848   4.459   5.540   5.442
12968TIP3    H138849   4.379   5.583   5.412
12968TIP3    H238850   4.429   5.469   5.498
12969TIP3   OH238851   7.465   7.323   3.142
12969TIP3    H138852   7.429   7.235   3.127
12969TIP3    H238853   7.477   7.329   3.236
12970TIP3   OH238854   6.128   0.839   4.373
12970TIP3    H138855   6.210   0.878   4.404
12970TIP3    H238856   6.130   0.750   4.408
12971TIP3   OH238857   0.129   3.110   5.805
12971TIP3    H138858   0.198   3.125   5.869
12971TIP3    H238859   0.051   3.153   5.842
12972TIP3   OH238860   6.314   6.936   1.417
12972TIP3    H138861   6.278   7.025   1.409
12972TIP3    H238862   6.352   6.918   1.332
12973TIP3   OH238863   0.603   2.746   0.562
12973TIP3    H138864   0.614   2.701   0.478
12973TIP3    H238865   0.553   2.825   0.541
12974TIP3   OH238866   6.118   2.186   6.244
12974TIP3    H138867   6.082   2.243   6.176
12974TIP3    H238868   6.124   2.241   6.321
12975TIP3   OH238869   5.125   4.994   1.144
12975TIP3    H138870   5.043   4.953   1.171
12975TIP3    H238871   5.188   4.964   1.209
12976TIP3   OH238872   5.070   0.159   5.531
12976TIP3    H138873   5.065   0.239   5.478
12976TIP3    H238874   4.984   0.153   5.572
12977TIP3   OH238875   4.434   0.324   4.769
12977TIP3    H138876   4.512   0.379   4.778
12977TIP3    H238877   4.363   0.377   4.805
12978TIP3   OH238878   1.661   1.866   0.977
12978TIP3    H138879   1.739   1.858   0.922
12978TIP3    H238880   1.640   1.776   1.003
12979TIP3   OH238881   1.673   6.111   5.201
12979TIP3    H138882   1.596   6.153   5.239
12979TIP3    H238883   1.674   6.023   5.239
12980TIP3   OH238884   4.009   0.578   6.074
12980TIP3    H138885   4.058   0.654   6.105
12980TIP3    H238886   4.069   0.505   6.086
12981TIP3   OH238887   1.386   4.191   6.593
12981TIP3    H138888   1.481   4.195   6.577
12981TIP3    H238889   1.376   4.122   6.659
12982TIP3   OH238890   7.934   1.016   1.899
12982TIP3    H138891   7.992   1.085   1.866
12982TIP3    H238892   7.912   0.964   1.822
12983TIP3   OH238893   6.264   1.303   2.647
12983TIP3    H138894   6.196   1.297   2.714
12983TIP3    H238895   6.218   1.331   2.568
12984TIP3   OH238896   4.348   5.103   1.042
12984TIP3    H138897   4.313   5.163   1.108
12984TIP3    H238898   4.271   5.068   0.997
12985TIP3   OH238899   8.190   7.478   5.960
12985TIP3    H138900   8.168   7.519   6.044
12985TIP3    H238901   8.154   7.537   5.894
12986TIP3   OH238902   4.378   0.892   5.257
12986TIP3    H138903   4.423   0.964   5.212
12986TIP3    H238904   4.335   0.934   5.332
12987TIP3   OH238905   1.197   2.706   4.522
12987TIP3    H138906   1.184   2.745   4.435
12987TIP3    H238907   1.119   2.731   4.571
12988TIP3   OH238908   7.758   1.893   3.300
12988TIP3    H138909   7.734   1.975   3.344
12988TIP3    H238910   7.689   1.832   3.327
12989TIP3   OH238911   0.899   3.045   0.896
12989TIP3    H138912   0.822   2.989   0.911
12989TIP3    H238913   0.974   2.987   0.912
12990TIP3   OH238914   7.734   0.447   0.010
12990TIP3    H138915   7.745   0.487  -0.076
12990TIP3    H238916   7.640   0.445   0.024
12991TIP3   OH238917   6.400   2.110   0.330
12991TIP3    H138918   6.472   2.157   0.287
12991TIP3    H238919   6.426   2.018   0.326
12992TIP3   OH238920   7.482   0.545   2.002
12992TIP3    H138921   7.546   0.570   2.068
12992TIP3    H238922   7.440   0.628   1.977
12993TIP3   OH238923   1.655   0.451   5.856
12993TIP3    H138924   1.604   0.404   5.923
12993TIP3    H238925   1.647   0.396   5.778
12994TIP3   OH238926   7.293   0.739   4.401
12994TIP3    H138927   7.290   0.769   4.310
12994TIP3    H238928   7.357   0.668   4.400
12995TIP3   OH238929   2.313   2.275   2.308
12995TIP3    H138930   2.228   2.291   2.266
12995TIP3    H238931   2.301   2.191   2.353
12996TIP3   OH238932   1.326   2.017   4.263
12996TIP3    H138933   1.282   2.096   4.294
12996TIP3    H238934   1.264   1.946   4.282
12997TIP3   OH238935   6.330   7.230   4.329
12997TIP3    H138936   6.294   7.271   4.408
12997TIP3    H238937   6.297   7.284   4.258
12998TIP3   OH238938   2.842   5.925   4.877
12998TIP3    H138939   2.852   6.018   4.898
12998TIP3    H238940   2.869   5.918   4.785
12999TIP3   OH238941   5.897   2.490   2.988
12999TIP3    H138942   5.867   2.564   2.934
12999TIP3    H238943   5.864   2.413   2.941
13000TIP3   OH238944   7.887   4.626   3.576
13000TIP3    H138945   7.903   4.540   3.537
13000TIP3    H238946   7.884   4.687   3.502
13001TIP3   OH238947   0.115   4.218   1.179
13001TIP3    H138948   0.103   4.258   1.265
13001TIP3    H238949   0.135   4.291   1.121
13002TIP3   OH238950   2.680   6.576   6.513
13002TIP3    H138951   2.600   6.604   6.468
13002TIP3    H238952   2.671   6.480   6.520
13003TIP3   OH238953   7.390   4.502   5.427
13003TIP3    H138954   7.420   4.591   5.446
13003TIP3    H238955   7.433   4.479   5.345
13004TIP3   OH238956   6.408   6.341   5.495
13004TIP3    H138957   6.406   6.399   5.418
13004TIP3    H238958   6.501   6.327   5.512
13005TIP3   OH238959   2.172   4.089   6.273
13005TIP3    H138960   2.120   4.087   6.192
13005TIP3    H238961   2.133   4.160   6.324
13006TIP3   OH238962   4.267   5.663   1.266
13006TIP3    H138963   4.320   5.743   1.259
13006TIP3    H238964   4.200   5.684   1.330
13007TIP3   OH238965   5.952   5.190   6.310
13007TIP3    H138966   6.038   5.158   6.281
13007TIP3    H238967   5.956   5.183   6.406
13008TIP3   OH238968   1.729   1.260   2.951
13008TIP3    H138969   1.700   1.221   2.869
13008TIP3    H238970   1.778   1.191   2.995
13009TIP3   OH238971   2.179   0.786   1.579
13009TIP3    H138972   2.095   0.749   1.551
13009TIP3    H238973   2.245   0.734   1.531
13010TIP3   OH238974   8.075   4.367   1.352
13010TIP3    H138975   8.100   4.383   1.443
13010TIP3    H238976   8.132   4.424   1.301
13011TIP3   OH238977   7.393   7.179   3.748
13011TIP3    H138978   7.411   7.268   3.778
13011TIP3    H238979   7.464   7.126   3.784
13012TIP3   OH238980   5.781   7.251   2.304
13012TIP3    H138981   5.687   7.240   2.316
13012TIP3    H238982   5.820   7.222   2.386
13013TIP3   OH238983   5.960   5.453   6.086
13013TIP3    H138984   6.019   5.426   6.016
13013TIP3    H238985   5.908   5.375   6.104
13014TIP3   OH238986   7.810   4.662   2.126
13014TIP3    H138987   7.886   4.712   2.155
13014TIP3    H238988   7.845   4.602   2.060
13015TIP3   OH238989   6.282   3.239   4.596
13015TIP3    H138990   6.199   3.287   4.589
13015TIP3    H238991   6.258   3.148   4.581
13016TIP3   OH238992   3.513   6.282   1.280
13016TIP3    H138993   3.584   6.344   1.298
13016TIP3    H238994   3.549   6.197   1.304
13017TIP3   OH238995   5.749   6.795   4.084
13017TIP3    H138996   5.700   6.845   4.019
13017TIP3    H238997   5.764   6.710   4.042
13018TIP3   OH238998   1.264   7.558   2.315
13018TIP3    H138999   1.187   7.535   2.367
13018TIP3    H239000   1.336   7.561   2.378
13019TIP3   OH239001   1.920   7.771   2.808
13019TIP3    H139002   1.885   7.849   2.767
13019TIP3    H239003   1.966   7.803   2.886
13020TIP3   OH239004   1.559   7.734   0.809
13020TIP3    H139005   1.483   7.791   0.796
13020TIP3    H239006   1.605   7.736   0.725
13021TIP3   OH239007   2.645   5.755   1.872
13021TIP3    H139008   2.565   5.702   1.871
13021TIP3    H239009   2.675   5.755   1.781
13022TIP3   OH239010   2.387   4.753   6.815
13022TIP3    H139011   2.424   4.687   6.758
13022TIP3    H239012   2.304   4.777   6.773
13023TIP3   OH239013   3.303   2.618   4.977
13023TIP3    H139014   3.300   2.552   4.907
13023TIP3    H239015   3.342   2.695   4.934
13024TIP3   OH239016   4.721   4.083   5.245
13024TIP3    H139017   4.675   4.159   5.281
13024TIP3    H239018   4.811   4.093   5.278
13025TIP3   OH239019   5.059   2.715   0.852
13025TIP3    H139020   4.976   2.752   0.824
13025TIP3    H239021   5.119   2.732   0.779
13026TIP3   OH239022   1.312   5.261   2.778
13026TIP3    H139023   1.402   5.234   2.796
13026TIP3    H239024   1.309   5.353   2.806
13027TIP3   OH239025   6.439   3.622   1.136
13027TIP3    H139026   6.368   3.654   1.191
13027TIP3    H239027   6.422   3.660   1.050
13028TIP3   OH239028   1.582   3.576   0.905
13028TIP3    H139029   1.625   3.526   0.835
13028TIP3    H239030   1.619   3.540   0.986
13029TIP3   OH239031   5.390   3.939   3.751
13029TIP3    H139032   5.410   3.963   3.841
13029TIP3    H239033   5.335   3.860   3.759
13030TIP3   OH239034   7.400   2.753   2.679
13030TIP3    H139035   7.315   2.716   2.657
13030TIP3    H239036   7.418   2.814   2.608
13031TIP3   OH239037   4.261   7.675   3.794
13031TIP3    H139038   4.288   7.746   3.853
13031TIP3    H239039   4.200   7.623   3.846
13032TIP3   OH239040   2.717   0.411   6.733
13032TIP3    H139041   2.764   0.434   6.813
13032TIP3    H239042   2.782   0.368   6.677
13033TIP3   OH239043   2.614   2.082   5.301
13033TIP3    H139044   2.610   2.162   5.354
13033TIP3    H239045   2.523   2.067   5.274
13034TIP3   OH239046   6.826   1.179   5.691
13034TIP3    H139047   6.904   1.203   5.641
13034TIP3    H239048   6.780   1.262   5.705
13035TIP3   OH239049   2.191   6.877   6.250
13035TIP3    H139050   2.233   6.883   6.336
13035TIP3    H239051   2.194   6.783   6.229
13036TIP3   OH239052   3.572   4.800   3.741
13036TIP3    H139053   3.664   4.773   3.743
13036TIP3    H239054   3.523   4.721   3.766
13037TIP3   OH239055   3.531   1.125   6.113
13037TIP3    H139056   3.529   1.090   6.202
13037TIP3    H239057   3.534   1.220   6.125
13038TIP3   OH239058   4.554   0.053   0.100
13038TIP3    H139059   4.567  -0.018   0.037
13038TIP3    H239060   4.635   0.055   0.151
13039TIP3   OH239061   5.654   0.409   3.622
13039TIP3    H139062   5.693   0.496   3.624
13039TIP3    H239063   5.720   0.354   3.581
13040TIP3   OH239064   4.318   2.379   2.226
13040TIP3    H139065   4.280   2.315   2.167
13040TIP3    H239066   4.352   2.328   2.299
13041TIP3   OH239067   4.325   3.473   3.649
13041TIP3    H139068   4.378   3.445   3.723
13041TIP3    H239069   4.256   3.527   3.687
13042TIP3   OH239070   5.190   1.841   5.773
13042TIP3    H139071   5.272   1.791   5.772
13042TIP3    H239072   5.214   1.926   5.809
13043TIP3   OH239073   6.723   3.670   6.089
13043TIP3    H139074   6.765   3.753   6.066
13043TIP3    H239075   6.656   3.658   6.022
13044TIP3   OH239076   5.007   3.445   0.322
13044TIP3    H139077   4.992   3.355   0.293
13044TIP3    H239078   4.943   3.459   0.393
13045TIP3   OH239079   7.626   1.952   1.912
13045TIP3    H139080   7.580   2.025   1.873
13045TIP3    H239081   7.698   1.933   1.851
13046TIP3   OH239082   0.368   5.018   2.958
13046TIP3    H139083   0.417   5.084   2.911
13046TIP3    H239084   0.434   4.969   3.007
13047TIP3   OH239085   2.071   2.691   1.301
13047TIP3    H139086   2.025   2.695   1.217
13047TIP3    H239087   2.159   2.663   1.279
13048TIP3   OH239088   0.655   5.276   6.457
13048TIP3    H139089   0.692   5.189   6.470
13048TIP3    H239090   0.647   5.285   6.362
13049TIP3   OH239091   1.556   3.500   1.626
13049TIP3    H139092   1.536   3.591   1.645
13049TIP3    H239093   1.568   3.459   1.712
13050TIP3   OH239094   4.673   7.503   4.874
13050TIP3    H139095   4.676   7.576   4.812
13050TIP3    H239096   4.580   7.490   4.890
13051TIP3   OH239097   6.659   3.119   3.146
13051TIP3    H139098   6.607   3.072   3.212
13051TIP3    H239099   6.596   3.140   3.077
13052TIP3   OH239100   1.272   1.242   3.042
13052TIP3    H139101   1.187   1.216   3.077
13052TIP3    H239102   1.328   1.252   3.119
13053TIP3   OH239103   4.748   4.500   4.042
13053TIP3    H139104   4.689   4.443   3.992
13053TIP3    H239105   4.698   4.580   4.055
13054TIP3   OH239106   4.366   1.722   1.196
13054TIP3    H139107   4.436   1.705   1.258
13054TIP3    H239108   4.342   1.636   1.161
13055TIP3   OH239109   7.853   1.082   3.141
13055TIP3    H139110   7.766   1.121   3.134
13055TIP3    H239111   7.908   1.134   3.082
13056TIP3   OH239112   6.963   3.770   1.213
13056TIP3    H139113   7.032   3.723   1.168
13056TIP3    H239114   6.940   3.715   1.288
13057TIP3   OH239115   6.134   7.308   3.836
13057TIP3    H139116   6.222   7.332   3.808
13057TIP3    H239117   6.108   7.237   3.777
13058TIP3   OH239118   3.097   3.944   2.988
13058TIP3    H139119   3.086   4.006   2.915
13058TIP3    H239120   3.190   3.950   3.010
13059TIP3   OH239121   3.367   7.419   6.733
13059TIP3    H139122   3.273   7.406   6.719
13059TIP3    H239123   3.406   7.332   6.717
13060TIP3   OH239124   6.741   2.105   6.530
13060TIP3    H139125   6.817   2.124   6.585
13060TIP3    H239126   6.670   2.091   6.592
13061TIP3   OH239127   3.290   1.937   3.080
13061TIP3    H139128   3.318   1.922   3.170
13061TIP3    H239129   3.371   1.939   3.029
13062TIP3   OH239130   6.959   3.879   3.005
13062TIP3    H139131   6.963   3.975   3.008
13062TIP3    H239132   6.879   3.860   2.956
13063TIP3   OH239133   5.888   4.985   3.594
13063TIP3    H139134   5.824   4.996   3.524
13063TIP3    H239135   5.968   4.956   3.549
13064TIP3   OH239136   0.884   2.052   5.635
13064TIP3    H139137   0.878   2.062   5.730
13064TIP3    H239138   0.801   2.012   5.610
13065TIP3   OH239139   7.427   4.165   0.910
13065TIP3    H139140   7.495   4.228   0.887
13065TIP3    H239141   7.461   4.080   0.880
13066TIP3   OH239142   7.551   1.841   0.725
13066TIP3    H139143   7.572   1.877   0.811
13066TIP3    H239144   7.637   1.826   0.684
13067TIP3   OH239145   6.032   5.818   4.053
13067TIP3    H139146   6.024   5.723   4.039
13067TIP3    H239147   6.077   5.826   4.137
13068TIP3   OH239148   7.363   3.365   6.630
13068TIP3    H139149   7.290   3.381   6.570
13068TIP3    H239150   7.345   3.278   6.667
13069TIP3   OH239151   6.298   7.742   0.577
13069TIP3    H139152   6.358   7.774   0.510
13069TIP3    H239153   6.355   7.705   0.645
13070TIP3   OH239154   1.074   5.064   3.050
13070TIP3    H139155   1.020   5.113   3.112
13070TIP3    H239156   1.039   5.087   2.964
13071TIP3   OH239157   7.031   2.675   4.892
13071TIP3    H139158   6.961   2.611   4.885
13071TIP3    H239159   7.010   2.726   4.970
13072TIP3   OH239160   2.765   4.185   2.885
13072TIP3    H139161   2.837   4.197   2.823
13072TIP3    H239162   2.805   4.193   2.972
13073TIP3   OH239163   0.270   2.007   5.739
13073TIP3    H139164   0.306   1.919   5.749
13073TIP3    H239165   0.191   1.995   5.686
13074TIP3   OH239166   2.302   2.214   6.722
13074TIP3    H139167   2.234   2.224   6.788
13074TIP3    H239168   2.329   2.122   6.729
13075TIP3   OH239169   3.436   0.339   6.704
13075TIP3    H139170   3.409   0.343   6.796
13075TIP3    H239171   3.355   0.344   6.654
13076TIP3   OH239172   6.162   6.194   1.877
13076TIP3    H139173   6.138   6.132   1.946
13076TIP3    H239174   6.081   6.240   1.855
13077TIP3   OH239175   1.954   4.569   2.114
13077TIP3    H139176   2.014   4.595   2.183
13077TIP3    H239177   2.002   4.503   2.064
13078TIP3   OH239178   3.095   4.609   5.975
13078TIP3    H139179   3.116   4.654   6.057
13078TIP3    H239180   3.067   4.522   6.002
13079TIP3   OH239181   1.772   3.720   0.079
13079TIP3    H139182   1.759   3.786   0.147
13079TIP3    H239183   1.683   3.689   0.059
13080TIP3   OH239184   7.121   5.384   1.740
13080TIP3    H139185   7.066   5.320   1.785
13080TIP3    H239186   7.183   5.414   1.806
13081TIP3   OH239187   6.455   4.687   6.341
13081TIP3    H139188   6.535   4.656   6.299
13081TIP3    H239189   6.482   4.712   6.429
13082TIP3   OH239190   5.420   5.566   4.216
13082TIP3    H139191   5.451   5.586   4.305
13082TIP3    H239192   5.404   5.472   4.217
13083TIP3   OH239193   5.339   4.408   2.342
13083TIP3    H139194   5.254   4.451   2.328
13083TIP3    H239195   5.379   4.404   2.255
13084TIP3   OH239196   0.218   7.374   0.538
13084TIP3    H139197   0.138   7.419   0.567
13084TIP3    H239198   0.228   7.302   0.600
13085TIP3   OH239199   6.826   2.097   2.411
13085TIP3    H139200   6.772   2.019   2.403
13085TIP3    H239201   6.774   2.167   2.371
13086TIP3   OH239202   2.200   7.812   4.003
13086TIP3    H139203   2.232   7.813   4.093
13086TIP3    H239204   2.145   7.890   3.997
13087TIP3   OH239205   2.108   6.747   1.039
13087TIP3    H139206   2.188   6.697   1.058
13087TIP3    H239207   2.138   6.838   1.029
13088TIP3   OH239208   2.729   1.668   2.438
13088TIP3    H139209   2.795   1.608   2.404
13088TIP3    H239210   2.780   1.740   2.477
13089TIP3   OH239211   2.684   6.901   3.944
13089TIP3    H139212   2.678   6.995   3.961
13089TIP3    H239213   2.698   6.895   3.850
13090TIP3   OH239214   3.518   7.429   4.232
13090TIP3    H139215   3.570   7.378   4.293
13090TIP3    H239216   3.538   7.391   4.146
13091TIP3   OH239217   5.745   2.369   4.536
13091TIP3    H139218   5.673   2.403   4.482
13091TIP3    H239219   5.702   2.336   4.615
13092TIP3   OH239220   2.544   6.144   2.621
13092TIP3    H139221   2.637   6.129   2.635
13092TIP3    H239222   2.525   6.099   2.539
13093TIP3   OH239223   3.341   4.970   0.836
13093TIP3    H139224   3.290   4.896   0.804
13093TIP3    H239225   3.277   5.042   0.842
13094TIP3   OH239226   0.797   1.085   6.740
13094TIP3    H139227   0.817   1.158   6.798
13094TIP3    H239228   0.805   1.121   6.652
13095TIP3   OH239229   3.294   7.729   2.192
13095TIP3    H139230   3.326   7.688   2.272
13095TIP3    H239231   3.366   7.720   2.130
13096TIP3   OH239232   7.834   1.841   6.246
13096TIP3    H139233   7.808   1.917   6.298
13096TIP3    H239234   7.786   1.851   6.163
13097TIP3   OH239235   3.811   5.892   5.456
13097TIP3    H139236   3.788   5.913   5.365
13097TIP3    H239237   3.737   5.924   5.507
13098TIP3   OH239238   7.697   1.533   3.997
13098TIP3    H139239   7.723   1.522   4.089
13098TIP3    H239240   7.775   1.567   3.954
13099TIP3   OH239241   0.597   0.734   5.224
13099TIP3    H139242   0.628   0.798   5.288
13099TIP3    H239243   0.576   0.786   5.146
13100TIP3   OH239244   5.345   6.043   4.857
13100TIP3    H139245   5.432   6.036   4.898
13100TIP3    H239246   5.327   6.137   4.853
13101TIP3   OH239247   6.154   3.405   2.932
13101TIP3    H139248   6.140   3.330   2.874
13101TIP3    H239249   6.222   3.456   2.888
13102TIP3   OH239250   7.455   6.457   1.148
13102TIP3    H139251   7.489   6.454   1.238
13102TIP3    H239252   7.485   6.375   1.109
13103TIP3   OH239253   4.916   7.041   3.080
13103TIP3    H139254   4.860   6.964   3.088
13103TIP3    H239255   4.858   7.115   3.099
13104TIP3   OH239256   4.943   2.328   2.527
13104TIP3    H139257   4.978   2.251   2.482
13104TIP3    H239258   4.978   2.403   2.479
13105TIP3   OH239259   2.803   2.025   0.235
13105TIP3    H139260   2.809   2.113   0.272
13105TIP3    H239261   2.810   2.039   0.140
13106TIP3   OH239262   3.418   2.186   2.037
13106TIP3    H139263   3.495   2.170   2.092
13106TIP3    H239264   3.394   2.099   2.003
13107TIP3   OH239265   2.711   0.761   4.448
13107TIP3    H139266   2.752   0.848   4.441
13107TIP3    H239267   2.626   0.772   4.406
13108TIP3   OH239268   7.343   5.182   4.666
13108TIP3    H139269   7.287   5.140   4.732
13108TIP3    H239270   7.364   5.268   4.704
13109TIP3   OH239271   7.880   1.009   5.504
13109TIP3    H139272   7.923   1.037   5.423
13109TIP3    H239273   7.825   0.934   5.478
13110TIP3   OH239274   8.109   0.763   2.701
13110TIP3    H139275   8.183   0.762   2.640
13110TIP3    H239276   8.088   0.855   2.712
13111TIP3   OH239277   7.999   2.999   2.947
13111TIP3    H139278   7.926   2.956   2.903
13111TIP3    H239279   8.009   3.083   2.903
13112TIP3   OH239280   0.264   7.530   3.323
13112TIP3    H139281   0.238   7.495   3.238
13112TIP3    H239282   0.224   7.471   3.387
13113TIP3   OH239283   6.254   5.774   1.355
13113TIP3    H139284   6.240   5.868   1.341
13113TIP3    H239285   6.166   5.739   1.372
13114TIP3   OH239286   2.609   0.820   5.711
13114TIP3    H139287   2.616   0.852   5.621
13114TIP3    H239288   2.690   0.851   5.753
13115TIP3   OH239289   3.070   1.265   2.976
13115TIP3    H139290   3.020   1.187   2.999
13115TIP3    H239291   3.118   1.240   2.897
13116TIP3   OH239292   3.814   3.317   4.253
13116TIP3    H139293   3.719   3.312   4.244
13116TIP3    H239294   3.843   3.227   4.263
13117TIP3   OH239295   7.054   7.083   3.320
13117TIP3    H139296   7.016   6.996   3.308
13117TIP3    H239297   7.000   7.124   3.388
13118TIP3   OH239298   6.607   0.072   3.750
13118TIP3    H139299   6.632  -0.011   3.792
13118TIP3    H239300   6.585   0.130   3.823
13119TIP3   OH239301   4.819   6.295   6.333
13119TIP3    H139302   4.795   6.213   6.290
13119TIP3    H239303   4.889   6.331   6.279
13120TIP3   OH239304   4.358   1.018   0.323
13120TIP3    H139305   4.430   1.051   0.269
13120TIP3    H239306   4.362   1.071   0.403
13121TIP3   OH239307   3.339   7.647   1.331
13121TIP3    H139308   3.416   7.704   1.338
13121TIP3    H239309   3.277   7.682   1.394
13122TIP3   OH239310   6.098   7.082   2.688
13122TIP3    H139311   6.142   7.066   2.771
13122TIP3    H239312   6.007   7.099   2.712
13123TIP3   OH239313   5.048   5.121   1.807
13123TIP3    H139314   5.027   5.034   1.842
13123TIP3    H239315   5.097   5.163   1.877
13124TIP3   OH239316   2.330   1.047   5.483
13124TIP3    H139317   2.419   1.082   5.485
13124TIP3    H239318   2.279   1.115   5.440
13125TIP3   OH239319   2.683   1.378   4.643
13125TIP3    H139320   2.679   1.366   4.549
13125TIP3    H239321   2.630   1.456   4.660
13126TIP3   OH239322   3.465   5.746   5.222
13126TIP3    H139323   3.370   5.750   5.231
13126TIP3    H239324   3.488   5.657   5.246
13127TIP3   OH239325   5.986   5.220   4.735
13127TIP3    H139326   5.910   5.245   4.682
13127TIP3    H239327   5.959   5.141   4.782
13128TIP3   OH239328   8.268   1.285   2.041
13128TIP3    H139329   8.360   1.312   2.043
13128TIP3    H239330   8.248   1.263   2.131
13129TIP3   OH239331   7.653   1.467   2.544
13129TIP3    H139332   7.618   1.557   2.543
13129TIP3    H239333   7.592   1.417   2.489
13130TIP3   OH239334   0.177   5.937   5.288
13130TIP3    H139335   0.253   5.990   5.310
13130TIP3    H239336   0.200   5.894   5.206
13131TIP3   OH239337   2.859   3.957   0.221
13131TIP3    H139338   2.943   3.957   0.268
13131TIP3    H239339   2.882   3.931   0.131
13132TIP3   OH239340   3.030   2.790   3.278
13132TIP3    H139341   3.035   2.697   3.254
13132TIP3    H239342   3.006   2.790   3.370
13133TIP3   OH239343   7.418   6.920   5.617
13133TIP3    H139344   7.339   6.975   5.611
13133TIP3    H239345   7.485   6.970   5.571
13134TIP3   OH239346   0.219   6.742   2.636
13134TIP3    H139347   0.181   6.792   2.708
13134TIP3    H239348   0.218   6.802   2.561
13135TIP3   OH239349   3.491   2.973   2.607
13135TIP3    H139350   3.411   2.934   2.571
13135TIP3    H239351   3.495   3.061   2.570
13136TIP3   OH239352   3.711   4.321   2.382
13136TIP3    H139353   3.729   4.405   2.425
13136TIP3    H239354   3.645   4.280   2.437
13137TIP3   OH239355   0.206   2.217   3.268
13137TIP3    H139356   0.149   2.169   3.208
13137TIP3    H239357   0.240   2.150   3.327
13138TIP3   OH239358   7.471   0.459   0.886
13138TIP3    H139359   7.449   0.380   0.936
13138TIP3    H239360   7.566   0.465   0.891
13139TIP3   OH239361   7.991   0.987   6.438
13139TIP3    H139362   7.995   1.020   6.349
13139TIP3    H239363   7.914   1.030   6.477
13140TIP3   OH239364   3.111   3.402   3.585
13140TIP3    H139365   3.097   3.349   3.664
13140TIP3    H239366   3.026   3.443   3.569
13141TIP3   OH239367   8.231   5.375   1.561
13141TIP3    H139368   8.227   5.394   1.467
13141TIP3    H239369   8.147   5.406   1.596
13142TIP3   OH239370   3.264   1.891   0.723
13142TIP3    H139371   3.322   1.850   0.658
13142TIP3    H239372   3.197   1.934   0.670
13143TIP3   OH239373   2.620   3.308   6.345
13143TIP3    H139374   2.527   3.308   6.320
13143TIP3    H239375   2.624   3.360   6.425
13144TIP3   OH239376   1.565   3.111   2.592
13144TIP3    H139377   1.611   3.134   2.511
13144TIP3    H239378   1.484   3.161   2.588
13145TIP3   OH239379   3.524   5.100   1.047
13145TIP3    H139380   3.451   5.073   0.990
13145TIP3    H239381   3.601   5.061   1.006
13146TIP3   OH239382   6.022   4.700   0.810
13146TIP3    H139383   5.982   4.712   0.724
13146TIP3    H239384   5.963   4.744   0.871
13147TIP3   OH239385   2.732   1.313   2.507
13147TIP3    H139386   2.790   1.280   2.576
13147TIP3    H239387   2.788   1.321   2.430
13148TIP3   OH239388   1.575   3.747   2.755
13148TIP3    H139389   1.524   3.827   2.772
13148TIP3    H239390   1.509   3.678   2.752
13149TIP3   OH239391   6.042   5.522   1.955
13149TIP3    H139392   6.107   5.466   1.913
13149TIP3    H239393   5.964   5.468   1.961
13150TIP3   OH239394   0.449   1.084   4.817
13150TIP3    H139395   0.531   1.035   4.805
13150TIP3    H239396   0.408   1.083   4.731
13151TIP3   OH239397   0.601   2.801   3.033
13151TIP3    H139398   0.682   2.818   2.986
13151TIP3    H239399   0.568   2.888   3.056
13152TIP3   OH239400   0.737   0.305   0.419
13152TIP3    H139401   0.733   0.382   0.363
13152TIP3    H239402   0.697   0.235   0.367
13153TIP3   OH239403   4.889   3.855   1.362
13153TIP3    H139404   4.850   3.798   1.296
13153TIP3    H239405   4.828   3.852   1.436
13154TIP3   OH239406   0.801   1.279   1.011
13154TIP3    H139407   0.738   1.313   0.948
13154TIP3    H239408   0.760   1.294   1.096
13155TIP3   OH239409   3.647   1.373   6.529
13155TIP3    H139410   3.683   1.318   6.459
13155TIP3    H239411   3.570   1.414   6.489
13156TIP3   OH239412   5.457   3.756   6.733
13156TIP3    H139413   5.531   3.709   6.695
13156TIP3    H239414   5.427   3.700   6.805
13157TIP3   OH239415   3.856   4.305   1.616
13157TIP3    H139416   3.950   4.318   1.607
13157TIP3    H239417   3.826   4.281   1.529
13158TIP3   OH239418   8.204   0.934   0.592
13158TIP3    H139419   8.216   1.011   0.646
13158TIP3    H239420   8.124   0.950   0.543
13159TIP3   OH239421   1.558   2.683   4.229
13159TIP3    H139422   1.624   2.710   4.165
13159TIP3    H239423   1.475   2.687   4.181
13160TIP3   OH239424   4.039   5.466   5.292
13160TIP3    H139425   4.001   5.546   5.330
13160TIP3    H239426   4.112   5.444   5.350
13161TIP3   OH239427   3.389   2.543   1.129
13161TIP3    H139428   3.392   2.524   1.036
13161TIP3    H239429   3.297   2.563   1.146
13162TIP3   OH239430   5.649   3.818   4.167
13162TIP3    H139431   5.734   3.843   4.203
13162TIP3    H239432   5.622   3.894   4.115
13163TIP3   OH239433   6.358   0.883   5.743
13163TIP3    H139434   6.334   0.895   5.651
13163TIP3    H239435   6.432   0.823   5.740
13164TIP3   OH239436   7.555   0.589   1.569
13164TIP3    H139437   7.460   0.594   1.581
13164TIP3    H239438   7.572   0.496   1.555
13165TIP3   OH239439   1.446   2.319   4.491
13165TIP3    H139440   1.376   2.348   4.432
13165TIP3    H239441   1.473   2.399   4.537
13166TIP3   OH239442   3.892   5.229   0.972
13166TIP3    H139443   3.915   5.272   0.890
13166TIP3    H239444   3.961   5.255   1.033
13167TIP3   OH239445   4.745   5.991   1.920
13167TIP3    H139446   4.792   5.961   1.998
13167TIP3    H239447   4.677   5.924   1.906
13168TIP3   OH239448   7.556   0.286   1.577
13168TIP3    H139449   7.620   0.216   1.589
13168TIP3    H239450   7.504   0.284   1.658
13169TIP3   OH239451   6.577   3.432   2.215
13169TIP3    H139452   6.551   3.350   2.173
13169TIP3    H239453   6.664   3.413   2.251
13170TIP3   OH239454   2.532   6.530   4.993
13170TIP3    H139455   2.610   6.478   5.014
13170TIP3    H239456   2.558   6.620   5.014
13171TIP3   OH239457   0.745   4.033   4.827
13171TIP3    H139458   0.784   4.115   4.857
13171TIP3    H239459   0.771   4.026   4.735
13172TIP3   OH239460   5.041   1.467   6.195
13172TIP3    H139461   4.966   1.504   6.148
13172TIP3    H239462   5.020   1.478   6.288
13173TIP3   OH239463   1.688   6.545   5.679
13173TIP3    H139464   1.620   6.610   5.696
13173TIP3    H239465   1.760   6.595   5.642
13174TIP3   OH239466   4.314   4.137   2.184
13174TIP3    H139467   4.406   4.114   2.194
13174TIP3    H239468   4.287   4.168   2.271
13175TIP3   OH239469   1.400   5.481   5.637
13175TIP3    H139470   1.419   5.517   5.723
13175TIP3    H239471   1.485   5.476   5.593
13176TIP3   OH239472   7.077   5.673   1.276
13176TIP3    H139473   7.148   5.609   1.274
13176TIP3    H239474   7.054   5.685   1.184
13177TIP3   OH239475   0.318   2.016   3.477
13177TIP3    H139476   0.280   2.046   3.559
13177TIP3    H239477   0.299   1.922   3.474
13178TIP3   OH239478   4.856   5.878   6.681
13178TIP3    H139479   4.859   5.908   6.772
13178TIP3    H239480   4.857   5.783   6.688
13179TIP3   OH239481   7.001   5.884   1.886
13179TIP3    H139482   7.061   5.810   1.893
13179TIP3    H239483   7.054   5.960   1.910
13180TIP3   OH239484   4.696   0.865   3.954
13180TIP3    H139485   4.768   0.900   4.006
13180TIP3    H239486   4.649   0.807   4.013
13181TIP3   OH239487   4.051   6.519   4.698
13181TIP3    H139488   3.977   6.475   4.656
13181TIP3    H239489   4.107   6.546   4.625
13182TIP3   OH239490   6.197   1.843   2.974
13182TIP3    H139491   6.112   1.864   2.933
13182TIP3    H239492   6.254   1.824   2.900
13183TIP3   OH239493   8.015   5.028   5.479
13183TIP3    H139494   7.999   5.045   5.572
13183TIP3    H239495   8.083   5.091   5.455
13184TIP3   OH239496   0.682   3.082   4.399
13184TIP3    H139497   0.691   3.149   4.466
13184TIP3    H239498   0.628   3.122   4.331
13185TIP3   OH239499   3.155   0.335   3.973
13185TIP3    H139500   3.157   0.333   4.069
13185TIP3    H239501   3.138   0.244   3.948
13186TIP3   OH239502   4.215   1.870   5.630
13186TIP3    H139503   4.253   1.797   5.583
13186TIP3    H239504   4.263   1.874   5.713
13187TIP3   OH239505   7.671   6.263   4.598
13187TIP3    H139506   7.693   6.195   4.534
13187TIP3    H239507   7.590   6.302   4.565
13188TIP3   OH239508   1.338   1.967   6.503
13188TIP3    H139509   1.335   1.923   6.588
13188TIP3    H239510   1.429   1.993   6.492
13189TIP3   OH239511   3.511   4.923   5.448
13189TIP3    H139512   3.472   4.923   5.361
13189TIP3    H239513   3.495   4.835   5.482
13190TIP3   OH239514   3.493   4.254   3.571
13190TIP3    H139515   3.495   4.271   3.477
13190TIP3    H239516   3.526   4.165   3.581
13191TIP3   OH239517   0.164   5.015   4.238
13191TIP3    H139518   0.090   4.980   4.189
13191TIP3    H239519   0.188   5.095   4.192
13192TIP3   OH239520   2.986   2.187   1.769
13192TIP3    H139521   2.894   2.189   1.744
13192TIP3    H239522   3.001   2.271   1.813
13193TIP3   OH239523   3.680   4.502   2.720
13193TIP3    H139524   3.677   4.532   2.629
13193TIP3    H239525   3.613   4.554   2.764
13194TIP3   OH239526   2.696   5.428   0.635
13194TIP3    H139527   2.671   5.387   0.552
13194TIP3    H239528   2.756   5.366   0.675
13195TIP3   OH239529   7.806   4.264   4.890
13195TIP3    H139530   7.838   4.177   4.865
13195TIP3    H239531   7.813   4.316   4.809
13196TIP3   OH239532   2.115   4.566   0.892
13196TIP3    H139533   2.132   4.496   0.956
13196TIP3    H239534   2.154   4.535   0.811
13197TIP3   OH239535   6.942   7.216   4.361
13197TIP3    H139536   6.904   7.148   4.305
13197TIP3    H239537   6.866   7.261   4.398
13198TIP3   OH239538   5.603   4.189   5.666
13198TIP3    H139539   5.529   4.249   5.677
13198TIP3    H239540   5.651   4.226   5.591
13199TIP3   OH239541   2.308   4.193   5.277
13199TIP3    H139542   2.229   4.175   5.227
13199TIP3    H239543   2.370   4.124   5.251
13200TIP3   OH239544   6.626   0.485   0.743
13200TIP3    H139545   6.628   0.555   0.679
13200TIP3    H239546   6.709   0.492   0.790
13201TIP3   OH239547   7.867   0.691   4.445
13201TIP3    H139548   7.912   0.742   4.378
13201TIP3    H239549   7.880   0.600   4.419
13202TIP3   OH239550   7.436   3.609   2.512
13202TIP3    H139551   7.428   3.631   2.605
13202TIP3    H239552   7.529   3.590   2.500
13203TIP3   OH239553   5.861   0.295   4.671
13203TIP3    H139554   5.779   0.253   4.647
13203TIP3    H239555   5.911   0.227   4.717
13204TIP3   OH239556   2.650   3.109   4.571
13204TIP3    H139557   2.697   3.188   4.545
13204TIP3    H239558   2.558   3.126   4.548
13205TIP3   OH239559   0.110   2.026   2.439
13205TIP3    H139560   0.189   2.072   2.411
13205TIP3    H239561   0.138   1.935   2.450
13206TIP3   OH239562   0.817   6.622   3.148
13206TIP3    H139563   0.908   6.616   3.120
13206TIP3    H239564   0.781   6.535   3.131
13207TIP3   OH239565   4.658   5.851   2.413
13207TIP3    H139566   4.732   5.793   2.396
13207TIP3    H239567   4.684   5.901   2.490
13208TIP3   OH239568   8.296   2.264   2.871
13208TIP3    H139569   8.328   2.234   2.786
13208TIP3    H239570   8.201   2.259   2.864
13209TIP3   OH239571   6.692   5.752   6.237
13209TIP3    H139572   6.784   5.762   6.261
13209TIP3    H239573   6.652   5.837   6.258
13210TIP3   OH239574   1.835   5.264   2.381
13210TIP3    H139575   1.914   5.300   2.422
13210TIP3    H239576   1.867   5.193   2.325
13211TIP3   OH239577   7.181   1.509   2.381
13211TIP3    H139578   7.208   1.574   2.316
13211TIP3    H239579   7.239   1.525   2.456
13212TIP3   OH239580   6.914   2.601   3.225
13212TIP3    H139581   6.972   2.664   3.268
13212TIP3    H239582   6.972   2.544   3.175
13213TIP3   OH239583   0.529   3.026   6.685
13213TIP3    H139584   0.490   3.110   6.659
13213TIP3    H239585   0.610   3.020   6.634
13214TIP3   OH239586   3.637   2.895   5.081
13214TIP3    H139587   3.571   2.858   5.139
13214TIP3    H239588   3.687   2.819   5.051
13215TIP3   OH239589   3.548   7.145   0.151
13215TIP3    H139590   3.601   7.185   0.220
13215TIP3    H239591   3.611   7.099   0.096
13216TIP3   OH239592   2.655   0.703   0.056
13216TIP3    H139593   2.740   0.738   0.030
13216TIP3    H239594   2.621   0.767   0.118
13217TIP3   OH239595   2.391   7.062   2.503
13217TIP3    H139596   2.486   7.075   2.495
13217TIP3    H239597   2.363   7.129   2.566
13218TIP3   OH239598   7.055   7.285   5.859
13218TIP3    H139599   7.128   7.233   5.893
13218TIP3    H239600   7.065   7.370   5.900
13219TIP3   OH239601   4.877   1.099   1.338
13219TIP3    H139602   4.809   1.056   1.391
13219TIP3    H239603   4.872   1.191   1.365
13220TIP3   OH239604   6.769   7.746   4.740
13220TIP3    H139605   6.805   7.669   4.784
13220TIP3    H239606   6.677   7.749   4.768
13221TIP3   OH239607   2.077   4.284   2.627
13221TIP3    H139608   2.029   4.312   2.548
13221TIP3    H239609   2.158   4.334   2.625
13222TIP3   OH239610   0.042   2.514   5.360
13222TIP3    H139611   0.032   2.609   5.357
13222TIP3    H239612  -0.046   2.481   5.379
13223TIP3   OH239613   6.821   6.813   2.011
13223TIP3    H139614   6.826   6.855   1.926
13223TIP3    H239615   6.797   6.883   2.072
13224TIP3   OH239616   0.325   1.133   2.626
13224TIP3    H139617   0.345   1.126   2.720
13224TIP3    H239618   0.402   1.098   2.582
13225TIP3   OH239619   6.910   3.456   1.681
13225TIP3    H139620   6.919   3.550   1.695
13225TIP3    H239621   6.981   3.433   1.621
13226TIP3   OH239622   4.210   3.774   5.319
13226TIP3    H139623   4.138   3.754   5.378
13226TIP3    H239624   4.287   3.781   5.377
13227TIP3   OH239625   4.403   1.355   5.642
13227TIP3    H139626   4.461   1.337   5.568
13227TIP3    H239627   4.460   1.351   5.718
13228TIP3   OH239628   5.895   1.756   0.065
13228TIP3    H139629   5.854   1.801  -0.009
13228TIP3    H239630   5.913   1.825   0.128
13229TIP3   OH239631   2.726   5.737   1.608
13229TIP3    H139632   2.731   5.695   1.522
13229TIP3    H239633   2.816   5.763   1.627
13230TIP3   OH239634   3.695   7.350   2.939
13230TIP3    H139635   3.686   7.324   3.030
13230TIP3    H239636   3.636   7.293   2.891
13231TIP3   OH239637   3.222   6.198   6.304
13231TIP3    H139638   3.164   6.126   6.328
13231TIP3    H239639   3.216   6.203   6.208
13232TIP3   OH239640   2.291   2.067   6.283
13232TIP3    H139641   2.305   1.980   6.321
13232TIP3    H239642   2.315   2.127   6.353
13233TIP3   OH239643   4.289   7.607   5.389
13233TIP3    H139644   4.319   7.691   5.354
13233TIP3    H239645   4.260   7.559   5.311
13234TIP3   OH239646   2.251   6.758   4.761
13234TIP3    H139647   2.316   6.692   4.738
13234TIP3    H239648   2.243   6.753   4.856
13235TIP3   OH239649   5.560   6.054   5.036
13235TIP3    H139650   5.612   6.033   5.113
13235TIP3    H239651   5.517   6.137   5.058
13236TIP3   OH239652   5.564   3.230   6.505
13236TIP3    H139653   5.591   3.231   6.597
13236TIP3    H239654   5.644   3.253   6.457
13237TIP3   OH239655   0.336   0.489   1.595
13237TIP3    H139656   0.253   0.527   1.564
13237TIP3    H239657   0.399   0.561   1.591
13238TIP3   OH239658   5.475   6.032   5.447
13238TIP3    H139659   5.401   6.041   5.387
13238TIP3    H239660   5.494   6.121   5.475
13239TIP3   OH239661   3.096   4.116   4.722
13239TIP3    H139662   3.120   4.208   4.731
13239TIP3    H239663   3.151   4.070   4.786
13240TIP3   OH239664   6.312   1.812   4.795
13240TIP3    H139665   6.239   1.751   4.803
13240TIP3    H239666   6.378   1.764   4.745
13241TIP3   OH239667   5.520   1.817   4.176
13241TIP3    H139668   5.461   1.825   4.251
13241TIP3    H239669   5.462   1.807   4.101
13242TIP3   OH239670   0.287   6.594   4.688
13242TIP3    H139671   0.209   6.539   4.677
13242TIP3    H239672   0.360   6.536   4.669
13243TIP3   OH239673   7.584   0.937   2.875
13243TIP3    H139674   7.563   0.872   2.808
13243TIP3    H239675   7.679   0.932   2.884
13244TIP3   OH239676   6.274   5.412   0.080
13244TIP3    H139677   6.345   5.361   0.041
13244TIP3    H239678   6.195   5.378   0.039
13245TIP3   OH239679   2.000   7.763   6.320
13245TIP3    H139680   2.003   7.804   6.234
13245TIP3    H239681   1.906   7.750   6.337
13246TIP3   OH239682   3.908   2.108   2.716
13246TIP3    H139683   3.937   2.146   2.633
13246TIP3    H239684   3.982   2.120   2.776
13247TIP3   OH239685   6.995   6.135   0.453
13247TIP3    H139686   7.077   6.185   0.443
13247TIP3    H239687   6.996   6.105   0.543
13248TIP3   OH239688   4.017   1.179   2.472
13248TIP3    H139689   4.079   1.167   2.400
13248TIP3    H239690   3.935   1.141   2.441
13249TIP3   OH239691   7.851   0.817   1.250
13249TIP3    H139692   7.939   0.822   1.288
13249TIP3    H239693   7.804   0.756   1.307
13250TIP3   OH239694   5.739   6.095   4.792
13250TIP3    H139695   5.671   6.069   4.855
13250TIP3    H239696   5.792   6.159   4.840
13251TIP3   OH239697   3.117   5.958   0.655
13251TIP3    H139698   3.049   5.898   0.683
13251TIP3    H239699   3.072   6.041   0.639
13252TIP3   OH239700   0.150   2.347   5.892
13252TIP3    H139701   0.140   2.430   5.846
13252TIP3    H239702   0.235   2.314   5.864
13253TIP3   OH239703   2.211   0.841   1.959
13253TIP3    H139704   2.233   0.896   1.883
13253TIP3    H239705   2.119   0.818   1.945
13254TIP3   OH239706   0.154   6.747   1.854
13254TIP3    H139707   0.243   6.722   1.879
13254TIP3    H239708   0.136   6.825   1.907
13255TIP3   OH239709   0.564   3.627   0.441
13255TIP3    H139710   0.610   3.561   0.388
13255TIP3    H239711   0.479   3.637   0.398
13256TIP3   OH239712   5.685   4.911   0.508
13256TIP3    H139713   5.652   4.822   0.495
13256TIP3    H239714   5.700   4.918   0.603
13257TIP3   OH239715   0.398   2.284   0.668
13257TIP3    H139716   0.330   2.336   0.626
13257TIP3    H239717   0.368   2.193   0.658
13258TIP3   OH239718   1.325   7.312   1.591
13258TIP3    H139719   1.311   7.351   1.505
13258TIP3    H239720   1.370   7.380   1.641
13259TIP3   OH239721   1.095   0.409   6.354
13259TIP3    H139722   1.035   0.355   6.302
13259TIP3    H239723   1.065   0.498   6.340
13260TIP3   OH239724   7.298   6.710   3.606
13260TIP3    H139725   7.305   6.756   3.522
13260TIP3    H239726   7.234   6.760   3.656
13261TIP3   OH239727   1.156   6.518   3.286
13261TIP3    H139728   1.129   6.529   3.195
13261TIP3    H239729   1.229   6.456   3.282
13262TIP3   OH239730   0.938   3.583   4.241
13262TIP3    H139731   0.938   3.488   4.241
13262TIP3    H239732   1.021   3.607   4.200
13263TIP3   OH239733   7.567   6.386   2.245
13263TIP3    H139734   7.608   6.348   2.168
13263TIP3    H239735   7.499   6.322   2.270
13264TIP3   OH239736   4.800   0.903   1.122
13264TIP3    H139737   4.831   0.980   1.168
13264TIP3    H239738   4.878   0.848   1.112
13265TIP3   OH239739   6.117   2.291   6.528
13265TIP3    H139740   6.199   2.252   6.558
13265TIP3    H239741   6.119   2.380   6.564
13266TIP3   OH239742   6.486   5.008   0.513
13266TIP3    H139743   6.578   5.026   0.491
13266TIP3    H239744   6.439   5.022   0.431
13267TIP3   OH239745   7.739   2.851   6.437
13267TIP3    H139746   7.720   2.909   6.510
13267TIP3    H239747   7.653   2.828   6.401
13268TIP3   OH239748   2.227   5.810   6.572
13268TIP3    H139749   2.299   5.796   6.510
13268TIP3    H239750   2.178   5.728   6.571
13269TIP3   OH239751   2.004   7.595   0.447
13269TIP3    H139752   1.941   7.569   0.380
13269TIP3    H239753   2.065   7.653   0.403
13270TIP3   OH239754   5.187   2.186   6.214
13270TIP3    H139755   5.197   2.159   6.305
13270TIP3    H239756   5.137   2.116   6.173
13271TIP3   OH239757   0.600   3.938   1.332
13271TIP3    H139758   0.522   3.968   1.287
13271TIP3    H239759   0.666   4.005   1.314
13272TIP3   OH239760   6.108   3.663   1.561
13272TIP3    H139761   6.136   3.591   1.618
13272TIP3    H239762   6.031   3.630   1.515
13273TIP3   OH239763   6.166   6.430   3.023
13273TIP3    H139764   6.162   6.465   2.935
13273TIP3    H239765   6.254   6.393   3.030
13274TIP3   OH239766   1.906   4.893   5.224
13274TIP3    H139767   1.845   4.963   5.200
13274TIP3    H239768   1.967   4.888   5.151
13275TIP3   OH239769   1.657   3.935   6.501
13275TIP3    H139770   1.604   3.909   6.426
13275TIP3    H239771   1.739   3.967   6.462
13276TIP3   OH239772   5.055   6.436   2.424
13276TIP3    H139773   4.974   6.482   2.403
13276TIP3    H239774   5.029   6.365   2.482
13277TIP3   OH239775   5.487   2.117   3.135
13277TIP3    H139776   5.576   2.145   3.114
13277TIP3    H239777   5.437   2.134   3.055
13278TIP3   OH239778   4.663   7.107   1.230
13278TIP3    H139779   4.734   7.138   1.286
13278TIP3    H239780   4.696   7.117   1.141
13279TIP3   OH239781   6.718   7.724   2.357
13279TIP3    H139782   6.702   7.753   2.267
13279TIP3    H239783   6.654   7.655   2.372
13280TIP3   OH239784   7.089   4.412   1.099
13280TIP3    H139785   7.075   4.438   1.190
13280TIP3    H239786   7.163   4.465   1.070
13281TIP3   OH239787   4.903   4.618   0.670
13281TIP3    H139788   4.877   4.629   0.579
13281TIP3    H239789   4.996   4.638   0.671
13282TIP3   OH239790   3.510   2.941   4.813
13282TIP3    H139791   3.548   2.916   4.729
13282TIP3    H239792   3.585   2.968   4.866
13283TIP3   OH239793   1.117   1.430   3.821
13283TIP3    H139794   1.112   1.475   3.737
13283TIP3    H239795   1.207   1.446   3.850
13284TIP3   OH239796   0.936   0.896   1.645
13284TIP3    H139797   0.842   0.882   1.632
13284TIP3    H239798   0.968   0.813   1.680
13285TIP3   OH239799   2.203   4.518   1.193
13285TIP3    H139800   2.298   4.528   1.191
13285TIP3    H239801   2.187   4.437   1.143
13286TIP3   OH239802   0.515   6.807   1.403
13286TIP3    H139803   0.598   6.783   1.362
13286TIP3    H239804   0.448   6.776   1.342
13287TIP3   OH239805   7.752   5.962   5.332
13287TIP3    H139806   7.658   5.951   5.319
13287TIP3    H239807   7.776   6.036   5.275
13288TIP3   OH239808   1.208   1.634   4.943
13288TIP3    H139809   1.299   1.614   4.966
13288TIP3    H239810   1.160   1.626   5.025
13289TIP3   OH239811   7.747   4.804   1.850
13289TIP3    H139812   7.656   4.780   1.865
13289TIP3    H239813   7.795   4.722   1.858
13290TIP3   OH239814   1.919   4.180   3.290
13290TIP3    H139815   1.923   4.149   3.199
13290TIP3    H239816   1.931   4.101   3.343
13291TIP3   OH239817   1.159   7.218   6.276
13291TIP3    H139818   1.102   7.260   6.340
13291TIP3    H239819   1.195   7.142   6.321
13292TIP3   OH239820   3.698   5.629   6.700
13292TIP3    H139821   3.732   5.716   6.720
13292TIP3    H239822   3.772   5.583   6.660
13293TIP3   OH239823   2.653   1.813   3.682
13293TIP3    H139824   2.632   1.839   3.772
13293TIP3    H239825   2.618   1.884   3.628
13294TIP3   OH239826   7.918   7.398   2.194
13294TIP3    H139827   7.829   7.428   2.210
13294TIP3    H239828   7.957   7.465   2.137
13295TIP3   OH239829   4.544   6.781   1.142
13295TIP3    H139830   4.455   6.764   1.173
13295TIP3    H239831   4.588   6.819   1.218
13296TIP3   OH239832   2.999   5.198   1.635
13296TIP3    H139833   2.941   5.125   1.611
13296TIP3    H239834   3.080   5.157   1.663
13297TIP3   OH239835   7.433   6.148   3.981
13297TIP3    H139836   7.362   6.172   3.922
13297TIP3    H239837   7.390   6.132   4.065
13298TIP3   OH239838   4.450   6.656   4.515
13298TIP3    H139839   4.538   6.694   4.509
13298TIP3    H239840   4.438   6.640   4.609
13299TIP3   OH239841   7.631   2.173   2.454
13299TIP3    H139842   7.554   2.220   2.484
13299TIP3    H239843   7.685   2.239   2.412
13300TIP3   OH239844   6.084   4.568   0.302
13300TIP3    H139845   6.175   4.559   0.330
13300TIP3    H239846   6.089   4.583   0.207
13301TIP3   OH239847   4.593   1.434   3.543
13301TIP3    H139848   4.655   1.480   3.487
13301TIP3    H239849   4.522   1.408   3.484
13302TIP3   OH239850   6.753   5.989   1.530
13302TIP3    H139851   6.771   5.906   1.575
13302TIP3    H239852   6.677   5.969   1.475
13303TIP3   OH239853   3.265   7.113   3.425
13303TIP3    H139854   3.342   7.095   3.480
13303TIP3    H239855   3.275   7.055   3.350
13304TIP3   OH239856   6.658   5.015   0.147
13304TIP3    H139857   6.595   4.980   0.084
13304TIP3    H239858   6.728   5.053   0.093
13305TIP3   OH239859   4.339   0.248   3.764
13305TIP3    H139860   4.334   0.338   3.794
13305TIP3    H239861   4.276   0.242   3.693
13306TIP3   OH239862   1.211   0.925   5.310
13306TIP3    H139863   1.292   0.904   5.356
13306TIP3    H239864   1.239   0.976   5.234
13307TIP3   OH239865   1.497   3.854   0.835
13307TIP3    H139866   1.496   3.758   0.839
13307TIP3    H239867   1.552   3.880   0.908
13308TIP3   OH239868   4.692   6.696   6.544
13308TIP3    H139869   4.773   6.675   6.496
13308TIP3    H239870   4.645   6.756   6.487
13309TIP3   OH239871   3.174   2.480   0.108
13309TIP3    H139872   3.084   2.498   0.134
13309TIP3    H239873   3.227   2.534   0.167
13310TIP3   OH239874   3.984   1.139   1.086
13310TIP3    H139875   3.997   1.162   1.178
13310TIP3    H239876   3.955   1.048   1.088
13311TIP3   OH239877   2.749   0.801   5.069
13311TIP3    H139878   2.740   0.732   5.134
13311TIP3    H239879   2.675   0.860   5.087
13312TIP3   OH239880   7.367   0.693   2.980
13312TIP3    H139881   7.440   0.731   3.029
13312TIP3    H239882   7.408   0.629   2.923
13313TIP3   OH239883   2.737   4.893   5.963
13313TIP3    H139884   2.654   4.912   5.921
13313TIP3    H239885   2.803   4.919   5.899
13314TIP3   OH239886   2.703   1.093   4.403
13314TIP3    H139887   2.630   1.068   4.346
13314TIP3    H239888   2.756   1.151   4.349
13315TIP3   OH239889   2.657   1.101   5.989
13315TIP3    H139890   2.714   1.174   6.016
13315TIP3    H239891   2.691   1.075   5.904
13316TIP3   OH239892   5.281   3.778   1.460
13316TIP3    H139893   5.229   3.857   1.451
13316TIP3    H239894   5.246   3.735   1.538
13317TIP3   OH239895   4.280   3.032   3.604
13317TIP3    H139896   4.349   3.098   3.611
13317TIP3    H239897   4.202   3.076   3.638
13318TIP3   OH239898   0.759   6.437   0.511
13318TIP3    H139899   0.670   6.413   0.484
13318TIP3    H239900   0.763   6.532   0.497
13319TIP3   OH239901   3.931   1.150   5.947
13319TIP3    H139902   3.996   1.204   5.993
13319TIP3    H239903   3.888   1.211   5.888
13320TIP3   OH239904   5.119   1.371   1.493
13320TIP3    H139905   5.092   1.317   1.567
13320TIP3    H239906   5.076   1.455   1.508
13321TIP3   OH239907   5.276   3.295   6.573
13321TIP3    H139908   5.366   3.277   6.545
13321TIP3    H239909   5.245   3.211   6.608
13322TIP3   OH239910   3.925   7.523   1.184
13322TIP3    H139911   3.878   7.525   1.268
13322TIP3    H239912   3.947   7.614   1.167
13323TIP3   OH239913   1.040   0.580   1.637
13323TIP3    H139914   1.069   0.534   1.558
13323TIP3    H239915   1.109   0.566   1.701
13324TIP3   OH239916   3.678   5.078   1.261
13324TIP3    H139917   3.632   5.099   1.179
13324TIP3    H239918   3.763   5.044   1.233
13325TIP3   OH239919   4.649   5.738   1.381
13325TIP3    H139920   4.736   5.709   1.410
13325TIP3    H239921   4.656   5.742   1.286
13326TIP3   OH239922   5.788   0.408   2.366
13326TIP3    H139923   5.735   0.331   2.344
13326TIP3    H239924   5.726   0.469   2.408
13327TIP3   OH239925   7.609   1.847   1.325
13327TIP3    H139926   7.629   1.766   1.277
13327TIP3    H239927   7.660   1.840   1.406
13328TIP3   OH239928   1.141   2.597   1.020
13328TIP3    H139929   1.056   2.629   1.051
13328TIP3    H239930   1.190   2.676   1.000
13329TIP3   OH239931   1.530   0.105   4.425
13329TIP3    H139932   1.513   0.083   4.517
13329TIP3    H239933   1.538   0.020   4.381
13330TIP3   OH239934   4.351   5.159   2.872
13330TIP3    H139935   4.404   5.157   2.792
13330TIP3    H239936   4.412   5.185   2.941
13331TIP3   OH239937   1.501   7.099   4.107
13331TIP3    H139938   1.563   7.068   4.041
13331TIP3    H239939   1.520   7.193   4.116
13332TIP3   OH239940   2.947   4.647   6.508
13332TIP3    H139941   2.991   4.732   6.505
13332TIP3    H239942   2.873   4.661   6.567
13333TIP3   OH239943   1.523   1.124   3.547
13333TIP3    H139944   1.489   1.207   3.514
13333TIP3    H239945   1.617   1.139   3.557
13334TIP3   OH239946   4.234   5.810   5.189
13334TIP3    H139947   4.173   5.753   5.143
13334TIP3    H239948   4.235   5.776   5.279
13335TIP3   OH239949   1.449   3.848   5.465
13335TIP3    H139950   1.514   3.816   5.528
13335TIP3    H239951   1.466   3.798   5.385
13336TIP3   OH239952   8.029   1.428   2.121
13336TIP3    H139953   8.071   1.482   2.055
13336TIP3    H239954   8.082   1.348   2.125
13337TIP3   OH239955   1.148   0.048   5.767
13337TIP3    H139956   1.192   0.120   5.722
13337TIP3    H239957   1.127  -0.015   5.698
13338TIP3   OH239958   3.240   2.044   1.346
13338TIP3    H139959   3.252   2.060   1.440
13338TIP3    H239960   3.329   2.033   1.312
13339TIP3   OH239961   2.707   4.703   2.016
13339TIP3    H139962   2.752   4.641   2.074
13339TIP3    H239963   2.645   4.649   1.967
13340TIP3   OH239964   5.523   1.560   6.348
13340TIP3    H139965   5.506   1.505   6.425
13340TIP3    H239966   5.619   1.562   6.340
13341TIP3   OH239967   2.545   7.764   4.655
13341TIP3    H139968   2.606   7.836   4.669
13341TIP3    H239969   2.470   7.804   4.611
13342TIP3   OH239970   0.481   7.664   1.873
13342TIP3    H139971   0.490   7.601   1.944
13342TIP3    H239972   0.552   7.644   1.812
13343TIP3   OH239973   7.114   0.724   2.103
13343TIP3    H139974   7.103   0.683   2.189
13343TIP3    H239975   7.204   0.704   2.078
13344TIP3   OH239976   8.021   5.344   1.926
13344TIP3    H139977   7.965   5.392   1.987
13344TIP3    H239978   7.966   5.332   1.848
13345TIP3   OH239979   7.836   1.819   4.444
13345TIP3    H139980   7.829   1.914   4.454
13345TIP3    H239981   7.804   1.784   4.528
13346TIP3   OH239982   7.650   1.304   2.179
13346TIP3    H139983   7.718   1.269   2.238
13346TIP3    H239984   7.607   1.226   2.144
13347TIP3   OH239985   1.116   1.062   1.117
13347TIP3    H139986   1.033   1.013   1.115
13347TIP3    H239987   1.161   1.028   1.195
13348TIP3   OH239988   4.316   5.507   4.349
13348TIP3    H139989   4.290   5.590   4.388
13348TIP3    H239990   4.283   5.441   4.410
13349TIP3   OH239991   2.503   4.497   1.791
13349TIP3    H139992   2.555   4.510   1.713
13349TIP3    H239993   2.420   4.542   1.773
13350TIP3   OH239994   1.765   5.367   0.213
13350TIP3    H139995   1.801   5.298   0.158
13350TIP3    H239996   1.842   5.405   0.257
13351TIP3   OH239997   5.505   6.517   1.978
13351TIP3    H139998   5.455   6.584   1.931
13351TIP3    H239999   5.456   6.503   2.059
13352TIP3   OH240000   1.705   6.165   3.028
13352TIP3    H140001   1.746   6.140   3.111
13352TIP3    H240002   1.709   6.085   2.975
13353TIP3   OH240003   4.861   7.226   4.834
13353TIP3    H140004   4.810   7.163   4.885
13353TIP3    H240005   4.798   7.261   4.771
13354TIP3   OH240006   7.307   4.120   5.882
13354TIP3    H140007   7.319   4.025   5.889
13354TIP3    H240008   7.381   4.150   5.830
13355TIP3   OH240009   6.707   6.561   1.649
13355TIP3    H140010   6.622   6.537   1.612
13355TIP3    H240011   6.697   6.546   1.743
13356TIP3   OH240012   6.907   0.685   5.951
13356TIP3    H140013   6.987   0.737   5.954
13356TIP3    H240014   6.863   0.713   5.871
13357TIP3   OH240015   2.981   1.388   1.045
13357TIP3    H140016   3.009   1.451   1.111
13357TIP3    H240017   2.888   1.406   1.033
13358TIP3   OH240018   4.358   1.604   3.329
13358TIP3    H140019   4.422   1.534   3.342
13358TIP3    H240020   4.377   1.638   3.241
13359TIP3   OH240021   3.995   2.548   2.927
13359TIP3    H140022   4.090   2.560   2.932
13359TIP3    H240023   3.959   2.625   2.972
13360TIP3   OH240024   1.170   4.582   4.899
13360TIP3    H140025   1.189   4.671   4.868
13360TIP3    H240026   1.077   4.584   4.921
13361TIP3   OH240027   2.678   1.677   4.437
13361TIP3    H140028   2.731   1.750   4.469
13361TIP3    H240029   2.742   1.606   4.424
13362TIP3   OH240030   6.290   3.944   0.284
13362TIP3    H140031   6.209   3.922   0.331
13362TIP3    H240032   6.313   3.864   0.237
13363TIP3   OH240033   6.706   2.644   3.073
13363TIP3    H140034   6.792   2.659   3.112
13363TIP3    H240035   6.701   2.549   3.062
13364TIP3   OH240036   6.427   4.942   0.039
13364TIP3    H140037   6.351   4.992   0.009
13364TIP3    H240038   6.402   4.851   0.027
13365TIP3   OH240039   0.395   3.164   4.505
13365TIP3    H140040   0.367   3.085   4.459
13365TIP3    H240041   0.373   3.147   4.596
13366TIP3   OH240042   2.000   0.628   3.455
13366TIP3    H140043   2.060   0.554   3.444
13366TIP3    H240044   1.942   0.624   3.379
13367TIP3   OH240045   7.270   1.262   0.479
13367TIP3    H140046   7.250   1.238   0.569
13367TIP3    H240047   7.363   1.285   0.480
13368TIP3   OH240048   1.440   0.780   5.168
13368TIP3    H140049   1.464   0.795   5.259
13368TIP3    H240050   1.487   0.701   5.143
13369TIP3   OH240051   2.038   3.559   5.084
13369TIP3    H140052   2.129   3.559   5.113
13369TIP3    H240053   2.039   3.612   5.004
13370TIP3   OH240054   2.054   0.900   0.886
13370TIP3    H140055   2.122   0.949   0.933
13370TIP3    H240056   1.972   0.934   0.921
13371TIP3   OH240057   6.129   5.502   0.343
13371TIP3    H140058   6.140   5.435   0.275
13371TIP3    H240059   6.194   5.480   0.409
13372TIP3   OH240060   4.184   1.890   3.605
13372TIP3    H140061   4.202   1.796   3.609
13372TIP3    H240062   4.091   1.898   3.625
13373TIP3   OH240063   3.828   2.685   1.902
13373TIP3    H140064   3.763   2.705   1.970
13373TIP3    H240065   3.912   2.710   1.941
13374TIP3   OH240066   2.719   0.279   3.568
13374TIP3    H140067   2.801   0.259   3.614
13374TIP3    H240068   2.746   0.329   3.491
13375TIP3   OH240069   4.558   5.951   6.055
13375TIP3    H140070   4.568   5.907   6.139
13375TIP3    H240071   4.631   6.013   6.051
13376TIP3   OH240072   3.718   2.966   0.587
13376TIP3    H140073   3.705   3.005   0.674
13376TIP3    H240074   3.709   2.872   0.602
13377TIP3   OH240075   0.340   1.986   0.403
13377TIP3    H140076   0.321   1.893   0.396
13377TIP3    H240077   0.289   2.027   0.334
13378TIP3   OH240078   5.209   4.579   5.338
13378TIP3    H140079   5.199   4.602   5.430
13378TIP3    H240080   5.296   4.612   5.315
13379TIP3   OH240081   1.929   5.252   5.512
13379TIP3    H140082   1.893   5.295   5.434
13379TIP3    H240083   2.020   5.282   5.515
13380TIP3   OH240084   3.949   2.982   2.396
13380TIP3    H140085   3.893   2.912   2.429
13380TIP3    H240086   3.918   2.999   2.308
13381TIP3   OH240087   4.179   7.441   1.227
13381TIP3    H140088   4.092   7.442   1.186
13381TIP3    H240089   4.231   7.381   1.174
13382TIP3   OH240090   7.419   0.423   6.562
13382TIP3    H140091   7.354   0.492   6.548
13382TIP3    H240092   7.466   0.450   6.641
13383TIP3   OH240093   5.159   3.723   5.530
13383TIP3    H140094   5.076   3.686   5.502
13383TIP3    H240095   5.202   3.653   5.579
13384TIP3   OH240096   8.017   1.639   0.901
13384TIP3    H140097   7.985   1.652   0.990
13384TIP3    H240098   7.947   1.590   0.857
13385TIP3   OH240099   3.219   4.145   3.323
13385TIP3    H140100   3.263   4.156   3.238
13385TIP3    H240101   3.146   4.207   3.320
13386TIP3   OH240102   6.157   5.080   1.789
13386TIP3    H140103   6.106   5.065   1.709
13386TIP3    H240104   6.170   5.174   1.791
13387TIP3   OH240105   1.459   0.486   5.421
13387TIP3    H140106   1.434   0.574   5.394
13387TIP3    H240107   1.555   0.484   5.414
13388TIP3   OH240108   0.069   7.619   4.951
13388TIP3    H140109   0.125   7.542   4.951
13388TIP3    H240110   0.128   7.691   4.928
13389TIP3   OH240111   1.289   5.645   0.510
13389TIP3    H140112   1.314   5.555   0.530
13389TIP3    H240113   1.195   5.641   0.493
13390TIP3   OH240114   6.531   7.248   4.588
13390TIP3    H140115   6.443   7.265   4.554
13390TIP3    H240116   6.542   7.311   4.659
13391TIP3   OH240117   5.829   0.646   3.412
13391TIP3    H140118   5.842   0.657   3.318
13391TIP3    H240119   5.908   0.600   3.442
13392TIP3   OH240120   5.650   4.340   3.919
13392TIP3    H140121   5.558   4.338   3.895
13392TIP3    H240122   5.685   4.418   3.876
13393TIP3   OH240123   5.793   3.501   0.724
13393TIP3    H140124   5.853   3.548   0.666
13393TIP3    H240125   5.706   3.527   0.695
13394TIP3   OH240126   5.523   1.854   6.378
13394TIP3    H140127   5.501   1.762   6.390
13394TIP3    H240128   5.483   1.878   6.295
13395TIP3   OH240129   3.145   3.550   6.443
13395TIP3    H140130   3.192   3.560   6.526
13395TIP3    H240131   3.214   3.535   6.378
13396TIP3   OH240132   6.988   2.387   2.576
13396TIP3    H140133   7.051   2.342   2.518
13396TIP3    H240134   6.972   2.325   2.647
13397TIP3   OH240135   1.789   3.149   5.703
13397TIP3    H140136   1.738   3.076   5.738
13397TIP3    H240137   1.780   3.219   5.768
13398TIP3   OH240138   6.127   1.638   0.822
13398TIP3    H140139   6.042   1.683   0.824
13398TIP3    H240140   6.161   1.656   0.734
13399TIP3   OH240141   3.326   7.488   3.659
13399TIP3    H140142   3.339   7.397   3.687
13399TIP3    H240143   3.232   7.495   3.643
13400TIP3   OH240144   4.938   5.791   2.423
13400TIP3    H140145   4.962   5.715   2.369
13400TIP3    H240146   5.021   5.831   2.447
13401TIP3   OH240147   6.191   2.442   1.275
13401TIP3    H140148   6.146   2.363   1.306
13401TIP3    H240149   6.123   2.508   1.270
13402TIP3   OH240150   0.702   6.658   2.631
13402TIP3    H140151   0.611   6.630   2.618
13402TIP3    H240152   0.727   6.619   2.715
13403TIP3   OH240153   1.214   3.465   3.304
13403TIP3    H140154   1.141   3.490   3.360
13403TIP3    H240155   1.284   3.527   3.326
13404TIP3   OH240156   4.497   4.874   5.371
13404TIP3    H140157   4.553   4.797   5.381
13404TIP3    H240158   4.452   4.882   5.455
13405TIP3   OH240159   2.526   0.551   5.780
13405TIP3    H140160   2.523   0.647   5.775
13405TIP3    H240161   2.510   0.522   5.690
13406TIP3   OH240162   3.746   6.619   4.475
13406TIP3    H140163   3.653   6.640   4.472
13406TIP3    H240164   3.782   6.654   4.394
13407TIP3   OH240165   5.481   2.793   2.032
13407TIP3    H140166   5.516   2.879   2.058
13407TIP3    H240167   5.558   2.743   2.005
13408TIP3   OH240168   4.066   6.990   4.145
13408TIP3    H140169   4.024   6.994   4.231
13408TIP3    H240170   3.995   6.973   4.083
13409TIP3   OH240171   4.076   4.273   4.023
13409TIP3    H140172   3.986   4.246   4.042
13409TIP3    H240173   4.127   4.193   4.034
13410TIP3   OH240174   1.051   1.611   5.454
13410TIP3    H140175   1.072   1.704   5.460
13410TIP3    H240176   0.959   1.609   5.426
13411TIP3   OH240177   0.954   5.619   6.506
13411TIP3    H140178   0.967   5.713   6.504
13411TIP3    H240179   0.895   5.600   6.433
13412TIP3   OH240180   4.459   3.078   2.943
13412TIP3    H140181   4.378   3.122   2.915
13412TIP3    H240182   4.476   3.114   3.031
13413TIP3   OH240183   5.484   3.853   0.339
13413TIP3    H140184   5.442   3.827   0.421
13413TIP3    H240185   5.505   3.945   0.350
13414TIP3   OH240186   2.708   5.217   3.975
13414TIP3    H140187   2.731   5.202   4.067
13414TIP3    H240188   2.736   5.137   3.930
13415TIP3   OH240189   4.743   1.842   3.531
13415TIP3    H140190   4.687   1.772   3.563
13415TIP3    H240191   4.685   1.917   3.520
13416TIP3   OH240192   5.971   1.213   4.148
13416TIP3    H140193   5.886   1.237   4.184
13416TIP3    H240194   6.026   1.290   4.162
13417TIP3   OH240195   5.648   1.388   5.235
13417TIP3    H140196   5.635   1.327   5.162
13417TIP3    H240197   5.689   1.464   5.195
13418TIP3   OH240198   3.953   0.414   4.306
13418TIP3    H140199   4.013   0.387   4.375
13418TIP3    H240200   4.002   0.401   4.225
13419TIP3   OH240201   4.873   5.557   4.066
13419TIP3    H140202   4.901   5.614   3.995
13419TIP3    H240203   4.954   5.525   4.104
13420TIP3   OH240204   1.150   5.816   3.075
13420TIP3    H140205   1.093   5.860   3.138
13420TIP3    H240206   1.220   5.879   3.059
13421TIP3   OH240207   6.904   0.475   1.478
13421TIP3    H140208   6.833   0.481   1.542
13421TIP3    H240209   6.978   0.440   1.528
13422TIP3   OH240210   5.020   7.105   0.029
13422TIP3    H140211   5.115   7.102   0.034
13422TIP3    H240212   5.002   7.120  -0.064
13423TIP3   OH240213   4.618   6.372   6.503
13423TIP3    H140214   4.656   6.459   6.515
13423TIP3    H240215   4.676   6.329   6.441
13424TIP3   OH240216   6.917   2.317   6.615
13424TIP3    H140217   6.956   2.304   6.528
13424TIP3    H240218   6.978   2.374   6.660
13425TIP3   OH240219   1.406   2.703   1.883
13425TIP3    H140220   1.355   2.784   1.886
13425TIP3    H240221   1.342   2.634   1.897
13426TIP3   OH240222   4.659   7.784   0.872
13426TIP3    H140223   4.634   7.701   0.913
13426TIP3    H240224   4.714   7.758   0.798
13427TIP3   OH240225   7.941   4.291   4.502
13427TIP3    H140226   7.989   4.287   4.419
13427TIP3    H240227   8.004   4.264   4.568
13428TIP3   OH240228   1.362   6.074   6.562
13428TIP3    H140229   1.392   5.986   6.584
13428TIP3    H240230   1.382   6.126   6.640
13429TIP3   OH240231   1.965   5.822   4.317
13429TIP3    H140232   2.046   5.786   4.354
13429TIP3    H240233   1.969   5.800   4.224
13430TIP3   OH240234   2.482   5.595   0.670
13430TIP3    H140235   2.454   5.599   0.579
13430TIP3    H240236   2.549   5.526   0.672
13431TIP3   OH240237   3.404   1.936   0.254
13431TIP3    H140238   3.493   1.949   0.223
13431TIP3    H240239   3.372   2.024   0.276
13432TIP3   OH240240   5.626   5.754   4.786
13432TIP3    H140241   5.579   5.673   4.801
13432TIP3    H240242   5.565   5.809   4.737
13433TIP3   OH240243   8.074   7.226   2.330
13433TIP3    H140244   8.129   7.202   2.255
13433TIP3    H240245   7.997   7.268   2.290
13434TIP3   OH240246   5.178   5.190   2.574
13434TIP3    H140247   5.253   5.243   2.602
13434TIP3    H240248   5.205   5.100   2.592
13435TIP3   OH240249   1.381   7.161   3.771
13435TIP3    H140250   1.323   7.112   3.829
13435TIP3    H240251   1.466   7.116   3.778
13436TIP3   OH240252   6.740   0.411   2.322
13436TIP3    H140253   6.651   0.447   2.319
13436TIP3    H240254   6.767   0.406   2.231
13437TIP3   OH240255   2.701   0.315   4.952
13437TIP3    H140256   2.774   0.305   5.012
13437TIP3    H240257   2.667   0.226   4.940
13438TIP3   OH240258   7.555   4.191   6.075
13438TIP3    H140259   7.557   4.188   5.979
13438TIP3    H240260   7.490   4.125   6.099
13439TIP3   OH240261   7.131   6.609   3.323
13439TIP3    H140262   7.209   6.654   3.292
13439TIP3    H240263   7.060   6.672   3.308
13440TIP3   OH240264   7.083   5.941   4.907
13440TIP3    H140265   7.108   5.850   4.925
13440TIP3    H240266   6.989   5.943   4.925
13441TIP3   OH240267   7.497   1.102   5.430
13441TIP3    H140268   7.547   1.144   5.499
13441TIP3    H240269   7.502   1.008   5.449
13442TIP3   OH240270   7.190   5.875   3.938
13442TIP3    H140271   7.113   5.823   3.961
13442TIP3    H240272   7.157   5.965   3.933
13443TIP3   OH240273   0.157   4.785   1.136
13443TIP3    H140274   0.135   4.702   1.177
13443TIP3    H240275   0.137   4.851   1.202
13444TIP3   OH240276   8.105   1.093   3.718
13444TIP3    H140277   8.118   1.152   3.793
13444TIP3    H240278   8.154   1.135   3.647
13445TIP3   OH240279   0.977   1.181   6.134
13445TIP3    H140280   0.943   1.154   6.219
13445TIP3    H240281   1.044   1.247   6.155
13446TIP3   OH240282   7.655   7.380   4.022
13446TIP3    H140283   7.648   7.469   3.988
13446TIP3    H240284   7.577   7.335   3.988
13447TIP3   OH240285   1.337   3.658   3.476
13447TIP3    H140286   1.332   3.584   3.537
13447TIP3    H240287   1.321   3.735   3.531
13448TIP3   OH240288   5.105   0.450   0.099
13448TIP3    H140289   5.090   0.461   0.005
13448TIP3    H240290   5.030   0.400   0.130
13449TIP3   OH240291   6.380   7.036   2.468
13449TIP3    H140292   6.435   7.059   2.543
13449TIP3    H240293   6.357   6.944   2.482
13450TIP3   OH240294   6.826   0.400   0.157
13450TIP3    H140295   6.836   0.468   0.224
13450TIP3    H240296   6.750   0.429   0.105
13451TIP3   OH240297   0.648   1.980   2.779
13451TIP3    H140298   0.616   1.996   2.691
13451TIP3    H240299   0.607   1.897   2.804
13452TIP3   OH240300   1.709   4.594   5.082
13452TIP3    H140301   1.673   4.647   5.153
13452TIP3    H240302   1.763   4.656   5.032
13453TIP3   OH240303   4.412   6.465   6.673
13453TIP3    H140304   4.469   6.401   6.629
13453TIP3    H240305   4.470   6.508   6.736
13454TIP3   OH240306   7.586   0.526   2.804
13454TIP3    H140307   7.669   0.481   2.818
13454TIP3    H240308   7.611   0.611   2.766
13455TIP3   OH240309   2.900   3.191   6.374
13455TIP3    H140310   2.815   3.232   6.357
13455TIP3    H240311   2.957   3.221   6.304
13456TIP3   OH240312   4.625   5.102   5.249
13456TIP3    H140313   4.569   5.031   5.281
13456TIP3    H240314   4.707   5.092   5.297
13457TIP3   OH240315   2.017   6.502   3.882
13457TIP3    H140316   2.067   6.576   3.846
13457TIP3    H240317   2.008   6.522   3.975
13458TIP3   OH240318   1.772   1.380   5.618
13458TIP3    H140319   1.688   1.338   5.635
13458TIP3    H240320   1.763   1.468   5.654
13459TIP3   OH240321   2.465   1.725   0.839
13459TIP3    H140322   2.560   1.722   0.835
13459TIP3    H240323   2.437   1.639   0.806
13460TIP3   OH240324   4.989   0.581   5.164
13460TIP3    H140325   4.931   0.583   5.088
13460TIP3    H240326   5.077   0.595   5.127
13461TIP3   OH240327   3.063   2.542   5.825
13461TIP3    H140328   3.096   2.583   5.905
13461TIP3    H240329   3.126   2.566   5.758
13462TIP3   OH240330   6.906   0.727   3.987
13462TIP3    H140331   6.826   0.774   4.011
13462TIP3    H240332   6.953   0.788   3.930
13463TIP3   OH240333   4.388   0.784   5.745
13463TIP3    H140334   4.360   0.863   5.789
13463TIP3    H240335   4.448   0.741   5.807
13464TIP3   OH240336   5.532   7.568   4.056
13464TIP3    H140337   5.538   7.534   4.145
13464TIP3    H240338   5.587   7.509   4.004
13465TIP3   OH240339   4.865   5.578   2.107
13465TIP3    H140340   4.874   5.673   2.110
13465TIP3    H240341   4.856   5.551   2.199
13466TIP3   OH240342   5.793   2.520   0.861
13466TIP3    H140343   5.867   2.571   0.828
13466TIP3    H240344   5.780   2.552   0.951
13467TIP3   OH240345   1.816   1.369   1.061
13467TIP3    H140346   1.828   1.277   1.039
13467TIP3    H240347   1.855   1.378   1.148
13468TIP3   OH240348   2.073   0.952   5.367
13468TIP3    H140349   2.151   0.989   5.326
13468TIP3    H240350   2.001   1.007   5.335
13469TIP3   OH240351   6.481   3.718   3.744
13469TIP3    H140352   6.387   3.738   3.737
13469TIP3    H240353   6.506   3.691   3.655
13470TIP3   OH240354   0.568   0.467   5.567
13470TIP3    H140355   0.555   0.400   5.635
13470TIP3    H240356   0.540   0.549   5.608
13471TIP3   OH240357   6.449   1.134   1.766
13471TIP3    H140358   6.528   1.090   1.798
13471TIP3    H240359   6.385   1.123   1.836
13472TIP3   OH240360   4.420   3.480   1.570
13472TIP3    H140361   4.380   3.556   1.611
13472TIP3    H240362   4.435   3.419   1.642
13473TIP3   OH240363   6.194   4.917   4.620
13473TIP3    H140364   6.145   4.997   4.599
13473TIP3    H240365   6.272   4.922   4.564
13474TIP3   OH240366   3.713   0.759   4.526
13474TIP3    H140367   3.728   0.666   4.540
13474TIP3    H240368   3.659   0.786   4.600
13475TIP3   OH240369   5.331   2.299   5.728
13475TIP3    H140370   5.393   2.369   5.751
13475TIP3    H240371   5.376   2.247   5.662
13476TIP3   OH240372   0.564   7.002   5.535
13476TIP3    H140373   0.477   7.010   5.496
13476TIP3    H240374   0.603   6.927   5.491
13477TIP3   OH240375   7.394   4.404   2.402
13477TIP3    H140376   7.440   4.477   2.362
13477TIP3    H240377   7.428   4.326   2.358
13478TIP3   OH240378   2.346   0.844   5.302
13478TIP3    H140379   2.331   0.906   5.373
13478TIP3    H240380   2.424   0.877   5.257
13479TIP3   OH240381   4.960   3.789   4.927
13479TIP3    H140382   4.946   3.725   4.997
13479TIP3    H240383   5.054   3.804   4.926
13480TIP3   OH240384   8.014   5.352   2.974
13480TIP3    H140385   7.964   5.279   3.011
13480TIP3    H240386   8.003   5.343   2.880
13481TIP3   OH240387   5.358   4.861   1.359
13481TIP3    H140388   5.368   4.953   1.336
13481TIP3    H240389   5.343   4.862   1.454
13482TIP3   OH240390   7.933   1.007   6.170
13482TIP3    H140391   7.870   0.936   6.159
13482TIP3    H240392   7.938   1.048   6.084
13483TIP3   OH240393   7.772   0.303   4.903
13483TIP3    H140394   7.825   0.381   4.917
13483TIP3    H240395   7.795   0.273   4.816
13484TIP3   OH240396   1.708   4.088   4.980
13484TIP3    H140397   1.744   4.062   4.895
13484TIP3    H240398   1.658   4.167   4.962
13485TIP3   OH240399   2.636   6.459   0.753
13485TIP3    H140400   2.608   6.375   0.787
13485TIP3    H240401   2.557   6.513   0.751
13486TIP3   OH240402   1.802   6.408   6.484
13486TIP3    H140403   1.817   6.453   6.401
13486TIP3    H240404   1.856   6.328   6.478
13487TIP3   OH240405   4.995   5.382   0.502
13487TIP3    H140406   4.936   5.335   0.443
13487TIP3    H240407   5.038   5.447   0.446
13488TIP3   OH240408   0.565   5.130   0.953
13488TIP3    H140409   0.557   5.044   0.994
13488TIP3    H240410   0.547   5.192   1.024
13489TIP3   OH240411   0.458   1.697   4.683
13489TIP3    H140412   0.545   1.716   4.720
13489TIP3    H240413   0.428   1.780   4.648
13490TIP3   OH240414   1.802   1.054   5.530
13490TIP3    H140415   1.718   1.010   5.512
13490TIP3    H240416   1.846   0.997   5.593
13491TIP3   OH240417   0.304   6.910   0.215
13491TIP3    H140418   0.262   6.841   0.163
13491TIP3    H240419   0.397   6.888   0.214
13492TIP3   OH240420   0.986   1.750   2.486
13492TIP3    H140421   0.944   1.740   2.572
13492TIP3    H240422   0.996   1.661   2.453
13493TIP3   OH240423   6.053   1.912   6.314
13493TIP3    H140424   6.134   1.888   6.358
13493TIP3    H240425   6.068   2.001   6.282
13494TIP3   OH240426   0.772   5.850   0.522
13494TIP3    H140427   0.698   5.842   0.461
13494TIP3    H240428   0.843   5.885   0.469
13495TIP3   OH240429   2.421   1.416   1.590
13495TIP3    H140430   2.499   1.464   1.615
13495TIP3    H240431   2.364   1.420   1.667
13496TIP3   OH240432   3.711   3.752   4.814
13496TIP3    H140433   3.706   3.710   4.900
13496TIP3    H240434   3.658   3.831   4.823
13497TIP3   OH240435   3.398   4.680   4.597
13497TIP3    H140436   3.307   4.666   4.572
13497TIP3    H240437   3.419   4.767   4.563
13498TIP3   OH240438   2.828   4.093   2.151
13498TIP3    H140439   2.846   4.179   2.112
13498TIP3    H240440   2.915   4.057   2.168
13499TIP3   OH240441   0.772   7.384   2.872
13499TIP3    H140442   0.849   7.351   2.825
13499TIP3    H240443   0.753   7.316   2.937
13500TIP3   OH240444   7.839   0.634   3.656
13500TIP3    H140445   7.817   0.559   3.601
13500TIP3    H240446   7.770   0.698   3.638
13501TIP3   OH240447   1.419   5.823   6.661
13501TIP3    H140448   1.462   5.792   6.581
13501TIP3    H240449   1.359   5.752   6.684
13502TIP3   OH240450   6.927   3.458   3.231
13502TIP3    H140451   6.900   3.368   3.247
13502TIP3    H240452   6.984   3.453   3.153
13503TIP3   OH240453   3.334   4.721   3.637
13503TIP3    H140454   3.245   4.688   3.644
13503TIP3    H240455   3.387   4.644   3.621
13504TIP3   OH240456   2.443   3.285   4.563
13504TIP3    H140457   2.434   3.349   4.492
13504TIP3    H240458   2.356   3.281   4.603
13505TIP3   OH240459   2.823   5.258   1.041
13505TIP3    H140460   2.873   5.273   1.121
13505TIP3    H240461   2.888   5.237   0.975
13506TIP3   OH240462   3.699   7.091   2.567
13506TIP3    H140463   3.676   6.998   2.576
13506TIP3    H240464   3.678   7.128   2.653
13507TIP3   OH240465   4.952   7.349   2.874
13507TIP3    H140466   4.878   7.289   2.859
13507TIP3    H240467   4.912   7.436   2.876
13508TIP3   OH240468   0.907   0.836   4.377
13508TIP3    H140469   0.823   0.878   4.397
13508TIP3    H240470   0.973   0.897   4.408
13509TIP3   OH240471   5.718   2.597   1.114
13509TIP3    H140472   5.696   2.643   1.195
13509TIP3    H240473   5.814   2.592   1.115
13510TIP3   OH240474   3.494   2.499   2.859
13510TIP3    H140475   3.439   2.472   2.786
13510TIP3    H240476   3.476   2.436   2.928
13511TIP3   OH240477   2.993   5.727   4.116
13511TIP3    H140478   3.073   5.754   4.070
13511TIP3    H240479   2.992   5.632   4.107
13512TIP3   OH240480   0.069   2.822   4.508
13512TIP3    H140481   0.048   2.886   4.576
13512TIP3    H240482  -0.016   2.801   4.469
13513TIP3   OH240483   0.210   6.298   0.161
13513TIP3    H140484   0.237   6.352   0.086
13513TIP3    H240485   0.175   6.218   0.121
13514TIP3   OH240486   8.147   1.634   1.967
13514TIP3    H140487   8.220   1.650   2.027
13514TIP3    H240488   8.165   1.691   1.892
13515TIP3   OH240489   0.087   5.359   5.104
13515TIP3    H140490   0.000   5.345   5.066
13515TIP3    H240491   0.093   5.296   5.175
13516TIP3   OH240492   0.908   7.845   0.409
13516TIP3    H140493   0.827   7.891   0.387
13516TIP3    H240494   0.888   7.753   0.391
13517TIP3   OH240495   5.381   6.477   3.508
13517TIP3    H140496   5.343   6.435   3.585
13517TIP3    H240497   5.359   6.570   3.518
13518TIP3   OH240498   1.862   5.837   0.482
13518TIP3    H140499   1.854   5.921   0.526
13518TIP3    H240500   1.866   5.773   0.553
13519TIP3   OH240501   4.024   5.640   5.070
13519TIP3    H140502   3.929   5.645   5.083
13519TIP3    H240503   4.054   5.578   5.136
13520TIP3   OH240504   0.496   1.808   1.613
13520TIP3    H140505   0.446   1.726   1.608
13520TIP3    H240506   0.430   1.877   1.618
13521TIP3   OH240507   6.310   2.820   3.467
13521TIP3    H140508   6.287   2.728   3.453
13521TIP3    H240509   6.282   2.839   3.556
13522TIP3   OH240510   1.294   0.017   1.961
13522TIP3    H140511   1.297  -0.029   1.876
13522TIP3    H240512   1.328   0.104   1.942
13523TIP3   OH240513   0.110   3.261   2.287
13523TIP3    H140514   0.033   3.226   2.331
13523TIP3    H240515   0.173   3.190   2.288
13524TIP3   OH240516   7.104   2.652   4.329
13524TIP3    H140517   7.034   2.600   4.290
13524TIP3    H240518   7.060   2.706   4.394
13525TIP3   OH240519   0.305   1.184   3.305
13525TIP3    H140520   0.305   1.200   3.400
13525TIP3    H240521   0.398   1.172   3.283
13526TIP3   OH240522   8.220   5.955   0.148
13526TIP3    H140523   8.127   5.965   0.166
13526TIP3    H240524   8.248   5.881   0.202
13527TIP3   OH240525   0.559   0.409   3.009
13527TIP3    H140526   0.475   0.371   2.984
13527TIP3    H240527   0.539   0.462   3.087
13528TIP3   OH240528   6.689   3.259   4.553
13528TIP3    H140529   6.665   3.294   4.639
13528TIP3    H240530   6.606   3.230   4.515
13529TIP3   OH240531   3.536   1.290   1.347
13529TIP3    H140532   3.484   1.224   1.301
13529TIP3    H240533   3.608   1.239   1.387
13530TIP3   OH240534   7.051   3.989   2.141
13530TIP3    H140535   6.959   3.975   2.164
13530TIP3    H240536   7.050   4.000   2.046
13531TIP3   OH240537   1.489   2.529   2.757
13531TIP3    H140538   1.417   2.472   2.729
13531TIP3    H240539   1.544   2.538   2.680
13532TIP3   OH240540   6.504   3.015   3.338
13532TIP3    H140541   6.426   2.959   3.347
13532TIP3    H240542   6.570   2.974   3.394
13533TIP3   OH240543   1.059   6.482   3.011
13533TIP3    H140544   1.109   6.535   2.949
13533TIP3    H240545   1.116   6.409   3.032
13534TIP3   OH240546   0.578   6.804   5.747
13534TIP3    H140547   0.546   6.857   5.674
13534TIP3    H240548   0.661   6.844   5.772
13535TIP3   OH240549   2.376   0.368   3.948
13535TIP3    H140550   2.459   0.409   3.972
13535TIP3    H240551   2.342   0.333   4.030
13536TIP3   OH240552   3.797   2.489   3.697
13536TIP3    H140553   3.736   2.434   3.746
13536TIP3    H240554   3.882   2.448   3.709
13537TIP3   OH240555   6.490   3.793   6.461
13537TIP3    H140556   6.486   3.713   6.408
13537TIP3    H240557   6.540   3.855   6.408
13538TIP3   OH240558   4.445   0.156   2.328
13538TIP3    H140559   4.425   0.201   2.410
13538TIP3    H240560   4.461   0.227   2.265
13539TIP3   OH240561   3.482   2.470   5.526
13539TIP3    H140562   3.568   2.495   5.494
13539TIP3    H240563   3.497   2.396   5.584
13540TIP3   OH240564   4.618   5.379   1.495
13540TIP3    H140565   4.582   5.297   1.528
13540TIP3    H240566   4.549   5.444   1.513
13541TIP3   OH240567   0.507   7.589   1.366
13541TIP3    H140568   0.594   7.557   1.392
13541TIP3    H240569   0.446   7.526   1.404
13542TIP3   OH240570   5.672   1.205   2.113
13542TIP3    H140571   5.709   1.119   2.133
13542TIP3    H240572   5.582   1.186   2.086
13543TIP3   OH240573   7.341   3.429   5.239
13543TIP3    H140574   7.330   3.334   5.240
13543TIP3    H240575   7.427   3.443   5.277
13544TIP3   OH240576   8.154   6.756   4.349
13544TIP3    H140577   8.078   6.769   4.292
13544TIP3    H240578   8.117   6.735   4.435
13545TIP3   OH240579   1.057   5.362   4.848
13545TIP3    H140580   0.964   5.354   4.829
13545TIP3    H240581   1.090   5.273   4.849
13546TIP3   OH240582   7.279   7.277   3.410
13546TIP3    H140583   7.252   7.211   3.346
13546TIP3    H240584   7.292   7.228   3.491
13547TIP3   OH240585   5.885   1.624   3.493
13547TIP3    H140586   5.945   1.585   3.557
13547TIP3    H240587   5.801   1.625   3.538
13548TIP3   OH240588   7.073   3.433   5.416
13548TIP3    H140589   7.035   3.347   5.431
13548TIP3    H240590   7.150   3.416   5.361
13549TIP3   OH240591   7.371   6.315   3.056
13549TIP3    H140592   7.410   6.269   3.131
13549TIP3    H240593   7.325   6.389   3.096
13550TIP3   OH240594   3.322   5.874   4.255
13550TIP3    H140595   3.300   5.853   4.346
13550TIP3    H240596   3.396   5.935   4.262
13551TIP3   OH240597   7.232   2.796   3.603
13551TIP3    H140598   7.287   2.761   3.532
13551TIP3    H240599   7.257   2.745   3.680
13552TIP3   OH240600   0.520   2.788   6.511
13552TIP3    H140601   0.581   2.861   6.511
13552TIP3    H240602   0.505   2.768   6.603
13553TIP3   OH240603   2.117   0.523   1.719
13553TIP3    H140604   2.067   0.441   1.720
13553TIP3    H240605   2.054   0.590   1.693
13554TIP3   OH240606   8.060   2.590   6.141
13554TIP3    H140607   8.153   2.608   6.153
13554TIP3    H240608   8.052   2.565   6.048
13555TIP3   OH240609   4.509   0.033   6.591
13555TIP3    H140610   4.597   0.065   6.609
13555TIP3    H240611   4.451   0.098   6.632
13556TIP3   OH240612   7.880   3.107   4.883
13556TIP3    H140613   7.871   3.043   4.954
13556TIP3    H240614   7.940   3.173   4.918
13557TIP3   OH240615   7.194   6.448   0.200
13557TIP3    H140616   7.255   6.519   0.182
13557TIP3    H240617   7.231   6.403   0.276
13558TIP3   OH240618   3.897   1.187   1.349
13558TIP3    H140619   3.876   1.276   1.378
13558TIP3    H240620   3.824   1.134   1.381
13559TIP3   OH240621   3.608   4.292   4.511
13559TIP3    H140622   3.626   4.199   4.495
13559TIP3    H240623   3.517   4.304   4.486
13560TIP3   OH240624   8.049   7.468   0.797
13560TIP3    H140625   8.027   7.464   0.704
13560TIP3    H240626   8.008   7.549   0.828
13561TIP3   OH240627   7.039   0.115   3.650
13561TIP3    H140628   6.961   0.094   3.599
13561TIP3    H240629   7.009   0.116   3.741
13562TIP3   OH240630   1.269   1.906   1.169
13562TIP3    H140631   1.203   1.837   1.171
13562TIP3    H240632   1.249   1.957   1.091
13563TIP3   OH240633   6.226   4.213   3.800
13563TIP3    H140634   6.301   4.159   3.773
13563TIP3    H240635   6.262   4.301   3.807
13564TIP3   OH240636   2.750   5.987   2.962
13564TIP3    H140637   2.729   5.934   2.886
13564TIP3    H240638   2.844   5.975   2.976
13565TIP3   OH240639   2.485   3.018   3.512
13565TIP3    H140640   2.414   2.983   3.458
13565TIP3    H240641   2.562   2.968   3.485
13566TIP3   OH240642   1.828   0.591   5.591
13566TIP3    H140643   1.754   0.627   5.640
13566TIP3    H240644   1.891   0.663   5.586
13567TIP3   OH240645   2.246   1.921   0.821
13567TIP3    H140646   2.286   1.890   0.903
13567TIP3    H240647   2.307   1.893   0.753
13568TIP3   OH240648   1.119   7.294   5.210
13568TIP3    H140649   1.061   7.219   5.217
13568TIP3    H240650   1.065   7.363   5.172
13569TIP3   OH240651   1.095   3.640   0.398
13569TIP3    H140652   1.064   3.699   0.329
13569TIP3    H240653   1.043   3.560   0.387
13570TIP3   OH240654   0.759   5.559   6.271
13570TIP3    H140655   0.727   5.600   6.190
13570TIP3    H240656   0.719   5.473   6.273
13571TIP3   OH240657   0.384   5.228   3.809
13571TIP3    H140658   0.367   5.319   3.832
13571TIP3    H240659   0.450   5.200   3.872
13572TIP3   OH240660   7.168   4.233   6.079
13572TIP3    H140661   7.219   4.204   6.003
13572TIP3    H240662   7.180   4.163   6.143
13573TIP3   OH240663   3.724   0.271   4.052
13573TIP3    H140664   3.802   0.218   4.068
13573TIP3    H240665   3.656   0.208   4.028
13574TIP3   OH240666   0.183   7.532   6.579
13574TIP3    H140667   0.182   7.451   6.629
13574TIP3    H240668   0.101   7.531   6.530
13575TIP3   OH240669   5.405   7.004   4.735
13575TIP3    H140670   5.429   6.997   4.827
13575TIP3    H240671   5.455   6.935   4.691
13576TIP3   OH240672   7.185   1.762   4.073
13576TIP3    H140673   7.161   1.837   4.128
13576TIP3    H240674   7.280   1.764   4.069
13577TIP3   OH240675   5.995   0.590   1.535
13577TIP3    H140676   5.934   0.630   1.473
13577TIP3    H240677   6.037   0.519   1.485
13578TIP3   OH240678   2.281   7.561   3.895
13578TIP3    H140679   2.371   7.594   3.885
13578TIP3    H240680   2.230   7.637   3.921
13579TIP3   OH240681   5.925   3.148   2.087
13579TIP3    H140682   5.989   3.090   2.046
13579TIP3    H240683   5.955   3.159   2.177
13580TIP3   OH240684   2.487   3.158   1.017
13580TIP3    H140685   2.582   3.151   1.008
13580TIP3    H240686   2.475   3.215   1.094
13581TIP3   OH240687   7.156   1.857   5.736
13581TIP3    H140688   7.064   1.838   5.717
13581TIP3    H240689   7.154   1.942   5.780
13582TIP3   OH240690   1.926   0.279   1.037
13582TIP3    H140691   1.872   0.244   1.108
13582TIP3    H240692   1.938   0.206   0.977
13583TIP3   OH240693   3.703   0.102   3.113
13583TIP3    H140694   3.766   0.080   3.044
13583TIP3    H240695   3.618   0.098   3.070
13584TIP3   OH240696   6.334   1.452   0.843
13584TIP3    H140697   6.413   1.466   0.895
13584TIP3    H240698   6.270   1.514   0.879
13585TIP3   OH240699   2.695   0.577   5.219
13585TIP3    H140700   2.742   0.542   5.295
13585TIP3    H240701   2.628   0.512   5.200
13586TIP3   OH240702   2.287   6.315   1.920
13586TIP3    H140703   2.348   6.311   1.846
13586TIP3    H240704   2.343   6.333   1.996
13587TIP3   OH240705   5.839   4.127   1.172
13587TIP3    H140706   5.910   4.137   1.235
13587TIP3    H240707   5.882   4.126   1.087
13588TIP3   OH240708   3.672   3.233   1.291
13588TIP3    H140709   3.674   3.319   1.334
13588TIP3    H240710   3.658   3.252   1.199
13589TIP3   OH240711   1.509   1.850   4.775
13589TIP3    H140712   1.487   1.914   4.708
13589TIP3    H240713   1.457   1.876   4.851
13590TIP3   OH240714   2.219   1.170   6.396
13590TIP3    H140715   2.151   1.182   6.462
13590TIP3    H240716   2.184   1.212   6.317
13591TIP3   OH240717   8.026   3.940   1.848
13591TIP3    H140718   8.109   3.902   1.876
13591TIP3    H240719   8.005   3.895   1.766
13592TIP3   OH240720   4.606   4.916   6.066
13592TIP3    H140721   4.642   4.866   6.140
13592TIP3    H240722   4.650   5.001   6.070
13593TIP3   OH240723   1.793   1.504   5.956
13593TIP3    H140724   1.881   1.473   5.933
13593TIP3    H240725   1.755   1.529   5.872
13594TIP3   OH240726   0.765   0.544   1.554
13594TIP3    H140727   0.778   0.451   1.569
13594TIP3    H240728   0.848   0.585   1.579
13595TIP3   OH240729   1.583   0.274   1.558
13595TIP3    H140730   1.589   0.353   1.612
13595TIP3    H240731   1.672   0.260   1.525
13596TIP3   OH240732   0.157   1.889   2.138
13596TIP3    H140733   0.236   1.931   2.170
13596TIP3    H240734   0.090   1.910   2.203
13597TIP3   OH240735   1.749   6.679   3.848
13597TIP3    H140736   1.765   6.593   3.888
13597TIP3    H240737   1.768   6.741   3.919
13598TIP3   OH240738   7.267   2.349   4.227
13598TIP3    H140739   7.336   2.401   4.187
13598TIP3    H240740   7.186   2.384   4.190
13599TIP3   OH240741   1.582   1.610   1.049
13599TIP3    H140742   1.675   1.622   1.027
13599TIP3    H240743   1.576   1.518   1.074
13600TIP3   OH240744   7.570   7.627   0.239
13600TIP3    H140745   7.524   7.664   0.163
13600TIP3    H240746   7.619   7.553   0.204
13601TIP3   OH240747   3.600   5.801   2.110
13601TIP3    H140748   3.550   5.830   2.033
13601TIP3    H240749   3.535   5.797   2.180
13602TIP3   OH240750   4.069   7.835   1.614
13602TIP3    H140751   4.068   7.746   1.648
13602TIP3    H240752   4.142   7.836   1.552
13603TIP3   OH240753   3.153   5.842   4.984
13603TIP3    H140754   3.072   5.807   4.945
13603TIP3    H240755   3.170   5.784   5.059
13604TIP3   OH240756   7.516   0.086   2.528
13604TIP3    H140757   7.513   0.128   2.614
13604TIP3    H240758   7.524   0.159   2.466
13605TIP3   OH240759   4.023   0.178   6.615
13605TIP3    H140760   3.955   0.133   6.664
13605TIP3    H240761   4.068   0.108   6.567
13606TIP3   OH240762   5.902   0.510   5.231
13606TIP3    H140763   5.811   0.527   5.207
13606TIP3    H240764   5.950   0.519   5.149
13607TIP3   OH240765   6.489   1.115   3.204
13607TIP3    H140766   6.584   1.126   3.208
13607TIP3    H240767   6.460   1.132   3.294
13608TIP3   OH240768   2.116   6.426   6.359
13608TIP3    H140769   2.122   6.331   6.356
13608TIP3    H240770   2.145   6.450   6.447
13609TIP3   OH240771   6.237   6.441   0.963
13609TIP3    H140772   6.310   6.421   0.904
13609TIP3    H240773   6.278   6.489   1.035
13610TIP3   OH240774   3.603   2.975   6.584
13610TIP3    H140775   3.623   2.997   6.675
13610TIP3    H240776   3.562   2.888   6.589
13611TIP3   OH240777   3.184   4.747   1.799
13611TIP3    H140778   3.106   4.758   1.745
13611TIP3    H240779   3.216   4.659   1.777
13612TIP3   OH240780   6.507   3.376   3.480
13612TIP3    H140781   6.538   3.459   3.516
13612TIP3    H240782   6.552   3.309   3.532
13613TIP3   OH240783   0.236   7.389   4.854
13613TIP3    H140784   0.197   7.302   4.856
13613TIP3    H240785   0.214   7.424   4.768
13614TIP3   OH240786   2.225   5.109   4.554
13614TIP3    H140787   2.175   5.084   4.477
13614TIP3    H240788   2.276   5.186   4.526
13615TIP3   OH240789   4.500   7.391   4.480
13615TIP3    H140790   4.412   7.361   4.503
13615TIP3    H240791   4.552   7.378   4.559
13616TIP3   OH240792   5.589   4.777   4.161
13616TIP3    H140793   5.571   4.790   4.068
13616TIP3    H240794   5.685   4.777   4.166
13617TIP3   OH240795   2.675   1.114   3.740
13617TIP3    H140796   2.658   1.025   3.770
13617TIP3    H240797   2.609   1.167   3.785
13618TIP3   OH240798   2.054   3.010   4.402
13618TIP3    H140799   2.066   2.964   4.318
13618TIP3    H240800   2.085   3.098   4.385
13619TIP3   OH240801   0.780   7.764   1.272
13619TIP3    H140802   0.835   7.798   1.201
13619TIP3    H240803   0.842   7.725   1.333
13620TIP3   OH240804   5.082   1.493   1.216
13620TIP3    H140805   5.122   1.558   1.274
13620TIP3    H240806   5.152   1.430   1.200
13621TIP3   OH240807   2.934   6.497   0.476
13621TIP3    H140808   2.848   6.508   0.436
13621TIP3    H240809   2.997   6.511   0.405
13622TIP3   OH240810   7.447   4.744   0.406
13622TIP3    H140811   7.391   4.811   0.366
13622TIP3    H240812   7.486   4.698   0.331
13623TIP3   OH240813   5.490   0.947   4.735
13623TIP3    H140814   5.538   1.001   4.671
13623TIP3    H240815   5.549   0.941   4.810
13624TIP3   OH240816   2.926   1.774   3.613
13624TIP3    H140817   2.951   1.683   3.593
13624TIP3    H240818   2.831   1.776   3.601
13625TIP3   OH240819   5.958   4.813   6.037
13625TIP3    H140820   5.870   4.811   6.000
13625TIP3    H240821   5.997   4.893   6.001
13626TIP3   OH240822   7.126   7.125   1.208
13626TIP3    H140823   7.180   7.102   1.283
13626TIP3    H240824   7.061   7.186   1.243
13627TIP3   OH240825   7.840   0.928   4.038
13627TIP3    H140826   7.843   0.939   3.943
13627TIP3    H240827   7.747   0.933   4.060
13628TIP3   OH240828   5.551   7.683   0.437
13628TIP3    H140829   5.605   7.713   0.510
13628TIP3    H240830   5.494   7.756   0.418
13629TIP3   OH240831   4.790   7.732   2.127
13629TIP3    H140832   4.790   7.655   2.183
13629TIP3    H240833   4.866   7.783   2.154
13630TIP3   OH240834   0.903   1.133   5.466
13630TIP3    H140835   0.885   1.132   5.372
13630TIP3    H240836   0.934   1.044   5.485
13631TIP3   OH240837   0.606   6.931   4.230
13631TIP3    H140838   0.522   6.975   4.222
13631TIP3    H240839   0.625   6.933   4.324
13632TIP3   OH240840   5.602   3.157   5.181
13632TIP3    H140841   5.602   3.199   5.267
13632TIP3    H240842   5.585   3.065   5.199
13633TIP3   OH240843   6.210   6.778   3.006
13633TIP3    H140844   6.122   6.811   2.990
13633TIP3    H240845   6.207   6.740   3.094
13634TIP3   OH240846   0.877   1.987   3.925
13634TIP3    H140847   0.831   2.052   3.871
13634TIP3    H240848   0.814   1.915   3.934
13635TIP3   OH240849   7.549   6.962   0.635
13635TIP3    H140850   7.597   6.933   0.557
13635TIP3    H240851   7.485   7.025   0.602
13636TIP3   OH240852   7.057   7.194   2.718
13636TIP3    H140853   7.121   7.259   2.746
13636TIP3    H240854   7.026   7.154   2.800
13637TIP3   OH240855   1.525   1.135   1.184
13637TIP3    H140856   1.518   1.107   1.092
13637TIP3    H240857   1.477   1.218   1.187
13638TIP3   OH240858   3.846   2.500   0.825
13638TIP3    H140859   3.905   2.531   0.893
13638TIP3    H240860   3.871   2.549   0.747
13639TIP3   OH240861   5.433   5.875   4.641
13639TIP3    H140862   5.491   5.904   4.570
13639TIP3    H240863   5.389   5.954   4.670
13640TIP3   OH240864   1.455   5.258   6.551
13640TIP3    H140865   1.504   5.296   6.623
13640TIP3    H240866   1.455   5.325   6.483
13641TIP3   OH240867   6.490   6.595   2.977
13641TIP3    H140868   6.558   6.652   2.941
13641TIP3    H240869   6.410   6.648   2.970
13642TIP3   OH240870   2.643  -0.014   2.136
13642TIP3    H140871   2.712   0.017   2.195
13642TIP3    H240872   2.577   0.055   2.140
13643TIP3   OH240873   5.238   3.224   2.046
13643TIP3    H140874   5.201   3.310   2.028
13643TIP3    H240875   5.198   3.166   1.980
13644TIP3   OH240876   5.604   4.671   0.865
13644TIP3    H140877   5.526   4.690   0.918
13644TIP3    H240878   5.611   4.575   0.866
13645TIP3   OH240879   7.215   2.767   1.024
13645TIP3    H140880   7.283   2.718   1.071
13645TIP3    H240881   7.191   2.838   1.083
13646TIP3   OH240882   5.366   0.763   6.616
13646TIP3    H140883   5.441   0.708   6.642
13646TIP3    H240884   5.345   0.813   6.695
13647TIP3   OH240885   1.114   3.772   1.250
13647TIP3    H140886   1.163   3.794   1.171
13647TIP3    H240887   1.119   3.850   1.305
13648TIP3   OH240888   4.933   7.755   1.176
13648TIP3    H140889   4.955   7.799   1.094
13648TIP3    H240890   4.863   7.807   1.214
13649TIP3   OH240891   0.574   6.163   1.528
13649TIP3    H140892   0.515   6.129   1.595
13649TIP3    H240893   0.518   6.180   1.453
13650TIP3   OH240894   0.603   3.306   1.701
13650TIP3    H140895   0.512   3.309   1.672
13650TIP3    H240896   0.607   3.366   1.776
13651TIP3   OH240897   3.581   5.980   4.150
13651TIP3    H140898   3.648   6.049   4.143
13651TIP3    H240899   3.598   5.922   4.076
13652TIP3   OH240900   4.177   5.154   4.254
13652TIP3    H140901   4.164   5.217   4.325
13652TIP3    H240902   4.252   5.101   4.283
13653TIP3   OH240903   1.075   6.616   4.271
13653TIP3    H140904   1.032   6.687   4.319
13653TIP3    H240905   1.003   6.566   4.232
13654TIP3   OH240906   1.232   2.731   2.887
13654TIP3    H140907   1.246   2.789   2.962
13654TIP3    H240908   1.319   2.720   2.848
13655TIP3   OH240909   3.817   6.468   4.135
13655TIP3    H140910   3.726   6.463   4.162
13655TIP3    H240911   3.841   6.379   4.110
13656TIP3   OH240912   6.856   6.909   3.681
13656TIP3    H140913   6.824   6.919   3.591
13656TIP3    H240914   6.932   6.850   3.673
13657TIP3   OH240915   5.798   6.895   6.069
13657TIP3    H140916   5.754   6.943   5.998
13657TIP3    H240917   5.825   6.813   6.029
13658TIP3   OH240918   5.907   1.097   0.827
13658TIP3    H140919   5.820   1.110   0.788
13658TIP3    H240920   5.946   1.184   0.826
13659TIP3   OH240921   0.412   7.274   0.336
13659TIP3    H140922   0.428   7.332   0.411
13659TIP3    H240923   0.332   7.226   0.359
13660TIP3   OH240924   4.795   4.282   0.053
13660TIP3    H140925   4.803   4.243   0.140
13660TIP3    H240926   4.736   4.223   0.006
13661TIP3   OH240927   7.417   3.847   0.907
13661TIP3    H140928   7.442   3.798   0.986
13661TIP3    H240929   7.499   3.878   0.871
13662TIP3   OH240930   4.949   4.030   2.279
13662TIP3    H140931   5.033   4.028   2.233
13662TIP3    H240932   4.936   4.122   2.303
13663TIP3   OH240933   4.114   4.250   3.116
13663TIP3    H140934   4.080   4.180   3.060
13663TIP3    H240935   4.128   4.324   3.057
13664TIP3   OH240936   5.921   6.903   1.449
13664TIP3    H140937   5.891   6.872   1.535
13664TIP3    H240938   5.906   6.997   1.451
13665TIP3   OH240939   3.554   3.228   2.569
13665TIP3    H140940   3.627   3.183   2.612
13665TIP3    H240941   3.595   3.285   2.505
13666TIP3   OH240942   5.900   5.966   3.557
13666TIP3    H140943   5.952   5.973   3.637
13666TIP3    H240944   5.863   6.053   3.544
13667TIP3   OH240945   0.558   4.029   0.143
13667TIP3    H140946   0.521   4.005   0.228
13667TIP3    H240947   0.604   3.951   0.113
13668TIP3   OH240948   7.001   4.576   4.649
13668TIP3    H140949   6.960   4.492   4.667
13668TIP3    H240950   7.084   4.554   4.607
13669TIP3   OH240951   5.454   5.757   5.533
13669TIP3    H140952   5.454   5.852   5.527
13669TIP3    H240953   5.509   5.728   5.460
13670TIP3   OH240954   6.479   3.905   3.204
13670TIP3    H140955   6.456   3.886   3.295
13670TIP3    H240956   6.396   3.928   3.162
13671TIP3   OH240957   1.110   0.248   4.642
13671TIP3    H140958   1.166   0.225   4.569
13671TIP3    H240959   1.162   0.227   4.720
13672TIP3   OH240960   7.726   7.702   1.243
13672TIP3    H140961   7.819   7.684   1.225
13672TIP3    H240962   7.719   7.798   1.241
13673TIP3   OH240963   3.439   1.859   1.438
13673TIP3    H140964   3.486   1.900   1.365
13673TIP3    H240965   3.507   1.809   1.484
13674TIP3   OH240966   6.110   4.557   3.003
13674TIP3    H140967   6.156   4.476   3.023
13674TIP3    H240968   6.075   4.543   2.915
13675TIP3   OH240969   4.026   6.888   1.146
13675TIP3    H140970   3.966   6.928   1.084
13675TIP3    H240971   3.988   6.909   1.232
13676TIP3   OH240972   6.970   2.377   2.926
13676TIP3    H140973   7.051   2.338   2.893
13676TIP3    H240974   6.909   2.303   2.931
13677TIP3   OH240975   1.290   7.716   1.404
13677TIP3    H140976   1.331   7.637   1.370
13677TIP3    H240977   1.313   7.718   1.497
13678TIP3   OH240978   5.488   7.616   4.796
13678TIP3    H140979   5.429   7.681   4.832
13678TIP3    H240980   5.447   7.532   4.819
13679TIP3   OH240981   3.891   7.605   2.827
13679TIP3    H140982   3.925   7.565   2.747
13679TIP3    H240983   3.965   7.652   2.865
13680TIP3   OH240984   6.094   5.443   4.877
13680TIP3    H140985   6.042   5.440   4.958
13680TIP3    H240986   6.061   5.370   4.824
13681TIP3   OH240987   5.598   6.097   0.134
13681TIP3    H140988   5.664   6.073   0.070
13681TIP3    H240989   5.515   6.092   0.087
13682TIP3   OH240990   2.046   5.066   2.750
13682TIP3    H140991   2.026   5.146   2.799
13682TIP3    H240992   2.027   4.995   2.811
13683TIP3   OH240993   3.371   4.037   4.361
13683TIP3    H140994   3.301   4.083   4.316
13683TIP3    H240995   3.344   3.945   4.359
13684TIP3   OH240996   1.565   3.332   3.011
13684TIP3    H140997   1.607   3.290   2.936
13684TIP3    H240998   1.538   3.260   3.068
13685TIP3   OH240999   2.673   2.779   5.382
13685TIP3    H141000   2.674   2.691   5.345
13685TIP3    H241001   2.670   2.837   5.306
13686TIP3   OH241002   6.271   1.817   5.985
13686TIP3    H141003   6.298   1.725   5.985
13686TIP3    H241004   6.176   1.815   5.985
13687TIP3   OH241005   4.374   5.693   6.621
13687TIP3    H141006   4.439   5.625   6.601
13687TIP3    H241007   4.389   5.712   6.714
13688TIP3   OH241008   0.313   5.734   5.625
13688TIP3    H141009   0.315   5.640   5.605
13688TIP3    H241010   0.391   5.769   5.583
13689TIP3   OH241011   4.920   1.517   4.576
13689TIP3    H141012   4.918   1.610   4.594
13689TIP3    H241013   4.900   1.475   4.659
13690TIP3   OH241014   1.657   6.186   6.754
13690TIP3    H141015   1.748   6.157   6.751
13690TIP3    H241016   1.661   6.274   6.790
13691TIP3   OH241017   1.466   0.218   3.028
13691TIP3    H141018   1.427   0.289   2.977
13691TIP3    H241019   1.435   0.138   2.985
13692TIP3   OH241020   6.318   4.045   2.745
13692TIP3    H141021   6.410   4.042   2.720
13692TIP3    H241022   6.282   4.118   2.695
13693TIP3   OH241023   4.027   5.295   6.659
13693TIP3    H141024   4.081   5.257   6.590
13693TIP3    H241025   4.089   5.338   6.717
13694TIP3   OH241026   5.850   0.960   1.500
13694TIP3    H141027   5.926   0.954   1.557
13694TIP3    H241028   5.881   1.008   1.423
13695TIP3   OH241029   7.020   3.381   2.936
13695TIP3    H141030   6.937   3.335   2.923
13695TIP3    H241031   7.012   3.461   2.883
13696TIP3   OH241032   3.407   2.741   6.656
13696TIP3    H141033   3.321   2.743   6.698
13696TIP3    H241034   3.468   2.714   6.725
13697TIP3   OH241035   6.419   6.568   3.541
13697TIP3    H141036   6.480   6.595   3.473
13697TIP3    H241037   6.337   6.552   3.495
13698TIP3   OH241038   7.069   1.520   0.674
13698TIP3    H141039   7.045   1.508   0.583
13698TIP3    H241040   7.156   1.480   0.682
13699TIP3   OH241041   7.528   1.468   2.806
13699TIP3    H141042   7.600   1.469   2.743
13699TIP3    H241043   7.522   1.377   2.833
13700TIP3   OH241044   5.212   0.927   5.957
13700TIP3    H141045   5.211   1.016   5.922
13700TIP3    H241046   5.250   0.936   6.044
13701TIP3   OH241047   4.714   2.802   2.276
13701TIP3    H141048   4.639   2.769   2.325
13701TIP3    H241049   4.694   2.894   2.261
13702TIP3   OH241050   3.516   0.144   1.861
13702TIP3    H141051   3.539   0.230   1.828
13702TIP3    H241052   3.599   0.104   1.886
13703TIP3   OH241053   4.475   4.752   2.293
13703TIP3    H141054   4.434   4.823   2.243
13703TIP3    H241055   4.508   4.795   2.372
13704TIP3   OH241056   3.283   6.718   6.507
13704TIP3    H141057   3.312   6.722   6.416
13704TIP3    H241058   3.357   6.750   6.558
13705TIP3   OH241059   6.170   7.430   2.877
13705TIP3    H141060   6.221   7.376   2.817
13705TIP3    H241061   6.194   7.520   2.855
13706TIP3   OH241062   2.378   3.758  -0.016
13706TIP3    H141063   2.298   3.738  -0.066
13706TIP3    H241064   2.350   3.754   0.076
13707TIP3   OH241065   7.085   1.952   1.068
13707TIP3    H141066   7.149   1.945   1.138
13707TIP3    H241067   7.088   2.043   1.041
13708TIP3   OH241068   1.849   0.718   2.264
13708TIP3    H141069   1.777   0.726   2.201
13708TIP3    H241070   1.902   0.796   2.250
13709TIP3   OH241071   1.493   4.234   4.330
13709TIP3    H141072   1.498   4.270   4.419
13709TIP3    H241073   1.410   4.268   4.295
13710TIP3   OH241074   6.588   7.402   4.279
13710TIP3    H141075   6.506   7.353   4.284
13710TIP3    H241076   6.640   7.355   4.214
13711TIP3   OH241077   0.649   0.702   1.878
13711TIP3    H141078   0.635   0.637   1.947
13711TIP3    H241079   0.733   0.743   1.900
13712TIP3   OH241080   1.266   6.353   5.155
13712TIP3    H141081   1.210   6.424   5.123
13712TIP3    H241082   1.353   6.392   5.162
13713TIP3   OH241083   3.465   0.222   1.146
13713TIP3    H141084   3.491   0.175   1.225
13713TIP3    H241085   3.480   0.160   1.074
13714TIP3   OH241086   6.669   0.080   5.162
13714TIP3    H141087   6.578   0.062   5.139
13714TIP3    H241088   6.702  -0.002   5.197
13715TIP3   OH241089   3.041   6.918   2.092
13715TIP3    H141090   3.084   6.846   2.047
13715TIP3    H241091   3.089   6.996   2.065
13716TIP3   OH241092   7.386   6.154   2.141
13716TIP3    H141093   7.386   6.218   2.070
13716TIP3    H241094   7.380   6.069   2.097
13717TIP3   OH241095   1.233   6.769   3.175
13717TIP3    H141096   1.198   6.718   3.248
13717TIP3    H241097   1.248   6.856   3.212
13718TIP3   OH241098   7.436   5.738   5.294
13718TIP3    H141099   7.477   5.681   5.228
13718TIP3    H241100   7.342   5.718   5.288
13719TIP3   OH241101   4.322   6.620   2.320
13719TIP3    H141102   4.397   6.573   2.356
13719TIP3    H241103   4.251   6.604   2.383
13720TIP3   OH241104   6.375   5.795   5.398
13720TIP3    H141105   6.438   5.805   5.469
13720TIP3    H241106   6.364   5.884   5.364
13721TIP3   OH241107   1.075   3.861   6.570
13721TIP3    H141108   1.139   3.813   6.622
13721TIP3    H241109   1.119   3.881   6.488
13722TIP3   OH241110   6.728   7.034   2.516
13722TIP3    H141111   6.662   6.978   2.558
13722TIP3    H241112   6.690   7.054   2.430
13723TIP3   OH241113   2.177   3.469   2.186
13723TIP3    H141114   2.147   3.428   2.105
13723TIP3    H241115   2.124   3.548   2.193
13724TIP3   OH241116   2.808   4.194   6.644
13724TIP3    H141117   2.878   4.145   6.688
13724TIP3    H241118   2.798   4.272   6.698
13725TIP3   OH241119   3.702   7.408   6.484
13725TIP3    H141120   3.781   7.461   6.495
13725TIP3    H241121   3.652   7.453   6.415
13726TIP3   OH241122   3.304   5.514   4.239
13726TIP3    H141123   3.320   5.533   4.331
13726TIP3    H241124   3.391   5.510   4.199
13727TIP3   OH241125   2.764   1.216   5.284
13727TIP3    H141126   2.776   1.301   5.326
13727TIP3    H241127   2.849   1.172   5.293
13728TIP3   OH241128   7.851   6.828   0.635
13728TIP3    H141129   7.834   6.835   0.729
13728TIP3    H241130   7.886   6.740   0.624
13729TIP3   OH241131   5.479   0.336   1.009
13729TIP3    H141132   5.560   0.304   0.969
13729TIP3    H241133   5.411   0.317   0.945
13730TIP3   OH241134   7.409   1.997   3.496
13730TIP3    H141135   7.422   1.934   3.425
13730TIP3    H241136   7.467   1.967   3.566
13731TIP3   OH241137   3.748   7.640   5.875
13731TIP3    H141138   3.793   7.686   5.804
13731TIP3    H241139   3.769   7.690   5.954
13732TIP3   OH241140   8.189   6.474   3.831
13732TIP3    H141141   8.256   6.521   3.880
13732TIP3    H241142   8.108   6.489   3.880
13733TIP3   OH241143   8.192   1.566   6.085
13733TIP3    H141144   8.141   1.641   6.117
13733TIP3    H241145   8.270   1.565   6.141
13734TIP3   OH241146   4.737   1.712   3.857
13734TIP3    H141147   4.663   1.773   3.849
13734TIP3    H241148   4.805   1.763   3.900
13735TIP3   OH241149   2.497   6.448   2.089
13735TIP3    H141150   2.518   6.456   2.182
13735TIP3    H241151   2.571   6.488   2.043
13736TIP3   OH241152   4.241   3.156   4.925
13736TIP3    H141153   4.269   3.075   4.883
13736TIP3    H241154   4.192   3.127   5.002
13737TIP3   OH241155   8.090   2.650   6.740
13737TIP3    H141156   8.123   2.566   6.771
13737TIP3    H241157   8.112   2.651   6.647
13738TIP3   OH241158   7.565   0.695   4.110
13738TIP3    H141159   7.547   0.785   4.138
13738TIP3    H241160   7.659   0.684   4.125
13739TIP3   OH241161   4.356   5.656   2.260
13739TIP3    H141162   4.415   5.592   2.221
13739TIP3    H241163   4.290   5.672   2.193
13740TIP3   OH241164   8.171   4.507   5.202
13740TIP3    H141165   8.246   4.457   5.235
13740TIP3    H241166   8.145   4.462   5.121
13741TIP3   OH241167   2.869   1.318   1.720
13741TIP3    H141168   2.797   1.255   1.728
13741TIP3    H241169   2.947   1.269   1.744
13742TIP3   OH241170   6.777   3.870   4.974
13742TIP3    H141171   6.703   3.879   4.913
13742TIP3    H241172   6.741   3.822   5.048
13743TIP3   OH241173   8.208   2.500   3.578
13743TIP3    H141174   8.270   2.447   3.629
13743TIP3    H241175   8.170   2.560   3.642
13744TIP3   OH241176   4.096   6.252   4.053
13744TIP3    H141177   4.063   6.241   4.143
13744TIP3    H241178   4.129   6.165   4.029
13745TIP3   OH241179   6.328   7.645   4.018
13745TIP3    H141180   6.405   7.685   3.978
13745TIP3    H241181   6.259   7.653   3.953
13746TIP3   OH241182   6.196   7.649   4.888
13746TIP3    H141183   6.149   7.657   4.805
13746TIP3    H241184   6.261   7.719   4.885
13747TIP3   OH241185   4.374   1.869   0.824
13747TIP3    H141186   4.293   1.897   0.782
13747TIP3    H241187   4.398   1.788   0.779
13748TIP3   OH241188   2.609   7.260   2.439
13748TIP3    H141189   2.565   7.339   2.470
13748TIP3    H241190   2.632   7.280   2.348
13749TIP3   OH241191   3.430   3.682   6.631
13749TIP3    H141192   3.495   3.614   6.618
13749TIP3    H241193   3.424   3.726   6.546
13750TIP3   OH241194   6.870   6.707   6.360
13750TIP3    H141195   6.850   6.801   6.363
13750TIP3    H241196   6.965   6.703   6.348
13751TIP3   OH241197   4.220   5.874   1.583
13751TIP3    H141198   4.222   5.969   1.593
13751TIP3    H241199   4.312   5.848   1.575
13752TIP3   OH241200   2.079   7.764   2.153
13752TIP3    H141201   2.117   7.845   2.120
13752TIP3    H241202   2.033   7.790   2.233
13753TIP3   OH241203   1.227   1.561   3.585
13753TIP3    H141204   1.207   1.497   3.517
13753TIP3    H241205   1.311   1.532   3.621
13754TIP3   OH241206   2.501   7.258   6.403
13754TIP3    H141207   2.455   7.341   6.394
13754TIP3    H241208   2.460   7.201   6.338
13755TIP3   OH241209   1.804   7.412   2.054
13755TIP3    H141210   1.789   7.505   2.040
13755TIP3    H241211   1.720   7.370   2.034
13756TIP3   OH241212   2.906   6.430   0.749
13756TIP3    H141213   2.813   6.448   0.737
13756TIP3    H241214   2.944   6.444   0.662
13757TIP3   OH241215   4.767   2.493   6.573
13757TIP3    H141216   4.700   2.430   6.548
13757TIP3    H241217   4.719   2.568   6.608
13758TIP3   OH241218   6.583   0.173   1.225
13758TIP3    H141219   6.644   0.246   1.211
13758TIP3    H241220   6.579   0.128   1.141
13759TIP3   OH241221   2.885   0.171   5.123
13759TIP3    H141222   2.835   0.101   5.164
13759TIP3    H241223   2.959   0.128   5.081
13760TIP3   OH241224   1.135   2.172   5.724
13760TIP3    H141225   1.154   2.142   5.813
13760TIP3    H241226   1.055   2.124   5.699
13761TIP3   OH241227   0.743   3.391   5.515
13761TIP3    H141228   0.736   3.341   5.433
13761TIP3    H241229   0.730   3.325   5.583
13762TIP3   OH241230   3.271   3.973   6.094
13762TIP3    H141231   3.245   3.919   6.018
13762TIP3    H241232   3.366   3.971   6.093
13763TIP3   OH241233   5.927   1.960   3.782
13763TIP3    H141234   5.832   1.962   3.793
13763TIP3    H241235   5.943   2.011   3.703
13764TIP3   OH241236   2.939   4.348   3.733
13764TIP3    H141237   2.873   4.388   3.677
13764TIP3    H241238   2.934   4.254   3.713
13765TIP3   OH241239   3.847   4.087   4.062
13765TIP3    H141240   3.892   4.016   4.108
13765TIP3    H241241   3.764   4.097   4.110
13766TIP3   OH241242   0.064   6.599   6.550
13766TIP3    H141243   0.104   6.684   6.567
13766TIP3    H241244   0.122   6.536   6.593
13767TIP3   OH241245   2.107   1.296   0.819
13767TIP3    H141246   2.115   1.230   0.750
13767TIP3    H241247   2.020   1.281   0.856
13768TIP3   OH241248   1.778   2.903   5.012
13768TIP3    H141249   1.828   2.880   4.934
13768TIP3    H241250   1.688   2.911   4.982
13769TIP3   OH241251   3.441   7.076   6.102
13769TIP3    H141252   3.486   7.159   6.088
13769TIP3    H241253   3.433   7.037   6.015
13770TIP3   OH241254   3.425   7.711   0.372
13770TIP3    H141255   3.504   7.744   0.329
13770TIP3    H241256   3.414   7.623   0.336
13771TIP3   OH241257   6.273   7.112   2.925
13771TIP3    H141258   6.328   7.190   2.936
13771TIP3    H241259   6.335   7.040   2.916
13772TIP3   OH241260   5.591   5.240   2.455
13772TIP3    H141261   5.603   5.233   2.550
13772TIP3    H241262   5.567   5.331   2.440
13773TIP3   OH241263   3.426   5.759   2.353
13773TIP3    H141264   3.338   5.722   2.361
13773TIP3    H241265   3.484   5.685   2.372
13774TIP3   OH241266   2.581   1.844   3.976
13774TIP3    H141267   2.525   1.874   4.048
13774TIP3    H241268   2.569   1.749   3.973
13775TIP3   OH241269   1.046   6.285   4.164
13775TIP3    H141270   1.104   6.345   4.117
13775TIP3    H241271   1.081   6.198   4.142
13776TIP3   OH241272   0.355   0.590   3.726
13776TIP3    H141273   0.398   0.604   3.641
13776TIP3    H241274   0.268   0.557   3.703
13777TIP3   OH241275   1.255   6.978   5.152
13777TIP3    H141276   1.317   6.953   5.083
13777TIP3    H241277   1.190   7.032   5.108
13778TIP3   OH241278   6.847   7.641   6.298
13778TIP3    H141279   6.894   7.616   6.378
13778TIP3    H241280   6.824   7.733   6.312
13779TIP3   OH241281   0.042   1.148   5.910
13779TIP3    H141282  -0.002   1.125   5.992
13779TIP3    H241283   0.131   1.171   5.936
13780TIP3   OH241284   2.240   0.045   1.606
13780TIP3    H141285   2.193  -0.009   1.670
13780TIP3    H241286   2.319  -0.006   1.585
13781TIP3   OH241287   6.501   1.753   2.171
13781TIP3    H141288   6.465   1.709   2.093
13781TIP3    H241289   6.588   1.715   2.182
13782TIP3   OH241290   0.391   5.815   3.825
13782TIP3    H141291   0.309   5.767   3.832
13782TIP3    H241292   0.364   5.903   3.798
13783TIP3   OH241293   5.321   2.354   2.019
13783TIP3    H141294   5.240   2.316   1.988
13783TIP3    H241295   5.386   2.284   2.012
13784TIP3   OH241296   2.396   7.772   0.535
13784TIP3    H141297   2.436   7.858   0.523
13784TIP3    H241298   2.446   7.714   0.478
13785TIP3   OH241299   7.611   3.203   4.574
13785TIP3    H141300   7.556   3.181   4.649
13785TIP3    H241301   7.590   3.136   4.508
13786TIP3   OH241302   1.904   6.621   6.632
13786TIP3    H141303   1.858   6.548   6.592
13786TIP3    H241304   1.994   6.591   6.641
13787TIP3   OH241305   2.657   0.380   1.351
13787TIP3    H141306   2.639   0.473   1.367
13787TIP3    H241307   2.582   0.335   1.390
13788TIP3   OH241308   4.677   4.920   0.904
13788TIP3    H141309   4.637   4.978   0.969
13788TIP3    H241310   4.603   4.878   0.861
13789TIP3   OH241311   1.302   1.211   5.937
13789TIP3    H141312   1.387   1.247   5.910
13789TIP3    H241313   1.311   1.196   6.031
13790TIP3   OH241314   6.711   0.850   0.643
13790TIP3    H141315   6.670   0.776   0.600
13790TIP3    H241316   6.637   0.904   0.674
13791TIP3   OH241317   4.121   7.685   0.680
13791TIP3    H141318   4.187   7.627   0.719
13791TIP3    H241319   4.056   7.697   0.749
13792TIP3   OH241320   2.776   2.401   3.176
13792TIP3    H141321   2.862   2.373   3.146
13792TIP3    H241322   2.794   2.465   3.245
13793TIP3   OH241323   0.778   6.778   1.286
13793TIP3    H141324   0.863   6.793   1.328
13793TIP3    H241325   0.798   6.779   1.192
13794TIP3   OH241326   0.064   1.785   5.313
13794TIP3    H141327  -0.009   1.745   5.360
13794TIP3    H241328   0.100   1.849   5.375
13795TIP3   OH241329   4.372   3.293   3.152
13795TIP3    H141330   4.278   3.276   3.147
13795TIP3    H241331   4.402   3.242   3.227
13796TIP3   OH241332   6.234   7.005   3.961
13796TIP3    H141333   6.253   7.082   3.908
13796TIP3    H241334   6.140   7.010   3.978
13797TIP3   OH241335   2.206   3.080   1.101
13797TIP3    H141336   2.217   2.999   1.051
13797TIP3    H241337   2.295   3.113   1.113
13798TIP3   OH241338   2.889   7.398   3.313
13798TIP3    H141339   2.813   7.374   3.367
13798TIP3    H241340   2.893   7.493   3.319
13799TIP3   OH241341   3.433   6.735   1.854
13799TIP3    H141342   3.462   6.673   1.921
13799TIP3    H241343   3.394   6.679   1.787
13800TIP3   OH241344   1.354   1.178   6.205
13800TIP3    H141345   1.424   1.124   6.240
13800TIP3    H241346   1.302   1.203   6.282
13801TIP3   OH241347   0.013   4.225   3.879
13801TIP3    H141348  -0.037   4.243   3.959
13801TIP3    H241349   0.104   4.242   3.904
13802TIP3   OH241350   2.617   5.716   6.683
13802TIP3    H141351   2.631   5.799   6.728
13802TIP3    H241352   2.573   5.661   6.749
13803TIP3   OH241353   1.428   3.494   2.321
13803TIP3    H141354   1.374   3.559   2.365
13803TIP3    H241355   1.380   3.473   2.241
13804TIP3   OH241356   5.386   1.130   2.941
13804TIP3    H141357   5.424   1.143   3.028
13804TIP3    H241358   5.296   1.163   2.949
13805TIP3   OH241359   5.893   2.358   0.444
13805TIP3    H141360   5.984   2.337   0.424
13805TIP3    H241361   5.856   2.276   0.477
13806TIP3   OH241362   7.348   1.254   4.736
13806TIP3    H141363   7.272   1.261   4.678
13806TIP3    H241364   7.320   1.193   4.805
13807TIP3   OH241365   6.729   1.921   0.133
13807TIP3    H141366   6.709   1.957   0.046
13807TIP3    H241367   6.764   1.996   0.182
13808TIP3   OH241368   4.332   1.984   1.058
13808TIP3    H141369   4.329   1.902   1.107
13808TIP3    H241370   4.339   1.956   0.966
13809TIP3   OH241371   0.718   0.274   5.000
13809TIP3    H141372   0.720   0.341   4.932
13809TIP3    H241373   0.633   0.284   5.042
13810TIP3   OH241374   3.883   1.579   6.545
13810TIP3    H141375   3.804   1.525   6.551
13810TIP3    H241376   3.871   1.646   6.612
13811TIP3   OH241377   0.173   1.341   2.554
13811TIP3    H141378   0.219   1.258   2.562
13811TIP3    H241379   0.219   1.401   2.612
13812TIP3   OH241380   2.725   7.336   3.074
13812TIP3    H141381   2.737   7.394   2.999
13812TIP3    H241382   2.805   7.346   3.126
13813TIP3   OH241383   0.221   5.221   3.516
13813TIP3    H141384   0.200   5.130   3.538
13813TIP3    H241385   0.305   5.237   3.559
13814TIP3   OH241386   4.879   0.569   2.170
13814TIP3    H141387   4.936   0.600   2.100
13814TIP3    H241388   4.932   0.576   2.249
13815TIP3   OH241389   6.742   2.880   3.480
13815TIP3    H141390   6.765   2.790   3.502
13815TIP3    H241391   6.813   2.910   3.422
13816TIP3   OH241392   3.011   3.667   5.160
13816TIP3    H141393   3.008   3.587   5.212
13816TIP3    H241394   2.931   3.666   5.109
13817TIP3   OH241395   4.569   0.547   4.469
13817TIP3    H141396   4.553   0.534   4.563
13817TIP3    H241397   4.490   0.515   4.427
13818TIP3   OH241398   8.249   2.266   1.743
13818TIP3    H141399   8.310   2.250   1.815
13818TIP3    H241400   8.222   2.179   1.714
13819TIP3   OH241401   1.360   3.455   1.345
13819TIP3    H141402   1.368   3.467   1.250
13819TIP3    H241403   1.377   3.542   1.381
13820TIP3   OH241404   4.017   0.754   1.245
13820TIP3    H141405   4.076   0.731   1.174
13820TIP3    H241406   4.069   0.742   1.325
13821TIP3   OH241407   7.660   1.963   3.959
13821TIP3    H141408   7.745   1.936   3.994
13821TIP3    H241409   7.648   2.052   3.993
13822TIP3   OH241410   4.503   6.143   1.615
13822TIP3    H141411   4.410   6.144   1.637
13822TIP3    H241412   4.541   6.213   1.669
13823TIP3   OH241413   3.891   6.913   3.936
13823TIP3    H141414   3.840   6.848   3.889
13823TIP3    H241415   3.844   6.995   3.922
13824TIP3   OH241416   1.833   6.946   5.146
13824TIP3    H141417   1.803   6.919   5.233
13824TIP3    H241418   1.755   6.981   5.103
13825TIP3   OH241419   7.068   2.730   5.867
13825TIP3    H141420   7.062   2.710   5.961
13825TIP3    H241421   7.102   2.650   5.827
13826TIP3   OH241422   2.206   6.984   0.957
13826TIP3    H141423   2.269   7.032   1.011
13826TIP3    H241424   2.149   7.052   0.921
13827TIP3   OH241425   3.894   1.664   0.236
13827TIP3    H141426   3.808   1.667   0.278
13827TIP3    H241427   3.876   1.648   0.144
13828TIP3   OH241428   3.648   7.358   5.894
13828TIP3    H141429   3.592   7.344   5.970
13828TIP3    H241430   3.713   7.421   5.923
13829TIP3   OH241431   2.707   0.895   2.013
13829TIP3    H141432   2.782   0.941   2.050
13829TIP3    H241433   2.744   0.837   1.947
13830TIP3   OH241434   3.179   0.087   4.540
13830TIP3    H141435   3.179   0.121   4.630
13830TIP3    H241436   3.259   0.034   4.535
13831TIP3   OH241437   8.075   6.638   5.022
13831TIP3    H141438   8.125   6.663   5.099
13831TIP3    H241439   8.141   6.607   4.959
13832TIP3   OH241440   0.741   2.707   2.677
13832TIP3    H141441   0.746   2.618   2.641
13832TIP3    H241442   0.650   2.733   2.663
13833TIP3   OH241443   3.241   6.377   2.482
13833TIP3    H141444   3.250   6.305   2.419
13833TIP3    H241445   3.330   6.400   2.506
13834TIP3   OH241446   6.576   3.973   0.601
13834TIP3    H141447   6.542   4.013   0.682
13834TIP3    H241448   6.643   4.034   0.571
13835TIP3   OH241449   2.774   2.887   1.265
13835TIP3    H141450   2.706   2.841   1.315
13835TIP3    H241451   2.843   2.904   1.328
13836TIP3   OH241452   6.238   7.359   4.871
13836TIP3    H141453   6.219   7.453   4.878
13836TIP3    H241454   6.157   7.316   4.899
13837TIP3   OH241455   3.414   1.811   3.843
13837TIP3    H141456   3.350   1.821   3.913
13837TIP3    H241457   3.475   1.884   3.857
13838TIP3   OH241458   1.953   2.916   5.583
13838TIP3    H141459   1.944   2.883   5.494
13838TIP3    H241460   1.870   2.961   5.600
13839TIP3   OH241461   2.087   7.693   3.497
13839TIP3    H141462   2.124   7.636   3.563
13839TIP3    H241463   2.016   7.642   3.458
13840TIP3   OH241464   1.465   1.507   0.005
13840TIP3    H141465   1.549   1.468  -0.019
13840TIP3    H241466   1.453   1.484   0.097
13841TIP3   OH241467   0.203   4.267   4.429
13841TIP3    H141468   0.263   4.195   4.451
13841TIP3    H241469   0.117   4.235   4.456
13842TIP3   OH241470   4.884   5.577   0.975
13842TIP3    H141471   4.883   5.486   1.006
13842TIP3    H241472   4.872   5.570   0.880
13843TIP3   OH241473   1.922   3.220   0.201
13843TIP3    H141474   1.871   3.236   0.121
13843TIP3    H241475   2.007   3.258   0.183
13844TIP3   OH241476   6.504   5.585   5.559
13844TIP3    H141477   6.562   5.509   5.558
13844TIP3    H241478   6.477   5.596   5.468
13845TIP3   OH241479   2.171   6.164   6.029
13845TIP3    H141480   2.157   6.156   6.123
13845TIP3    H241481   2.178   6.074   5.998
13846TIP3   OH241482   3.811   4.763   6.764
13846TIP3    H141483   3.726   4.798   6.736
13846TIP3    H241484   3.850   4.834   6.816
13847TIP3   OH241485   2.150   2.894   4.153
13847TIP3    H141486   2.208   2.954   4.106
13847TIP3    H241487   2.208   2.824   4.183
13848TIP3   OH241488   4.089   6.537   4.117
13848TIP3    H141489   4.111   6.477   4.188
13848TIP3    H241490   3.994   6.545   4.120
13849TIP3   OH241491   8.008   2.945   0.495
13849TIP3    H141492   7.950   3.021   0.496
13849TIP3    H241493   8.052   2.949   0.410
13850TIP3   OH241494   4.008   3.810   1.604
13850TIP3    H141495   3.924   3.820   1.651
13850TIP3    H241496   4.057   3.889   1.628
13851TIP3   OH241497   7.757   3.011   1.017
13851TIP3    H141498   7.749   3.106   1.015
13851TIP3    H241499   7.696   2.983   1.085
13852TIP3   OH241500   1.182   0.120   0.329
13852TIP3    H141501   1.172   0.183   0.399
13852TIP3    H241502   1.217   0.171   0.256
13853TIP3   OH241503   7.072   5.964   5.916
13853TIP3    H141504   6.982   5.952   5.887
13853TIP3    H241505   7.112   5.877   5.910
13854TIP3   OH241506   4.811   4.427   5.294
13854TIP3    H141507   4.855   4.413   5.210
13854TIP3    H241508   4.879   4.412   5.360
13855TIP3   OH241509   1.629   5.218   5.863
13855TIP3    H141510   1.639   5.132   5.905
13855TIP3    H241511   1.542   5.247   5.889
13856TIP3   OH241512   4.301   4.470   4.861
13856TIP3    H141513   4.230   4.533   4.875
13856TIP3    H241514   4.341   4.498   4.779
13857TIP3   OH241515   0.804   3.443   3.170
13857TIP3    H141516   0.771   3.359   3.202
13857TIP3    H241517   0.856   3.478   3.243
13858TIP3   OH241518   7.156   4.740   0.482
13858TIP3    H141519   7.210   4.670   0.518
13858TIP3    H241520   7.199   4.764   0.400
13859TIP3   OH241521   4.554   6.309   4.695
13859TIP3    H141522   4.473   6.322   4.645
13859TIP3    H241523   4.529   6.251   4.766
13860TIP3   OH241524   3.419   3.167   1.433
13860TIP3    H141525   3.505   3.193   1.400
13860TIP3    H241526   3.434   3.082   1.476
13861TIP3   OH241527   0.272   5.586   4.062
13861TIP3    H141528   0.190   5.538   4.047
13861TIP3    H241529   0.323   5.570   3.982
13862TIP3   OH241530   3.975   6.239   4.294
13862TIP3    H141531   3.965   6.276   4.382
13862TIP3    H241532   3.917   6.164   4.292
13863TIP3   OH241533   7.032   4.747   4.859
13863TIP3    H141534   7.019   4.701   4.776
13863TIP3    H241535   7.027   4.840   4.835
13864TIP3   OH241536   6.727   2.649   0.651
13864TIP3    H141537   6.795   2.582   0.661
13864TIP3    H241538   6.650   2.609   0.691
13865TIP3   OH241539   2.378   0.631   0.319
13865TIP3    H141540   2.416   0.661   0.401
13865TIP3    H241541   2.433   0.556   0.294
13866TIP3   OH241542   5.748   4.234   2.446
13866TIP3    H141543   5.793   4.308   2.405
13866TIP3    H241544   5.670   4.273   2.485
13867TIP3   OH241545   0.388   4.496   2.108
13867TIP3    H141546   0.386   4.406   2.075
13867TIP3    H241547   0.296   4.522   2.108
13868TIP3   OH241548   1.196   5.504   3.580
13868TIP3    H141549   1.106   5.471   3.582
13868TIP3    H241550   1.231   5.471   3.498
13869TIP3   OH241551   1.866   0.581   6.707
13869TIP3    H141552   1.814   0.621   6.777
13869TIP3    H241553   1.948   0.556   6.749
13870TIP3   OH241554   4.724   1.938   4.742
13870TIP3    H141555   4.797   1.896   4.696
13870TIP3    H241556   4.757   2.025   4.765
13871TIP3   OH241557   5.156   5.424   3.448
13871TIP3    H141558   5.223   5.492   3.458
13871TIP3    H241559   5.076   5.472   3.426
13872TIP3   OH241560   6.271   2.209   5.006
13872TIP3    H141561   6.177   2.224   5.014
13872TIP3    H241562   6.290   2.225   4.914
13873TIP3   OH241563  -0.006   7.238   5.861
13873TIP3    H141564  -0.031   7.318   5.907
13873TIP3    H241565   0.080   7.258   5.824
13874TIP3   OH241566   4.424   2.575   0.992
13874TIP3    H141567   4.443   2.486   0.962
13874TIP3    H241568   4.329   2.577   1.003
13875TIP3   OH241569   3.942   6.072   3.845
13875TIP3    H141570   3.995   6.135   3.895
13875TIP3    H241571   3.985   6.068   3.760
13876TIP3   OH241572   5.682   1.501   6.642
13876TIP3    H141573   5.740   1.576   6.631
13876TIP3    H241574   5.730   1.428   6.602
13877TIP3   OH241575   5.553   7.727   2.243
13877TIP3    H141576   5.588   7.796   2.299
13877TIP3    H241577   5.621   7.659   2.243
13878TIP3   OH241578   8.329   7.430   2.064
13878TIP3    H141579   8.314   7.336   2.077
13878TIP3    H241580   8.244   7.465   2.037
13879TIP3   OH241581   5.722   4.773   5.915
13879TIP3    H141582   5.682   4.832   5.850
13879TIP3    H241583   5.731   4.690   5.869
13880TIP3   OH241584   4.854   0.014   3.022
13880TIP3    H141585   4.922  -0.042   3.058
13880TIP3    H241586   4.901   0.083   2.975
13881TIP3   OH241587   7.152   1.126   3.203
13881TIP3    H141588   7.187   1.078   3.128
13881TIP3    H241589   7.058   1.130   3.188
13882TIP3   OH241590   3.031   4.581   2.133
13882TIP3    H141591   3.057   4.517   2.067
13882TIP3    H241592   2.952   4.544   2.172
13883TIP3   OH241593   1.374   2.011   2.588
13883TIP3    H141594   1.443   1.950   2.563
13883TIP3    H241595   1.312   2.008   2.515
13884TIP3   OH241596   0.740   4.140   5.374
13884TIP3    H141597   0.716   4.207   5.437
13884TIP3    H241598   0.761   4.188   5.294
13885TIP3   OH241599   0.914  -0.011   2.220
13885TIP3    H141600   0.936   0.079   2.199
13885TIP3    H241601   0.975  -0.064   2.168
13886TIP3   OH241602   4.516   4.625   3.570
13886TIP3    H141603   4.574   4.680   3.516
13886TIP3    H241604   4.510   4.672   3.653
13887TIP3   OH241605   5.485   7.795   6.253
13887TIP3    H141606   5.394   7.772   6.273
13887TIP3    H241607   5.535   7.718   6.281
13888TIP3   OH241608   2.770   6.201   0.372
13888TIP3    H141609   2.724   6.129   0.328
13888TIP3    H241610   2.701   6.264   0.392
13889TIP3   OH241611   1.235   4.387   0.267
13889TIP3    H141612   1.176   4.408   0.195
13889TIP3    H241613   1.178   4.369   0.341
13890TIP3   OH241614   4.116   2.128   6.065
13890TIP3    H141615   4.172   2.060   6.028
13890TIP3    H241616   4.090   2.094   6.150
13891TIP3   OH241617   7.515   4.610   3.769
13891TIP3    H141618   7.512   4.515   3.784
13891TIP3    H241619   7.523   4.619   3.674
13892TIP3   OH241620   1.021   7.856   2.830
13892TIP3    H141621   0.971   7.783   2.866
13892TIP3    H241622   0.979   7.875   2.746
13893TIP3   OH241623   0.828   4.752   4.171
13893TIP3    H141624   0.777   4.771   4.093
13893TIP3    H241625   0.858   4.839   4.201
13894TIP3   OH241626   5.313   0.863   4.345
13894TIP3    H141627   5.398   0.905   4.337
13894TIP3    H241628   5.253   0.934   4.368
13895TIP3   OH241629   1.586   1.241   5.742
13895TIP3    H141630   1.522   1.171   5.738
13895TIP3    H241631   1.567   1.287   5.824
13896TIP3   OH241632   7.453   6.109   6.191
13896TIP3    H141633   7.373   6.149   6.157
13896TIP3    H241634   7.519   6.179   6.188
13897TIP3   OH241635   1.165   6.510   1.234
13897TIP3    H141636   1.111   6.436   1.206
13897TIP3    H241637   1.162   6.571   1.160
13898TIP3   OH241638   5.302   6.232   5.941
13898TIP3    H141639   5.330   6.313   5.899
13898TIP3    H241640   5.348   6.232   6.025
13899TIP3   OH241641   2.469   4.574   1.127
13899TIP3    H141642   2.565   4.577   1.125
13899TIP3    H241643   2.444   4.546   1.039
13900TIP3   OH241644   8.081   5.028   6.359
13900TIP3    H141645   8.130   5.060   6.284
13900TIP3    H241646   8.089   4.933   6.354
13901TIP3   OH241647   3.316   4.139   2.836
13901TIP3    H141648   3.360   4.097   2.910
13901TIP3    H241649   3.358   4.224   2.828
13902TIP3   OH241650   3.453   2.794   1.271
13902TIP3    H141651   3.421   2.716   1.225
13902TIP3    H241652   3.514   2.834   1.209
13903TIP3   OH241653   1.943   3.534   0.250
13903TIP3    H141654   1.851   3.509   0.238
13903TIP3    H241655   1.966   3.579   0.169
13904TIP3   OH241656   3.803   1.307   5.123
13904TIP3    H141657   3.825   1.230   5.176
13904TIP3    H241658   3.770   1.371   5.186
13905TIP3   OH241659   3.007   4.281   5.815
13905TIP3    H141660   3.046   4.194   5.800
13905TIP3    H241661   3.031   4.301   5.906
13906TIP3   OH241662   1.661   5.065   3.163
13906TIP3    H141663   1.719   5.142   3.166
13906TIP3    H241664   1.717   4.992   3.190
13907TIP3   OH241665   6.892   6.876   4.561
13907TIP3    H141666   6.985   6.899   4.569
13907TIP3    H241667   6.845   6.957   4.579
13908TIP3   OH241668   4.058   4.648   3.864
13908TIP3    H141669   4.047   4.595   3.785
13908TIP3    H241670   4.104   4.592   3.925
13909TIP3   OH241671   5.843   6.333   3.216
13909TIP3    H141672   5.849   6.360   3.125
13909TIP3    H241673   5.931   6.304   3.239
13910TIP3   OH241674   7.526   5.345   5.735
13910TIP3    H141675   7.586   5.375   5.667
13910TIP3    H241676   7.560   5.259   5.760
13911TIP3   OH241677   1.396   0.946   4.321
13911TIP3    H141678   1.397   1.018   4.384
13911TIP3    H241679   1.488   0.936   4.294
13912TIP3   OH241680   3.415   0.416   3.964
13912TIP3    H141681   3.323   0.410   3.989
13912TIP3    H241682   3.449   0.490   4.015
13913TIP3   OH241683   6.567   1.423   0.031
13913TIP3    H141684   6.553   1.419   0.126
13913TIP3    H241685   6.587   1.515   0.014
13914TIP3   OH241686   1.884   7.193   6.089
13914TIP3    H141687   1.975   7.167   6.075
13914TIP3    H241688   1.836   7.150   6.019
13915TIP3   OH241689   1.890   3.151   2.634
13915TIP3    H141690   1.975   3.108   2.650
13915TIP3    H241691   1.895   3.179   2.542
13916TIP3   OH241692   2.795   4.546   5.403
13916TIP3    H141693   2.768   4.454   5.406
13916TIP3    H241694   2.861   4.553   5.472
13917TIP3   OH241695   6.794   1.153   2.572
13917TIP3    H141696   6.786   1.142   2.667
13917TIP3    H241697   6.814   1.065   2.539
13918TIP3   OH241698   0.929   2.767   4.587
13918TIP3    H141699   0.896   2.715   4.514
13918TIP3    H241700   0.851   2.811   4.622
13919TIP3   OH241701   0.489   2.567   3.018
13919TIP3    H141702   0.521   2.657   3.021
13919TIP3    H241703   0.478   2.542   3.110
13920TIP3   OH241704   0.990   7.442   5.902
13920TIP3    H141705   0.918   7.499   5.875
13920TIP3    H241706   1.040   7.494   5.965
13921TIP3   OH241707   3.351   1.898   3.359
13921TIP3    H141708   3.403   1.850   3.424
13921TIP3    H241709   3.323   1.977   3.405
13922TIP3   OH241710   2.981   6.328   4.492
13922TIP3    H141711   2.937   6.353   4.574
13922TIP3    H241712   2.914   6.337   4.425
13923TIP3   OH241713   2.222   1.780   3.952
13923TIP3    H141714   2.190   1.865   3.982
13923TIP3    H241715   2.317   1.788   3.953
13924TIP3   OH241716   7.868   7.670   0.855
13924TIP3    H141717   7.878   7.729   0.780
13924TIP3    H241718   7.786   7.623   0.837
13925TIP3   OH241719   0.623   7.807   5.740
13925TIP3    H141720   0.602   7.729   5.689
13925TIP3    H241721   0.574   7.796   5.821
13926TIP3   OH241722   0.538   5.001   4.759
13926TIP3    H141723   0.504   4.965   4.677
13926TIP3    H241724   0.461   5.008   4.816
13927TIP3   OH241725   5.942   0.616   3.810
13927TIP3    H141726   5.979   0.703   3.795
13927TIP3    H241727   6.000   0.557   3.763
13928TIP3   OH241728   1.579   1.025   6.242
13928TIP3    H141729   1.597   0.935   6.270
13928TIP3    H241730   1.616   1.030   6.153
13929TIP3   OH241731   1.665   4.571   2.109
13929TIP3    H141732   1.671   4.642   2.045
13929TIP3    H241733   1.756   4.550   2.131
13930TIP3   OH241734   7.189   6.070   3.434
13930TIP3    H141735   7.198   6.162   3.408
13930TIP3    H241736   7.248   6.023   3.375
13931TIP3   OH241737   4.848   1.454   3.901
13931TIP3    H141738   4.802   1.532   3.870
13931TIP3    H241739   4.936   1.462   3.863
13932TIP3   OH241740   4.820   6.467   5.557
13932TIP3    H141741   4.797   6.374   5.556
13932TIP3    H241742   4.827   6.491   5.464
13933TIP3   OH241743   2.261   2.414   0.893
13933TIP3    H141744   2.335   2.462   0.854
13933TIP3    H241745   2.197   2.408   0.823
13934TIP3   OH241746   4.574   6.250   2.259
13934TIP3    H141747   4.550   6.228   2.169
13934TIP3    H241748   4.668   6.233   2.264
13935TIP3   OH241749   6.372   3.841   2.420
13935TIP3    H141750   6.408   3.867   2.336
13935TIP3    H241751   6.352   3.748   2.410
13936TIP3   OH241752   5.523   0.389   4.500
13936TIP3    H141753   5.468   0.376   4.422
13936TIP3    H241754   5.530   0.484   4.510
13937TIP3   OH241755   4.421   1.309   3.378
13937TIP3    H141756   4.452   1.223   3.349
13937TIP3    H241757   4.329   1.295   3.402
13938TIP3   OH241758   4.068   6.322   2.010
13938TIP3    H141759   4.135   6.256   2.030
13938TIP3    H241760   4.009   6.279   1.949
13939TIP3   OH241761   6.782   4.964   4.439
13939TIP3    H141762   6.788   5.034   4.504
13939TIP3    H241763   6.871   4.951   4.408
13940TIP3   OH241764   8.028   5.322   4.758
13940TIP3    H141765   8.104   5.299   4.704
13940TIP3    H241766   8.060   5.317   4.848
13941TIP3   OH241767   7.410   3.278   3.390
13941TIP3    H141768   7.485   3.285   3.330
13941TIP3    H241769   7.362   3.360   3.378
13942TIP3   OH241770   7.071   6.080   6.688
13942TIP3    H141771   7.114   6.039   6.613
13942TIP3    H241772   7.015   6.011   6.724
13943TIP3   OH241773   3.101   6.396   5.719
13943TIP3    H141774   3.158   6.318   5.717
13943TIP3    H241775   3.015   6.363   5.692
13944TIP3   OH241776   3.506   6.139   4.918
13944TIP3    H141777   3.410   6.142   4.924
13944TIP3    H241778   3.535   6.221   4.957
13945TIP3   OH241779   6.769   7.084   1.898
13945TIP3    H141780   6.856   7.121   1.880
13945TIP3    H241781   6.709   7.140   1.848
13946TIP3   OH241782   4.169   7.556   4.345
13946TIP3    H141783   4.180   7.621   4.414
13946TIP3    H241784   4.196   7.473   4.384
13947TIP3   OH241785   5.754   2.590   5.809
13947TIP3    H141786   5.847   2.614   5.812
13947TIP3    H241787   5.708   2.670   5.835
13948TIP3   OH241788   7.095   1.927   3.527
13948TIP3    H141789   7.189   1.938   3.511
13948TIP3    H241790   7.089   1.852   3.586
13949TIP3   OH241791   4.689   5.012   6.520
13949TIP3    H141792   4.605   5.057   6.512
13949TIP3    H241793   4.742   5.070   6.575
13950TIP3   OH241794   4.189   7.601   0.240
13950TIP3    H141795   4.196   7.686   0.285
13950TIP3    H241796   4.145   7.544   0.303
13951TIP3   OH241797   3.609   7.547   4.650
13951TIP3    H141798   3.559   7.470   4.623
13951TIP3    H241799   3.679   7.554   4.585
13952TIP3   OH241800   3.034   7.772   4.577
13952TIP3    H141801   2.954   7.817   4.606
13952TIP3    H241802   3.102   7.803   4.638
13953TIP3   OH241803   1.593   5.124   4.047
13953TIP3    H141804   1.549   5.091   3.968
13953TIP3    H241805   1.657   5.187   4.014
13954TIP3   OH241806   4.595   7.592   2.697
13954TIP3    H141807   4.571   7.519   2.641
13954TIP3    H241808   4.562   7.669   2.650
13955TIP3   OH241809   4.729   4.418   4.774
13955TIP3    H141810   4.772   4.339   4.740
13955TIP3    H241811   4.644   4.420   4.731
13956TIP3   OH241812   3.713   3.746   2.219
13956TIP3    H141813   3.792   3.794   2.243
13956TIP3    H241814   3.651   3.764   2.290
13957TIP3   OH241815   2.015   4.631   6.198
13957TIP3    H141816   2.078   4.613   6.128
13957TIP3    H241817   1.956   4.697   6.161
13958TIP3   OH241818   8.071   2.893   3.211
13958TIP3    H141819   8.165   2.912   3.220
13958TIP3    H241820   8.041   2.956   3.145
13959TIP3   OH241821   3.302   1.012   5.697
13959TIP3    H141822   3.252   0.946   5.648
13959TIP3    H241823   3.391   0.978   5.698
13960TIP3   OH241824   7.487   4.812   0.669
13960TIP3    H141825   7.472   4.755   0.593
13960TIP3    H241826   7.435   4.890   0.650
13961TIP3   OH241827   4.267   0.767   1.636
13961TIP3    H141828   4.285   0.694   1.577
13961TIP3    H241829   4.257   0.843   1.579
13962TIP3   OH241830   0.088   6.239   0.402
13962TIP3    H141831   0.124   6.290   0.330
13962TIP3    H241832  -0.005   6.231   0.382
13963TIP3   OH241833   5.601   5.951   1.602
13963TIP3    H141834   5.687   5.977   1.569
13963TIP3    H241835   5.587   5.863   1.568
13964TIP3   OH241836   0.991   3.207   6.360
13964TIP3    H141837   0.920   3.261   6.393
13964TIP3    H241838   0.992   3.222   6.265
13965TIP3   OH241839   1.902   3.905   5.149
13965TIP3    H141840   1.852   3.987   5.146
13965TIP3    H241841   1.953   3.905   5.069
13966TIP3   OH241842   1.614   3.549   6.284
13966TIP3    H141843   1.645   3.596   6.207
13966TIP3    H241844   1.529   3.588   6.305
13967TIP3   OH241845   7.424   2.107   2.652
13967TIP3    H141846   7.434   2.127   2.745
13967TIP3    H241847   7.505   2.062   2.628
13968TIP3   OH241848   2.437   6.056   4.323
13968TIP3    H141849   2.360   6.073   4.378
13968TIP3    H241850   2.462   6.142   4.290
13969TIP3   OH241851   1.896   0.956   2.633
13969TIP3    H141852   1.963   1.003   2.684
13969TIP3    H241853   1.937   0.873   2.610
13970TIP3   OH241854   7.510   3.706   4.225
13970TIP3    H141855   7.530   3.745   4.140
13970TIP3    H241856   7.577   3.741   4.283
13971TIP3   OH241857   7.543   4.986   6.716
13971TIP3    H141858   7.548   5.034   6.799
13971TIP3    H241859   7.452   4.958   6.710
13972TIP3   OH241860   0.210   4.743   4.526
13972TIP3    H141861   0.266   4.816   4.500
13972TIP3    H241862   0.194   4.694   4.445
13973TIP3   OH241863   4.205   2.984   5.674
13973TIP3    H141864   4.141   3.026   5.616
13973TIP3    H241865   4.197   2.891   5.655
13974TIP3   OH241866   7.141   3.663   5.563
13974TIP3    H141867   7.171   3.586   5.514
13974TIP3    H241868   7.112   3.724   5.495
13975TIP3   OH241869   5.038   6.249   3.593
13975TIP3    H141870   5.127   6.254   3.628
13975TIP3    H241871   4.982   6.266   3.669
13976TIP3   OH241872   5.331   5.331   5.899
13976TIP3    H141873   5.254   5.366   5.853
13976TIP3    H241874   5.390   5.406   5.906
13977TIP3   OH241875   1.632   5.946   0.027
13977TIP3    H141876   1.691   6.021   0.034
13977TIP3    H241877   1.646   5.897   0.108
13978TIP3   OH241878   3.569   1.084   3.296
13978TIP3    H141879   3.535   1.152   3.353
13978TIP3    H241880   3.620   1.131   3.230
13979TIP3   OH241881   7.173   1.736   0.583
13979TIP3    H141882   7.260   1.703   0.604
13979TIP3    H241883   7.113   1.675   0.624
13980TIP3   OH241884   5.606   2.037   1.097
13980TIP3    H141885   5.638   2.099   1.032
13980TIP3    H241886   5.682   2.022   1.154
13981TIP3   OH241887   2.928   1.006   2.219
13981TIP3    H141888   2.927   0.986   2.313
13981TIP3    H241889   2.986   1.082   2.211
13982TIP3   OH241890   8.149   5.984   6.602
13982TIP3    H141891   8.173   6.020   6.516
13982TIP3    H241892   8.074   5.928   6.585
13983TIP3   OH241893   7.246   7.428   1.141
13983TIP3    H141894   7.173   7.372   1.115
13983TIP3    H241895   7.248   7.421   1.236
13984TIP3   OH241896   7.004   0.875   0.638
13984TIP3    H141897   7.033   0.859   0.548
13984TIP3    H241898   6.910   0.887   0.632
13985TIP3   OH241899   4.504   2.229   1.600
13985TIP3    H141900   4.445   2.159   1.572
13985TIP3    H241901   4.548   2.257   1.520
13986TIP3   OH241902   7.643   5.706   4.212
13986TIP3    H141903   7.626   5.789   4.165
13986TIP3    H241904   7.697   5.732   4.286
13987TIP3   OH241905   7.353   0.424   5.676
13987TIP3    H141906   7.354   0.334   5.644
13987TIP3    H241907   7.260   0.447   5.680
13988TIP3   OH241908   0.973   0.587   2.683
13988TIP3    H141909   1.008   0.522   2.622
13988TIP3    H241910   0.885   0.556   2.704
13989TIP3   OH241911   4.727   0.526   5.891
13989TIP3    H141912   4.709   0.548   5.982
13989TIP3    H241913   4.703   0.604   5.842
13990TIP3   OH241914   0.007   0.399   5.123
13990TIP3    H141915   0.098   0.424   5.138
13990TIP3    H241916  -0.035   0.410   5.208
13991TIP3   OH241917   7.364   3.100   4.746
13991TIP3    H141918   7.376   3.012   4.710
13991TIP3    H241919   7.438   3.112   4.805
13992TIP3   OH241920   0.497   2.173   5.331
13992TIP3    H141921   0.432   2.243   5.325
13992TIP3    H241922   0.549   2.182   5.251
13993TIP3   OH241923   1.595   0.318   2.671
13993TIP3    H141924   1.654   0.370   2.726
13993TIP3    H241925   1.508   0.332   2.710
13994TIP3   OH241926   4.415   6.282   2.833
13994TIP3    H141927   4.479   6.272   2.762
13994TIP3    H241928   4.462   6.332   2.900
13995TIP3   OH241929   5.825   0.366   3.886
13995TIP3    H141930   5.858   0.361   3.797
13995TIP3    H241931   5.736   0.401   3.877
13996TIP3   OH241932   4.974   5.592   3.277
13996TIP3    H141933   4.921   5.658   3.322
13996TIP3    H241934   5.044   5.642   3.235
13997TIP3   OH241935   6.669   4.512   0.770
13997TIP3    H141936   6.764   4.510   0.779
13997TIP3    H241937   6.647   4.604   0.759
13998TIP3   OH241938   0.325   0.188   3.515
13998TIP3    H141939   0.261   0.227   3.456
13998TIP3    H241940   0.409   0.222   3.485
13999TIP3   OH241941   0.112   0.963   1.001
13999TIP3    H141942   0.150   1.050   1.015
13999TIP3    H241943   0.090   0.932   1.089
14000TIP3   OH241944   6.669   0.524   5.601
14000TIP3    H141945   6.687   0.518   5.507
14000TIP3    H241946   6.716   0.450   5.640
14001TIP3   OH241947   2.396   6.519   1.453
14001TIP3    H141948   2.450   6.454   1.408
14001TIP3    H241949   2.340   6.555   1.383
14002TIP3   OH241950   0.491   2.172   3.011
14002TIP3    H141951   0.531   2.204   2.930
14002TIP3    H241952   0.564   2.170   3.074
14003TIP3   OH241953   2.530   1.750   3.258
14003TIP3    H141954   2.623   1.730   3.274
14003TIP3    H241955   2.527   1.770   3.164
14004TIP3   OH241956   7.581   6.290   3.778
14004TIP3    H141957   7.544   6.208   3.744
14004TIP3    H241958   7.554   6.293   3.869
14005TIP3   OH241959   7.922   2.382   0.832
14005TIP3    H141960   7.965   2.344   0.755
14005TIP3    H241961   7.954   2.472   0.836
14006TIP3   OH241962   1.986   1.507   3.420
14006TIP3    H141963   2.018   1.478   3.335
14006TIP3    H241964   1.920   1.573   3.400
14007TIP3   OH241965   4.877   5.815   4.601
14007TIP3    H141966   4.965   5.795   4.633
14007TIP3    H241967   4.819   5.790   4.673
14008TIP3   OH241968   1.267   6.605   5.551
14008TIP3    H141969   1.255   6.595   5.456
14008TIP3    H241970   1.262   6.699   5.566
14009TIP3   OH241971   6.507   3.434   0.715
14009TIP3    H141972   6.502   3.512   0.660
14009TIP3    H241973   6.416   3.412   0.736
14010TIP3   OH241974   4.111   0.783   0.695
14010TIP3    H141975   4.156   0.699   0.690
14010TIP3    H241976   4.132   0.826   0.612
14011TIP3   OH241977   4.127   1.418   3.107
14011TIP3    H141978   4.106   1.494   3.052
14011TIP3    H241979   4.065   1.351   3.081
14012TIP3   OH241980   0.820   3.372   6.041
14012TIP3    H141981   0.864   3.455   6.022
14012TIP3    H241982   0.794   3.379   6.133
14013TIP3   OH241983   0.543   5.808   4.425
14013TIP3    H141984   0.601   5.862   4.372
14013TIP3    H241985   0.545   5.722   4.382
14014TIP3   OH241986   1.280   7.414   2.082
14014TIP3    H141987   1.290   7.460   2.165
14014TIP3    H241988   1.369   7.394   2.054
14015TIP3   OH241989   1.813   1.382   4.853
14015TIP3    H141990   1.904   1.411   4.854
14015TIP3    H241991   1.763   1.458   4.822
14016TIP3   OH241992   4.816   4.292   5.605
14016TIP3    H141993   4.902   4.303   5.563
14016TIP3    H241994   4.820   4.205   5.646
14017TIP3   OH241995   1.118   6.621   4.592
14017TIP3    H141996   1.095   6.569   4.515
14017TIP3    H241997   1.128   6.557   4.662
14018TIP3   OH241998   5.059   3.642   2.788
14018TIP3    H141999   5.093   3.571   2.843
14018TIP3    H242000   4.974   3.664   2.827
14019TIP3   OH242001   4.683   4.509   1.833
14019TIP3    H142002   4.597   4.486   1.868
14019TIP3    H242003   4.742   4.441   1.868
14020TIP3   OH242004   8.003   7.487   5.067
14020TIP3    H142005   7.957   7.461   4.987
14020TIP3    H242006   8.096   7.474   5.046
14021TIP3   OH242007   4.542   2.715   2.515
14021TIP3    H142008   4.578   2.639   2.560
14021TIP3    H242009   4.515   2.774   2.585
14022TIP3   OH242010   0.677   4.582   5.986
14022TIP3    H142011   0.593   4.620   5.962
14022TIP3    H242012   0.667   4.488   5.968
14023TIP3   OH242013   2.768   7.752   5.354
14023TIP3    H142014   2.771   7.658   5.375
14023TIP3    H242015   2.746   7.755   5.261
14024TIP3   OH242016   6.232   2.087   0.083
14024TIP3    H142017   6.295   2.063   0.015
14024TIP3    H242018   6.285   2.091   0.163
14025TIP3   OH242019   7.252   3.925   0.534
14025TIP3    H142020   7.275   3.834   0.513
14025TIP3    H242021   7.334   3.963   0.565
14026TIP3   OH242022   7.871   5.343   5.805
14026TIP3    H142023   7.830   5.429   5.798
14026TIP3    H242024   7.803   5.287   5.844
14027TIP3   OH242025   3.942   7.427   4.228
14027TIP3    H142026   3.933   7.335   4.202
14027TIP3    H242027   4.034   7.436   4.250
14028TIP3   OH242028   4.526   0.532   3.627
14028TIP3    H142029   4.524   0.440   3.652
14028TIP3    H242030   4.619   0.551   3.614
14029TIP3   OH242031   1.178   1.007   6.461
14029TIP3    H142032   1.093   1.048   6.472
14029TIP3    H242033   1.166   0.943   6.391
14030TIP3   OH242034   7.865   5.058   4.078
14030TIP3    H142035   7.809   5.068   4.000
14030TIP3    H242036   7.825   4.986   4.127
14031TIP3   OH242037   5.852   5.620   1.769
14031TIP3    H142038   5.904   5.582   1.839
14031TIP3    H242039   5.876   5.569   1.691
14032TIP3   OH242040   4.933   4.358   0.978
14032TIP3    H142041   4.868   4.296   0.945
14032TIP3    H242042   4.969   4.399   0.899
14033TIP3   OH242043   5.962   0.474   1.080
14033TIP3    H142044   5.929   0.390   1.046
14033TIP3    H242045   5.886   0.532   1.078
14034TIP3   OH242046   4.035   3.236   6.388
14034TIP3    H142047   4.092   3.165   6.359
14034TIP3    H242048   3.967   3.193   6.440
14035TIP3   OH242049   2.431   7.161   4.410
14035TIP3    H142050   2.470   7.096   4.351
14035TIP3    H242051   2.468   7.244   4.381
14036TIP3   OH242052   8.114   5.079   1.679
14036TIP3    H142053   8.050   5.124   1.624
14036TIP3    H242054   8.197   5.123   1.660
14037TIP3   OH242055   5.369   5.964   3.219
14037TIP3    H142056   5.395   6.011   3.140
14037TIP3    H242057   5.392   6.023   3.291
14038TIP3   OH242058   7.502   4.005   3.099
14038TIP3    H142059   7.523   4.095   3.072
14038TIP3    H242060   7.407   3.998   3.088
14039TIP3   OH242061   6.955   7.041   2.202
14039TIP3    H142062   6.865   7.070   2.193
14039TIP3    H242063   6.950   6.964   2.259
14040TIP3   OH242064   7.930   6.533   0.087
14040TIP3    H142065   7.957   6.602   0.146
14040TIP3    H242066   7.998   6.530   0.020
14041TIP3   OH242067   2.417   6.657   1.680
14041TIP3    H142068   2.398   6.576   1.633
14041TIP3    H242069   2.512   6.667   1.672
14042TIP3   OH242070   4.440   7.237   3.402
14042TIP3    H142071   4.493   7.293   3.345
14042TIP3    H242072   4.478   7.149   3.392
14043TIP3   OH242073   8.095   1.532   2.820
14043TIP3    H142074   8.159   1.464   2.844
14043TIP3    H242075   8.116   1.552   2.729
14044TIP3   OH242076   1.896   6.911   0.840
14044TIP3    H142077   1.905   7.000   0.807
14044TIP3    H242078   1.963   6.861   0.793
14045TIP3   OH242079   2.988   6.685   0.018
14045TIP3    H142080   2.957   6.699   0.107
14045TIP3    H242081   3.081   6.706   0.021
14046TIP3   OH242082   6.704   5.294   4.069
14046TIP3    H142083   6.615   5.263   4.087
14046TIP3    H242084   6.724   5.351   4.142
14047TIP3   OH242085   3.186   2.184   3.013
14047TIP3    H142086   3.270   2.227   3.025
14047TIP3    H242087   3.207   2.100   2.974
14048TIP3   OH242088   3.957   6.944   3.004
14048TIP3    H142089   4.007   6.934   2.924
14048TIP3    H242090   3.998   6.885   3.066
14049TIP3   OH242091   7.930   4.629   0.059
14049TIP3    H142092   7.849   4.679   0.050
14049TIP3    H242093   7.999   4.696   0.061
14050TIP3   OH242094   4.366   5.709   3.316
14050TIP3    H142095   4.285   5.659   3.321
14050TIP3    H242096   4.342   5.797   3.346
14051TIP3   OH242097   3.714   0.846   4.171
14051TIP3    H142098   3.791   0.807   4.129
14051TIP3    H242099   3.742   0.935   4.194
14052TIP3   OH242100   5.830   5.605   2.162
14052TIP3    H142101   5.925   5.612   2.152
14052TIP3    H242102   5.817   5.528   2.218
14053TIP3   OH242103   1.442   5.070   6.061
14053TIP3    H142104   1.436   4.977   6.082
14053TIP3    H242105   1.362   5.089   6.012
14054TIP3   OH242106   7.317   1.631   3.001
14054TIP3    H142107   7.309   1.540   3.028
14054TIP3    H242108   7.410   1.641   2.978
14055TIP3   OH242109   6.632   5.930   2.812
14055TIP3    H142110   6.558   5.937   2.751
14055TIP3    H242111   6.709   5.941   2.757
14056TIP3   OH242112   0.707   6.413   3.389
14056TIP3    H142113   0.628   6.434   3.439
14056TIP3    H242114   0.680   6.421   3.298
14057TIP3   OH242115   3.611   0.966   5.722
14057TIP3    H142116   3.594   1.037   5.784
14057TIP3    H242117   3.607   1.008   5.636
14058TIP3   OH242118   4.515   2.756   4.752
14058TIP3    H142119   4.467   2.832   4.721
14058TIP3    H242120   4.524   2.700   4.675
14059TIP3   OH242121   7.420   2.746   6.394
14059TIP3    H142122   7.342   2.800   6.403
14059TIP3    H242123   7.442   2.719   6.484
14060TIP3   OH242124   0.814   4.172   2.730
14060TIP3    H142125   0.840   4.143   2.817
14060TIP3    H242126   0.804   4.092   2.679
14061TIP3   OH242127   0.756   0.777   1.378
14061TIP3    H142128   0.758   0.690   1.417
14061TIP3    H242129   0.695   0.827   1.433
14062TIP3   OH242130   3.151   1.927   2.383
14062TIP3    H142131   3.115   1.999   2.331
14062TIP3    H242132   3.118   1.848   2.341
14063TIP3   OH242133   5.118   7.000   3.250
14063TIP3    H142134   5.050   6.990   3.184
14063TIP3    H242135   5.179   6.928   3.231
14064TIP3   OH242136   5.505   1.969   0.050
14064TIP3    H142137   5.453   1.971  -0.031
14064TIP3    H242138   5.576   2.032   0.034
14065TIP3   OH242139   5.822   2.902   0.363
14065TIP3    H142140   5.835   2.807   0.373
14065TIP3    H242141   5.772   2.911   0.282
14066TIP3   OH242142   2.641   7.673   5.683
14066TIP3    H142143   2.621   7.764   5.662
14066TIP3    H242144   2.580   7.622   5.630
14067TIP3   OH242145   6.544   1.463   1.287
14067TIP3    H142146   6.639   1.468   1.278
14067TIP3    H242147   6.512   1.449   1.198
14068TIP3   OH242148   2.271   5.022   4.813
14068TIP3    H142149   2.320   5.102   4.837
14068TIP3    H242150   2.254   5.032   4.719
14069TIP3   OH242151   5.057   6.685   0.408
14069TIP3    H142152   5.111   6.755   0.445
14069TIP3    H242153   5.005   6.728   0.340
14070TIP3   OH242154   3.651   3.030   5.837
14070TIP3    H142155   3.610   3.076   5.764
14070TIP3    H242156   3.587   2.964   5.863
14071TIP3   OH242157   1.735   7.747   4.586
14071TIP3    H142158   1.820   7.708   4.567
14071TIP3    H242159   1.671   7.682   4.557
14072TIP3   OH242160   5.156   1.292   6.731
14072TIP3    H142161   5.163   1.265   6.823
14072TIP3    H242162   5.150   1.210   6.683
14073TIP3   OH242163   2.432   2.415   0.489
14073TIP3    H142164   2.450   2.397   0.581
14073TIP3    H242165   2.409   2.331   0.451
14074TIP3   OH242166   2.187   2.345   1.133
14074TIP3    H142167   2.178   2.252   1.116
14074TIP3    H242168   2.222   2.382   1.052
14075TIP3   OH242169   6.163   5.603   6.315
14075TIP3    H142170   6.238   5.653   6.284
14075TIP3    H242171   6.113   5.583   6.236
14076TIP3   OH242172   4.044   2.197   4.311
14076TIP3    H142173   4.032   2.166   4.401
14076TIP3    H242174   4.136   2.221   4.305
14077TIP3   OH242175   1.670   5.856   5.309
14077TIP3    H142176   1.580   5.864   5.340
14077TIP3    H242177   1.675   5.768   5.273
14078TIP3   OH242178   3.284   6.659   1.608
14078TIP3    H142179   3.322   6.616   1.532
14078TIP3    H242180   3.191   6.668   1.587
14079TIP3   OH242181   5.434   4.479   6.452
14079TIP3    H142182   5.477   4.564   6.447
14079TIP3    H242183   5.396   4.467   6.365
14080TIP3   OH242184   6.341   1.527   5.679
14080TIP3    H142185   6.387   1.464   5.735
14080TIP3    H242186   6.363   1.501   5.590
14081TIP3   OH242187   3.741   5.901   3.656
14081TIP3    H142188   3.747   5.907   3.751
14081TIP3    H242189   3.685   5.826   3.640
14082TIP3   OH242190   7.208   2.904   0.424
14082TIP3    H142191   7.268   2.875   0.355
14082TIP3    H242192   7.187   2.995   0.401
14083TIP3   OH242193   0.687   3.136   4.705
14083TIP3    H142194   0.612   3.133   4.764
14083TIP3    H242195   0.757   3.092   4.753
14084TIP3   OH242196   1.135   0.206   6.642
14084TIP3    H142197   1.142   0.298   6.614
14084TIP3    H242198   1.216   0.189   6.691
14085TIP3   OH242199   2.963   3.998   5.703
14085TIP3    H142200   2.885   4.007   5.648
14085TIP3    H242201   2.951   3.915   5.749
14086TIP3   OH242202   4.171   1.866   5.286
14086TIP3    H142203   4.228   1.887   5.213
14086TIP3    H242204   4.124   1.947   5.305
14087TIP3   OH242205   2.447   4.020   5.907
14087TIP3    H142206   2.501   4.043   5.831
14087TIP3    H242207   2.364   4.065   5.893
14088TIP3   OH242208   6.319   1.970   6.411
14088TIP3    H142209   6.355   1.896   6.364
14088TIP3    H242210   6.349   2.047   6.362
14089TIP3   OH242211   6.180   3.475   1.736
14089TIP3    H142212   6.161   3.381   1.743
14089TIP3    H242213   6.143   3.512   1.817
14090TIP3   OH242214   6.660   1.072   6.324
14090TIP3    H142215   6.616   0.994   6.290
14090TIP3    H242216   6.633   1.143   6.266
14091TIP3   OH242217   7.188   3.464   3.371
14091TIP3    H142218   7.207   3.542   3.320
14091TIP3    H242219   7.167   3.496   3.459
14092TIP3   OH242220   3.863   4.275   4.387
14092TIP3    H142221   3.768   4.264   4.390
14092TIP3    H242222   3.877   4.366   4.363
14093TIP3   OH242223   7.004   4.517   5.425
14093TIP3    H142224   7.022   4.531   5.332
14093TIP3    H242225   6.927   4.460   5.427
14094TIP3   OH242226   5.231   0.453   4.911
14094TIP3    H142227   5.252   0.475   5.001
14094TIP3    H242228   5.250   0.360   4.904
14095TIP3   OH242229   4.159   4.783   4.541
14095TIP3    H142230   4.155   4.782   4.445
14095TIP3    H242231   4.178   4.874   4.563
14096TIP3   OH242232   1.514   0.603   4.055
14096TIP3    H142233   1.468   0.574   3.976
14096TIP3    H242234   1.512   0.699   4.050
14097TIP3   OH242235   2.223   3.014   6.503
14097TIP3    H142236   2.274   2.939   6.473
14097TIP3    H242237   2.177   3.045   6.425
14098TIP3   OH242238   6.991   5.569   1.574
14098TIP3    H142239   7.015   5.509   1.645
14098TIP3    H242240   7.074   5.589   1.530
14099TIP3   OH242241   5.066   0.261   1.014
14099TIP3    H142242   5.054   0.334   0.953
14099TIP3    H242243   5.039   0.184   0.964
14100TIP3   OH242244   0.091   2.102   4.592
14100TIP3    H142245   0.163   2.132   4.536
14100TIP3    H242246   0.074   2.012   4.563
14101TIP3   OH242247   5.507   2.715   0.218
14101TIP3    H142248   5.450   2.691   0.145
14101TIP3    H242249   5.546   2.798   0.192
14102TIP3   OH242250   6.576   4.471   1.056
14102TIP3    H142251   6.602   4.513   0.974
14102TIP3    H242252   6.604   4.380   1.046
14103TIP3   OH242253   2.937   7.377   4.794
14103TIP3    H142254   2.849   7.413   4.783
14103TIP3    H242255   2.982   7.396   4.712
14104TIP3   OH242256   7.125   2.749   2.927
14104TIP3    H142257   7.132   2.793   2.842
14104TIP3    H242258   7.153   2.659   2.909
14105TIP3   OH242259   0.470   2.127   1.288
14105TIP3    H142260   0.564   2.118   1.306
14105TIP3    H242261   0.430   2.139   1.375
14106TIP3   OH242262   7.789   7.546   4.236
14106TIP3    H142263   7.731   7.473   4.216
14106TIP3    H242264   7.876   7.508   4.237
14107TIP3   OH242265   7.272   3.685   0.753
14107TIP3    H142266   7.341   3.620   0.738
14107TIP3    H242267   7.314   3.754   0.804
14108TIP3   OH242268   6.416   1.353   5.136
14108TIP3    H142269   6.496   1.395   5.106
14108TIP3    H242270   6.360   1.349   5.058
14109TIP3   OH242271   5.619   5.195   6.362
14109TIP3    H142272   5.694   5.226   6.414
14109TIP3    H242273   5.622   5.247   6.282
14110TIP3   OH242274   4.190   3.813   1.978
14110TIP3    H142275   4.137   3.891   1.957
14110TIP3    H242276   4.270   3.849   2.018
14111TIP3   OH242277   3.115   3.910   1.677
14111TIP3    H142278   3.155   3.898   1.764
14111TIP3    H242279   3.034   3.860   1.681
14112TIP3   OH242280   5.960   1.332   6.609
14112TIP3    H142281   5.945   1.311   6.701
14112TIP3    H242282   6.049   1.303   6.592
14113TIP3   OH242283   6.154   7.297   0.388
14113TIP3    H142284   6.152   7.392   0.398
14113TIP3    H242285   6.178   7.264   0.475
14114TIP3   OH242286   3.355   1.464   5.224
14114TIP3    H142287   3.260   1.452   5.212
14114TIP3    H242288   3.374   1.545   5.177
14115TIP3   OH242289   2.562   1.458   2.942
14115TIP3    H142290   2.471   1.428   2.933
14115TIP3    H242291   2.600   1.448   2.855
14116TIP3   OH242292   6.504   2.585   2.849
14116TIP3    H142293   6.454   2.551   2.923
14116TIP3    H242294   6.443   2.583   2.776
14117TIP3   OH242295   7.739   3.371   2.941
14117TIP3    H142296   7.754   3.329   3.026
14117TIP3    H242297   7.648   3.351   2.920
14118TIP3   OH242298   2.585   7.445   2.038
14118TIP3    H142299   2.521   7.443   2.110
14118TIP3    H242300   2.643   7.371   2.056
14119TIP3   OH242301   2.085   3.355   1.709
14119TIP3    H142302   2.104   3.413   1.782
14119TIP3    H242303   2.164   3.358   1.654
14120TIP3   OH242304   3.311   6.819   0.781
14120TIP3    H142305   3.293   6.896   0.727
14120TIP3    H242306   3.331   6.750   0.718
14121TIP3   OH242307   3.524   3.353   4.225
14121TIP3    H142308   3.470   3.277   4.206
14121TIP3    H242309   3.464   3.416   4.265
14122TIP3   OH242310   1.639   6.914   4.406
14122TIP3    H142311   1.653   6.933   4.499
14122TIP3    H242312   1.701   6.971   4.361
14123TIP3   OH242313   3.283   0.755   2.610
14123TIP3    H142314   3.322   0.827   2.560
14123TIP3    H242315   3.207   0.794   2.653
14124TIP3   OH242316   1.414   0.351   0.535
14124TIP3    H142317   1.468   0.316   0.464
14124TIP3    H242318   1.468   0.420   0.574
14125TIP3   OH242319   2.651   2.099   1.139
14125TIP3    H142320   2.578   2.155   1.112
14125TIP3    H242321   2.650   2.104   1.234
14126TIP3   OH242322   0.108   0.592   3.184
14126TIP3    H142323   0.060   0.651   3.241
14126TIP3    H242324   0.126   0.515   3.238
14127TIP3   OH242325   5.856   4.034   4.257
14127TIP3    H142326   5.908   4.078   4.324
14127TIP3    H242327   5.810   4.106   4.212
14128TIP3   OH242328   5.340   7.313   2.139
14128TIP3    H142329   5.251   7.310   2.175
14128TIP3    H242330   5.396   7.290   2.213
14129TIP3   OH242331   4.032   1.515   5.521
14129TIP3    H142332   4.021   1.423   5.495
14129TIP3    H242333   4.126   1.530   5.520
14130TIP3   OH242334   4.819   5.321   4.303
14130TIP3    H142335   4.883   5.388   4.279
14130TIP3    H242336   4.757   5.320   4.230
14131TIP3   OH242337   3.672   6.572   6.297
14131TIP3    H142338   3.722   6.552   6.219
14131TIP3    H242339   3.584   6.537   6.279
14132TIP3   OH242340   1.519   6.761   5.736
14132TIP3    H142341   1.434   6.779   5.697
14132TIP3    H242342   1.541   6.841   5.783
14133TIP3   OH242343   2.425   4.010   2.310
14133TIP3    H142344   2.338   3.997   2.349
14133TIP3    H242345   2.441   4.104   2.318
14134TIP3   OH242346   2.996   2.304   0.394
14134TIP3    H142347   3.036   2.232   0.443
14134TIP3    H242348   3.068   2.365   0.379
14135TIP3   OH242349   1.958   0.724   6.326
14135TIP3    H142350   2.045   0.764   6.329
14135TIP3    H242351   1.962   0.663   6.252
14136TIP3   OH242352   6.774   5.579   0.653
14136TIP3    H142353   6.841   5.520   0.686
14136TIP3    H242354   6.760   5.551   0.562
14137TIP3   OH242355   4.299   4.176   1.890
14137TIP3    H142356   4.387   4.149   1.865
14137TIP3    H242357   4.298   4.166   1.985
14138TIP3   OH242358   8.188   1.173   0.419
14138TIP3    H142359   8.271   1.215   0.396
14138TIP3    H242360   8.144   1.159   0.335
14139TIP3   OH242361   2.588   3.888   0.194
14139TIP3    H142362   2.561   3.933   0.274
14139TIP3    H242363   2.682   3.877   0.202
14140TIP3   OH242364   5.073   4.670   6.513
14140TIP3    H142365   5.117   4.593   6.548
14140TIP3    H242366   5.132   4.702   6.445
14141TIP3   OH242367   7.770   1.229   0.265
14141TIP3    H142368   7.801   1.207   0.352
14141TIP3    H242369   7.817   1.309   0.242
14142TIP3   OH242370   5.838   4.679   4.201
14142TIP3    H142371   5.914   4.656   4.148
14142TIP3    H242372   5.874   4.708   4.284
14143TIP3   OH242373  -0.014   1.230   3.272
14143TIP3    H142374  -0.051   1.318   3.261
14143TIP3    H242375   0.011   1.204   3.183
14144TIP3   OH242376   2.687   0.508   2.820
14144TIP3    H142377   2.738   0.565   2.762
14144TIP3    H242378   2.687   0.423   2.775
14145TIP3   OH242379   6.784   7.007   2.776
14145TIP3    H142380   6.704   7.061   2.781
14145TIP3    H242381   6.814   7.017   2.686
14146TIP3   OH242382   6.067   1.897   1.682
14146TIP3    H142383   6.089   1.819   1.733
14146TIP3    H242384   6.114   1.968   1.725
14147TIP3   OH242385   6.205   0.081   5.437
14147TIP3    H142386   6.295   0.079   5.404
14147TIP3    H242387   6.210   0.136   5.515
14148TIP3   OH242388   5.095   7.768   4.315
14148TIP3    H142389   5.115   7.677   4.337
14148TIP3    H242390   5.117   7.775   4.222
14149TIP3   OH242391   4.396   6.196   5.697
14149TIP3    H142392   4.314   6.242   5.715
14149TIP3    H242393   4.419   6.220   5.607
14150TIP3   OH242394   6.413   3.978   5.277
14150TIP3    H142395   6.326   3.939   5.286
14150TIP3    H242396   6.433   3.971   5.183
14151TIP3   OH242397   2.503   5.776   2.459
14151TIP3    H142398   2.541   5.711   2.401
14151TIP3    H242399   2.446   5.726   2.517
14152TIP3   OH242400   5.137   2.620   0.583
14152TIP3    H142401   5.218   2.580   0.551
14152TIP3    H242402   5.138   2.708   0.545
14153TIP3   OH242403   0.629   0.046   6.185
14153TIP3    H142404   0.626   0.033   6.091
14153TIP3    H242405   0.685   0.123   6.197
14154TIP3   OH242406   3.476   6.453   2.568
14154TIP3    H142407   3.516   6.497   2.643
14154TIP3    H242408   3.550   6.429   2.512
14155TIP3   OH242409   0.547   7.241   5.752
14155TIP3    H142410   0.494   7.194   5.688
14155TIP3    H242411   0.615   7.178   5.777
14156TIP3   OH242412   4.290   0.084   0.148
14156TIP3    H142413   4.383   0.070   0.133
14156TIP3    H242414   4.282   0.091   0.243
14157TIP3   OH242415   1.607   0.867   4.131
14157TIP3    H142416   1.685   0.898   4.177
14157TIP3    H242417   1.589   0.935   4.066
14158TIP3   OH242418   6.230   1.352   1.298
14158TIP3    H142419   6.299   1.370   1.362
14158TIP3    H242420   6.266   1.282   1.243
14159TIP3   OH242421   0.264   0.401   2.344
14159TIP3    H142422   0.313   0.478   2.371
14159TIP3    H242423   0.331   0.340   2.312
14160TIP3   OH242424   7.376   2.109   0.866
14160TIP3    H142425   7.362   2.075   0.777
14160TIP3    H242426   7.288   2.132   0.897
14161TIP3   OH242427   1.553   1.273   6.020
14161TIP3    H142428   1.616   1.201   6.029
14161TIP3    H242429   1.513   1.280   6.107
14162TIP3   OH242430   5.549   6.840   3.906
14162TIP3    H142431   5.513   6.770   3.960
14162TIP3    H242432   5.488   6.913   3.917
14163TIP3   OH242433   3.935   1.444   5.799
14163TIP3    H142434   3.855   1.408   5.760
14163TIP3    H242435   3.988   1.472   5.724
14164TIP3   OH242436   8.284   6.740   0.409
14164TIP3    H142437   8.316   6.813   0.356
14164TIP3    H242438   8.223   6.780   0.471
14165TIP3   OH242439   3.350   2.326   2.664
14165TIP3    H142440   3.404   2.319   2.585
14165TIP3    H242441   3.333   2.236   2.690
14166TIP3   OH242442   2.593   7.018   1.684
14166TIP3    H142443   2.517   6.982   1.729
14166TIP3    H242444   2.667   7.001   1.742
14167TIP3   OH242445   7.664   1.712   0.452
14167TIP3    H142446   7.703   1.776   0.511
14167TIP3    H242447   7.675   1.628   0.497
14168TIP3   OH242448   8.226   3.592   3.947
14168TIP3    H142449   8.144   3.579   3.899
14168TIP3    H242450   8.223   3.527   4.017
14169TIP3   OH242451   6.310   6.156   6.065
14169TIP3    H142452   6.257   6.077   6.060
14169TIP3    H242453   6.280   6.201   6.144
14170TIP3   OH242454   2.071   7.495   0.708
14170TIP3    H142455   2.050   7.515   0.617
14170TIP3    H242456   2.167   7.496   0.711
14171TIP3   OH242457   5.506   6.506   6.749
14171TIP3    H142458   5.574   6.461   6.698
14171TIP3    H242459   5.446   6.541   6.683
14172TIP3   OH242460   6.614   7.335   5.830
14172TIP3    H142461   6.704   7.367   5.827
14172TIP3    H242462   6.597   7.302   5.742
14173TIP3   OH242463   6.397   5.714   3.893
14173TIP3    H142464   6.373   5.666   3.973
14173TIP3    H242465   6.353   5.666   3.823
14174TIP3   OH242466   0.017   2.624   6.142
14174TIP3    H142467   0.020   2.719   6.142
14174TIP3    H242468   0.085   2.598   6.079
14175TIP3   OH242469   2.926   4.817   2.610
14175TIP3    H142470   2.895   4.897   2.568
14175TIP3    H242471   3.021   4.817   2.596
14176TIP3   OH242472   6.737   2.012   4.948
14176TIP3    H142473   6.793   1.944   4.912
14176TIP3    H242474   6.667   1.965   4.993
14177TIP3   OH242475   4.356   6.051   2.562
14177TIP3    H142476   4.306   6.089   2.634
14177TIP3    H242477   4.395   5.972   2.599
14178TIP3   OH242478   3.673   3.463   4.004
14178TIP3    H142479   3.647   3.416   4.084
14178TIP3    H242480   3.764   3.487   4.019
14179TIP3   OH242481   3.232   3.625   4.127
14179TIP3    H142482   3.214   3.537   4.162
14179TIP3    H242483   3.163   3.680   4.164
14180TIP3   OH242484   0.276   5.184   2.563
14180TIP3    H142485   0.328   5.204   2.641
14180TIP3    H242486   0.223   5.262   2.549
14181TIP3   OH242487   6.288   5.328   2.507
14181TIP3    H142488   6.235   5.374   2.442
14181TIP3    H242489   6.303   5.242   2.469
14182TIP3   OH242490   2.035   1.541   1.943
14182TIP3    H142491   1.966   1.602   1.916
14182TIP3    H242492   2.051   1.562   2.035
14183TIP3   OH242493   7.425   5.038   5.543
14183TIP3    H142494   7.464   5.107   5.490
14183TIP3    H242495   7.331   5.046   5.528
14184TIP3   OH242496   6.814   1.493   0.761
14184TIP3    H142497   6.906   1.497   0.733
14184TIP3    H242498   6.786   1.405   0.737
14185TIP3   OH242499   0.370   3.689   1.425
14185TIP3    H142500   0.295   3.680   1.484
14185TIP3    H242501   0.335   3.667   1.339
14186TIP3   OH242502   2.649   2.190   1.422
14186TIP3    H142503   2.673   2.234   1.504
14186TIP3    H242504   2.716   2.122   1.411
14187TIP3   OH242505   2.574   4.118   6.133
14187TIP3    H142506   2.515   4.064   6.081
14187TIP3    H242507   2.627   4.165   6.069
14188TIP3   OH242508   4.312   4.136   0.665
14188TIP3    H142509   4.219   4.127   0.685
14188TIP3    H242510   4.316   4.143   0.570
14189TIP3   OH242511   1.263   3.491   3.687
14189TIP3    H142512   1.195   3.519   3.749
14189TIP3    H242513   1.275   3.398   3.706
14190TIP3   OH242514   7.524   4.160   0.173
14190TIP3    H142515   7.580   4.096   0.130
14190TIP3    H242516   7.542   4.242   0.128
14191TIP3   OH242517   2.023   1.603   5.324
14191TIP3    H142518   1.955   1.537   5.334
14191TIP3    H242519   2.098   1.555   5.290
14192TIP3   OH242520   6.310   7.023   0.819
14192TIP3    H142521   6.318   7.064   0.906
14192TIP3    H242522   6.289   7.096   0.760
14193TIP3   OH242523   4.280   6.428   5.469
14193TIP3    H142524   4.222   6.478   5.527
14193TIP3    H242525   4.222   6.398   5.399
14194TIP3   OH242526   2.843   7.002   3.020
14194TIP3    H142527   2.908   7.057   3.063
14194TIP3    H242528   2.764   7.011   3.073
14195TIP3   OH242529   1.368   2.840   0.076
14195TIP3    H142530   1.365   2.922   0.125
14195TIP3    H242531   1.295   2.789   0.110
14196TIP3   OH242532   5.639   0.813   3.344
14196TIP3    H142533   5.714   0.761   3.371
14196TIP3    H242534   5.602   0.847   3.425
14197TIP3   OH242535   5.069   3.240   2.922
14197TIP3    H142536   5.138   3.293   2.884
14197TIP3    H242537   5.114   3.165   2.960
14198TIP3   OH242538   2.613   3.322   0.548
14198TIP3    H142539   2.524   3.320   0.583
14198TIP3    H242540   2.668   3.298   0.623
14199TIP3   OH242541   5.482   1.787   1.242
14199TIP3    H142542   5.489   1.691   1.240
14199TIP3    H242543   5.493   1.810   1.334
14200TIP3   OH242544   3.941   1.882   3.741
14200TIP3    H142545   3.854   1.849   3.716
14200TIP3    H242546   3.926   1.926   3.825
14201TIP3   OH242547   1.885   5.161   6.580
14201TIP3    H142548   1.871   5.087   6.522
14201TIP3    H242549   1.859   5.129   6.667
14202TIP3   OH242550   1.990   4.463   5.589
14202TIP3    H142551   1.952   4.480   5.503
14202TIP3    H242552   2.078   4.431   5.571
14203TIP3   OH242553   2.818   0.433   5.436
14203TIP3    H142554   2.767   0.397   5.508
14203TIP3    H242555   2.909   0.409   5.457
14204TIP3   OH242556   7.621   1.650   5.266
14204TIP3    H142557   7.542   1.695   5.295
14204TIP3    H242558   7.594   1.605   5.186
14205TIP3   OH242559   4.425   6.711   6.368
14205TIP3    H142560   4.391   6.625   6.345
14205TIP3    H242561   4.513   6.713   6.331
14206TIP3   OH242562   4.414   0.598   6.015
14206TIP3    H142563   4.454   0.569   6.097
14206TIP3    H242564   4.407   0.519   5.962
14207TIP3   OH242565   4.879   7.736   5.520
14207TIP3    H142566   4.811   7.676   5.549
14207TIP3    H242567   4.901   7.706   5.431
14208TIP3   OH242568   3.417   1.527   6.493
14208TIP3    H142569   3.483   1.595   6.508
14208TIP3    H242570   3.336   1.564   6.527
14209TIP3   OH242571   7.154   2.591   0.317
14209TIP3    H142572   7.099   2.545   0.380
14209TIP3    H242573   7.115   2.678   0.311
14210TIP3   OH242574   5.173   5.708   3.107
14210TIP3    H142575   5.159   5.800   3.086
14210TIP3    H242576   5.237   5.678   3.043
14211TIP3   OH242577   3.649   4.725   4.233
14211TIP3    H142578   3.685   4.735   4.321
14211TIP3    H242579   3.625   4.632   4.227
14212TIP3   OH242580   0.631   6.526   4.495
14212TIP3    H142581   0.585   6.496   4.573
14212TIP3    H242582   0.717   6.483   4.500
14213TIP3   OH242583   4.511   7.281   4.039
14213TIP3    H142584   4.421   7.308   4.021
14213TIP3    H242585   4.564   7.360   4.025
14214TIP3   OH242586   0.747   4.051   0.718
14214TIP3    H142587   0.708   4.026   0.635
14214TIP3    H242588   0.792   3.972   0.749
14215TIP3   OH242589   7.785   5.221   4.966
14215TIP3    H142590   7.840   5.227   4.888
14215TIP3    H242591   7.841   5.181   5.032
14216TIP3   OH242592   4.344   1.587   2.384
14216TIP3    H142593   4.409   1.525   2.351
14216TIP3    H242594   4.260   1.544   2.370
14217TIP3   OH242595   0.700   7.426   1.525
14217TIP3    H142596   0.726   7.356   1.465
14217TIP3    H242597   0.671   7.381   1.604
14218TIP3   OH242598   0.939   6.038   3.912
14218TIP3    H142599   0.849   6.004   3.915
14218TIP3    H242600   0.939   6.098   3.838
14219TIP3   OH242601   1.483   5.263   0.253
14219TIP3    H142602   1.459   5.294   0.340
14219TIP3    H242603   1.547   5.327   0.222
14220TIP3   OH242604   4.439   0.798   3.681
14220TIP3    H142605   4.471   0.709   3.664
14220TIP3    H242606   4.519   0.851   3.686
14221TIP3   OH242607   8.268   7.296   1.438
14221TIP3    H142608   8.251   7.333   1.352
14221TIP3    H242609   8.269   7.201   1.424
14222TIP3   OH242610   7.356   0.304   4.519
14222TIP3    H142611   7.353   0.266   4.606
14222TIP3    H242612   7.444   0.341   4.511
14223TIP3   OH242613   3.222   6.898   3.272
14223TIP3    H142614   3.289   6.911   3.205
14223TIP3    H242615   3.158   6.841   3.232
14224TIP3   OH242616   2.438   5.027   0.046
14224TIP3    H142617   2.453   5.083  -0.029
14224TIP3    H242618   2.516   5.038   0.101
14225TIP3   OH242619   6.454   3.994   1.095
14225TIP3    H142620   6.416   3.921   1.047
14225TIP3    H242621   6.396   4.068   1.075
14226TIP3   OH242622   7.062   2.082   3.094
14226TIP3    H142623   7.042   2.103   3.186
14226TIP3    H242624   6.976   2.080   3.052
14227TIP3   OH242625   2.750   6.678   3.010
14227TIP3    H142626   2.822   6.630   3.052
14227TIP3    H242627   2.772   6.770   3.024
14228TIP3   OH242628   3.764   5.877   6.778
14228TIP3    H142629   3.839   5.930   6.804
14228TIP3    H242630   3.727   5.925   6.703
14229TIP3   OH242631   2.834   1.970   6.466
14229TIP3    H142632   2.791   2.054   6.481
14229TIP3    H242633   2.797   1.939   6.384
14230TIP3   OH242634   7.391   1.290   5.114
14230TIP3    H142635   7.413   1.197   5.111
14230TIP3    H242636   7.296   1.292   5.123
14231TIP3   OH242637   0.100   0.382   5.434
14231TIP3    H142638   0.163   0.453   5.419
14231TIP3    H242639   0.153   0.303   5.440
14232TIP3   OH242640   5.111   1.219   2.305
14232TIP3    H142641   5.052   1.270   2.361
14232TIP3    H242642   5.054   1.160   2.256
14233TIP3   OH242643   0.459   7.065   1.073
14233TIP3    H142644   0.498   7.077   1.159
14233TIP3    H242645   0.401   7.141   1.063
14234TIP3   OH242646   6.377   0.447   4.480
14234TIP3    H142647   6.421   0.363   4.491
14234TIP3    H242648   6.415   0.503   4.547
14235TIP3   OH242649   3.413   2.822   3.983
14235TIP3    H142650   3.477   2.886   4.014
14235TIP3    H242651   3.328   2.862   4.000
14236TIP3   OH242652   0.902   6.000   2.950
14236TIP3    H142653   0.977   5.954   2.912
14236TIP3    H242654   0.875   5.945   3.023
14237TIP3   OH242655   6.287   5.887   4.541
14237TIP3    H142656   6.254   5.833   4.613
14237TIP3    H242657   6.378   5.859   4.530
14238TIP3   OH242658   3.233   0.404   1.928
14238TIP3    H142659   3.310   0.443   1.968
14238TIP3    H242660   3.230   0.441   1.840
14239TIP3   OH242661   0.299   1.980   1.684
14239TIP3    H142662   0.362   1.956   1.752
14239TIP3    H242663   0.214   1.977   1.727
14240TIP3   OH242664   8.105   2.408   5.357
14240TIP3    H142665   8.052   2.461   5.296
14240TIP3    H242666   8.112   2.323   5.314
14241TIP3   OH242667   8.247   5.738   0.323
14241TIP3    H142668   8.200   5.656   0.307
14241TIP3    H242669   8.213   5.768   0.407
14242TIP3   OH242670   7.334   7.396   4.832
14242TIP3    H142671   7.367   7.422   4.918
14242TIP3    H242672   7.296   7.476   4.795
14243TIP3   OH242673   8.113   7.770   0.983
14243TIP3    H142674   8.065   7.794   0.903
14243TIP3    H242675   8.153   7.686   0.963
14244TIP3   OH242676   6.512   2.258   2.023
14244TIP3    H142677   6.452   2.299   1.961
14244TIP3    H242678   6.586   2.229   1.970
14245TIP3   OH242679   3.687   7.164   4.767
14245TIP3    H142680   3.701   7.134   4.856
14245TIP3    H242681   3.650   7.089   4.721
14246TIP3   OH242682   5.562   5.510   0.556
14246TIP3    H142683   5.650   5.502   0.592
14246TIP3    H242684   5.556   5.442   0.489
14247TIP3   OH242685   1.063   1.892   5.476
14247TIP3    H142686   1.092   1.975   5.437
14247TIP3    H242687   0.991   1.917   5.534
14248TIP3   OH242688   5.347   0.904   1.197
14248TIP3    H142689   5.277   0.949   1.244
14248TIP3    H242690   5.414   0.887   1.263
14249TIP3   OH242691   4.479   4.402   2.188
14249TIP3    H142692   4.473   4.448   2.271
14249TIP3    H242693   4.551   4.340   2.199
14250TIP3   OH242694   7.645   1.282   4.752
14250TIP3    H142695   7.564   1.289   4.702
14250TIP3    H242696   7.676   1.372   4.761
14251TIP3   OH242697   2.562   0.057   2.621
14251TIP3    H142698   2.515   0.062   2.538
14251TIP3    H242699   2.594  -0.033   2.626
14252TIP3   OH242700   5.241   6.940   0.303
14252TIP3    H142701   5.158   6.931   0.257
14252TIP3    H242702   5.225   6.903   0.390
14253TIP3   OH242703   6.234   4.545   2.129
14253TIP3    H142704   6.301   4.609   2.153
14253TIP3    H242705   6.229   4.551   2.033
14254TIP3   OH242706   6.886   6.298   5.052
14254TIP3    H142707   6.844   6.270   4.971
14254TIP3    H242708   6.965   6.343   5.023
14255TIP3   OH242709   6.150   5.893   5.248
14255TIP3    H142710   6.168   5.954   5.319
14255TIP3    H242711   6.083   5.937   5.196
14256TIP3   OH242712   2.593   0.936   6.349
14256TIP3    H142713   2.529   0.928   6.279
14256TIP3    H242714   2.596   1.029   6.369
14257TIP3   OH242715   1.085   6.745   2.046
14257TIP3    H142716   1.164   6.796   2.064
14257TIP3    H242717   1.072   6.752   1.952
14258TIP3   OH242718   3.498   6.538   4.288
14258TIP3    H142719   3.450   6.565   4.210
14258TIP3    H242720   3.490   6.612   4.348
14259TIP3   OH242721   2.230   3.404   3.964
14259TIP3    H142722   2.177   3.431   3.889
14259TIP3    H242723   2.288   3.477   3.981
14260TIP3   OH242724   4.964   4.971   4.734
14260TIP3    H142725   4.985   4.911   4.663
14260TIP3    H242726   5.037   5.034   4.733
14261TIP3   OH242727   3.848   5.063   0.468
14261TIP3    H142728   3.821   5.025   0.384
14261TIP3    H242729   3.919   5.007   0.498
14262TIP3   OH242730   7.523   4.253   4.978
14262TIP3    H142731   7.523   4.319   5.048
14262TIP3    H242732   7.605   4.269   4.931
14263TIP3   OH242733   4.267   6.490   0.551
14263TIP3    H142734   4.234   6.408   0.514
14263TIP3    H242735   4.358   6.471   0.573
14264TIP3   OH242736   7.383   1.721   1.447
14264TIP3    H142737   7.463   1.757   1.409
14264TIP3    H242738   7.352   1.656   1.383
14265TIP3   OH242739   4.752   3.475   4.328
14265TIP3    H142740   4.779   3.529   4.403
14265TIP3    H242741   4.729   3.390   4.367
14266TIP3   OH242742   5.738   2.258   3.159
14266TIP3    H142743   5.734   2.281   3.252
14266TIP3    H242744   5.812   2.197   3.153
14267TIP3   OH242745   0.651   7.181   5.182
14267TIP3    H142746   0.668   7.274   5.164
14267TIP3    H242747   0.738   7.141   5.182
14268TIP3   OH242748   1.516   3.928   5.132
14268TIP3    H142749   1.482   3.840   5.116
14268TIP3    H242750   1.572   3.946   5.057
14269TIP3   OH242751   5.745   7.461   0.409
14269TIP3    H142752   5.679   7.429   0.471
14269TIP3    H242753   5.728   7.554   0.402
14270TIP3   OH242754   7.197   6.379   4.610
14270TIP3    H142755   7.160   6.312   4.553
14270TIP3    H242756   7.135   6.452   4.605
14271TIP3   OH242757   1.646   5.480   5.470
14271TIP3    H142758   1.610   5.531   5.397
14271TIP3    H242759   1.741   5.490   5.462
14272TIP3   OH242760   5.620   0.702   0.533
14272TIP3    H142761   5.711   0.732   0.545
14272TIP3    H242762   5.627   0.607   0.525
14273TIP3   OH242763   6.043   5.506   3.749
14273TIP3    H142764   6.099   5.482   3.675
14273TIP3    H242765   6.027   5.600   3.738
14274TIP3   OH242766   5.661   0.201   2.240
14274TIP3    H142767   5.654   0.251   2.159
14274TIP3    H242768   5.674   0.110   2.211
14275TIP3   OH242769   4.917   6.041   0.164
14275TIP3    H142770   4.837   6.016   0.211
14275TIP3    H242771   4.975   6.075   0.232
14276TIP3   OH242772   7.960   0.106   5.187
14276TIP3    H142773   7.952   0.194   5.151
14276TIP3    H242774   7.914   0.109   5.270
14277TIP3   OH242775   1.918   2.223   3.132
14277TIP3    H142776   1.992   2.176   3.169
14277TIP3    H242777   1.955   2.305   3.098
14278TIP3   OH242778   5.527   5.348   0.349
14278TIP3    H142779   5.597   5.340   0.285
14278TIP3    H242780   5.469   5.274   0.331
14279TIP3   OH242781   2.820   0.041   6.461
14279TIP3    H142782   2.900  -0.003   6.433
14279TIP3    H242783   2.843   0.134   6.461
14280TIP3   OH242784   4.078   4.040   0.067
14280TIP3    H142785   4.048   4.023   0.156
14280TIP3    H242786   4.155   3.983   0.056
14281TIP3   OH242787   0.062   0.689   2.250
14281TIP3    H142788   0.131   0.662   2.189
14281TIP3    H242789  -0.008   0.722   2.194
14282TIP3   OH242790   5.029   1.278   0.986
14282TIP3    H142791   5.044   1.257   1.078
14282TIP3    H242792   5.106   1.329   0.960
14283TIP3   OH242793   6.453   6.843   0.170
14283TIP3    H142794   6.466   6.752   0.198
14283TIP3    H242795   6.542   6.875   0.153
14284TIP3   OH242796   6.615   4.223   6.228
14284TIP3    H142797   6.678   4.193   6.293
14284TIP3    H242798   6.649   4.307   6.198
14285TIP3   OH242799   2.196   0.413   0.471
14285TIP3    H142800   2.154   0.377   0.549
14285TIP3    H242801   2.270   0.355   0.454
14286TIP3   OH242802   1.502   1.557   4.511
14286TIP3    H142803   1.571   1.595   4.457
14286TIP3    H242804   1.421   1.593   4.476
14287TIP3   OH242805   1.743   5.703   4.534
14287TIP3    H142806   1.763   5.773   4.472
14287TIP3    H242807   1.817   5.703   4.595
14288TIP3   OH242808   4.565   2.309   6.589
14288TIP3    H142809   4.580   2.335   6.680
14288TIP3    H242810   4.523   2.223   6.595
14289TIP3   OH242811   4.570   7.811   6.485
14289TIP3    H142812   4.559   7.716   6.476
14289TIP3    H242813   4.576   7.843   6.395
14290TIP3   OH242814   5.043   5.045   5.934
14290TIP3    H142815   4.977   5.110   5.959
14290TIP3    H242816   5.057   4.994   6.014
14291TIP3   OH242817   5.700   0.612   5.085
14291TIP3    H142818   5.711   0.554   5.010
14291TIP3    H242819   5.606   0.608   5.105
14292TIP3   OH242820   1.288   3.177   6.182
14292TIP3    H142821   1.320   3.204   6.269
14292TIP3    H242822   1.292   3.256   6.129
14293TIP3   OH242823   0.292   5.859   2.210
14293TIP3    H142824   0.283   5.954   2.208
14293TIP3    H242825   0.277   5.832   2.119
14294TIP3   OH242826   2.219   4.502   5.046
14294TIP3    H142827   2.125   4.495   5.063
14294TIP3    H242828   2.239   4.428   4.988
14295TIP3   OH242829   8.041   3.213   2.785
14295TIP3    H142830   7.982   3.222   2.710
14295TIP3    H242831   8.025   3.291   2.838
14296TIP3   OH242832   0.645   3.707   1.182
14296TIP3    H142833   0.629   3.779   1.242
14296TIP3    H242834   0.595   3.730   1.104
14297TIP3   OH242835   8.263   5.464   2.266
14297TIP3    H142836   8.329   5.497   2.205
14297TIP3    H242837   8.201   5.537   2.276
14298TIP3   OH242838   4.746   6.975   5.298
14298TIP3    H142839   4.683   6.905   5.317
14298TIP3    H242840   4.732   6.996   5.206
14299TIP3   OH242841   4.887   6.148   2.935
14299TIP3    H142842   4.972   6.190   2.943
14299TIP3    H242843   4.830   6.199   2.994
14300TIP3   OH242844   7.302   1.132   2.593
14300TIP3    H142845   7.263   1.219   2.602
14300TIP3    H242846   7.239   1.084   2.540
14301TIP3   OH242847   2.159   5.505   4.589
14301TIP3    H142848   2.224   5.567   4.622
14301TIP3    H242849   2.128   5.544   4.507
14302TIP3   OH242850   1.979   7.034   2.690
14302TIP3    H142851   2.041   7.067   2.755
14302TIP3    H242852   1.919   6.979   2.741
14303TIP3   OH242853   3.987   2.072   1.324
14303TIP3    H142854   3.990   2.020   1.244
14303TIP3    H242855   3.930   2.023   1.383
14304TIP3   OH242856   0.970   5.267   6.559
14304TIP3    H142857   0.967   5.350   6.512
14304TIP3    H242858   1.010   5.289   6.644
14305TIP3   OH242859   6.637   0.664   5.025
14305TIP3    H142860   6.679   0.620   4.950
14305TIP3    H242861   6.580   0.729   4.985
14306TIP3   OH242862   3.263   6.093   4.989
14306TIP3    H142863   3.221   6.007   4.992
14306TIP3    H242864   3.218   6.140   4.919
14307TIP3   OH242865   5.265   4.523   5.048
14307TIP3    H142866   5.178   4.516   5.088
14307TIP3    H242867   5.277   4.440   5.002
14308TIP3   OH242868   6.867   3.132   3.879
14308TIP3    H142869   6.839   3.202   3.820
14308TIP3    H242870   6.928   3.080   3.826
14309TIP3   OH242871   0.249   6.936   4.594
14309TIP3    H142872   0.163   6.901   4.615
14309TIP3    H242873   0.292   6.866   4.545
14310TIP3   OH242874   3.741   1.220   3.146
14310TIP3    H142875   3.717   1.309   3.120
14310TIP3    H242876   3.813   1.232   3.209
14311TIP3   OH242877   1.447   2.039   5.311
14311TIP3    H142878   1.393   2.096   5.366
14311TIP3    H242879   1.406   1.952   5.320
14312TIP3   OH242880   8.230   5.112   0.952
14312TIP3    H142881   8.227   5.159   0.869
14312TIP3    H242882   8.274   5.029   0.932
14313TIP3   OH242883   0.088   4.885   1.832
14313TIP3    H142884   0.016   4.907   1.892
14313TIP3    H242885   0.165   4.927   1.870
14314TIP3   OH242886   1.549   5.282   0.542
14314TIP3    H142887   1.630   5.332   0.553
14314TIP3    H242888   1.480   5.339   0.575
14315TIP3   OH242889   2.378   7.813   2.984
14315TIP3    H142890   2.443   7.868   3.028
14315TIP3    H242891   2.392   7.725   3.021
14316TIP3   OH242892   3.177   4.859   6.079
14316TIP3    H142893   3.111   4.868   6.011
14316TIP3    H242894   3.134   4.887   6.159
14317TIP3   OH242895   5.836   4.321   4.457
14317TIP3    H142896   5.922   4.296   4.424
14317TIP3    H242897   5.823   4.410   4.423
14318TIP3   OH242898   0.571   0.542   6.697
14318TIP3    H142899   0.552   0.584   6.613
14318TIP3    H242900   0.625   0.605   6.744
14319TIP3   OH242901   6.732   3.462   0.471
14319TIP3    H142902   6.810   3.502   0.432
14319TIP3    H242903   6.718   3.511   0.552
14320TIP3   OH242904   0.129   3.732   2.436
14320TIP3    H142905   0.046   3.732   2.483
14320TIP3    H242906   0.194   3.754   2.502
14321TIP3   OH242907   4.702   0.991   1.571
14321TIP3    H142908   4.696   0.896   1.561
14321TIP3    H242909   4.789   1.005   1.610
14322TIP3   OH242910   7.612   3.121   1.412
14322TIP3    H142911   7.703   3.151   1.415
14322TIP3    H242912   7.593   3.094   1.502
14323TIP3   OH242913   1.589   4.758   6.250
14323TIP3    H142914   1.561   4.849   6.259
14323TIP3    H242915   1.527   4.708   6.304
14324TIP3   OH242916   6.970   5.674   4.370
14324TIP3    H142917   7.065   5.674   4.380
14324TIP3    H242918   6.948   5.764   4.346
14325TIP3   OH242919   7.329   7.115   0.581
14325TIP3    H142920   7.331   7.201   0.539
14325TIP3    H242921   7.248   7.116   0.632
14326TIP3   OH242922   7.175   2.618   2.550
14326TIP3    H142923   7.088   2.581   2.563
14326TIP3    H242924   7.159   2.709   2.525
14327TIP3   OH242925   1.130   6.685   0.716
14327TIP3    H142926   1.226   6.677   0.721
14327TIP3    H242927   1.108   6.746   0.785
14328TIP3   OH242928   3.594   5.959   3.030
14328TIP3    H142929   3.634   5.895   3.088
14328TIP3    H242930   3.668   5.994   2.979
14329TIP3   OH242931   3.181   5.223   0.640
14329TIP3    H142932   3.124   5.186   0.707
14329TIP3    H242933   3.121   5.257   0.573
14330TIP3   OH242934   5.651   0.963   4.973
14330TIP3    H142935   5.735   0.938   4.934
14330TIP3    H242936   5.627   0.889   5.028
14331TIP3   OH242937   6.260   5.154   2.862
14331TIP3    H142938   6.264   5.080   2.922
14331TIP3    H242939   6.212   5.221   2.910
14332TIP3   OH242940   3.852   2.110   2.310
14332TIP3    H142941   3.944   2.086   2.307
14332TIP3    H242942   3.852   2.203   2.333
14333TIP3   OH242943   0.931   0.622   6.304
14333TIP3    H142944   0.881   0.676   6.366
14333TIP3    H242945   0.865   0.578   6.252
14334TIP3   OH242946   5.114   0.653   4.717
14334TIP3    H142947   5.123   0.596   4.794
14334TIP3    H242948   5.205   0.670   4.689
14335TIP3   OH242949   5.346   0.727   0.946
14335TIP3    H142950   5.365   0.784   1.020
14335TIP3    H242951   5.381   0.774   0.870
14336TIP3   OH242952   2.607   0.401   4.099
14336TIP3    H142953   2.606   0.428   4.191
14336TIP3    H242954   2.699   0.383   4.081
14337TIP3   OH242955   4.747   6.677   0.021
14337TIP3    H142956   4.739   6.763  -0.020
14337TIP3    H242957   4.718   6.690   0.111
14338TIP3   OH242958   3.629   1.091   5.491
14338TIP3    H142959   3.585   1.153   5.433
14338TIP3    H242960   3.673   1.030   5.432
14339TIP3   OH242961   7.891   0.878   4.702
14339TIP3    H142962   7.878   0.960   4.655
14339TIP3    H242963   7.896   0.811   4.634
14340TIP3   OH242964   1.262   0.724   5.621
14340TIP3    H142965   1.326   0.777   5.573
14340TIP3    H242966   1.193   0.785   5.645
14341TIP3   OH242967   5.285   1.762   4.311
14341TIP3    H142968   5.242   1.729   4.232
14341TIP3    H242969   5.254   1.704   4.381
14342TIP3   OH242970   6.950   5.083   4.159
14342TIP3    H142971   6.857   5.076   4.137
14342TIP3    H242972   6.984   5.149   4.099
14343TIP3   OH242973   5.755   0.412   6.117
14343TIP3    H142974   5.705   0.333   6.138
14343TIP3    H242975   5.692   0.468   6.071
14344TIP3   OH242976   6.237   1.271   5.331
14344TIP3    H142977   6.289   1.290   5.253
14344TIP3    H242978   6.274   1.328   5.399
14345TIP3   OH242979   4.192   4.818   6.751
14345TIP3    H142980   4.136   4.810   6.673
14345TIP3    H242981   4.269   4.764   6.731
14346TIP3   OH242982   2.739   7.224   2.076
14346TIP3    H142983   2.718   7.134   2.053
14346TIP3    H242984   2.799   7.217   2.150
14347TIP3   OH242985   0.339   3.373   0.246
14347TIP3    H142986   0.377   3.288   0.222
14347TIP3    H242987   0.247   3.354   0.264
14348TIP3   OH242988   3.357   0.269   5.669
14348TIP3    H142989   3.387   0.178   5.671
14348TIP3    H242990   3.261   0.262   5.666
14349TIP3   OH242991   2.063   4.194   4.285
14349TIP3    H142992   2.032   4.167   4.198
14349TIP3    H242993   2.040   4.287   4.291
14350TIP3   OH242994   1.785   0.061   4.829
14350TIP3    H142995   1.826   0.121   4.891
14350TIP3    H242996   1.793   0.104   4.744
14351TIP3   OH242997   7.822   1.583   2.969
14351TIP3    H142998   7.851   1.650   3.032
14351TIP3    H242999   7.902   1.536   2.947
14352TIP3   OH243000   5.632   4.091   0.281
14352TIP3    H143001   5.675   4.158   0.228
14352TIP3    H243002   5.682   4.089   0.363
14353TIP3   OH243003   7.779   5.482   4.099
14353TIP3    H143004   7.800   5.407   4.154
14353TIP3    H243005   7.732   5.542   4.157
14354TIP3   OH243006   4.754   3.282   0.454
14354TIP3    H143007   4.789   3.215   0.395
14354TIP3    H243008   4.775   3.250   0.542
14355TIP3   OH243009   4.716   6.951   4.920
14355TIP3    H143010   4.717   6.856   4.936
14355TIP3    H243011   4.689   6.989   5.004
14356TIP3   OH243012   1.448   6.588   3.953
14356TIP3    H143013   1.536   6.579   3.989
14356TIP3    H243014   1.461   6.610   3.861
14357TIP3   OH243015   0.774   2.451   4.972
14357TIP3    H143016   0.690   2.437   5.016
14357TIP3    H243017   0.765   2.536   4.929
14358TIP3   OH243018   1.457   3.140   5.962
14358TIP3    H143019   1.405   3.107   6.035
14358TIP3    H243020   1.545   3.106   5.978
14359TIP3   OH243021   2.399   0.489   2.383
14359TIP3    H143022   2.308   0.462   2.372
14359TIP3    H243023   2.396   0.584   2.390
14360TIP3   OH243024   0.301   3.615   0.375
14360TIP3    H143025   0.312   3.530   0.332
14360TIP3    H243026   0.234   3.659   0.323
14361TIP3   OH243027   1.233   6.524   6.559
14361TIP3    H143028   1.166   6.574   6.605
14361TIP3    H243029   1.196   6.436   6.552
14362TIP3   OH243030   7.808   1.579   6.288
14362TIP3    H143031   7.761   1.574   6.371
14362TIP3    H243032   7.823   1.673   6.275
14363TIP3   OH243033   2.727   6.493   2.306
14363TIP3    H143034   2.716   6.402   2.333
14363TIP3    H243035   2.812   6.518   2.342
14364TIP3   OH243036   1.220   2.508   1.911
14364TIP3    H143037   1.250   2.477   1.997
14364TIP3    H243038   1.131   2.475   1.903
14365TIP3   OH243039   0.349   6.030   2.864
14365TIP3    H143040   0.442   6.032   2.842
14365TIP3    H243041   0.322   6.122   2.864
14366TIP3   OH243042   7.408   4.176   1.391
14366TIP3    H143043   7.427   4.216   1.306
14366TIP3    H243044   7.437   4.086   1.382
14367TIP3   OH243045   4.710   0.220   4.334
14367TIP3    H143046   4.733   0.275   4.259
14367TIP3    H243047   4.619   0.242   4.354
14368TIP3   OH243048   0.119   5.048   3.100
14368TIP3    H143049   0.182   5.042   3.028
14368TIP3    H243050   0.151   5.120   3.154
14369TIP3   OH243051   1.023   4.818   3.675
14369TIP3    H143052   1.116   4.817   3.656
14369TIP3    H243053   0.982   4.772   3.601
14370TIP3   OH243054   3.569   5.438   1.719
14370TIP3    H143055   3.531   5.364   1.672
14370TIP3    H243056   3.532   5.515   1.675
14371TIP3   OH243057   7.450   6.313   1.904
14371TIP3    H143058   7.535   6.307   1.948
14371TIP3    H243059   7.441   6.405   1.881
14372TIP3   OH243060   7.608   7.371   5.902
14372TIP3    H143061   7.681   7.389   5.961
14372TIP3    H243062   7.650   7.341   5.822
14373TIP3   OH243063   4.632   0.642   0.813
14373TIP3    H143064   4.709   0.591   0.787
14373TIP3    H243065   4.584   0.654   0.732
14374TIP3   OH243066   0.822   7.643   1.999
14374TIP3    H143067   0.825   7.642   1.903
14374TIP3    H243068   0.736   7.608   2.021
14375TIP3   OH243069   5.033   2.685   1.141
14375TIP3    H143070   4.939   2.685   1.123
14375TIP3    H243071   5.073   2.675   1.054
14376TIP3   OH243072   1.963   4.516   2.751
14376TIP3    H143073   1.934   4.530   2.660
14376TIP3    H243074   2.054   4.545   2.752
14377TIP3   OH243075   5.560   0.951   4.242
14377TIP3    H143076   5.562   1.003   4.162
14377TIP3    H243077   5.652   0.931   4.260
14378TIP3   OH243078   5.006   0.175   2.858
14378TIP3    H143079   5.069   0.103   2.868
14378TIP3    H243080   5.052   0.239   2.803
14379TIP3   OH243081   0.539   7.251   2.419
14379TIP3    H143082   0.446   7.259   2.395
14379TIP3    H243083   0.550   7.306   2.496
14380TIP3   OH243084   5.022   0.714   1.110
14380TIP3    H143085   5.051   0.753   1.193
14380TIP3    H243086   5.058   0.625   1.112
14381TIP3   OH243087   1.910   2.699   3.712
14381TIP3    H143088   1.940   2.784   3.744
14381TIP3    H243089   1.904   2.645   3.791
14382TIP3   OH243090   4.245   6.399   4.301
14382TIP3    H143091   4.306   6.353   4.359
14382TIP3    H243092   4.271   6.373   4.213
14383TIP3   OH243093   7.385   3.165   5.334
14383TIP3    H143094   7.325   3.127   5.397
14383TIP3    H243095   7.439   3.225   5.385
14384TIP3   OH243096   1.573   6.262   3.498
14384TIP3    H143097   1.613   6.328   3.442
14384TIP3    H243098   1.603   6.178   3.462
14385TIP3   OH243099   2.830   1.152   6.600
14385TIP3    H143100   2.755   1.200   6.637
14385TIP3    H243101   2.830   1.177   6.507
14386TIP3   OH243102   5.613   3.894   4.719
14386TIP3    H143103   5.593   3.951   4.645
14386TIP3    H243104   5.556   3.817   4.706
14387TIP3   OH243105   3.654   4.606   3.366
14387TIP3    H143106   3.726   4.602   3.429
14387TIP3    H243107   3.676   4.678   3.308
14388TIP3   OH243108   4.322   6.610   3.681
14388TIP3    H143109   4.310   6.526   3.726
14388TIP3    H243110   4.236   6.652   3.684
14389TIP3   OH243111   3.475   4.020   0.457
14389TIP3    H143112   3.486   4.115   0.457
14389TIP3    H243113   3.425   4.001   0.377
14390TIP3   OH243114   0.688   4.873   0.088
14390TIP3    H143115   0.730   4.958   0.080
14390TIP3    H243116   0.758   4.810   0.071
14391TIP3   OH243117   1.695   2.673   1.276
14391TIP3    H143118   1.735   2.605   1.329
14391TIP3    H243119   1.768   2.709   1.225
14392TIP3   OH243120   3.256   7.274   0.913
14392TIP3    H143121   3.262   7.214   0.838
14392TIP3    H243122   3.192   7.232   0.971
14393TIP3   OH243123   4.180   7.211   1.415
14393TIP3    H143124   4.143   7.290   1.374
14393TIP3    H243125   4.274   7.219   1.401
14394TIP3   OH243126   3.559   1.369   4.405
14394TIP3    H143127   3.616   1.292   4.401
14394TIP3    H243128   3.537   1.386   4.313
14395TIP3   OH243129   7.175   4.014   4.697
14395TIP3    H143130   7.094   4.040   4.652
14395TIP3    H243131   7.216   4.098   4.721
14396TIP3   OH243132   0.808   5.180   5.260
14396TIP3    H143133   0.817   5.110   5.325
14396TIP3    H243134   0.716   5.207   5.267
14397TIP3   OH243135   3.122   6.503   0.270
14397TIP3    H143136   3.082   6.561   0.205
14397TIP3    H243137   3.212   6.492   0.240
14398TIP3   OH243138   5.521   1.396   2.685
14398TIP3    H143139   5.531   1.355   2.599
14398TIP3    H243140   5.504   1.323   2.744
14399TIP3   OH243141   2.463   2.675   4.480
14399TIP3    H143142   2.518   2.741   4.522
14399TIP3    H243143   2.477   2.596   4.532
14400TIP3   OH243144   1.086   0.479   4.958
14400TIP3    H143145   1.110   0.556   4.907
14400TIP3    H243146   1.099   0.505   5.049
14401TIP3   OH243147   6.431   4.489   6.125
14401TIP3    H143148   6.397   4.534   6.202
14401TIP3    H243149   6.495   4.549   6.088
14402TIP3   OH243150   7.760   6.424   6.333
14402TIP3    H143151   7.699   6.370   6.282
14402TIP3    H243152   7.712   6.506   6.347
14403TIP3   OH243153   1.290   0.126   3.248
14403TIP3    H143154   1.276   0.056   3.184
14403TIP3    H243155   1.308   0.203   3.194
14404TIP3   OH243156   0.911   5.784   0.229
14404TIP3    H143157   0.938   5.860   0.281
14404TIP3    H243158   0.868   5.821   0.152
14405TIP3   OH243159   2.934   0.894   2.930
14405TIP3    H143160   2.896   0.973   2.970
14405TIP3    H243161   2.938   0.831   3.002
14406TIP3   OH243162   0.257   0.930   1.513
14406TIP3    H143163   0.340   0.953   1.554
14406TIP3    H243164   0.251   0.987   1.437
14407TIP3   OH243165   6.451   6.175   0.714
14407TIP3    H143166   6.447   6.189   0.620
14407TIP3    H243167   6.360   6.185   0.744
14408TIP3   OH243168   4.212   4.960   2.724
14408TIP3    H143169   4.268   5.022   2.771
14408TIP3    H243170   4.145   5.015   2.683
14409TIP3   OH243171   5.421   2.765   3.530
14409TIP3    H143172   5.511   2.773   3.561
14409TIP3    H243173   5.407   2.843   3.477
14410TIP3   OH243174   1.400   6.121   0.788
14410TIP3    H143175   1.454   6.158   0.718
14410TIP3    H243176   1.415   6.027   0.782
14411TIP3   OH243177   4.657   1.385   0.275
14411TIP3    H143178   4.637   1.406   0.366
14411TIP3    H243179   4.589   1.322   0.250
14412TIP3   OH243180   3.159   1.217   3.611
14412TIP3    H143181   3.107   1.150   3.656
14412TIP3    H243182   3.137   1.207   3.518
14413TIP3   OH243183   0.289   5.538   5.161
14413TIP3    H143184   0.203   5.497   5.163
14413TIP3    H243185   0.344   5.477   5.111
14414TIP3   OH243186   0.611   5.353   2.616
14414TIP3    H143187   0.602   5.443   2.583
14414TIP3    H243188   0.705   5.337   2.617
14415TIP3   OH243189   1.369   6.491   6.800
14415TIP3    H143190   1.325   6.513   6.718
14415TIP3    H243191   1.384   6.576   6.842
14416TIP3   OH243192   8.161   5.924   1.475
14416TIP3    H143193   8.217   5.971   1.537
14416TIP3    H243194   8.142   5.841   1.519
14417TIP3   OH243195   2.806   0.566   6.451
14417TIP3    H143196   2.869   0.636   6.471
14417TIP3    H243197   2.845   0.488   6.490
14418TIP3   OH243198   7.898   5.787   2.373
14418TIP3    H143199   7.804   5.804   2.365
14418TIP3    H243200   7.936   5.874   2.387
14419TIP3   OH243201   8.006   3.156   1.863
14419TIP3    H143202   7.969   3.132   1.778
14419TIP3    H243203   7.945   3.222   1.897
14420TIP3   OH243204   6.095   5.454   2.362
14420TIP3    H143205   6.080   5.531   2.417
14420TIP3    H243206   6.022   5.454   2.301
14421TIP3   OH243207   3.553   6.775   2.440
14421TIP3    H143208   3.574   6.824   2.360
14421TIP3    H243209   3.466   6.739   2.424
14422TIP3   OH243210   0.470   1.239   2.142
14422TIP3    H143211   0.388   1.192   2.158
14422TIP3    H243212   0.443   1.328   2.119
14423TIP3   OH243213   4.692   5.366   3.994
14423TIP3    H143214   4.747   5.432   4.036
14423TIP3    H243215   4.753   5.301   3.961
14424TIP3   OH243216   4.347   4.456   4.421
14424TIP3    H143217   4.313   4.534   4.378
14424TIP3    H243218   4.294   4.384   4.387
14425TIP3   OH243219   4.300   1.504   6.339
14425TIP3    H143220   4.205   1.511   6.327
14425TIP3    H243221   4.316   1.547   6.423
14426TIP3   OH243222   0.179   6.731   5.394
14426TIP3    H143223   0.142   6.683   5.320
14426TIP3    H243224   0.122   6.710   5.468
14427TIP3   OH243225   1.530   7.173   1.676
14427TIP3    H143226   1.563   7.106   1.617
14427TIP3    H243227   1.450   7.205   1.634
14428TIP3   OH243228   1.008   0.106   4.132
14428TIP3    H143229   1.099   0.130   4.149
14428TIP3    H243230   1.009   0.067   4.045
14429TIP3   OH243231   4.876   6.262   3.798
14429TIP3    H143232   4.783   6.249   3.780
14429TIP3    H243233   4.879   6.328   3.867
14430TIP3   OH243234   5.790   3.233   1.170
14430TIP3    H143235   5.797   3.242   1.075
14430TIP3    H243236   5.757   3.144   1.184
14431TIP3   OH243237   3.499   3.410   0.521
14431TIP3    H143238   3.433   3.435   0.586
14431TIP3    H243239   3.473   3.323   0.491
14432TIP3   OH243240   4.589   0.924   4.239
14432TIP3    H143241   4.574   1.019   4.244
14432TIP3    H243242   4.682   0.916   4.218
14433TIP3   OH243243   2.542   1.764   6.070
14433TIP3    H143244   2.476   1.788   6.005
14433TIP3    H243245   2.591   1.693   6.028
14434TIP3   OH243246   4.125   1.215   3.987
14434TIP3    H143247   4.068   1.243   4.059
14434TIP3    H243248   4.208   1.261   4.002
14435TIP3   OH243249   2.278   5.243   5.967
14435TIP3    H143250   2.369   5.262   5.945
14435TIP3    H243251   2.272   5.259   6.062
14436TIP3   OH243252   3.984   2.070   6.346
14436TIP3    H143253   4.023   2.134   6.405
14436TIP3    H243254   4.033   1.989   6.361
14437TIP3   OH243255   0.473   2.494   0.010
14437TIP3    H143256   0.537   2.522  -0.055
14437TIP3    H243257   0.523   2.443   0.073
14438TIP3   OH243258   7.024   6.958   0.116
14438TIP3    H143259   6.995   6.955   0.207
14438TIP3    H243260   7.085   7.032   0.113
14439TIP3   OH243261   4.231   3.527   3.928
14439TIP3    H143262   4.286   3.467   3.978
14439TIP3    H243263   4.246   3.613   3.967
14440TIP3   OH243264   0.763   1.014   2.632
14440TIP3    H143265   0.717   1.037   2.552
14440TIP3    H243266   0.694   0.980   2.690
14441TIP3   OH243267   1.358   5.846   2.797
14441TIP3    H143268   1.273   5.890   2.807
14441TIP3    H243269   1.417   5.913   2.765
14442TIP3   OH243270   3.731   5.853   3.959
14442TIP3    H143271   3.725   5.759   3.948
14442TIP3    H243272   3.812   5.867   4.007
14443TIP3   OH243273   5.782   3.300   3.953
14443TIP3    H143274   5.745   3.387   3.970
14443TIP3    H243275   5.735   3.270   3.875
14444TIP3   OH243276   7.603   5.266   1.174
14444TIP3    H143277   7.671   5.330   1.195
14444TIP3    H243278   7.549   5.310   1.108
14445TIP3   OH243279   8.017   7.123   5.362
14445TIP3    H143280   8.090   7.159   5.414
14445TIP3    H243281   7.958   7.198   5.350
14446TIP3   OH243282   1.698   7.641   2.664
14446TIP3    H143283   1.727   7.642   2.573
14446TIP3    H243284   1.761   7.694   2.711
14447TIP3   OH243285   0.108   3.741   0.247
14447TIP3    H143286   0.097   3.833   0.221
14447TIP3    H243287   0.018   3.707   0.251
14448TIP3   OH243288   0.307   2.211   1.520
14448TIP3    H143289   0.310   2.134   1.576
14448TIP3    H243290   0.305   2.285   1.582
14449TIP3   OH243291   3.620   4.342   4.099
14449TIP3    H143292   3.606   4.330   4.005
14449TIP3    H243293   3.610   4.255   4.137
14450TIP3   OH243294   0.949   0.838   6.656
14450TIP3    H143295   0.942   0.828   6.561
14450TIP3    H243296   0.891   0.911   6.677
14451TIP3   OH243297   5.446   5.698   3.233
14451TIP3    H143298   5.539   5.693   3.215
14451TIP3    H243299   5.424   5.791   3.224
14452TIP3   OH243300   4.251   3.840   0.078
14452TIP3    H143301   4.207   3.806   0.000
14452TIP3    H243302   4.207   3.797   0.151
14453TIP3   OH243303   4.499   6.836   3.765
14453TIP3    H143304   4.439   6.762   3.774
14453TIP3    H243305   4.583   6.797   3.742
14454TIP3   OH243306   1.678   5.707   6.242
14454TIP3    H143307   1.619   5.702   6.318
14454TIP3    H243308   1.642   5.778   6.189
14455TIP3   OH243309   5.685   2.729   1.343
14455TIP3    H143310   5.750   2.726   1.413
14455TIP3    H243311   5.605   2.698   1.384
14456TIP3   OH243312   5.995   1.483   1.152
14456TIP3    H143313   6.039   1.511   1.071
14456TIP3    H243314   6.059   1.427   1.196
14457TIP3   OH243315   1.948   0.699   0.441
14457TIP3    H143316   1.898   0.691   0.360
14457TIP3    H243317   1.906   0.771   0.488
14458TIP3   OH243318   7.913   1.234   5.928
14458TIP3    H143319   7.831   1.230   5.977
14458TIP3    H243320   7.889   1.212   5.838
14459TIP3   OH243321   2.921   5.580   3.800
14459TIP3    H143322   2.833   5.610   3.778
14459TIP3    H243323   2.908   5.518   3.872
14460TIP3   OH243324   0.797   0.382   3.496
14460TIP3    H143325   0.856   0.377   3.420
14460TIP3    H243326   0.767   0.472   3.496
14461TIP3   OH243327   3.861   1.811   5.104
14461TIP3    H143328   3.942   1.796   5.057
14461TIP3    H243329   3.872   1.763   5.186
14462TIP3   OH243330   3.476   1.907   4.217
14462TIP3    H143331   3.399   1.937   4.265
14462TIP3    H243332   3.483   1.814   4.239
14463TIP3   OH243333   7.972   4.798   4.878
14463TIP3    H143334   8.038   4.729   4.878
14463TIP3    H243335   7.951   4.811   4.971
14464TIP3   OH243336   3.048   5.869   3.849
14464TIP3    H143337   2.997   5.801   3.804
14464TIP3    H243338   3.122   5.821   3.886
14465TIP3   OH243339   3.229   5.041   1.691
14465TIP3    H143340   3.282   4.980   1.742
14465TIP3    H243341   3.217   4.999   1.607
14466TIP3   OH243342   7.809   6.382   3.332
14466TIP3    H143343   7.898   6.349   3.319
14466TIP3    H243344   7.817   6.444   3.404
14467TIP3   OH243345   0.783   1.814   3.612
14467TIP3    H143346   0.838   1.868   3.556
14467TIP3    H243347   0.702   1.864   3.622
14468TIP3   OH243348   3.683   3.462   0.931
14468TIP3    H143349   3.708   3.410   0.855
14468TIP3    H243350   3.744   3.435   1.000
14469TIP3   OH243351   4.514   4.455   6.446
14469TIP3    H143352   4.568   4.486   6.519
14469TIP3    H243353   4.492   4.534   6.397
14470TIP3   OH243354   7.550   4.562   0.206
14470TIP3    H143355   7.610   4.617   0.156
14470TIP3    H243356   7.481   4.539   0.145
14471TIP3   OH243357   3.944   6.523   1.910
14471TIP3    H143358   4.001   6.450   1.932
14471TIP3    H243359   3.942   6.525   1.815
14472TIP3   OH243360   7.559   1.015   2.531
14472TIP3    H143361   7.626   1.069   2.573
14472TIP3    H243362   7.486   1.076   2.516
14473TIP3   OH243363   5.893   1.315   1.680
14473TIP3    H143364   5.933   1.342   1.597
14473TIP3    H243365   5.799   1.314   1.662
14474TIP3   OH243366   1.837   6.524   6.187
14474TIP3    H143367   1.767   6.572   6.142
14474TIP3    H243368   1.911   6.585   6.190
14475TIP3   OH243369   4.517   7.355   2.345
14475TIP3    H143370   4.476   7.346   2.432
14475TIP3    H243371   4.561   7.440   2.348
14476TIP3   OH243372   2.473   5.797   4.114
14476TIP3    H143373   2.504   5.850   4.041
14476TIP3    H243374   2.456   5.861   4.184
14477TIP3   OH243375   7.854   7.429   6.024
14477TIP3    H143376   7.903   7.468   6.096
14477TIP3    H243377   7.912   7.363   5.987
14478TIP3   OH243378   7.024   2.356   5.430
14478TIP3    H143379   7.040   2.271   5.472
14478TIP3    H243380   6.969   2.403   5.491
14479TIP3   OH243381   1.083   1.946   4.079
14479TIP3    H143382   1.122   2.033   4.091
14479TIP3    H243383   1.008   1.962   4.022
14480TIP3   OH243384   2.619   0.308   2.393
14480TIP3    H143385   2.551   0.374   2.385
14480TIP3    H243386   2.572   0.226   2.406
14481TIP3   OH243387   6.907   4.846   0.492
14481TIP3    H143388   6.979   4.799   0.449
14481TIP3    H243389   6.830   4.825   0.440
14482TIP3   OH243390   6.599   3.649   3.493
14482TIP3    H143391   6.688   3.679   3.473
14482TIP3    H243392   6.544   3.725   3.473
14483TIP3   OH243393   5.524   6.300   5.483
14483TIP3    H143394   5.532   6.361   5.410
14483TIP3    H243395   5.605   6.310   5.532
14484TIP3   OH243396   7.359   1.974   1.831
14484TIP3    H143397   7.265   1.963   1.847
14484TIP3    H243398   7.388   1.889   1.799
14485TIP3   OH243399   3.066   3.800   4.259
14485TIP3    H143400   2.998   3.833   4.318
14485TIP3    H243401   3.086   3.874   4.202
14486TIP3   OH243402   1.800   7.673   0.663
14486TIP3    H143403   1.874   7.710   0.614
14486TIP3    H243404   1.821   7.691   0.755
14487TIP3   OH243405   0.579   5.823   4.097
14487TIP3    H143406   0.499   5.832   4.044
14487TIP3    H243407   0.588   5.729   4.111
14488TIP3   OH243408   6.965   4.766   3.378
14488TIP3    H143409   6.932   4.847   3.338
14488TIP3    H243410   6.906   4.750   3.451
14489TIP3   OH243411   4.734   0.677   2.569
14489TIP3    H143412   4.710   0.746   2.631
14489TIP3    H243413   4.658   0.670   2.511
14490TIP3   OH243414   1.213   0.953   5.963
14490TIP3    H143415   1.210   0.960   6.059
14490TIP3    H243416   1.264   1.029   5.935
14491TIP3   OH243417   3.045   4.383   1.848
14491TIP3    H143418   3.049   4.318   1.778
14491TIP3    H243419   3.124   4.368   1.900
14492TIP3   OH243420   7.430   4.150   2.798
14492TIP3    H143421   7.381   4.096   2.860
14492TIP3    H243422   7.466   4.221   2.852
14493TIP3   OH243423   1.058   0.369   2.870
14493TIP3    H143424   1.093   0.364   2.959
14493TIP3    H243425   1.050   0.463   2.853
14494TIP3   OH243426   5.631   4.686   2.553
14494TIP3    H143427   5.595   4.625   2.617
14494TIP3    H243428   5.725   4.683   2.567
14495TIP3   OH243429   6.549   7.463   6.311
14495TIP3    H143430   6.625   7.424   6.268
14495TIP3    H243431   6.475   7.407   6.286
14496TIP3   OH243432   5.447   3.672   0.817
14496TIP3    H143433   5.490   3.592   0.849
14496TIP3    H243434   5.381   3.691   0.883
14497TIP3   OH243435   7.297   5.434   5.108
14497TIP3    H143436   7.273   5.424   5.200
14497TIP3    H243437   7.393   5.433   5.108
14498TIP3   OH243438   0.170   3.835   3.193
14498TIP3    H143439   0.245   3.846   3.251
14498TIP3    H243440   0.113   3.910   3.214
14499TIP3   OH243441   6.446   0.578   1.319
14499TIP3    H143442   6.465   0.588   1.412
14499TIP3    H243443   6.403   0.660   1.295
14500TIP3   OH243444   0.526   5.516   1.765
14500TIP3    H143445   0.511   5.488   1.856
14500TIP3    H243446   0.472   5.458   1.712
14501TIP3   OH243447   6.884   6.601   5.206
14501TIP3    H143448   6.873   6.511   5.177
14501TIP3    H243449   6.896   6.594   5.301
14502TIP3   OH243450   8.267   1.233   2.708
14502TIP3    H143451   8.336   1.266   2.650
14502TIP3    H243452   8.246   1.146   2.674
14503TIP3   OH243453   0.485   6.391   4.176
14503TIP3    H143454   0.504   6.476   4.214
14503TIP3    H243455   0.409   6.406   4.119
14504TIP3   OH243456   3.039   4.424   2.445
14504TIP3    H143457   3.047   4.394   2.354
14504TIP3    H243458   2.978   4.497   2.441
14505TIP3   OH243459   0.397   4.466   2.887
14505TIP3    H143460   0.321   4.484   2.941
14505TIP3    H243461   0.380   4.379   2.850
14506TIP3   OH243462   5.489   6.804   2.978
14506TIP3    H143463   5.534   6.786   3.060
14506TIP3    H243464   5.398   6.821   3.004
14507TIP3   OH243465   3.126   3.213   6.757
14507TIP3    H143466   3.119   3.251   6.670
14507TIP3    H243467   3.164   3.283   6.811
14508TIP3   OH243468   6.987   6.366   3.654
14508TIP3    H143469   7.053   6.429   3.683
14508TIP3    H243470   7.027   6.323   3.578
14509TIP3   OH243471   5.387   6.654   4.037
14509TIP3    H143472   5.361   6.569   4.072
14509TIP3    H243473   5.337   6.717   4.088
14510TIP3   OH243474   1.651   7.028   0.361
14510TIP3    H143475   1.663   6.968   0.434
14510TIP3    H243476   1.641   7.114   0.401
14511TIP3   OH243477   2.202   5.240   4.123
14511TIP3    H143478   2.244   5.239   4.209
14511TIP3    H243479   2.265   5.284   4.065
14512TIP3   OH243480   6.966   6.342   6.209
14512TIP3    H143481   6.966   6.262   6.157
14512TIP3    H243482   7.059   6.364   6.219
14513TIP3   OH243483   6.044   4.476   6.426
14513TIP3    H143484   6.069   4.547   6.367
14513TIP3    H243485   6.127   4.444   6.461
14514TIP3   OH243486   5.564   1.245   6.027
14514TIP3    H143487   5.604   1.314   5.974
14514TIP3    H243488   5.493   1.289   6.074
14515TIP3   OH243489   5.475   2.578   1.439
14515TIP3    H143490   5.408   2.535   1.386
14515TIP3    H243491   5.469   2.535   1.524
14516TIP3   OH243492   2.105   1.640   4.400
14516TIP3    H143493   2.079   1.684   4.318
14516TIP3    H243494   2.157   1.705   4.446
14517TIP3   OH243495   2.481   1.859   0.061
14517TIP3    H143496   2.406   1.831   0.008
14517TIP3    H243497   2.527   1.921   0.005
14518TIP3   OH243498   1.593   4.837   0.052
14518TIP3    H143499   1.554   4.789  -0.021
14518TIP3    H243500   1.615   4.923   0.016
14519TIP3   OH243501   2.433   2.811   6.705
14519TIP3    H143502   2.465   2.721   6.705
14519TIP3    H243503   2.346   2.806   6.744
14520TIP3   OH243504   2.285   6.223   4.010
14520TIP3    H143505   2.371   6.186   3.994
14520TIP3    H243506   2.250   6.241   3.922
14521TIP3   OH243507   6.577   5.207   1.491
14521TIP3    H143508   6.625   5.271   1.438
14521TIP3    H243509   6.490   5.246   1.501
14522TIP3   OH243510   3.935   4.130   5.009
14522TIP3    H143511   3.957   4.098   5.097
14522TIP3    H243512   3.843   4.155   5.014
14523TIP3   OH243513   3.486   5.478   2.508
14523TIP3    H143514   3.560   5.499   2.565
14523TIP3    H243515   3.525   5.468   2.421
14524TIP3   OH243516   3.838   1.331   0.926
14524TIP3    H143517   3.880   1.308   1.008
14524TIP3    H243518   3.815   1.424   0.936
14525TIP3   OH243519   8.072   2.143   3.037
14525TIP3    H143520   7.977   2.140   3.027
14525TIP3    H243521   8.095   2.235   3.023
14526TIP3   OH243522   6.411   7.519   6.525
14526TIP3    H143523   6.331   7.550   6.482
14526TIP3    H243524   6.467   7.489   6.453
14527TIP3   OH243525   7.242   2.506   5.274
14527TIP3    H143526   7.169   2.449   5.300
14527TIP3    H243527   7.318   2.448   5.272
14528TIP3   OH243528   5.791   6.288   5.261
14528TIP3    H143529   5.841   6.289   5.179
14528TIP3    H243530   5.720   6.352   5.246
14529TIP3   OH243531   2.502   3.508   4.021
14529TIP3    H143532   2.572   3.569   3.998
14529TIP3    H243533   2.508   3.439   3.954
14530TIP3   OH243534   2.670   6.077   3.204
14530TIP3    H143535   2.695   6.058   3.114
14530TIP3    H243536   2.748   6.057   3.255
14531TIP3   OH243537   2.971   3.937   5.121
14531TIP3    H143538   3.001   3.854   5.159
14531TIP3    H243539   2.877   3.938   5.138
14532TIP3   OH243540   0.157   6.233   4.313
14532TIP3    H143541   0.248   6.212   4.292
14532TIP3    H243542   0.118   6.261   4.231
14533TIP3   OH243543   4.310   7.549   6.521
14533TIP3    H143544   4.264   7.559   6.604
14533TIP3    H243545   4.294   7.458   6.496
14534TIP3   OH243546   3.025   7.847   0.777
14534TIP3    H143547   2.938   7.861   0.815
14534TIP3    H243548   3.014   7.772   0.719
14535TIP3   OH243549   0.367   7.445   4.344
14535TIP3    H143550   0.420   7.495   4.281
14535TIP3    H243551   0.313   7.388   4.289
14536TIP3   OH243552   4.054   2.849   6.515
14536TIP3    H143553   4.138   2.802   6.521
14536TIP3    H243554   4.064   2.923   6.574
14537TIP3   OH243555   1.480   6.774   5.349
14537TIP3    H143556   1.555   6.832   5.362
14537TIP3    H243557   1.419   6.797   5.419
14538TIP3   OH243558   3.023   0.889   1.292
14538TIP3    H143559   3.002   0.882   1.385
14538TIP3    H243560   3.019   0.983   1.273
14539TIP3   OH243561   6.836   4.657   6.726
14539TIP3    H143562   6.863   4.647   6.635
14539TIP3    H243563   6.797   4.572   6.749
14540TIP3   OH243564   6.503   1.191   5.450
14540TIP3    H143565   6.426   1.146   5.415
14540TIP3    H243566   6.515   1.154   5.538
14541TIP3   OH243567   7.495   5.527   6.365
14541TIP3    H143568   7.524   5.528   6.274
14541TIP3    H243569   7.554   5.589   6.409
14542TIP3   OH243570   0.468   3.508   3.298
14542TIP3    H143571   0.502   3.596   3.281
14542TIP3    H243572   0.401   3.521   3.366
14543TIP3   OH243573   1.283   2.435   3.353
14543TIP3    H143574   1.318   2.389   3.429
14543TIP3    H243575   1.279   2.369   3.284
14544TIP3   OH243576   5.643   3.471   2.704
14544TIP3    H143577   5.718   3.478   2.763
14544TIP3    H243578   5.567   3.466   2.762
14545TIP3   OH243579   3.203   7.314   1.642
14545TIP3    H143580   3.250   7.271   1.714
14545TIP3    H243581   3.122   7.345   1.681
14546TIP3   OH243582   2.180   5.777   1.681
14546TIP3    H143583   2.199   5.763   1.588
14546TIP3    H243584   2.106   5.837   1.681
14547TIP3   OH243585   0.561   1.294   1.790
14547TIP3    H143586   0.587   1.214   1.836
14547TIP3    H243587   0.569   1.272   1.697
14548TIP3   OH243588   0.276   2.401   1.731
14548TIP3    H143589   0.184   2.425   1.726
14548TIP3    H243590   0.323   2.481   1.704
14549TIP3   OH243591   6.887   7.275   3.982
14549TIP3    H143592   6.979   7.289   4.004
14549TIP3    H243593   6.860   7.356   3.938
14550TIP3   OH243594   5.460   7.375   3.676
14550TIP3    H143595   5.387   7.362   3.737
14550TIP3    H243596   5.533   7.401   3.731
14551TIP3   OH243597   4.097   1.412   1.314
14551TIP3    H143598   4.110   1.479   1.382
14551TIP3    H243599   4.174   1.355   1.321
14552TIP3   OH243600   3.738   4.742   6.021
14552TIP3    H143601   3.730   4.665   5.964
14552TIP3    H243602   3.787   4.805   5.969
14553TIP3   OH243603   2.847   5.026   4.671
14553TIP3    H143604   2.764   5.074   4.674
14553TIP3    H243605   2.893   5.064   4.596
14554TIP3   OH243606   1.970   0.701   1.866
14554TIP3    H143607   2.023   0.621   1.865
14554TIP3    H243608   1.946   0.715   1.774
14555TIP3   OH243609   8.300   6.527   0.057
14555TIP3    H143610   8.326   6.438   0.034
14555TIP3    H243611   8.217   6.541   0.011
14556TIP3   OH243612   4.064   0.313   0.543
14556TIP3    H143613   4.140   0.370   0.546
14556TIP3    H243614   4.073   0.265   0.460
14557TIP3   OH243615   4.285   1.368   0.068
14557TIP3    H143616   4.212   1.325   0.112
14557TIP3    H243617   4.254   1.456   0.050
14558TIP3   OH243618   7.688   6.170   2.607
14558TIP3    H143619   7.608   6.212   2.637
14558TIP3    H243620   7.658   6.092   2.560
14559TIP3   OH243621   2.921   2.962   5.868
14559TIP3    H143622   2.948   2.962   5.960
14559TIP3    H243623   2.851   2.897   5.863
14560TIP3   OH243624   4.006   7.643   3.250
14560TIP3    H143625   4.000   7.738   3.238
14560TIP3    H243626   4.098   7.627   3.273
14561TIP3   OH243627   5.397   5.025   2.647
14561TIP3    H143628   5.395   4.950   2.588
14561TIP3    H243629   5.457   5.087   2.605
14562TIP3   OH243630   3.590   7.562   1.187
14562TIP3    H143631   3.557   7.490   1.134
14562TIP3    H243632   3.516   7.589   1.241
14563TIP3   OH243633   1.299   7.828   3.581
14563TIP3    H143634   1.333   7.742   3.556
14563TIP3    H243635   1.204   7.821   3.572
14564TIP3   OH243636   6.221   1.640   5.054
14564TIP3    H143637   6.205   1.614   4.963
14564TIP3    H243638   6.316   1.640   5.063
14565TIP3   OH243639   5.573   0.550   5.912
14565TIP3    H143640   5.558   0.477   5.852
14565TIP3    H243641   5.489   0.596   5.916
14566TIP3   OH243642   2.419   4.140   2.850
14566TIP3    H143643   2.411   4.228   2.813
14566TIP3    H243644   2.509   4.137   2.883
14567TIP3   OH243645   5.502   0.291   6.779
14567TIP3    H143646   5.548   0.213   6.811
14567TIP3    H243647   5.568   0.360   6.783
14568TIP3   OH243648   2.330   3.111   0.790
14568TIP3    H143649   2.376   3.117   0.874
14568TIP3    H243650   2.240   3.137   0.810
14569TIP3   OH243651   2.114   3.189   5.149
14569TIP3    H143652   2.161   3.223   5.225
14569TIP3    H243653   2.089   3.100   5.175
14570TIP3   OH243654   3.442   3.847   6.389
14570TIP3    H143655   3.404   3.776   6.337
14570TIP3    H243656   3.474   3.910   6.323
14571TIP3   OH243657   1.402   5.161   4.823
14571TIP3    H143658   1.352   5.133   4.746
14571TIP3    H243659   1.493   5.139   4.801
14572TIP3   OH243660   1.283   5.572   3.100
14572TIP3    H143661   1.229   5.650   3.115
14572TIP3    H243662   1.274   5.555   3.007
14573TIP3   OH243663   5.350   2.779   4.017
14573TIP3    H143664   5.359   2.820   3.931
14573TIP3    H243665   5.400   2.697   4.010
14574TIP3   OH243666   1.176   1.231   1.686
14574TIP3    H143667   1.081   1.228   1.695
14574TIP3    H243668   1.195   1.323   1.666
14575TIP3   OH243669   6.162   4.457   4.715
14575TIP3    H143670   6.160   4.521   4.644
14575TIP3    H243671   6.124   4.504   4.789
14576TIP3   OH243672   0.733   0.180   6.754
14576TIP3    H143673   0.795   0.240   6.714
14576TIP3    H243674   0.717   0.113   6.688
14577TIP3   OH243675   5.896   0.559   6.503
14577TIP3    H143676   5.904   0.464   6.494
14577TIP3    H243677   5.907   0.593   6.414
14578TIP3   OH243678   0.845   1.612   0.390
14578TIP3    H143679   0.891   1.696   0.390
14578TIP3    H243680   0.909   1.550   0.355
14579TIP3   OH243681   5.286   2.043   4.532
14579TIP3    H143682   5.205   2.064   4.486
14579TIP3    H243683   5.277   1.951   4.556
14580TIP3   OH243684   1.025   7.423   1.998
14580TIP3    H143685   1.014   7.508   1.955
14580TIP3    H243686   1.114   7.427   2.034
14581TIP3   OH243687   1.850   0.132   3.999
14581TIP3    H143688   1.831   0.039   4.011
14581TIP3    H243689   1.767   0.171   3.973
14582TIP3   OH243690   0.819   2.495   6.797
14582TIP3    H143691   0.905   2.538   6.797
14582TIP3    H243692   0.785   2.509   6.708
14583TIP3   OH243693   8.208   0.091   5.337
14583TIP3    H143694   8.219   0.185   5.350
14583TIP3    H243695   8.124   0.082   5.292
14584TIP3   OH243696   2.578   2.890   0.046
14584TIP3    H143697   2.541   2.892  -0.042
14584TIP3    H243698   2.668   2.921   0.035
14585TIP3   OH243699   6.515   4.443   5.662
14585TIP3    H143700   6.571   4.393   5.721
14585TIP3    H243701   6.438   4.466   5.715
14586TIP3   OH243702   3.407   1.025   0.270
14586TIP3    H143703   3.392   1.103   0.324
14586TIP3    H243704   3.364   0.954   0.318
14587TIP3   OH243705   6.774   6.114   3.198
14587TIP3    H143706   6.816   6.200   3.197
14587TIP3    H243707   6.845   6.053   3.221
14588TIP3   OH243708   4.009   3.668   5.458
14588TIP3    H143709   3.991   3.710   5.542
14588TIP3    H243710   4.015   3.575   5.478
14589TIP3   OH243711   2.633   1.680   5.632
14589TIP3    H143712   2.582   1.663   5.711
14589TIP3    H243713   2.707   1.732   5.661
14590TIP3   OH243714   5.504   4.742   3.885
14590TIP3    H143715   5.427   4.796   3.902
14590TIP3    H243716   5.470   4.653   3.880
14591TIP3   OH243717   5.048   7.094   4.158
14591TIP3    H143718   5.001   7.084   4.241
14591TIP3    H243719   5.140   7.097   4.183
14592TIP3   OH243720   2.981   5.861   2.254
14592TIP3    H143721   2.910   5.875   2.191
14592TIP3    H243722   3.061   5.872   2.201
14593TIP3   OH243723   7.172   5.632   6.480
14593TIP3    H143724   7.183   5.582   6.561
14593TIP3    H243725   7.231   5.706   6.489
14594TIP3   OH243726   8.269   5.977   1.240
14594TIP3    H143727   8.327   6.050   1.257
14594TIP3    H243728   8.228   5.958   1.324
14595TIP3   OH243729   0.249   2.665   1.234
14595TIP3    H143730   0.227   2.680   1.142
14595TIP3    H243731   0.314   2.733   1.254
14596TIP3   OH243732   1.877   5.880   6.374
14596TIP3    H143733   1.785   5.865   6.396
14596TIP3    H243734   1.875   5.915   6.285
14597TIP3   OH243735   6.343   0.436   4.218
14597TIP3    H143736   6.361   0.451   4.311
14597TIP3    H243737   6.289   0.357   4.216
14598TIP3   OH243738   4.164   7.545   5.979
14598TIP3    H143739   4.219   7.620   6.001
14598TIP3    H243740   4.194   7.517   5.893
14599TIP3   OH243741   5.780   2.481   4.093
14599TIP3    H143742   5.738   2.541   4.155
14599TIP3    H243743   5.813   2.410   4.148
14600TIP3   OH243744   1.913   4.129   4.068
14600TIP3    H143745   1.825   4.127   4.106
14600TIP3    H243746   1.925   4.042   4.030
14601TIP3   OH243747   2.638   1.285   5.675
14601TIP3    H143748   2.704   1.281   5.744
14601TIP3    H243749   2.576   1.352   5.705
14602TIP3   OH243750   2.859   7.613   2.091
14602TIP3    H143751   2.940   7.564   2.077
14602TIP3    H243752   2.790   7.553   2.064
14603TIP3   OH243753   4.590   3.848   6.148
14603TIP3    H143754   4.613   3.801   6.068
14603TIP3    H243755   4.501   3.819   6.169
14604TIP3   OH243756   2.044   2.169   6.195
14604TIP3    H143757   2.094   2.093   6.225
14604TIP3    H243758   2.043   2.228   6.271
14605TIP3   OH243759   6.981   1.507   5.045
14605TIP3    H143760   7.007   1.599   5.043
14605TIP3    H243761   7.015   1.471   4.963
14606TIP3   OH243762   2.914   6.429   6.636
14606TIP3    H143763   2.997   6.427   6.588
14606TIP3    H243764   2.852   6.383   6.580
14607TIP3   OH243765   7.356   5.311   0.350
14607TIP3    H143766   7.286   5.357   0.303
14607TIP3    H243767   7.434   5.364   0.335
14608TIP3   OH243768   2.589   7.565   0.104
14608TIP3    H143769   2.575   7.649   0.150
14608TIP3    H243770   2.528   7.568   0.031
14609TIP3   OH243771   6.953   7.654   5.620
14609TIP3    H143772   6.904   7.704   5.555
14609TIP3    H243773   6.904   7.572   5.629
14610TIP3   OH243774   7.721   2.077   1.665
14610TIP3    H143775   7.767   1.994   1.650
14610TIP3    H243776   7.630   2.059   1.640
14611TIP3   OH243777   2.824   4.178   6.373
14611TIP3    H143778   2.827   4.191   6.468
14611TIP3    H243779   2.793   4.089   6.361
14612TIP3   OH243780   6.527   5.152   2.437
14612TIP3    H143781   6.476   5.139   2.517
14612TIP3    H243782   6.523   5.068   2.392
14613TIP3   OH243783   2.011   0.123   1.435
14613TIP3    H143784   2.085   0.081   1.480
14613TIP3    H243785   2.049   0.160   1.356
14614TIP3   OH243786   5.358   0.980   1.771
14614TIP3    H143787   5.365   0.887   1.753
14614TIP3    H243788   5.432   1.019   1.724
14615TIP3   OH243789   1.215   4.934   4.010
14615TIP3    H143790   1.188   4.848   3.978
14615TIP3    H243791   1.218   4.924   4.105
14616TIP3   OH243792   8.169   6.063   0.599
14616TIP3    H143793   8.247   6.093   0.646
14616TIP3    H243794   8.172   6.108   0.515
14617TIP3   OH243795   4.079   2.092   3.432
14617TIP3    H143796   4.112   2.125   3.348
14617TIP3    H243797   4.109   2.001   3.435
14618TIP3   OH243798   0.764   7.553   6.112
14618TIP3    H143799   0.835   7.614   6.094
14618TIP3    H243800   0.748   7.509   6.028
14619TIP3   OH243801   1.105   5.310   2.330
14619TIP3    H143802   1.139   5.220   2.329
14619TIP3    H243803   1.164   5.357   2.390
14620TIP3   OH243804   0.632   2.770   2.289
14620TIP3    H143805   0.674   2.711   2.352
14620TIP3    H243806   0.692   2.773   2.215
14621TIP3   OH243807   2.970   6.168   0.557
14621TIP3    H143808   3.033   6.239   0.567
14621TIP3    H243809   2.926   6.186   0.474
14622TIP3   OH243810   7.330   7.304   5.946
14622TIP3    H143811   7.425   7.299   5.952
14622TIP3    H243812   7.308   7.388   5.987
14623TIP3   OH243813   3.172   2.613   6.742
14623TIP3    H143814   3.141   2.555   6.672
14623TIP3    H243815   3.233   2.560   6.793
14624TIP3   OH243816   1.143   7.283   3.402
14624TIP3    H143817   1.130   7.368   3.360
14624TIP3    H243818   1.186   7.303   3.485
14625TIP3   OH243819   3.775   1.334   3.424
14625TIP3    H143820   3.860   1.379   3.431
14625TIP3    H243821   3.792   1.246   3.457
14626TIP3   OH243822   6.771   2.100   3.199
14626TIP3    H143823   6.692   2.135   3.239
14626TIP3    H243824   6.742   2.065   3.115
14627TIP3   OH243825   0.993   4.169   3.663
14627TIP3    H143826   0.933   4.190   3.735
14627TIP3    H243827   0.958   4.087   3.626
14628TIP3   OH243828   4.618   5.305   3.380
14628TIP3    H143829   4.537   5.357   3.380
14628TIP3    H243830   4.602   5.235   3.316
14629TIP3   OH243831   0.820   0.218   6.386
14629TIP3    H143832   0.841   0.294   6.440
14629TIP3    H243833   0.875   0.148   6.421
14630TIP3   OH243834   4.966   5.223   5.358
14630TIP3    H143835   4.910   5.146   5.369
14630TIP3    H243836   5.044   5.203   5.410
14631TIP3   OH243837   6.366   2.270   5.644
14631TIP3    H143838   6.440   2.210   5.632
14631TIP3    H243839   6.374   2.332   5.571
14632TIP3   OH243840   2.178   6.336   0.031
14632TIP3    H143841   2.216   6.417  -0.003
14632TIP3    H243842   2.237   6.267  -0.001
14633TIP3   OH243843   3.238   7.075   1.173
14633TIP3    H143844   3.240   6.993   1.223
14633TIP3    H243845   3.179   7.131   1.224
14634TIP3   OH243846   1.357   3.549   0.270
14634TIP3    H143847   1.308   3.542   0.189
14634TIP3    H243848   1.327   3.476   0.323
14635TIP3   OH243849   1.752   1.397   6.182
14635TIP3    H143850   1.755   1.422   6.089
14635TIP3    H243851   1.833   1.348   6.195
14636TIP3   OH243852   0.599   2.411   6.317
14636TIP3    H143853   0.530   2.476   6.327
14636TIP3    H243854   0.580   2.369   6.233
14637TIP3   OH243855   1.595   6.456   3.281
14637TIP3    H143856   1.555   6.414   3.205
14637TIP3    H243857   1.601   6.548   3.258
14638TIP3   OH243858   4.949   0.333   6.316
14638TIP3    H143859   4.867   0.376   6.340
14638TIP3    H243860   4.932   0.240   6.333
14639TIP3   OH243861   2.374   0.673   4.140
14639TIP3    H143862   2.303   0.657   4.077
14639TIP3    H243863   2.454   0.662   4.089
14640TIP3   OH243864   7.086   6.023   0.702
14640TIP3    H143865   7.172   6.000   0.739
14640TIP3    H243866   7.038   5.940   0.702
14641TIP3   OH243867   6.834   1.006   6.532
14641TIP3    H143868   6.782   1.034   6.607
14641TIP3    H243869   6.791   1.046   6.457
14642TIP3   OH243870   5.664   0.566   1.076
14642TIP3    H143871   5.671   0.582   0.981
14642TIP3    H243872   5.596   0.499   1.084
14643TIP3   OH243873   5.757   5.612   0.157
14643TIP3    H143874   5.754   5.654   0.071
14643TIP3    H243875   5.738   5.520   0.139
14644TIP3   OH243876   2.122   6.610   5.553
14644TIP3    H143877   2.129   6.520   5.587
14644TIP3    H243878   2.211   6.634   5.530
14645TIP3   OH243879   7.247   4.821   4.211
14645TIP3    H143880   7.285   4.760   4.274
14645TIP3    H243881   7.185   4.873   4.262
14646TIP3   OH243882   7.354   1.348   5.394
14646TIP3    H143883   7.370   1.355   5.300
14646TIP3    H243884   7.388   1.262   5.418
14647TIP3   OH243885   5.736   7.419   0.914
14647TIP3    H143886   5.825   7.392   0.890
14647TIP3    H243887   5.686   7.337   0.918
14648TIP3   OH243888   0.973   0.873   5.436
14648TIP3    H143889   1.053   0.882   5.385
14648TIP3    H243890   0.929   0.796   5.401
14649TIP3   OH243891   7.168   0.381   1.331
14649TIP3    H143892   7.257   0.391   1.297
14649TIP3    H243893   7.112   0.405   1.257
14650TIP3   OH243894   7.653   0.611   0.504
14650TIP3    H143895   7.650   0.667   0.581
14650TIP3    H243896   7.660   0.672   0.430
14651TIP3   OH243897   3.466   4.163   1.934
14651TIP3    H143898   3.502   4.075   1.918
14651TIP3    H243899   3.480   4.209   1.851
14652TIP3   OH243900   3.249   5.324   2.600
14652TIP3    H143901   3.337   5.363   2.600
14652TIP3    H243902   3.257   5.246   2.544
14653TIP3   OH243903   1.814   5.997   6.023
14653TIP3    H143904   1.815   6.089   6.052
14653TIP3    H243905   1.733   5.962   6.058
14654TIP3   OH243906   0.171   6.038   1.848
14654TIP3    H143907   0.179   6.109   1.913
14654TIP3    H243908   0.080   6.040   1.821
14655TIP3   OH243909   2.245   3.721   1.628
14655TIP3    H143910   2.235   3.769   1.546
14655TIP3    H243911   2.339   3.703   1.633
14656TIP3   OH243912   7.423   1.727   1.731
14656TIP3    H143913   7.413   1.735   1.636
14656TIP3    H243914   7.518   1.725   1.745
14657TIP3   OH243915   6.351   1.163   6.008
14657TIP3    H143916   6.304   1.170   6.091
14657TIP3    H243917   6.393   1.077   6.010
14658TIP3   OH243918   4.447   3.663   4.966
14658TIP3    H143919   4.399   3.719   5.027
14658TIP3    H243920   4.470   3.721   4.894
14659TIP3   OH243921   1.566   5.001   0.487
14659TIP3    H143922   1.564   5.096   0.492
14659TIP3    H243923   1.473   4.976   0.485
14660TIP3   OH243924   8.281   2.075   0.278
14660TIP3    H143925   8.356   2.031   0.236
14660TIP3    H243926   8.204   2.030   0.242
14661TIP3   OH243927   6.580   5.918   1.338
14661TIP3    H143928   6.538   5.898   1.255
14661TIP3    H243929   6.529   5.989   1.375
14662TIP3   OH243930   5.391   7.066   3.915
14662TIP3    H143931   5.366   7.151   3.951
14662TIP3    H243932   5.313   7.037   3.868
14663TIP3   OH243933   0.007   2.559   2.210
14663TIP3    H143934  -0.028   2.636   2.166
14663TIP3    H243935   0.087   2.589   2.253
14664TIP3   OH243936   0.824   7.542   3.286
14664TIP3    H143937   0.790   7.599   3.217
14664TIP3    H243938   0.861   7.467   3.238
14665TIP3   OH243939   3.897   3.475   5.666
14665TIP3    H143940   3.953   3.426   5.606
14665TIP3    H243941   3.929   3.451   5.753
14666TIP3   OH243942   0.436   3.240   2.860
14666TIP3    H143943   0.348   3.279   2.862
14666TIP3    H243944   0.495   3.315   2.865
14667TIP3   OH243945   0.969   1.663   3.331
14667TIP3    H143946   1.001   1.752   3.316
14667TIP3    H243947   0.876   1.667   3.308
14668TIP3   OH243948   7.139   6.823   4.309
14668TIP3    H143949   7.048   6.827   4.278
14668TIP3    H243950   7.134   6.780   4.394
14669TIP3   OH243951   7.675   7.071   1.299
14669TIP3    H143952   7.758   7.112   1.278
14669TIP3    H243953   7.682   6.982   1.264
14670TIP3   OH243954   4.458   7.775   1.386
14670TIP3    H143955   4.458   7.857   1.437
14670TIP3    H243956   4.366   7.748   1.384
14671TIP3   OH243957   0.509   1.727   4.026
14671TIP3    H143958   0.562   1.757   4.100
14671TIP3    H243959   0.572   1.716   3.955
14672TIP3   OH243960   0.428   5.176   0.119
14672TIP3    H143961   0.348   5.194   0.168
14672TIP3    H243962   0.495   5.229   0.162
14673TIP3   OH243963   2.748   0.130   4.263
14673TIP3    H143964   2.836   0.112   4.297
14673TIP3    H243965   2.700   0.048   4.276
14674TIP3   OH243966   6.267   1.443   3.199
14674TIP3    H143967   6.218   1.471   3.122
14674TIP3    H243968   6.359   1.460   3.176
14675TIP3   OH243969   6.023   1.698   5.714
14675TIP3    H143970   6.081   1.756   5.764
14675TIP3    H243971   6.046   1.714   5.623
14676TIP3   OH243972   4.740   1.447   1.080
14676TIP3    H143973   4.771   1.397   1.156
14676TIP3    H243974   4.816   1.499   1.053
14677TIP3   OH243975   1.421   0.868   0.242
14677TIP3    H143976   1.423   0.876   0.147
14677TIP3    H243977   1.446   0.777   0.259
14678TIP3   OH243978   5.738   3.820   0.101
14678TIP3    H143979   5.671   3.848   0.039
14678TIP3    H243980   5.731   3.883   0.173
14679TIP3   OH243981   2.888   2.207   3.677
14679TIP3    H143982   2.870   2.151   3.602
14679TIP3    H243983   2.976   2.182   3.705
14680TIP3   OH243984   1.706   0.279  -0.028
14680TIP3    H143985   1.735   0.244   0.056
14680TIP3    H243986   1.668   0.365  -0.007
14681TIP3   OH243987   3.759   0.585   0.300
14681TIP3    H143988   3.819   0.634   0.356
14681TIP3    H243989   3.696   0.651   0.269
14682TIP3   OH243990   1.825   0.532   2.482
14682TIP3    H143991   1.759   0.467   2.456
14682TIP3    H243992   1.829   0.593   2.408
14683TIP3   OH243993   6.543   7.719   5.605
14683TIP3    H143994   6.520   7.677   5.688
14683TIP3    H243995   6.560   7.646   5.545
14684TIP3   OH243996   7.933   2.326   5.860
14684TIP3    H143997   7.935   2.286   5.774
14684TIP3    H243998   7.997   2.277   5.911
14685TIP3   OH243999   3.183   3.455   0.382
14685TIP3    H144000   3.159   3.511   0.309
14685TIP3    H244001   3.217   3.515   0.448
14686TIP3   OH244002   2.767   7.552   2.472
14686TIP3    H144003   2.707   7.600   2.416
14686TIP3    H244004   2.726   7.554   2.559
14687TIP3   OH244005   3.011   3.053   0.994
14687TIP3    H144006   3.046   3.135   0.960
14687TIP3    H244007   3.071   3.030   1.065
14688TIP3   OH244008   8.179   3.985   0.212
14688TIP3    H144009   8.106   3.937   0.253
14688TIP3    H244010   8.168   3.968   0.119
14689TIP3   OH244011   0.812   0.591   5.558
14689TIP3    H144012   0.735   0.544   5.527
14689TIP3    H244013   0.808   0.585   5.653
14690TIP3   OH244014   8.026   6.370   1.280
14690TIP3    H144015   8.030   6.387   1.186
14690TIP3    H244016   8.027   6.274   1.287
14691TIP3   OH244017   3.140   1.947   3.758
14691TIP3    H144018   3.148   1.877   3.824
14691TIP3    H244019   3.072   1.915   3.699
14692TIP3   OH244020   2.710   3.227   2.309
14692TIP3    H144021   2.713   3.319   2.283
14692TIP3    H244022   2.660   3.184   2.240
14693TIP3   OH244023   7.354   1.024   1.501
14693TIP3    H144024   7.299   1.019   1.423
14693TIP3    H244025   7.295   1.051   1.571
14694TIP3   OH244026   3.620   1.167   0.928
14694TIP3    H144027   3.706   1.208   0.919
14694TIP3    H244028   3.640   1.076   0.950
14695TIP3   OH244029   4.820   3.116   0.657
14695TIP3    H144030   4.805   3.028   0.625
14695TIP3    H244031   4.912   3.117   0.683
14696TIP3   OH244032   2.777   3.665   1.777
14696TIP3    H144033   2.803   3.649   1.868
14696TIP3    H244034   2.784   3.579   1.735
14697TIP3   OH244035   0.382   4.470   0.780
14697TIP3    H144036   0.370   4.444   0.689
14697TIP3    H244037   0.452   4.536   0.778
14698TIP3   OH244038   6.710   6.310   5.934
14698TIP3    H144039   6.616   6.298   5.919
14698TIP3    H244040   6.752   6.271   5.857
14699TIP3   OH244041   3.059   0.749   1.024
14699TIP3    H144042   3.082   0.780   1.112
14699TIP3    H244043   3.013   0.666   1.039
14700TIP3   OH244044   0.999   5.417   2.931
14700TIP3    H144045   0.983   5.373   3.015
14700TIP3    H244046   0.917   5.463   2.913
14701TIP3   OH244047   6.252   5.860   0.585
14701TIP3    H144048   6.208   5.821   0.661
14701TIP3    H244049   6.341   5.878   0.615
14702TIP3   OH244050   0.942   0.652   0.762
14702TIP3    H144051   0.887   0.611   0.695
14702TIP3    H244052   0.897   0.734   0.783
14703TIP3   OH244053   0.125   7.179   4.404
14703TIP3    H144054   0.054   7.243   4.408
14703TIP3    H244055   0.114   7.125   4.482
14704TIP3   OH244056   2.661   6.463   1.665
14704TIP3    H144057   2.738   6.409   1.679
14704TIP3    H244058   2.696   6.550   1.643
14705TIP3   OH244059   1.356   6.666   5.055
14705TIP3    H144060   1.373   6.718   5.133
14705TIP3    H244061   1.435   6.676   5.002
14706TIP3   OH244062   5.257   7.704   6.389
14706TIP3    H144063   5.186   7.722   6.327
14706TIP3    H244064   5.223   7.634   6.445
14707TIP3   OH244065   0.536   1.609   5.307
14707TIP3    H144066   0.507   1.548   5.376
14707TIP3    H244067   0.472   1.681   5.311
14708TIP3   OH244068   6.475   1.801   4.091
14708TIP3    H144069   6.560   1.825   4.129
14708TIP3    H244070   6.445   1.727   4.144
14709TIP3   OH244071   1.770   1.812   3.908
14709TIP3    H144072   1.819   1.893   3.902
14709TIP3    H244073   1.837   1.743   3.912
14710TIP3   OH244074   5.898   3.390   1.903
14710TIP3    H144075   5.832   3.441   1.950
14710TIP3    H244076   5.865   3.301   1.904
14711TIP3   OH244077   4.189   6.923   2.491
14711TIP3    H144078   4.126   6.995   2.490
14711TIP3    H244079   4.138   6.846   2.466
14712TIP3   OH244080   4.322   1.237   1.286
14712TIP3    H144081   4.390   1.241   1.353
14712TIP3    H244082   4.334   1.151   1.245
14713TIP3   OH244083   7.350   0.772   1.967
14713TIP3    H144084   7.359   0.787   1.873
14713TIP3    H244085   7.359   0.859   2.006
14714TIP3   OH244086   6.053   5.768   2.070
14714TIP3    H144087   6.054   5.693   2.011
14714TIP3    H244088   6.141   5.771   2.107
14715TIP3   OH244089   2.220   4.695   3.472
14715TIP3    H144090   2.194   4.673   3.383
14715TIP3    H244091   2.267   4.779   3.463
14716TIP3   OH244092   3.635   7.502   2.690
14716TIP3    H144093   3.689   7.539   2.619
14716TIP3    H244094   3.582   7.435   2.647
14717TIP3   OH244095   3.613   6.803   1.329
14717TIP3    H144096   3.602   6.762   1.415
14717TIP3    H244097   3.633   6.895   1.348
14718TIP3   OH244098   3.943   5.196   1.881
14718TIP3    H144099   3.850   5.176   1.892
14718TIP3    H244100   3.947   5.291   1.884
14719TIP3   OH244101   7.944   0.110   2.799
14719TIP3    H144102   8.019   0.059   2.768
14719TIP3    H244103   7.941   0.185   2.740
14720TIP3   OH244104   0.371   4.181   2.803
14720TIP3    H144105   0.281   4.160   2.777
14720TIP3    H244106   0.425   4.138   2.737
14721TIP3   OH244107   0.624   2.683   0.855
14721TIP3    H144108   0.641   2.665   0.762
14721TIP3    H244109   0.554   2.622   0.878
14722TIP3   OH244110   1.419   0.656   4.572
14722TIP3    H144111   1.494   0.615   4.530
14722TIP3    H244112   1.405   0.606   4.652
14723TIP3   OH244113   1.863   0.031   0.917
14723TIP3    H144114   1.770   0.048   0.927
14723TIP3    H244115   1.882  -0.041   0.977
14724TIP3   OH244116   7.573   2.691   4.207
14724TIP3    H144117   7.500   2.705   4.267
14724TIP3    H244118   7.644   2.658   4.262
14725TIP3   OH244119   4.552   2.458   3.415
14725TIP3    H144120   4.479   2.456   3.477
14725TIP3    H244121   4.520   2.509   3.340
14726TIP3   OH244122   2.571   6.034   3.990
14726TIP3    H144123   2.604   6.123   3.999
14726TIP3    H244124   2.643   5.979   4.021
14727TIP3   OH244125   7.108   2.428   0.532
14727TIP3    H144126   7.037   2.433   0.596
14727TIP3    H244127   7.179   2.480   0.571
14728TIP3   OH244128   1.754   3.918   0.276
14728TIP3    H144129   1.682   3.935   0.337
14728TIP3    H244130   1.788   4.005   0.254
14729TIP3   OH244131   6.249   4.592   1.856
14729TIP3    H144132   6.247   4.629   1.768
14729TIP3    H244133   6.332   4.545   1.861
14730TIP3   OH244134   6.215   4.527   0.928
14730TIP3    H144135   6.291   4.578   0.900
14730TIP3    H244136   6.141   4.566   0.882
14731TIP3   OH244137   5.119   5.992   6.331
14731TIP3    H144138   5.053   6.033   6.387
14731TIP3    H244139   5.072   5.973   6.250
14732TIP3   OH244140   8.269   0.155   6.510
14732TIP3    H144141   8.233   0.162   6.422
14732TIP3    H244142   8.200   0.112   6.560
14733TIP3   OH244143   1.996   1.035   0.367
14733TIP3    H144144   1.929   1.058   0.302
14733TIP3    H244145   2.078   1.040   0.319
14734TIP3   OH244146   3.953   3.501   6.380
14734TIP3    H144147   3.977   3.409   6.380
14734TIP3    H244148   3.860   3.502   6.356
14735TIP3   OH244149   3.152   4.915   4.402
14735TIP3    H144150   3.116   4.828   4.416
14735TIP3    H244151   3.241   4.900   4.372
14736TIP3   OH244152   0.609   3.663   3.076
14736TIP3    H144153   0.692   3.704   3.103
14736TIP3    H244154   0.625   3.569   3.087
14737TIP3   OH244155   2.614   7.712   2.302
14737TIP3    H144156   2.573   7.779   2.355
14737TIP3    H244157   2.620   7.751   2.214
14738TIP3   OH244158   0.609   7.284   1.742
14738TIP3    H144159   0.663   7.270   1.820
14738TIP3    H244160   0.532   7.228   1.755
14739TIP3   OH244161   7.638   6.147   5.883
14739TIP3    H144162   7.626   6.055   5.906
14739TIP3    H244163   7.651   6.147   5.788
14740TIP3   OH244164   2.033   6.329   3.143
14740TIP3    H144165   2.010   6.304   3.232
14740TIP3    H244166   2.094   6.261   3.114
14741TIP3   OH244167   7.012   1.062   6.278
14741TIP3    H144168   6.963   1.144   6.269
14741TIP3    H244169   6.946   0.993   6.266
14742TIP3   OH244170   0.675   5.261   4.373
14742TIP3    H144171   0.698   5.260   4.280
14742TIP3    H244172   0.630   5.345   4.385
14743TIP3   OH244173   7.710   5.479   5.339
14743TIP3    H144174   7.752   5.565   5.340
14743TIP3    H244175   7.675   5.470   5.250
14744TIP3   OH244176   2.255   6.820   5.038
14744TIP3    H144177   2.241   6.772   5.119
14744TIP3    H244178   2.311   6.894   5.063
14745TIP3   OH244179   0.281   4.395   2.540
14745TIP3    H144180   0.292   4.490   2.539
14745TIP3    H244181   0.370   4.362   2.554
14746TIP3   OH244182   7.030   2.279   5.173
14746TIP3    H144183   7.024   2.309   5.264
14746TIP3    H244184   7.033   2.359   5.122
14747TIP3   OH244185   7.067   7.032   6.030
14747TIP3    H144186   7.072   6.947   6.074
14747TIP3    H244187   7.070   7.011   5.937
14748TIP3   OH244188   7.164   0.013   3.970
14748TIP3    H144189   7.216  -0.045   4.026
14748TIP3    H244190   7.208   0.098   3.976
14749TIP3   OH244191   5.572   5.067   5.432
14749TIP3    H144192   5.548   5.102   5.518
14749TIP3    H244193   5.638   5.128   5.399
14750TIP3   OH244194   8.139   1.618   5.387
14750TIP3    H144195   8.171   1.565   5.460
14750TIP3    H244196   8.069   1.671   5.425
14751TIP3   OH244197   6.311   5.770   2.900
14751TIP3    H144198   6.264   5.852   2.883
14751TIP3    H244199   6.393   5.780   2.851
14752TIP3   OH244200   4.869   6.521   0.502
14752TIP3    H144201   4.933   6.581   0.464
14752TIP3    H244202   4.784   6.558   0.477
14753TIP3   OH244203   0.963   6.417   3.482
14753TIP3    H144204   1.013   6.450   3.408
14753TIP3    H244205   0.873   6.413   3.449
14754TIP3   OH244206   4.036   7.026   3.600
14754TIP3    H144207   3.964   6.965   3.611
14754TIP3    H244208   3.996   7.106   3.568
14755TIP3   OH244209   5.660   0.985   6.765
14755TIP3    H144210   5.753   0.967   6.778
14755TIP3    H244211   5.617   0.946   6.841
14756TIP3   OH244212   6.103   7.573   0.420
14756TIP3    H144213   6.152   7.605   0.496
14756TIP3    H244214   6.027   7.632   0.415
14757TIP3   OH244215   6.763   4.747   5.276
14757TIP3    H144216   6.854   4.720   5.267
14757TIP3    H244217   6.743   4.737   5.369
14758TIP3   OH244218   7.102   7.315   6.609
14758TIP3    H144219   7.101   7.334   6.702
14758TIP3    H244220   7.193   7.292   6.590
14759TIP3   OH244221   6.179   7.192   1.745
14759TIP3    H144222   6.084   7.204   1.751
14759TIP3    H244223   6.194   7.104   1.779
14760TIP3   OH244224   1.485   4.186   2.647
14760TIP3    H144225   1.543   4.248   2.690
14760TIP3    H244226   1.397   4.219   2.664
14761TIP3   OH244227   1.689   0.285   1.247
14761TIP3    H144228   1.634   0.315   1.175
14761TIP3    H244229   1.717   0.366   1.291
14762TIP3   OH244230   8.084   7.649   3.482
14762TIP3    H144231   8.032   7.729   3.478
14762TIP3    H244232   8.128   7.654   3.567
14763TIP3   OH244233   0.578   4.986   0.312
14763TIP3    H144234   0.518   5.041   0.263
14763TIP3    H244235   0.627   4.938   0.245
14764TIP3   OH244236   3.660   4.704   2.191
14764TIP3    H144237   3.663   4.795   2.222
14764TIP3    H244238   3.697   4.708   2.103
14765TIP3   OH244239   6.977   0.814   3.661
14765TIP3    H144240   6.971   0.897   3.707
14765TIP3    H244241   6.895   0.807   3.612
14766TIP3   OH244242   0.581   5.856   5.567
14766TIP3    H144243   0.593   5.783   5.627
14766TIP3    H244244   0.546   5.927   5.621
14767TIP3   OH244245   3.620   6.815   1.638
14767TIP3    H144246   3.551   6.874   1.608
14767TIP3    H244247   3.577   6.757   1.701
14768TIP3   OH244248   7.520   5.410   3.945
14768TIP3    H144249   7.614   5.401   3.960
14768TIP3    H244250   7.495   5.489   3.993
14769TIP3   OH244251   6.299   1.405   3.478
14769TIP3    H144252   6.279   1.411   3.384
14769TIP3    H244253   6.314   1.312   3.493
14770TIP3   OH244254   0.812   4.211   3.257
14770TIP3    H144255   0.850   4.208   3.169
14770TIP3    H244256   0.883   4.240   3.313
14771TIP3   OH244257   6.781   0.945   4.274
14771TIP3    H144258   6.711   0.904   4.223
14771TIP3    H244259   6.829   0.871   4.311
14772TIP3   OH244260   8.295   7.455   1.689
14772TIP3    H144261   8.257   7.542   1.678
14772TIP3    H244262   8.282   7.413   1.604
14773TIP3   OH244263   0.002   4.150   6.213
14773TIP3    H144264   0.082   4.124   6.259
14773TIP3    H244265  -0.062   4.082   6.235
14774TIP3   OH244266   3.172   7.351   0.015
14774TIP3    H144267   3.264   7.327  -0.002
14774TIP3    H244268   3.141   7.285   0.077
14775TIP3   OH244269   3.139   0.510   2.488
14775TIP3    H144270   3.172   0.493   2.576
14775TIP3    H244271   3.195   0.580   2.454
14776TIP3   OH244272   0.570   0.642   6.427
14776TIP3    H144273   0.543   0.734   6.428
14776TIP3    H244274   0.621   0.634   6.346
14777TIP3   OH244275   5.521   6.002   2.480
14777TIP3    H144276   5.446   5.945   2.498
14777TIP3    H244277   5.581   5.947   2.429
14778TIP3   OH244278   1.257   3.812   2.164
14778TIP3    H144279   1.263   3.907   2.158
14778TIP3    H244280   1.293   3.780   2.081
14779TIP3   OH244281   6.872   3.614   5.417
14779TIP3    H144282   6.854   3.625   5.324
14779TIP3    H244283   6.955   3.567   5.420
14780TIP3   OH244284   3.071   2.114   2.218
14780TIP3    H144285   3.081   2.074   2.131
14780TIP3    H244286   3.089   2.207   2.204
14781TIP3   OH244287   3.603   0.477   4.611
14781TIP3    H144288   3.572   0.454   4.699
14781TIP3    H244289   3.553   0.420   4.553
14782TIP3   OH244290   6.362   1.199   3.825
14782TIP3    H144291   6.384   1.168   3.913
14782TIP3    H244292   6.433   1.165   3.770
14783TIP3   OH244293   5.086   3.053   0.066
14783TIP3    H144294   5.015   3.088   0.120
14783TIP3    H244295   5.131   3.130   0.032
14784TIP3   OH244296   0.242   5.282   1.888
14784TIP3    H144297   0.162   5.279   1.940
14784TIP3    H244298   0.277   5.193   1.893
14785TIP3   OH244299   4.205   0.447   6.580
14785TIP3    H144300   4.152   0.407   6.649
14785TIP3    H244301   4.143   0.467   6.510
14786TIP3   OH244302   4.506   5.875   3.977
14786TIP3    H144303   4.586   5.912   4.014
14786TIP3    H244304   4.469   5.822   4.047
14787TIP3   OH244305   5.050   0.178   5.141
14787TIP3    H144306   5.025   0.091   5.172
14787TIP3    H244307   5.140   0.189   5.172
14788TIP3   OH244308   2.350   2.940   2.912
14788TIP3    H144309   2.341   3.007   2.980
14788TIP3    H244310   2.367   2.990   2.832
14789TIP3   OH244311   2.150   4.542   5.987
14789TIP3    H144312   2.229   4.587   5.955
14789TIP3    H244313   2.160   4.452   5.958
14790TIP3   OH244314   6.638   6.278   0.107
14790TIP3    H144315   6.714   6.262   0.163
14790TIP3    H244316   6.660   6.356   0.058
14791TIP3   OH244317   3.644   3.073   3.099
14791TIP3    H144318   3.735   3.047   3.087
14791TIP3    H244319   3.622   3.043   3.187
14792TIP3   OH244320   3.019   1.086   5.351
14792TIP3    H144321   3.065   1.006   5.377
14792TIP3    H244322   3.031   1.145   5.425
14793TIP3   OH244323   6.364   4.780   5.824
14793TIP3    H144324   6.354   4.685   5.828
14793TIP3    H244325   6.379   4.798   5.731
14794TIP3   OH244326   1.876   6.180   6.365
14794TIP3    H144327   1.871   6.211   6.274
14794TIP3    H244328   1.962   6.139   6.371
14795TIP3   OH244329   1.149   0.400   5.941
14795TIP3    H144330   1.083   0.374   6.005
14795TIP3    H244331   1.204   0.464   5.987
14796TIP3   OH244332   1.426   4.627   4.585
14796TIP3    H144333   1.506   4.610   4.634
14796TIP3    H244334   1.456   4.649   4.496
14797TIP3   OH244335   7.665   1.122   4.374
14797TIP3    H144336   7.708   1.189   4.321
14797TIP3    H244337   7.599   1.170   4.424
14798TIP3   OH244338   6.743   4.543   3.528
14798TIP3    H144339   6.689   4.579   3.458
14798TIP3    H244340   6.814   4.497   3.482
14799TIP3   OH244341   2.390   1.273   1.295
14799TIP3    H144342   2.330   1.271   1.370
14799TIP3    H244343   2.333   1.272   1.218
14800TIP3   OH244344   4.033   3.882   4.442
14800TIP3    H144345   3.973   3.898   4.514
14800TIP3    H244346   4.118   3.869   4.484
14801TIP3   OH244347   3.699   7.513   6.223
14801TIP3    H144348   3.785   7.485   6.192
14801TIP3    H244349   3.704   7.609   6.223
14802TIP3   OH244350   2.662   4.800   3.134
14802TIP3    H144351   2.579   4.755   3.120
14802TIP3    H244352   2.713   4.739   3.188
14803TIP3   OH244353   3.521   4.402   0.976
14803TIP3    H144354   3.588   4.424   0.911
14803TIP3    H244355   3.535   4.464   1.047
14804TIP3   OH244356   7.623   6.328   6.107
14804TIP3    H144357   7.619   6.279   6.025
14804TIP3    H244358   7.688   6.396   6.091
14805TIP3   OH244359   5.143   1.140   6.227
14805TIP3    H144360   5.189   1.057   6.212
14805TIP3    H244361   5.192   1.205   6.177
14806TIP3   OH244362   7.248   4.992   3.280
14806TIP3    H144363   7.269   4.918   3.336
14806TIP3    H244364   7.210   4.953   3.201
14807TIP3   OH244365   2.239   2.918   1.605
14807TIP3    H144366   2.149   2.891   1.586
14807TIP3    H244367   2.231   2.982   1.675
14808TIP3   OH244368   5.275   5.868   3.951
14808TIP3    H144369   5.325   5.847   3.873
14808TIP3    H244370   5.190   5.898   3.918
14809TIP3   OH244371   5.382   6.151   3.040
14809TIP3    H144372   5.455   6.194   2.995
14809TIP3    H244373   5.339   6.221   3.088
14810TIP3   OH244374   1.968   1.346   1.310
14810TIP3    H144375   2.040   1.334   1.371
14810TIP3    H244376   1.904   1.279   1.335
14811TIP3   OH244377   7.973   5.070   5.775
14811TIP3    H144378   8.034   5.041   5.843
14811TIP3    H244379   7.944   5.156   5.805
14812TIP3   OH244380   6.876   7.431   1.798
14812TIP3    H144381   6.949   7.491   1.811
14812TIP3    H244382   6.830   7.431   1.881
14813TIP3   OH244383   8.158   0.338   4.919
14813TIP3    H144384   8.130   0.429   4.926
14813TIP3    H244385   8.216   0.325   4.995
14814TIP3   OH244386   2.359   1.712   1.743
14814TIP3    H144387   2.297   1.641   1.726
14814TIP3    H244388   2.388   1.698   1.833
14815TIP3   OH244389   7.117   2.785   4.614
14815TIP3    H144390   7.024   2.784   4.590
14815TIP3    H244391   7.121   2.736   4.696
14816TIP3   OH244392   2.363   3.915   5.250
14816TIP3    H144393   2.419   3.906   5.173
14816TIP3    H244394   2.298   3.844   5.241
14817TIP3   OH244395   3.846   3.248   6.775
14817TIP3    H144396   3.822   3.336   6.802
14817TIP3    H244397   3.765   3.209   6.743
14818TIP3   OH244398   5.651   6.743   6.373
14818TIP3    H144399   5.698   6.691   6.308
14818TIP3    H244400   5.701   6.730   6.454
14819TIP3   OH244401   2.421   2.667   2.047
14819TIP3    H144402   2.345   2.700   1.999
14819TIP3    H244403   2.496   2.692   1.994
14820TIP3   OH244404   3.616   7.033   4.224
14820TIP3    H144405   3.593   7.020   4.316
14820TIP3    H244406   3.533   7.033   4.178
14821TIP3   OH244407   3.506   0.016   5.042
14821TIP3    H144408   3.564  -0.024   4.977
14821TIP3    H244409   3.419   0.010   5.004
14822TIP3   OH244410   1.120   2.386   0.832
14822TIP3    H144411   1.139   2.478   0.847
14822TIP3    H244412   1.183   2.339   0.887
14823TIP3   OH244413   4.801   2.492   5.235
14823TIP3    H144414   4.789   2.537   5.151
14823TIP3    H244415   4.731   2.526   5.290
14824TIP3   OH244416   4.268   7.284   2.190
14824TIP3    H144417   4.307   7.356   2.239
14824TIP3    H244418   4.329   7.211   2.202
14825TIP3   OH244419   5.684   4.251   5.189
14825TIP3    H144420   5.699   4.197   5.111
14825TIP3    H244421   5.629   4.196   5.245
14826TIP3   OH244422   1.817   3.473   2.252
14826TIP3    H144423   1.861   3.399   2.210
14826TIP3    H244424   1.887   3.522   2.293
14827TIP3   OH244425  -0.004   0.744   2.523
14827TIP3    H144426   0.041   0.829   2.519
14827TIP3    H244427   0.022   0.700   2.442
14828TIP3   OH244428   1.517   3.228   1.413
14828TIP3    H144429   1.598   3.279   1.403
14828TIP3    H244430   1.448   3.294   1.425
14829TIP3   OH244431   2.396   0.416   5.963
14829TIP3    H144432   2.325   0.380   5.910
14829TIP3    H244433   2.451   0.463   5.901
14830TIP3   OH244434   7.124   0.397   2.065
14830TIP3    H144435   7.072   0.326   2.103
14830TIP3    H244436   7.147   0.453   2.140
14831TIP3   OH244437   0.122   6.721   2.179
14831TIP3    H144438   0.055   6.720   2.247
14831TIP3    H244439   0.076   6.746   2.099
14832TIP3   OH244440   5.820   0.251   5.597
14832TIP3    H144441   5.800   0.170   5.550
14832TIP3    H244442   5.899   0.231   5.647
14833TIP3   OH244443   4.205   2.230   6.715
14833TIP3    H144444   4.190   2.317   6.751
14833TIP3    H244445   4.138   2.219   6.648
14834TIP3   OH244446   1.002   4.319   1.225
14834TIP3    H144447   1.015   4.368   1.306
14834TIP3    H244448   0.987   4.386   1.158
14835TIP3   OH244449   0.930   3.774   4.449
14835TIP3    H144450   0.913   3.721   4.371
14835TIP3    H244451   0.946   3.709   4.518
14836TIP3   OH244452   1.300   0.968   3.394
14836TIP3    H144453   1.364   1.039   3.396
14836TIP3    H244454   1.257   0.973   3.480
14837TIP3   OH244455   2.731   6.440   1.059
14837TIP3    H144456   2.770   6.495   0.991
14837TIP3    H244457   2.799   6.376   1.080
14838TIP3   OH244458   6.525   4.498   1.886
14838TIP3    H144459   6.516   4.560   1.813
14838TIP3    H244460   6.525   4.552   1.964
14839TIP3   OH244461   0.117   4.807   2.222
14839TIP3    H144462   0.034   4.812   2.270
14839TIP3    H244463   0.169   4.880   2.257
   8.30265   7.82781   6.77908   0.00000   0.00000  -2.76755   0.00000  -2.76755  -3.91391
