Title t= 183.00000 step= 91500
29212
    1ASP      N    1   2.470   1.413   2.556
    1ASP    HT1    2   2.433   1.477   2.629
    1ASP    HT2    3   2.559   1.454   2.522
    1ASP    HT3    4   2.492   1.320   2.597
    1ASP     CA    5   2.375   1.391   2.452
    1ASP     HA    6   2.373   1.487   2.402
    1ASP     CB    7   2.425   1.267   2.369
    1ASP    HB1    8   2.356   1.241   2.285
    1ASP    HB2    9   2.429   1.173   2.429
    1ASP     CG   10   2.556   1.296   2.300
    1ASP    OD1   11   2.601   1.411   2.292
    1ASP    OD2   12   2.619   1.201   2.249
    1ASP      C   13   2.231   1.389   2.498
    1ASP      O   14   2.175   1.491   2.535
    2GLY      N   15   2.163   1.270   2.498
    2GLY     HN   16   2.202   1.186   2.462
    2GLY     CA   17   2.037   1.266   2.561
    2GLY    HA1   18   2.044   1.309   2.660
    2GLY    HA2   19   2.007   1.163   2.565
    2GLY      C   20   1.910   1.331   2.488
    2GLY      O   21   1.911   1.386   2.378
    3ASP      N   22   1.794   1.322   2.559
    3ASP     HN   23   1.788   1.276   2.647
    3ASP     CA   24   1.668   1.371   2.511
    3ASP     HA   25   1.641   1.317   2.421
    3ASP     CB   26   1.569   1.333   2.622
    3ASP    HB1   27   1.473   1.383   2.597
    3ASP    HB2   28   1.601   1.369   2.721
    3ASP     CG   29   1.530   1.190   2.630
    3ASP    OD1   30   1.471   1.159   2.738
    3ASP    OD2   31   1.534   1.106   2.539
    3ASP      C   32   1.662   1.521   2.488
    3ASP      O   33   1.720   1.604   2.560
    4GLY      N   34   1.589   1.564   2.378
    4GLY     HN   35   1.545   1.501   2.315
    4GLY     CA   36   1.591   1.706   2.341
    4GLY    HA1   37   1.555   1.712   2.239
    4GLY    HA2   38   1.690   1.746   2.358
    4GLY      C   39   1.499   1.793   2.414
    4GLY      O   40   1.395   1.740   2.464
    5PRO      N   41   1.522   1.917   2.431
    5PRO     CD   42   1.638   1.985   2.379
    5PRO    HD1   43   1.662   1.955   2.274
    5PRO    HD2   44   1.727   1.950   2.435
    5PRO     CA   45   1.435   2.009   2.509
    5PRO     HA   46   1.426   1.968   2.608
    5PRO     CB   47   1.509   2.145   2.496
    5PRO    HB1   48   1.572   2.159   2.587
    5PRO    HB2   49   1.448   2.237   2.481
    5PRO     CG   50   1.599   2.133   2.377
    5PRO    HG1   51   1.551   2.156   2.280
    5PRO    HG2   52   1.694   2.190   2.378
    5PRO      C   53   1.288   2.015   2.465
    5PRO      O   54   1.253   2.017   2.344
    6GLY      N   55   1.194   2.004   2.563
    6GLY     HN   56   1.210   1.997   2.661
    6GLY     CA   57   1.050   2.027   2.550
    6GLY    HA1   58   1.006   1.930   2.532
    6GLY    HA2   59   1.039   2.089   2.462
    6GLY      C   60   0.996   2.100   2.670
    6GLY      O   61   1.067   2.110   2.774
    7ASP      N   62   0.866   2.142   2.666
    7ASP     HN   63   0.813   2.115   2.586
    7ASP     CA   64   0.798   2.205   2.783
    7ASP     HA   65   0.852   2.297   2.805
    7ASP     CB   66   0.641   2.228   2.744
    7ASP    HB1   67   0.578   2.244   2.834
    7ASP    HB2   68   0.607   2.131   2.701
    7ASP     CG   69   0.619   2.338   2.643
    7ASP    OD1   70   0.501   2.362   2.602
    7ASP    OD2   71   0.713   2.420   2.625
    7ASP      C   72   0.809   2.114   2.905
    7ASP      O   73   0.801   1.991   2.895
    8PRO      N   74   0.836   2.165   3.027
    8PRO     CD   75   0.847   2.306   3.045
    8PRO    HD1   76   0.743   2.345   3.030
    8PRO    HD2   77   0.912   2.357   2.971
    8PRO     CA   78   0.874   2.087   3.149
    8PRO     HA   79   0.971   2.042   3.136
    8PRO     CB   80   0.867   2.189   3.259
    8PRO    HB1   81   0.936   2.161   3.342
    8PRO    HB2   82   0.767   2.191   3.306
    8PRO     CG   83   0.887   2.327   3.192
    8PRO    HG1   84   0.831   2.404   3.250
    8PRO    HG2   85   0.992   2.363   3.185
    8PRO      C   86   0.797   1.961   3.181
    8PRO      O   87   0.678   1.973   3.197
    9GLY      N   88   0.855   1.839   3.193
    9GLY     HN   89   0.953   1.820   3.186
    9GLY     CA   90   0.778   1.728   3.252
    9GLY    HA1   91   0.823   1.635   3.222
    9GLY    HA2   92   0.672   1.732   3.232
    9GLY      C   93   0.779   1.725   3.401
    9GLY      O   94   0.787   1.828   3.475
   10ASP      N   95   0.760   1.607   3.459
   10ASP     HN   96   0.761   1.527   3.400
   10ASP     CA   97   0.757   1.579   3.604
   10ASP     HA   98   0.679   1.648   3.635
   10ASP     CB   99   0.713   1.432   3.639
   10ASP    HB1  100   0.721   1.402   3.746
   10ASP    HB2  101   0.787   1.368   3.586
   10ASP     CG  102   0.574   1.404   3.582
   10ASP    OD1  103   0.485   1.490   3.579
   10ASP    OD2  104   0.548   1.283   3.554
   10ASP      C  105   0.884   1.620   3.671
   10ASP      O  106   0.995   1.602   3.621
   11GLY      N  107   0.874   1.661   3.799
   11GLY     HN  108   0.785   1.656   3.843
   11GLY     CA  109   0.980   1.702   3.885
   11GLY    HA1  110   1.073   1.661   3.849
   11GLY    HA2  111   0.952   1.656   3.979
   11GLY      C  112   0.999   1.854   3.893
   11GLY    OT1  113   0.973   1.917   4.001
   11GLY    OT2  114   1.046   1.926   3.798
   12LIT    LIT  115   7.205   0.571   1.522
   13LIT    LIT  116   5.417   6.248   0.918
   14LIT    LIT  117   4.493   2.833   5.681
   15LIT    LIT  118   0.046   6.538   2.505
   16LIT    LIT  119   1.138   2.027   3.928
   17LIT    LIT  120   4.376   6.417   3.016
   18LIT    LIT  121   3.565   3.172   3.476
   19LIT    LIT  122   1.618   4.553   0.982
   20LIT    LIT  123   7.098   2.087   5.190
   21LIT    LIT  124  -0.037   6.245   3.484
   22LIT    LIT  125   4.675   1.668   4.731
   23LIT    LIT  126   6.418   0.063   0.808
   24LIT    LIT  127   6.257   4.358   5.221
   25LIT    LIT  128   0.364   2.485   2.552
   26LIT    LIT  129   0.373   1.336   3.509
   27LIT    LIT  130   2.763   0.655   3.749
   28LIT    LIT  131   1.961   5.415   5.637
   29LIT    LIT  132   5.714   3.836   4.102
   30LIT    LIT  133   6.573   2.133   1.441
   31LIT    LIT  134   4.651   0.993   2.230
   32LIT    LIT  135   0.247   6.445   5.843
   33LIT    LIT  136   3.751   4.103   2.436
   34LIT    LIT  137   5.388   1.140   4.389
   35LIT    LIT  138   1.144   1.526   2.295
   36LIT    LIT  139   5.597   5.942   3.000
   37LIT    LIT  140   0.649   3.174   0.634
   38LIT    LIT  141   4.494   6.682   0.884
   39LIT    LIT  142   2.764   1.334   2.208
   40LIT    LIT  143   2.290   5.265   1.829
   41LIT    LIT  144   1.551   1.867   4.962
   42LIT    LIT  145   1.452   0.985   2.672
   43CLA    CLA  146   2.285   5.165   2.029
   44CLA    CLA  147   3.155   1.136   4.384
   45CLA    CLA  148   1.944   3.910   2.819
   46CLA    CLA  149   6.110   3.712   0.491
   47CLA    CLA  150   0.806   1.475   1.935
   48CLA    CLA  151   3.890   6.715   1.156
   49CLA    CLA  152   1.623   4.685   3.486
   50CLA    CLA  153   0.660   3.652   1.703
   51CLA    CLA  154   6.491   2.145   2.252
   52CLA    CLA  155   3.782   4.713   3.115
   53CLA    CLA  156   2.942   2.640   3.789
   54CLA    CLA  157   3.490   1.784   0.770
   55CLA    CLA  158   5.761   1.554   4.951
   56CLA    CLA  159   7.032   1.447   4.942
   57CLA    CLA  160   4.327   3.147   4.335
   58CLA    CLA  161   3.535   4.012   2.490
   59CLA    CLA  162   4.699   0.933   3.053
   60CLA    CLA  163   2.563   0.373   3.123
   61CLA    CLA  164   1.063   0.199   1.084
   62CLA    CLA  165   1.237   0.821   3.066
   63CLA    CLA  166   2.336   4.554   5.327
   64CLA    CLA  167   3.872   3.968   0.704
   65CLA    CLA  168   6.647   3.971   4.693
   66CLA    CLA  169   0.931   5.385   2.895
   67CLA    CLA  170   6.070   1.033   1.098
   68CLA    CLA  171   3.838   5.659   5.259
   69CLA    CLA  172   3.480   4.647   4.017
   70TIP3   OH2  173   2.637   1.050   5.620
   70TIP3    H1  174   2.685   0.981   5.665
   70TIP3    H2  175   2.647   1.127   5.675
   71TIP3   OH2  176   4.881   1.341   2.041
   71TIP3    H1  177   4.892   1.251   2.071
   71TIP3    H2  178   4.803   1.372   2.085
   72TIP3   OH2  179   0.190   4.844   4.209
   72TIP3    H1  180   0.101   4.811   4.223
   72TIP3    H2  181   0.208   4.824   4.117
   73TIP3   OH2  182   6.017   4.310   4.982
   73TIP3    H1  183   6.037   4.379   4.919
   73TIP3    H2  184   5.922   4.296   4.973
   74TIP3   OH2  185   3.014   6.103   5.491
   74TIP3    H1  186   3.037   6.195   5.505
   74TIP3    H2  187   2.948   6.105   5.422
   75TIP3   OH2  188   5.012   3.322   0.737
   75TIP3    H1  189   5.018   3.279   0.822
   75TIP3    H2  190   4.936   3.380   0.745
   76TIP3   OH2  191  -0.053   3.349   0.411
   76TIP3    H1  192  -0.091   3.419   0.464
   76TIP3    H2  193   0.007   3.393   0.351
   77TIP3   OH2  194   6.481   5.299   5.582
   77TIP3    H1  195   6.529   5.380   5.598
   77TIP3    H2  196   6.472   5.260   5.669
   78TIP3   OH2  197   2.705   5.158   3.253
   78TIP3    H1  198   2.633   5.197   3.303
   78TIP3    H2  199   2.692   5.063   3.261
   79TIP3   OH2  200   0.208   5.711   5.172
   79TIP3    H1  201   0.263   5.637   5.199
   79TIP3    H2  202   0.143   5.672   5.113
   80TIP3   OH2  203   5.528   2.414   0.998
   80TIP3    H1  204   5.622   2.426   1.012
   80TIP3    H2  205   5.511   2.454   0.913
   81TIP3   OH2  206   6.753   3.342   3.238
   81TIP3    H1  207   6.718   3.254   3.253
   81TIP3    H2  208   6.711   3.370   3.156
   82TIP3   OH2  209   3.090   4.098   5.720
   82TIP3    H1  210   3.049   4.112   5.634
   82TIP3    H2  211   3.135   4.181   5.739
   83TIP3   OH2  212   3.162   5.034   4.730
   83TIP3    H1  213   3.093   4.968   4.732
   83TIP3    H2  214   3.204   5.028   4.816
   84TIP3   OH2  215   4.902   2.506   3.308
   84TIP3    H1  216   4.862   2.419   3.309
   84TIP3    H2  217   4.996   2.488   3.301
   85TIP3   OH2  218   5.197   6.650   3.796
   85TIP3    H1  219   5.270   6.654   3.734
   85TIP3    H2  220   5.119   6.653   3.740
   86TIP3   OH2  221   5.603   6.174   1.815
   86TIP3    H1  222   5.610   6.083   1.787
   86TIP3    H2  223   5.522   6.205   1.775
   87TIP3   OH2  224   5.183   5.331   1.791
   87TIP3    H1  225   5.184   5.426   1.775
   87TIP3    H2  226   5.242   5.296   1.725
   88TIP3   OH2  227   2.202   4.663   3.562
   88TIP3    H1  228   2.227   4.746   3.602
   88TIP3    H2  229   2.265   4.600   3.596
   89TIP3   OH2  230   6.269   6.576   1.809
   89TIP3    H1  231   6.183   6.596   1.846
   89TIP3    H2  232   6.311   6.662   1.800
   90TIP3   OH2  233   4.079   2.350   1.032
   90TIP3    H1  234   4.082   2.267   1.079
   90TIP3    H2  235   4.137   2.408   1.081
   91TIP3   OH2  236   4.448   3.212   5.643
   91TIP3    H1  237   4.482   3.190   5.557
   91TIP3    H2  238   4.481   3.300   5.660
   92TIP3   OH2  239   3.663   0.119   0.420
   92TIP3    H1  240   3.758   0.120   0.424
   92TIP3    H2  241   3.638   0.044   0.474
   93TIP3   OH2  242   0.625   6.090   3.477
   93TIP3    H1  243   0.548   6.049   3.435
   93TIP3    H2  244   0.666   6.019   3.526
   94TIP3   OH2  245   2.517   4.840   0.495
   94TIP3    H1  246   2.609   4.866   0.485
   94TIP3    H2  247   2.521   4.745   0.509
   95TIP3   OH2  248   2.231   3.079   5.745
   95TIP3    H1  249   2.167   3.105   5.679
   95TIP3    H2  250   2.228   2.984   5.744
   96TIP3   OH2  251   6.563   6.163   2.088
   96TIP3    H1  252   6.621   6.089   2.106
   96TIP3    H2  253   6.597   6.234   2.142
   97TIP3   OH2  254   2.677   4.070   4.111
   97TIP3    H1  255   2.753   4.013   4.099
   97TIP3    H2  256   2.714   4.151   4.147
   98TIP3   OH2  257   0.764   4.712   2.453
   98TIP3    H1  258   0.820   4.704   2.530
   98TIP3    H2  259   0.689   4.656   2.472
   99TIP3   OH2  260   2.472   4.419   4.169
   99TIP3    H1  261   2.409   4.485   4.144
   99TIP3    H2  262   2.536   4.418   4.097
  100TIP3   OH2  263   3.143   5.925   5.006
  100TIP3    H1  264   3.056   5.942   4.969
  100TIP3    H2  265   3.203   5.974   4.949
  101TIP3   OH2  266   6.018   3.275   2.798
  101TIP3    H1  267   6.100   3.244   2.836
  101TIP3    H2  268   6.026   3.256   2.704
  102TIP3   OH2  269   5.191   2.556   0.027
  102TIP3    H1  270   5.207   2.627   0.089
  102TIP3    H2  271   5.109   2.516   0.056
  103TIP3   OH2  272   0.533   1.537   1.384
  103TIP3    H1  273   0.589   1.543   1.461
  103TIP3    H2  274   0.538   1.624   1.344
  104TIP3   OH2  275   5.545   3.882   4.830
  104TIP3    H1  276   5.455   3.867   4.861
  104TIP3    H2  277   5.538   3.959   4.773
  105TIP3   OH2  278   4.636   2.519   2.121
  105TIP3    H1  279   4.610   2.427   2.116
  105TIP3    H2  280   4.724   2.517   2.157
  106TIP3   OH2  281   4.671   6.119   5.213
  106TIP3    H1  282   4.672   6.092   5.121
  106TIP3    H2  283   4.666   6.037   5.262
  107TIP3   OH2  284   1.129   6.367   5.038
  107TIP3    H1  285   1.058   6.305   5.052
  107TIP3    H2  286   1.171   6.375   5.124
  108TIP3   OH2  287   3.259   5.749   2.493
  108TIP3    H1  288   3.230   5.773   2.581
  108TIP3    H2  289   3.302   5.664   2.504
  109TIP3   OH2  290   6.940   4.093   4.790
  109TIP3    H1  291   6.847   4.079   4.775
  109TIP3    H2  292   6.980   4.085   4.703
  110TIP3   OH2  293   6.994   6.665   3.951
  110TIP3    H1  294   6.918   6.607   3.959
  110TIP3    H2  295   6.985   6.704   3.864
  111TIP3   OH2  296   6.830   3.388   0.619
  111TIP3    H1  297   6.794   3.452   0.681
  111TIP3    H2  298   6.829   3.305   0.668
  112TIP3   OH2  299   2.910   5.140   0.652
  112TIP3    H1  300   2.946   5.228   0.661
  112TIP3    H2  301   2.828   5.142   0.701
  113TIP3   OH2  302   1.406   5.092   2.337
  113TIP3    H1  303   1.402   5.015   2.394
  113TIP3    H2  304   1.441   5.161   2.392
  114TIP3   OH2  305   1.186   1.753   5.212
  114TIP3    H1  306   1.261   1.696   5.195
  114TIP3    H2  307   1.156   1.780   5.125
  115TIP3   OH2  308   4.197   0.705   2.237
  115TIP3    H1  309   4.140   0.713   2.313
  115TIP3    H2  310   4.224   0.794   2.216
  116TIP3   OH2  311   1.520  -0.028   4.902
  116TIP3    H1  312   1.604   0.005   4.933
  116TIP3    H2  313   1.458  -0.003   4.971
  117TIP3   OH2  314   5.945   0.120   2.093
  117TIP3    H1  315   5.861   0.076   2.105
  117TIP3    H2  316   5.929   0.182   2.022
  118TIP3   OH2  317   6.661   2.356   0.740
  118TIP3    H1  318   6.675   2.387   0.650
  118TIP3    H2  319   6.704   2.421   0.795
  119TIP3   OH2  320   2.801   1.708   2.023
  119TIP3    H1  321   2.798   1.679   2.114
  119TIP3    H2  322   2.891   1.740   2.011
  120TIP3   OH2  323   3.116   4.362   1.694
  120TIP3    H1  324   3.067   4.390   1.618
  120TIP3    H2  325   3.195   4.322   1.658
  121TIP3   OH2  326   6.762   3.241   5.493
  121TIP3    H1  327   6.795   3.331   5.494
  121TIP3    H2  328   6.725   3.231   5.405
  122TIP3   OH2  329   5.130   3.580   2.224
  122TIP3    H1  330   5.192   3.647   2.251
  122TIP3    H2  331   5.144   3.508   2.286
  123TIP3   OH2  332   0.538   3.984   1.214
  123TIP3    H1  333   0.475   3.916   1.240
  123TIP3    H2  334   0.611   3.936   1.176
  124TIP3   OH2  335   1.283   3.726   5.888
  124TIP3    H1  336   1.215   3.794   5.879
  124TIP3    H2  337   1.259   3.660   5.823
  125TIP3   OH2  338   4.886   1.663   3.142
  125TIP3    H1  339   4.854   1.591   3.196
  125TIP3    H2  340   4.889   1.738   3.202
  126TIP3   OH2  341   6.826   4.290   2.269
  126TIP3    H1  342   6.787   4.253   2.189
  126TIP3    H2  343   6.877   4.218   2.306
  127TIP3   OH2  344   0.453   3.241   5.162
  127TIP3    H1  345   0.524   3.295   5.127
  127TIP3    H2  346   0.411   3.296   5.228
  128TIP3   OH2  347   3.945   6.328   0.505
  128TIP3    H1  348   4.014   6.262   0.497
  128TIP3    H2  349   3.928   6.333   0.599
  129TIP3   OH2  350   0.802   0.891   0.917
  129TIP3    H1  351   0.758   0.831   0.978
  129TIP3    H2  352   0.804   0.974   0.964
  130TIP3   OH2  353   0.136   0.249   3.210
  130TIP3    H1  354   0.223   0.213   3.197
  130TIP3    H2  355   0.079   0.192   3.159
  131TIP3   OH2  356   6.713   2.013   4.367
  131TIP3    H1  357   6.663   2.029   4.448
  131TIP3    H2  358   6.799   2.051   4.384
  132TIP3   OH2  359   6.185   2.161   2.962
  132TIP3    H1  360   6.171   2.231   3.025
  132TIP3    H2  361   6.280   2.160   2.950
  133TIP3   OH2  362   1.211   3.231   3.683
  133TIP3    H1  363   1.268   3.199   3.752
  133TIP3    H2  364   1.266   3.292   3.633
  134TIP3   OH2  365   5.054   4.958   5.792
  134TIP3    H1  366   4.990   4.977   5.860
  134TIP3    H2  367   5.042   5.027   5.727
  135TIP3   OH2  368   1.474   5.941   4.056
  135TIP3    H1  369   1.382   5.933   4.029
  135TIP3    H2  370   1.522   5.889   3.992
  136TIP3   OH2  371   1.991   3.643   3.179
  136TIP3    H1  372   2.038   3.718   3.215
  136TIP3    H2  373   1.908   3.679   3.147
  137TIP3   OH2  374   2.738   6.318   4.719
  137TIP3    H1  375   2.730   6.225   4.700
  137TIP3    H2  376   2.829   6.339   4.697
  138TIP3   OH2  377   6.008   1.651   2.069
  138TIP3    H1  378   6.047   1.643   1.982
  138TIP3    H2  379   5.968   1.565   2.085
  139TIP3   OH2  380   6.195   1.640   5.091
  139TIP3    H1  381   6.178   1.733   5.102
  139TIP3    H2  382   6.110   1.598   5.107
  140TIP3   OH2  383   2.757   5.353   4.230
  140TIP3    H1  384   2.720   5.441   4.222
  140TIP3    H2  385   2.801   5.339   4.146
  141TIP3   OH2  386   0.087   5.629   5.473
  141TIP3    H1  387   0.104   5.676   5.391
  141TIP3    H2  388   0.009   5.576   5.455
  142TIP3   OH2  389   0.462   6.353   4.022
  142TIP3    H1  390   0.452   6.290   4.094
  142TIP3    H2  391   0.492   6.300   3.949
  143TIP3   OH2  392   6.736   5.763   3.016
  143TIP3    H1  393   6.817   5.715   3.031
  143TIP3    H2  394   6.761   5.855   3.020
  144TIP3   OH2  395   1.459   2.230   3.354
  144TIP3    H1  396   1.499   2.201   3.272
  144TIP3    H2  397   1.421   2.316   3.334
  145TIP3   OH2  398   4.263   5.489   4.470
  145TIP3    H1  399   4.179   5.484   4.517
  145TIP3    H2  400   4.258   5.419   4.405
  146TIP3   OH2  401   5.030   3.527   3.738
  146TIP3    H1  402   5.119   3.509   3.770
  146TIP3    H2  403   5.028   3.622   3.725
  147TIP3   OH2  404   3.318   5.133   1.229
  147TIP3    H1  405   3.349   5.202   1.170
  147TIP3    H2  406   3.333   5.052   1.181
  148TIP3   OH2  407   4.120   1.149   2.109
  148TIP3    H1  408   4.055   1.181   2.046
  148TIP3    H2  409   4.126   1.219   2.174
  149TIP3   OH2  410   6.626   1.349   4.656
  149TIP3    H1  411   6.657   1.265   4.690
  149TIP3    H2  412   6.580   1.327   4.575
  150TIP3   OH2  413   0.116   5.113   2.787
  150TIP3    H1  414   0.175   5.179   2.824
  150TIP3    H2  415   0.173   5.059   2.732
  151TIP3   OH2  416   6.993   1.667   4.384
  151TIP3    H1  417   6.954   1.640   4.301
  151TIP3    H2  418   7.044   1.745   4.363
  152TIP3   OH2  419   6.096   3.623   0.015
  152TIP3    H1  420   6.039   3.634   0.091
  152TIP3    H2  421   6.125   3.532   0.020
  153TIP3   OH2  422   0.525   3.348   3.507
  153TIP3    H1  423   0.465   3.420   3.488
  153TIP3    H2  424   0.513   3.287   3.434
  154TIP3   OH2  425   0.529   4.977   4.034
  154TIP3    H1  426   0.472   4.909   4.070
  154TIP3    H2  427   0.615   4.958   4.070
  155TIP3   OH2  428   4.035   4.673   3.747
  155TIP3    H1  429   4.020   4.626   3.829
  155TIP3    H2  430   3.986   4.624   3.681
  156TIP3   OH2  431   1.679   3.686   4.407
  156TIP3    H1  432   1.607   3.748   4.418
  156TIP3    H2  433   1.637   3.603   4.387
  157TIP3   OH2  434   1.610   6.556   0.348
  157TIP3    H1  435   1.586   6.553   0.255
  157TIP3    H2  436   1.691   6.606   0.351
  158TIP3   OH2  437   2.095   6.294   1.605
  158TIP3    H1  438   2.010   6.328   1.634
  158TIP3    H2  439   2.095   6.309   1.511
  159TIP3   OH2  440   5.357   0.638   0.394
  159TIP3    H1  441   5.343   0.611   0.303
  159TIP3    H2  442   5.450   0.622   0.409
  160TIP3   OH2  443   0.339   3.659   0.769
  160TIP3    H1  444   0.356   3.565   0.765
  160TIP3    H2  445   0.245   3.666   0.786
  161TIP3   OH2  446   6.307   2.686   1.548
  161TIP3    H1  447   6.400   2.680   1.525
  161TIP3    H2  448   6.266   2.725   1.471
  162TIP3   OH2  449   5.430   0.958   4.708
  162TIP3    H1  450   5.502   0.913   4.664
  162TIP3    H2  451   5.433   0.924   4.798
  163TIP3   OH2  452   1.101   5.676   3.778
  163TIP3    H1  453   1.140   5.745   3.832
  163TIP3    H2  454   1.163   5.603   3.784
  164TIP3   OH2  455   4.282   5.382   2.448
  164TIP3    H1  456   4.335   5.332   2.385
  164TIP3    H2  457   4.292   5.334   2.530
  165TIP3   OH2  458   2.647   5.631   0.786
  165TIP3    H1  459   2.725   5.650   0.838
  165TIP3    H2  460   2.574   5.652   0.845
  166TIP3   OH2  461   5.572   5.499   5.563
  166TIP3    H1  462   5.536   5.417   5.528
  166TIP3    H2  463   5.599   5.548   5.485
  167TIP3   OH2  464   5.899   2.772   1.449
  167TIP3    H1  465   5.882   2.735   1.363
  167TIP3    H2  466   5.905   2.696   1.507
  168TIP3   OH2  467   4.696   5.132   3.413
  168TIP3    H1  468   4.604   5.124   3.389
  168TIP3    H2  469   4.700   5.102   3.504
  169TIP3   OH2  470   3.542   1.431   0.017
  169TIP3    H1  471   3.636   1.443   0.027
  169TIP3    H2  472   3.508   1.520   0.002
  170TIP3   OH2  473   6.288   1.660   0.809
  170TIP3    H1  474   6.220   1.717   0.845
  170TIP3    H2  475   6.246   1.615   0.736
  171TIP3   OH2  476   5.915   6.336   0.370
  171TIP3    H1  477   5.834   6.375   0.339
  171TIP3    H2  478   5.977   6.348   0.298
  172TIP3   OH2  479   4.573   2.635   4.735
  172TIP3    H1  480   4.492   2.687   4.731
  172TIP3    H2  481   4.544   2.545   4.723
  173TIP3   OH2  482   4.670   6.019   4.961
  173TIP3    H1  483   4.681   6.085   4.892
  173TIP3    H2  484   4.679   5.935   4.915
  174TIP3   OH2  485   6.628   5.379   2.120
  174TIP3    H1  486   6.566   5.400   2.049
  174TIP3    H2  487   6.577   5.391   2.200
  175TIP3   OH2  488   7.200   0.121   1.003
  175TIP3    H1  489   7.162   0.195   1.050
  175TIP3    H2  490   7.271   0.158   0.952
  176TIP3   OH2  491   4.330   5.617   0.562
  176TIP3    H1  492   4.332   5.693   0.620
  176TIP3    H2  493   4.415   5.618   0.519
  177TIP3   OH2  494   2.623   5.362   3.893
  177TIP3    H1  495   2.611   5.378   3.799
  177TIP3    H2  496   2.661   5.274   3.898
  178TIP3   OH2  497   3.277   5.084   3.960
  178TIP3    H1  498   3.214   5.145   3.924
  178TIP3    H2  499   3.277   5.010   3.899
  179TIP3   OH2  500   6.562   2.648   0.007
  179TIP3    H1  501   6.471   2.661   0.032
  179TIP3    H2  502   6.599   2.737   0.006
  180TIP3   OH2  503   2.318   1.434   1.247
  180TIP3    H1  504   2.273   1.471   1.172
  180TIP3    H2  505   2.250   1.420   1.313
  181TIP3   OH2  506   6.324   5.835   4.397
  181TIP3    H1  507   6.404   5.794   4.364
  181TIP3    H2  508   6.348   5.868   4.484
  182TIP3   OH2  509   0.687   0.732   2.012
  182TIP3    H1  510   0.598   0.767   2.014
  182TIP3    H2  511   0.705   0.719   1.919
  183TIP3   OH2  512   4.541   0.451   2.906
  183TIP3    H1  513   4.612   0.504   2.870
  183TIP3    H2  514   4.462   0.503   2.891
  184TIP3   OH2  515   7.044   5.025   1.985
  184TIP3    H1  516   7.011   4.942   1.951
  184TIP3    H2  517   6.966   5.070   2.019
  185TIP3   OH2  518   4.122   3.948   2.854
  185TIP3    H1  519   4.129   3.883   2.784
  185TIP3    H2  520   4.098   3.898   2.932
  186TIP3   OH2  521   3.630   1.891   1.924
  186TIP3    H1  522   3.656   1.982   1.914
  186TIP3    H2  523   3.548   1.895   1.973
  187TIP3   OH2  524   6.706   4.080   3.637
  187TIP3    H1  525   6.712   4.053   3.546
  187TIP3    H2  526   6.669   4.005   3.683
  188TIP3   OH2  527   4.604   4.549   0.179
  188TIP3    H1  528   4.658   4.596   0.242
  188TIP3    H2  529   4.561   4.481   0.231
  189TIP3   OH2  530   6.240   2.185   5.270
  189TIP3    H1  531   6.330   2.169   5.298
  189TIP3    H2  532   6.199   2.229   5.344
  190TIP3   OH2  533   5.669   3.728   0.373
  190TIP3    H1  534   5.741   3.670   0.398
  190TIP3    H2  535   5.591   3.671   0.376
  191TIP3   OH2  536   2.984   3.585   0.422
  191TIP3    H1  537   2.975   3.567   0.516
  191TIP3    H2  538   2.898   3.619   0.396
  192TIP3   OH2  539   1.989   0.607   1.136
  192TIP3    H1  540   1.950   0.693   1.149
  192TIP3    H2  541   1.947   0.574   1.056
  193TIP3   OH2  542   5.374   1.047   3.630
  193TIP3    H1  543   5.361   0.975   3.569
  193TIP3    H2  544   5.337   1.016   3.713
  194TIP3   OH2  545   0.835   3.178   5.376
  194TIP3    H1  546   0.819   3.266   5.343
  194TIP3    H2  547   0.910   3.188   5.435
  195TIP3   OH2  548   1.991   1.071   0.800
  195TIP3    H1  549   2.028   1.124   0.729
  195TIP3    H2  550   1.916   1.027   0.760
  196TIP3   OH2  551   0.136   0.039   5.348
  196TIP3    H1  552   0.226   0.069   5.336
  196TIP3    H2  553   0.088   0.077   5.275
  197TIP3   OH2  554   6.703   3.717   2.976
  197TIP3    H1  555   6.609   3.731   2.971
  197TIP3    H2  556   6.735   3.737   2.888
  198TIP3   OH2  557   0.922   4.689   4.457
  198TIP3    H1  558   0.864   4.765   4.467
  198TIP3    H2  559   0.992   4.703   4.521
  199TIP3   OH2  560   5.595   1.391   2.669
  199TIP3    H1  561   5.571   1.430   2.753
  199TIP3    H2  562   5.541   1.438   2.605
  200TIP3   OH2  563   4.088   0.856   4.579
  200TIP3    H1  564   4.105   0.786   4.515
  200TIP3    H2  565   4.142   0.832   4.654
  201TIP3   OH2  566   3.770   2.796   5.548
  201TIP3    H1  567   3.822   2.876   5.554
  201TIP3    H2  568   3.808   2.749   5.473
  202TIP3   OH2  569   2.949   0.258   0.673
  202TIP3    H1  570   2.904   0.337   0.644
  202TIP3    H2  571   2.915   0.189   0.616
  203TIP3   OH2  572   1.196   4.438   2.422
  203TIP3    H1  573   1.235   4.514   2.379
  203TIP3    H2  574   1.120   4.416   2.368
  204TIP3   OH2  575   2.723   1.650   1.508
  204TIP3    H1  576   2.767   1.723   1.466
  204TIP3    H2  577   2.773   1.573   1.480
  205TIP3   OH2  578   3.167   1.606   3.874
  205TIP3    H1  579   3.087   1.637   3.833
  205TIP3    H2  580   3.236   1.662   3.840
  206TIP3   OH2  581   7.267   4.829   4.626
  206TIP3    H1  582   7.239   4.901   4.569
  206TIP3    H2  583   7.214   4.841   4.705
  207TIP3   OH2  584   2.609   0.901   4.781
  207TIP3    H1  585   2.692   0.854   4.776
  207TIP3    H2  586   2.589   0.925   4.690
  208TIP3   OH2  587   3.371   3.049   0.335
  208TIP3    H1  588   3.311   3.075   0.265
  208TIP3    H2  589   3.316   3.003   0.398
  209TIP3   OH2  590   4.691   1.566   5.636
  209TIP3    H1  591   4.680   1.475   5.664
  209TIP3    H2  592   4.611   1.610   5.663
  210TIP3   OH2  593   2.044   3.902   3.260
  210TIP3    H1  594   2.028   3.984   3.307
  210TIP3    H2  595   2.092   3.929   3.182
  211TIP3   OH2  596   6.000   2.303   1.404
  211TIP3    H1  597   5.918   2.254   1.418
  211TIP3    H2  598   6.027   2.328   1.493
  212TIP3   OH2  599   0.471   5.416   3.730
  212TIP3    H1  600   0.534   5.345   3.721
  212TIP3    H2  601   0.494   5.459   3.813
  213TIP3   OH2  602   1.752   3.096   4.505
  213TIP3    H1  603   1.764   3.187   4.479
  213TIP3    H2  604   1.829   3.051   4.469
  214TIP3   OH2  605   0.850   1.690   1.292
  214TIP3    H1  606   0.923   1.751   1.281
  214TIP3    H2  607   0.887   1.604   1.272
  215TIP3   OH2  608   6.709   1.087   4.735
  215TIP3    H1  609   6.736   1.113   4.823
  215TIP3    H2  610   6.685   0.995   4.743
  216TIP3   OH2  611   6.695   0.391   3.227
  216TIP3    H1  612   6.626   0.428   3.173
  216TIP3    H2  613   6.674   0.420   3.316
  217TIP3   OH2  614   3.482   3.508   5.570
  217TIP3    H1  615   3.505   3.526   5.479
  217TIP3    H2  616   3.465   3.594   5.608
  218TIP3   OH2  617   1.032   0.339   5.830
  218TIP3    H1  618   0.953   0.287   5.816
  218TIP3    H2  619   1.035   0.399   5.756
  219TIP3   OH2  620   5.051   1.777   1.944
  219TIP3    H1  621   5.058   1.681   1.937
  219TIP3    H2  622   5.075   1.809   1.857
  220TIP3   OH2  623   4.384   4.228   5.395
  220TIP3    H1  624   4.359   4.172   5.469
  220TIP3    H2  625   4.445   4.292   5.433
  221TIP3   OH2  626   2.074   4.697   5.431
  221TIP3    H1  627   2.065   4.750   5.351
  221TIP3    H2  628   2.148   4.639   5.413
  222TIP3   OH2  629   1.475   3.403   1.270
  222TIP3    H1  630   1.552   3.437   1.224
  222TIP3    H2  631   1.489   3.309   1.275
  223TIP3   OH2  632   3.661   1.969   4.355
  223TIP3    H1  633   3.658   1.920   4.272
  223TIP3    H2  634   3.749   1.952   4.389
  224TIP3   OH2  635   3.132   5.617   0.957
  224TIP3    H1  636   3.038   5.602   0.955
  224TIP3    H2  637   3.146   5.692   0.900
  225TIP3   OH2  638   4.733   2.052   5.274
  225TIP3    H1  639   4.780   1.990   5.330
  225TIP3    H2  640   4.641   2.038   5.295
  226TIP3   OH2  641   1.513   3.195   0.482
  226TIP3    H1  642   1.423   3.168   0.463
  226TIP3    H2  643   1.554   3.202   0.395
  227TIP3   OH2  644   1.126   6.579   2.385
  227TIP3    H1  645   1.142   6.580   2.291
  227TIP3    H2  646   1.046   6.526   2.396
  228TIP3   OH2  647   4.394   4.877   3.197
  228TIP3    H1  648   4.480   4.843   3.173
  228TIP3    H2  649   4.335   4.842   3.130
  229TIP3   OH2  650   1.090   3.204   1.570
  229TIP3    H1  651   1.128   3.163   1.647
  229TIP3    H2  652   1.103   3.140   1.500
  230TIP3   OH2  653   2.949   1.038   1.931
  230TIP3    H1  654   2.955   0.959   1.985
  230TIP3    H2  655   2.964   1.007   1.842
  231TIP3   OH2  656   4.229   3.888   2.195
  231TIP3    H1  657   4.275   3.835   2.261
  231TIP3    H2  658   4.283   3.967   2.187
  232TIP3   OH2  659   0.278   3.919   4.295
  232TIP3    H1  660   0.339   3.955   4.230
  232TIP3    H2  661   0.334   3.882   4.363
  233TIP3   OH2  662   6.108   4.822   2.180
  233TIP3    H1  663   6.162   4.840   2.257
  233TIP3    H2  664   6.166   4.838   2.106
  234TIP3   OH2  665   1.910   2.549   1.742
  234TIP3    H1  666   1.851   2.519   1.812
  234TIP3    H2  667   1.993   2.564   1.786
  235TIP3   OH2  668   1.453   5.026   4.949
  235TIP3    H1  669   1.431   5.108   4.992
  235TIP3    H2  670   1.549   5.023   4.950
  236TIP3   OH2  671   2.110   2.899   3.544
  236TIP3    H1  672   2.088   2.975   3.489
  236TIP3    H2  673   2.204   2.885   3.528
  237TIP3   OH2  674   5.095   3.981   4.477
  237TIP3    H1  675   5.036   3.985   4.402
  237TIP3    H2  676   5.138   4.067   4.478
  238TIP3   OH2  677   6.090   1.733   3.751
  238TIP3    H1  678   6.160   1.766   3.695
  238TIP3    H2  679   6.057   1.811   3.796
  239TIP3   OH2  680   4.915   4.024   5.838
  239TIP3    H1  681   4.845   4.065   5.788
  239TIP3    H2  682   4.877   4.007   5.924
  240TIP3   OH2  683   5.501   4.081   1.499
  240TIP3    H1  684   5.583   4.092   1.451
  240TIP3    H2  685   5.486   4.165   1.542
  241TIP3   OH2  686   0.503   6.344   3.017
  241TIP3    H1  687   0.573   6.299   2.971
  241TIP3    H2  688   0.536   6.358   3.106
  242TIP3   OH2  689   2.450   3.420   5.510
  242TIP3    H1  690   2.463   3.326   5.522
  242TIP3    H2  691   2.358   3.435   5.530
  243TIP3   OH2  692   1.655   1.940   1.514
  243TIP3    H1  693   1.702   1.882   1.573
  243TIP3    H2  694   1.705   1.937   1.433
  244TIP3   OH2  695   5.354   6.480   1.785
  244TIP3    H1  696   5.266   6.519   1.784
  244TIP3    H2  697   5.413   6.555   1.775
  245TIP3   OH2  698   0.927   4.722   3.318
  245TIP3    H1  699   0.894   4.811   3.322
  245TIP3    H2  700   1.015   4.728   3.356
  246TIP3   OH2  701   0.799   0.068   0.486
  246TIP3    H1  702   0.874   0.104   0.534
  246TIP3    H2  703   0.723   0.113   0.524
  247TIP3   OH2  704   4.483   3.178   4.056
  247TIP3    H1  705   4.448   3.158   4.142
  247TIP3    H2  706   4.479   3.274   4.049
  248TIP3   OH2  707   2.250   0.251   0.796
  248TIP3    H1  708   2.163   0.231   0.830
  248TIP3    H2  709   2.295   0.293   0.868
  249TIP3   OH2  710   1.768   4.501   2.160
  249TIP3    H1  711   1.752   4.443   2.086
  249TIP3    H2  712   1.824   4.451   2.218
  250TIP3   OH2  713   0.916   5.297   0.425
  250TIP3    H1  714   0.991   5.286   0.367
  250TIP3    H2  715   0.946   5.265   0.510
  251TIP3   OH2  716   5.807   6.699   2.508
  251TIP3    H1  717   5.755   6.675   2.585
  251TIP3    H2  718   5.816   6.794   2.514
  252TIP3   OH2  719   0.811   5.645   4.759
  252TIP3    H1  720   0.717   5.631   4.750
  252TIP3    H2  721   0.851   5.596   4.687
  253TIP3   OH2  722   4.539   2.924   2.475
  253TIP3    H1  723   4.510   2.978   2.402
  253TIP3    H2  724   4.538   2.834   2.442
  254TIP3   OH2  725   1.238   1.384   0.054
  254TIP3    H1  726   1.253   1.451   0.120
  254TIP3    H2  727   1.174   1.325   0.094
  255TIP3   OH2  728   4.050   5.112   1.711
  255TIP3    H1  729   4.029   5.204   1.698
  255TIP3    H2  730   4.142   5.111   1.735
  256TIP3   OH2  731   2.735   1.010   2.719
  256TIP3    H1  732   2.776   0.983   2.801
  256TIP3    H2  733   2.729   0.930   2.667
  257TIP3   OH2  734   2.084   6.473   0.561
  257TIP3    H1  735   2.125   6.394   0.597
  257TIP3    H2  736   2.155   6.537   0.557
  258TIP3   OH2  737   4.515   6.318   4.073
  258TIP3    H1  738   4.480   6.235   4.106
  258TIP3    H2  739   4.500   6.380   4.144
  259TIP3   OH2  740   5.640   6.422   0.305
  259TIP3    H1  741   5.598   6.486   0.248
  259TIP3    H2  742   5.628   6.338   0.260
  260TIP3   OH2  743   5.601   3.506   4.264
  260TIP3    H1  744   5.590   3.567   4.336
  260TIP3    H2  745   5.686   3.528   4.226
  261TIP3   OH2  746   3.906   5.400   0.776
  261TIP3    H1  747   3.897   5.352   0.858
  261TIP3    H2  748   3.971   5.468   0.795
  262TIP3   OH2  749   3.166   0.287   2.277
  262TIP3    H1  750   3.173   0.227   2.202
  262TIP3    H2  751   3.114   0.239   2.341
  263TIP3   OH2  752   7.129   2.321   2.878
  263TIP3    H1  753   7.108   2.319   2.785
  263TIP3    H2  754   7.212   2.275   2.885
  264TIP3   OH2  755   4.200   1.300   4.068
  264TIP3    H1  756   4.234   1.289   4.157
  264TIP3    H2  757   4.174   1.392   4.062
  265TIP3   OH2  758   4.311   1.565   1.595
  265TIP3    H1  759   4.340   1.622   1.666
  265TIP3    H2  760   4.215   1.571   1.597
  266TIP3   OH2  761   1.387   1.147   2.309
  266TIP3    H1  762   1.441   1.112   2.380
  266TIP3    H2  763   1.450   1.179   2.244
  267TIP3   OH2  764   2.250   2.142   4.768
  267TIP3    H1  765   2.274   2.188   4.848
  267TIP3    H2  766   2.233   2.052   4.795
  268TIP3   OH2  767   4.702   4.795   1.819
  268TIP3    H1  768   4.788   4.753   1.829
  268TIP3    H2  769   4.719   4.887   1.841
  269TIP3   OH2  770   6.656   4.433   0.744
  269TIP3    H1  771   6.589   4.394   0.688
  269TIP3    H2  772   6.608   4.468   0.818
  270TIP3   OH2  773   5.185   1.737   4.119
  270TIP3    H1  774   5.278   1.753   4.137
  270TIP3    H2  775   5.148   1.713   4.204
  271TIP3   OH2  776   1.451   2.173   5.882
  271TIP3    H1  777   1.540   2.138   5.870
  271TIP3    H2  778   1.412   2.170   5.795
  272TIP3   OH2  779   4.008   6.236   1.602
  272TIP3    H1  780   3.935   6.277   1.649
  272TIP3    H2  781   4.050   6.181   1.668
  273TIP3   OH2  782   2.398   4.661   2.664
  273TIP3    H1  783   2.390   4.730   2.599
  273TIP3    H2  784   2.378   4.704   2.748
  274TIP3   OH2  785   1.618   1.987   5.082
  274TIP3    H1  786   1.647   2.075   5.060
  274TIP3    H2  787   1.652   1.972   5.170
  275TIP3   OH2  788   3.042   4.100   1.875
  275TIP3    H1  789   3.032   4.194   1.864
  275TIP3    H2  790   3.137   4.086   1.873
  276TIP3   OH2  791   4.166   2.252   5.105
  276TIP3    H1  792   4.108   2.326   5.121
  276TIP3    H2  793   4.159   2.236   5.011
  277TIP3   OH2  794   2.164   2.952   1.126
  277TIP3    H1  795   2.151   2.907   1.043
  277TIP3    H2  796   2.259   2.951   1.139
  278TIP3   OH2  797   5.147   4.048   2.196
  278TIP3    H1  798   5.076   3.983   2.197
  278TIP3    H2  799   5.225   3.997   2.175
  279TIP3   OH2  800   4.739   2.968   4.324
  279TIP3    H1  801   4.700   2.903   4.383
  279TIP3    H2  802   4.830   2.973   4.351
  280TIP3   OH2  803   2.496   6.511   3.238
  280TIP3    H1  804   2.470   6.556   3.158
  280TIP3    H2  805   2.589   6.490   3.224
  281TIP3   OH2  806   1.085   6.132   2.371
  281TIP3    H1  807   1.169   6.130   2.418
  281TIP3    H2  808   1.023   6.168   2.435
  282TIP3   OH2  809   5.653   1.520   4.360
  282TIP3    H1  810   5.699   1.468   4.426
  282TIP3    H2  811   5.581   1.562   4.408
  283TIP3   OH2  812   4.127   2.230   3.569
  283TIP3    H1  813   4.061   2.300   3.564
  283TIP3    H2  814   4.200   2.271   3.615
  284TIP3   OH2  815   4.031   1.504   4.679
  284TIP3    H1  816   4.011   1.415   4.649
  284TIP3    H2  817   4.108   1.494   4.735
  285TIP3   OH2  818   5.183   0.733   3.028
  285TIP3    H1  819   5.133   0.778   3.096
  285TIP3    H2  820   5.199   0.799   2.961
  286TIP3   OH2  821   6.023   0.816   4.176
  286TIP3    H1  822   6.101   0.870   4.187
  286TIP3    H2  823   5.950   0.877   4.187
  287TIP3   OH2  824   4.249   4.517   2.703
  287TIP3    H1  825   4.230   4.426   2.683
  287TIP3    H2  826   4.184   4.541   2.770
  288TIP3   OH2  827   5.107   2.983   1.377
  288TIP3    H1  828   5.074   2.971   1.288
  288TIP3    H2  829   5.037   3.029   1.422
  289TIP3   OH2  830   5.109   5.658   3.256
  289TIP3    H1  831   5.193   5.634   3.295
  289TIP3    H2  832   5.083   5.581   3.206
  290TIP3   OH2  833   4.128   0.751   1.228
  290TIP3    H1  834   4.171   0.836   1.242
  290TIP3    H2  835   4.146   0.730   1.137
  291TIP3   OH2  836   7.043   6.028   0.415
  291TIP3    H1  837   7.043   6.025   0.319
  291TIP3    H2  838   7.002   6.112   0.436
  292TIP3   OH2  839   5.313   0.941   3.873
  292TIP3    H1  840   5.301   1.011   3.937
  292TIP3    H2  841   5.317   0.861   3.926
  293TIP3   OH2  842   4.290   3.360   0.315
  293TIP3    H1  843   4.217   3.377   0.255
  293TIP3    H2  844   4.257   3.292   0.374
  294TIP3   OH2  845   6.252   2.932   5.328
  294TIP3    H1  846   6.159   2.915   5.314
  294TIP3    H2  847   6.265   3.021   5.296
  295TIP3   OH2  848   6.560   4.611   3.074
  295TIP3    H1  849   6.526   4.566   3.152
  295TIP3    H2  850   6.641   4.563   3.052
  296TIP3   OH2  851   4.378   5.008   1.197
  296TIP3    H1  852   4.448   4.944   1.185
  296TIP3    H2  853   4.306   4.974   1.144
  297TIP3   OH2  854   4.739   4.465   1.552
  297TIP3    H1  855   4.692   4.433   1.629
  297TIP3    H2  856   4.675   4.515   1.502
  298TIP3   OH2  857   6.400   3.413   2.160
  298TIP3    H1  858   6.360   3.450   2.239
  298TIP3    H2  859   6.476   3.468   2.143
  299TIP3   OH2  860   0.655   0.786   2.280
  299TIP3    H1  861   0.680   0.730   2.207
  299TIP3    H2  862   0.670   0.875   2.248
  300TIP3   OH2  863   0.816   4.878   4.121
  300TIP3    H1  864   0.895   4.824   4.131
  300TIP3    H2  865   0.822   4.942   4.191
  301TIP3   OH2  866   1.421   5.837   5.162
  301TIP3    H1  867   1.459   5.886   5.089
  301TIP3    H2  868   1.368   5.769   5.120
  302TIP3   OH2  869   3.301   4.661   3.115
  302TIP3    H1  870   3.239   4.611   3.062
  302TIP3    H2  871   3.387   4.639   3.079
  303TIP3   OH2  872   2.871   1.184   5.560
  303TIP3    H1  873   2.848   1.225   5.643
  303TIP3    H2  874   2.933   1.115   5.583
  304TIP3   OH2  875   6.397   0.727   5.777
  304TIP3    H1  876   6.451   0.782   5.835
  304TIP3    H2  877   6.460   0.675   5.727
  305TIP3   OH2  878   5.489   5.181   0.192
  305TIP3    H1  879   5.569   5.131   0.206
  305TIP3    H2  880   5.433   5.158   0.267
  306TIP3   OH2  881   1.115   5.771   2.688
  306TIP3    H1  882   1.098   5.751   2.780
  306TIP3    H2  883   1.189   5.714   2.665
  307TIP3   OH2  884   6.413   4.106   3.475
  307TIP3    H1  885   6.476   4.174   3.500
  307TIP3    H2  886   6.464   4.025   3.478
  308TIP3   OH2  887   0.554   2.904   0.347
  308TIP3    H1  888   0.524   2.904   0.256
  308TIP3    H2  889   0.475   2.920   0.398
  309TIP3   OH2  890   6.873   0.946   1.629
  309TIP3    H1  891   6.891   1.023   1.576
  309TIP3    H2  892   6.893   0.972   1.719
  310TIP3   OH2  893   2.124   0.224   2.955
  310TIP3    H1  894   2.096   0.160   3.021
  310TIP3    H2  895   2.072   0.302   2.974
  311TIP3   OH2  896   1.797   6.466   2.700
  311TIP3    H1  897   1.856   6.510   2.638
  311TIP3    H2  898   1.747   6.537   2.740
  312TIP3   OH2  899   4.841   4.745   2.546
  312TIP3    H1  900   4.760   4.785   2.517
  312TIP3    H2  901   4.891   4.731   2.466
  313TIP3   OH2  902   1.794   4.002   4.564
  313TIP3    H1  903   1.829   4.057   4.634
  313TIP3    H2  904   1.707   3.975   4.596
  314TIP3   OH2  905   6.344   5.891   3.870
  314TIP3    H1  906   6.410   5.932   3.925
  314TIP3    H2  907   6.271   5.952   3.870
  315TIP3   OH2  908   1.731   4.022   3.198
  315TIP3    H1  909   1.746   4.044   3.290
  315TIP3    H2  910   1.678   4.095   3.165
  316TIP3   OH2  911   0.743   5.488   0.284
  316TIP3    H1  912   0.777   5.420   0.343
  316TIP3    H2  913   0.795   5.566   0.305
  317TIP3   OH2  914   5.521   0.578   5.413
  317TIP3    H1  915   5.610   0.543   5.418
  317TIP3    H2  916   5.505   0.591   5.320
  318TIP3   OH2  917   3.776   0.630   5.336
  318TIP3    H1  918   3.836   0.556   5.344
  318TIP3    H2  919   3.745   0.646   5.425
  319TIP3   OH2  920   2.204  -0.048   1.159
  319TIP3    H1  921   2.205   0.007   1.080
  319TIP3    H2  922   2.236   0.009   1.229
  320TIP3   OH2  923   2.970   5.047   5.273
  320TIP3    H1  924   2.962   5.110   5.201
  320TIP3    H2  925   3.013   4.971   5.234
  321TIP3   OH2  926   3.836   0.962   0.762
  321TIP3    H1  927   3.820   1.033   0.700
  321TIP3    H2  928   3.931   0.961   0.773
  322TIP3   OH2  929   4.139   6.476   0.355
  322TIP3    H1  930   4.122   6.428   0.275
  322TIP3    H2  931   4.060   6.462   0.408
  323TIP3   OH2  932   6.479   2.115   5.852
  323TIP3    H1  933   6.516   2.038   5.896
  323TIP3    H2  934   6.535   2.188   5.878
  324TIP3   OH2  935   6.970   5.905   4.899
  324TIP3    H1  936   6.996   5.923   4.989
  324TIP3    H2  937   7.047   5.863   4.860
  325TIP3   OH2  938   1.631   4.037   1.190
  325TIP3    H1  939   1.702   4.100   1.205
  325TIP3    H2  940   1.576   4.044   1.268
  326TIP3   OH2  941   3.794   1.352   3.492
  326TIP3    H1  942   3.846   1.314   3.563
  326TIP3    H2  943   3.708   1.366   3.531
  327TIP3   OH2  944   1.024   0.227   2.408
  327TIP3    H1  945   1.108   0.183   2.420
  327TIP3    H2  946   1.034   0.312   2.451
  328TIP3   OH2  947   4.132   3.950   4.712
  328TIP3    H1  948   4.157   3.857   4.714
  328TIP3    H2  949   4.136   3.978   4.803
  329TIP3   OH2  950   3.621   3.628   0.562
  329TIP3    H1  951   3.713   3.653   0.550
  329TIP3    H2  952   3.587   3.691   0.625
  330TIP3   OH2  953   3.703   2.882   1.134
  330TIP3    H1  954   3.685   2.825   1.059
  330TIP3    H2  955   3.746   2.825   1.198
  331TIP3   OH2  956   1.601   1.231   4.236
  331TIP3    H1  957   1.582   1.168   4.167
  331TIP3    H2  958   1.668   1.288   4.198
  332TIP3   OH2  959   3.526   1.823   4.992
  332TIP3    H1  960   3.594   1.795   5.053
  332TIP3    H2  961   3.516   1.749   4.932
  333TIP3   OH2  962   6.021   6.464   2.782
  333TIP3    H1  963   6.003   6.371   2.768
  333TIP3    H2  964   6.114   6.468   2.803
  334TIP3   OH2  965   7.104   6.410   2.481
  334TIP3    H1  966   7.022   6.448   2.450
  334TIP3    H2  967   7.100   6.318   2.454
  335TIP3   OH2  968   5.052   5.040   3.536
  335TIP3    H1  969   4.999   4.965   3.563
  335TIP3    H2  970   5.129   5.001   3.495
  336TIP3   OH2  971   5.550   6.677   1.787
  336TIP3    H1  972   5.602   6.640   1.716
  336TIP3    H2  973   5.613   6.690   1.858
  337TIP3   OH2  974   0.722   0.424   2.628
  337TIP3    H1  975   0.709   0.409   2.534
  337TIP3    H2  976   0.817   0.426   2.639
  338TIP3   OH2  977   0.575   3.932   2.812
  338TIP3    H1  978   0.601   4.022   2.795
  338TIP3    H2  979   0.658   3.883   2.815
  339TIP3   OH2  980   3.553   0.824   1.492
  339TIP3    H1  981   3.609   0.795   1.563
  339TIP3    H2  982   3.613   0.846   1.421
  340TIP3   OH2  983   2.915   3.223   5.394
  340TIP3    H1  984   3.005   3.232   5.361
  340TIP3    H2  985   2.862   3.279   5.337
  341TIP3   OH2  986   1.657   2.480   1.915
  341TIP3    H1  987   1.626   2.401   1.958
  341TIP3    H2  988   1.578   2.530   1.896
  342TIP3   OH2  989   4.044   3.183   4.557
  342TIP3    H1  990   4.099   3.255   4.585
  342TIP3    H2  991   4.093   3.140   4.487
  343TIP3   OH2  992   6.235   0.162   0.725
  343TIP3    H1  993   6.234   0.210   0.642
  343TIP3    H2  994   6.196   0.222   0.788
  344TIP3   OH2  995  -0.060   0.684   2.100
  344TIP3    H1  996   0.032   0.670   2.075
  344TIP3    H2  997  -0.092   0.749   2.036
  345TIP3   OH2  998   4.331   4.087   5.624
  345TIP3    H1  999   4.357   4.126   5.708
  345TIP3    H2 1000   4.246   4.048   5.641
  346TIP3   OH2 1001   7.210   1.020   4.336
  346TIP3    H1 1002   7.167   0.936   4.352
  346TIP3    H2 1003   7.139   1.084   4.335
  347TIP3   OH2 1004   2.082   5.503   3.770
  347TIP3    H1 1005   2.017   5.571   3.788
  347TIP3    H2 1006   2.038   5.442   3.712
  348TIP3   OH2 1007   5.506   3.370   4.579
  348TIP3    H1 1008   5.486   3.277   4.582
  348TIP3    H2 1009   5.575   3.378   4.513
  349TIP3   OH2 1010   7.091   6.502   1.219
  349TIP3    H1 1011   7.167   6.507   1.161
  349TIP3    H2 1012   7.045   6.584   1.205
  350TIP3   OH2 1013   3.226   3.438   5.224
  350TIP3    H1 1014   3.192   3.481   5.303
  350TIP3    H2 1015   3.286   3.371   5.258
  351TIP3   OH2 1016   5.617   1.191   4.722
  351TIP3    H1 1017   5.619   1.098   4.744
  351TIP3    H2 1018   5.570   1.232   4.794
  352TIP3   OH2 1019   2.888   4.927   2.029
  352TIP3    H1 1020   2.841   4.978   1.962
  352TIP3    H2 1021   2.822   4.866   2.062
  353TIP3   OH2 1022   1.174   4.852   5.534
  353TIP3    H1 1023   1.150   4.870   5.624
  353TIP3    H2 1024   1.148   4.930   5.485
  354TIP3   OH2 1025   3.894   6.349   5.415
  354TIP3    H1 1026   3.858   6.263   5.436
  354TIP3    H2 1027   3.988   6.333   5.403
  355TIP3   OH2 1028   0.371   2.813   4.393
  355TIP3    H1 1029   0.458   2.805   4.353
  355TIP3    H2 1030   0.312   2.817   4.318
  356TIP3   OH2 1031   3.993   2.378   3.346
  356TIP3    H1 1032   3.995   2.406   3.438
  356TIP3    H2 1033   3.902   2.389   3.319
  357TIP3   OH2 1034   2.417   2.413   4.216
  357TIP3    H1 1035   2.495   2.465   4.198
  357TIP3    H2 1036   2.369   2.463   4.282
  358TIP3   OH2 1037   5.199   1.530   4.409
  358TIP3    H1 1038   5.155   1.445   4.406
  358TIP3    H2 1039   5.135   1.591   4.373
  359TIP3   OH2 1040   1.127   5.550   0.423
  359TIP3    H1 1041   1.143   5.603   0.500
  359TIP3    H2 1042   1.038   5.516   0.433
  360TIP3   OH2 1043   2.685   1.115   1.983
  360TIP3    H1 1044   2.766   1.072   2.008
  360TIP3    H2 1045   2.634   1.119   2.064
  361TIP3   OH2 1046   4.783   6.621   5.475
  361TIP3    H1 1047   4.717   6.668   5.526
  361TIP3    H2 1048   4.832   6.690   5.430
  362TIP3   OH2 1049   7.038   6.235   3.346
  362TIP3    H1 1050   6.961   6.291   3.332
  362TIP3    H2 1051   7.033   6.169   3.278
  363TIP3   OH2 1052   3.165   3.139   5.255
  363TIP3    H1 1053   3.238   3.196   5.279
  363TIP3    H2 1054   3.189   3.053   5.287
  364TIP3   OH2 1055   2.072   3.039   5.052
  364TIP3    H1 1056   2.054   3.033   4.958
  364TIP3    H2 1057   2.043   3.126   5.077
  365TIP3   OH2 1058   0.554   4.573   2.248
  365TIP3    H1 1059   0.597   4.601   2.329
  365TIP3    H2 1060   0.553   4.478   2.253
  366TIP3   OH2 1061   4.273   2.788   2.941
  366TIP3    H1 1062   4.297   2.809   2.851
  366TIP3    H2 1063   4.250   2.872   2.980
  367TIP3   OH2 1064   5.008   5.420   3.626
  367TIP3    H1 1065   5.063   5.349   3.591
  367TIP3    H2 1066   5.060   5.499   3.614
  368TIP3   OH2 1067   6.854   6.612   4.819
  368TIP3    H1 1068   6.940   6.641   4.789
  368TIP3    H2 1069   6.853   6.628   4.913
  369TIP3   OH2 1070   6.081   1.004   0.434
  369TIP3    H1 1071   6.130   1.077   0.475
  369TIP3    H2 1072   6.114   1.001   0.344
  370TIP3   OH2 1073   6.249   1.109   1.798
  370TIP3    H1 1074   6.333   1.114   1.753
  370TIP3    H2 1075   6.184   1.102   1.729
  371TIP3   OH2 1076   3.592   5.897   4.265
  371TIP3    H1 1077   3.620   5.885   4.356
  371TIP3    H2 1078   3.515   5.841   4.255
  372TIP3   OH2 1079   7.000   5.169   2.524
  372TIP3    H1 1080   7.090   5.167   2.494
  372TIP3    H2 1081   6.953   5.221   2.458
  373TIP3   OH2 1082   6.272   4.411   0.243
  373TIP3    H1 1083   6.259   4.423   0.336
  373TIP3    H2 1084   6.249   4.319   0.227
  374TIP3   OH2 1085   1.234   4.309   5.287
  374TIP3    H1 1086   1.287   4.360   5.226
  374TIP3    H2 1087   1.296   4.251   5.331
  375TIP3   OH2 1088   2.881   3.487   1.162
  375TIP3    H1 1089   2.955   3.480   1.223
  375TIP3    H2 1090   2.910   3.443   1.083
  376TIP3   OH2 1091   0.602   5.871   3.888
  376TIP3    H1 1092   0.695   5.875   3.868
  376TIP3    H2 1093   0.579   5.778   3.881
  377TIP3   OH2 1094   0.142   1.885   4.972
  377TIP3    H1 1095   0.215   1.826   4.953
  377TIP3    H2 1096   0.116   1.919   4.886
  378TIP3   OH2 1097   0.507   3.842   3.328
  378TIP3    H1 1098   0.439   3.895   3.368
  378TIP3    H2 1099   0.522   3.883   3.243
  379TIP3   OH2 1100   6.182   4.991   4.137
  379TIP3    H1 1101   6.237   4.914   4.122
  379TIP3    H2 1102   6.244   5.062   4.153
  380TIP3   OH2 1103   6.024   4.770   1.885
  380TIP3    H1 1104   5.966   4.779   1.809
  380TIP3    H2 1105   5.966   4.781   1.960
  381TIP3   OH2 1106   5.536   3.290   0.831
  381TIP3    H1 1107   5.571   3.320   0.915
  381TIP3    H2 1108   5.464   3.350   0.812
  382TIP3   OH2 1109   3.053   1.503   2.067
  382TIP3    H1 1110   3.049   1.599   2.059
  382TIP3    H2 1111   3.142   1.480   2.040
  383TIP3   OH2 1112   1.786   6.258   3.729
  383TIP3    H1 1113   1.709   6.310   3.751
  383TIP3    H2 1114   1.777   6.178   3.781
  384TIP3   OH2 1115   2.818   6.603   0.768
  384TIP3    H1 1116   2.742   6.553   0.735
  384TIP3    H2 1117   2.892   6.570   0.717
  385TIP3   OH2 1118   0.510   6.286   0.308
  385TIP3    H1 1119   0.439   6.223   0.295
  385TIP3    H2 1120   0.569   6.243   0.370
  386TIP3   OH2 1121   5.288   5.765   5.652
  386TIP3    H1 1122   5.311   5.679   5.686
  386TIP3    H2 1123   5.193   5.762   5.643
  387TIP3   OH2 1124   0.218   4.859   3.301
  387TIP3    H1 1125   0.135   4.907   3.299
  387TIP3    H2 1126   0.236   4.845   3.394
  388TIP3   OH2 1127   3.297   4.253   1.520
  388TIP3    H1 1128   3.311   4.165   1.486
  388TIP3    H2 1129   3.369   4.305   1.484
  389TIP3   OH2 1130   2.124   2.234   2.011
  389TIP3    H1 1131   2.095   2.208   2.099
  389TIP3    H2 1132   2.214   2.263   2.023
  390TIP3   OH2 1133   6.939   1.631   3.844
  390TIP3    H1 1134   6.993   1.614   3.767
  390TIP3    H2 1135   6.872   1.562   3.841
  391TIP3   OH2 1136  -0.025   1.634   1.223
  391TIP3    H1 1137  -0.012   1.678   1.308
  391TIP3    H2 1138   0.048   1.664   1.169
  392TIP3   OH2 1139   1.426   5.509   4.961
  392TIP3    H1 1140   1.335   5.527   4.938
  392TIP3    H2 1141   1.475   5.532   4.882
  393TIP3   OH2 1142   2.131   3.651   5.567
  393TIP3    H1 1143   2.213   3.652   5.616
  393TIP3    H2 1144   2.129   3.736   5.522
  394TIP3   OH2 1145   0.808   4.438   0.240
  394TIP3    H1 1146   0.831   4.354   0.281
  394TIP3    H2 1147   0.789   4.496   0.314
  395TIP3   OH2 1148   5.375   4.222   3.751
  395TIP3    H1 1149   5.303   4.165   3.779
  395TIP3    H2 1150   5.454   4.180   3.787
  396TIP3   OH2 1151   1.003   4.691   5.386
  396TIP3    H1 1152   0.920   4.736   5.371
  396TIP3    H2 1153   1.059   4.755   5.429
  397TIP3   OH2 1154   0.366   1.914   2.757
  397TIP3    H1 1155   0.271   1.899   2.763
  397TIP3    H2 1156   0.391   1.946   2.844
  398TIP3   OH2 1157   1.114   2.063   4.826
  398TIP3    H1 1158   1.191   2.108   4.859
  398TIP3    H2 1159   1.040   2.111   4.864
  399TIP3   OH2 1160   7.207   1.361   0.207
  399TIP3    H1 1161   7.230   1.453   0.225
  399TIP3    H2 1162   7.120   1.350   0.244
  400TIP3   OH2 1163   1.817   0.287   1.718
  400TIP3    H1 1164   1.909   0.263   1.711
  400TIP3    H2 1165   1.770   0.218   1.670
  401TIP3   OH2 1166   0.421   1.857   4.658
  401TIP3    H1 1167   0.446   1.922   4.724
  401TIP3    H2 1168   0.477   1.781   4.676
  402TIP3   OH2 1169   4.082   0.937   2.393
  402TIP3    H1 1170   4.022   1.004   2.425
  402TIP3    H2 1171   4.116   0.972   2.311
  403TIP3   OH2 1172   1.794   4.388   0.120
  403TIP3    H1 1173   1.788   4.294   0.137
  403TIP3    H2 1174   1.887   4.408   0.127
  404TIP3   OH2 1175   0.760   3.316   3.296
  404TIP3    H1 1176   0.695   3.279   3.237
  404TIP3    H2 1177   0.800   3.241   3.339
  405TIP3   OH2 1178   0.880   2.926   1.981
  405TIP3    H1 1179   0.953   2.913   2.041
  405TIP3    H2 1180   0.869   3.021   1.977
  406TIP3   OH2 1181   0.252   1.403   1.125
  406TIP3    H1 1182   0.160   1.385   1.104
  406TIP3    H2 1183   0.297   1.320   1.110
  407TIP3   OH2 1184   6.069   1.575   1.795
  407TIP3    H1 1185   6.041   1.489   1.826
  407TIP3    H2 1186   6.161   1.562   1.770
  408TIP3   OH2 1187   0.473   3.949   3.660
  408TIP3    H1 1188   0.412   3.878   3.640
  408TIP3    H2 1189   0.541   3.908   3.714
  409TIP3   OH2 1190   1.532   4.299   0.474
  409TIP3    H1 1191   1.504   4.231   0.413
  409TIP3    H2 1192   1.577   4.251   0.543
  410TIP3   OH2 1193   2.364   3.451   1.781
  410TIP3    H1 1194   2.348   3.362   1.811
  410TIP3    H2 1195   2.377   3.501   1.861
  411TIP3   OH2 1196   4.353   3.636   0.877
  411TIP3    H1 1197   4.395   3.643   0.791
  411TIP3    H2 1198   4.361   3.724   0.914
  412TIP3   OH2 1199   2.289   0.369   4.267
  412TIP3    H1 1200   2.217   0.350   4.327
  412TIP3    H2 1201   2.251   0.428   4.202
  413TIP3   OH2 1202   5.810   3.672   3.147
  413TIP3    H1 1203   5.855   3.609   3.090
  413TIP3    H2 1204   5.725   3.632   3.163
  414TIP3   OH2 1205   2.796   0.599   1.315
  414TIP3    H1 1206   2.745   0.532   1.270
  414TIP3    H2 1207   2.885   0.563   1.319
  415TIP3   OH2 1208   5.091   2.559   4.995
  415TIP3    H1 1209   5.010   2.526   5.033
  415TIP3    H2 1210   5.139   2.481   4.966
  416TIP3   OH2 1211   5.522   4.854   1.787
  416TIP3    H1 1212   5.579   4.918   1.831
  416TIP3    H2 1213   5.561   4.769   1.809
  417TIP3   OH2 1214   0.871   4.606   0.029
  417TIP3    H1 1215   0.963   4.627   0.047
  417TIP3    H2 1216   0.847   4.541   0.095
  418TIP3   OH2 1217   6.612   4.635   3.485
  418TIP3    H1 1218   6.543   4.692   3.520
  418TIP3    H2 1219   6.659   4.690   3.422
  419TIP3   OH2 1220   3.752   1.142   1.648
  419TIP3    H1 1221   3.796   1.060   1.624
  419TIP3    H2 1222   3.662   1.115   1.667
  420TIP3   OH2 1223   5.690   3.895   2.082
  420TIP3    H1 1224   5.696   3.955   2.009
  420TIP3    H2 1225   5.773   3.906   2.129
  421TIP3   OH2 1226   7.045   4.147   4.214
  421TIP3    H1 1227   7.120   4.135   4.272
  421TIP3    H2 1228   6.982   4.081   4.243
  422TIP3   OH2 1229   1.577   6.704   1.030
  422TIP3    H1 1230   1.554   6.780   1.083
  422TIP3    H2 1231   1.647   6.735   0.973
  423TIP3   OH2 1232   5.414   0.958   2.433
  423TIP3    H1 1233   5.379   1.004   2.509
  423TIP3    H2 1234   5.381   0.868   2.442
  424TIP3   OH2 1235   5.427   3.447   2.568
  424TIP3    H1 1236   5.334   3.462   2.550
  424TIP3    H2 1237   5.462   3.533   2.590
  425TIP3   OH2 1238   1.943   4.703   1.958
  425TIP3    H1 1239   1.985   4.778   1.999
  425TIP3    H2 1240   1.978   4.627   2.005
  426TIP3   OH2 1241   4.424   0.741   4.180
  426TIP3    H1 1242   4.411   0.656   4.220
  426TIP3    H2 1243   4.510   0.735   4.138
  427TIP3   OH2 1244   6.624   5.809   0.771
  427TIP3    H1 1245   6.604   5.715   0.775
  427TIP3    H2 1246   6.703   5.814   0.718
  428TIP3   OH2 1247   0.118   5.718   3.337
  428TIP3    H1 1248   0.196   5.668   3.314
  428TIP3    H2 1249   0.127   5.735   3.431
  429TIP3   OH2 1250   0.647   1.345   4.017
  429TIP3    H1 1251   0.573   1.375   3.965
  429TIP3    H2 1252   0.713   1.318   3.953
  430TIP3   OH2 1253   0.702   5.433   4.989
  430TIP3    H1 1254   0.695   5.432   4.894
  430TIP3    H2 1255   0.784   5.388   5.008
  431TIP3   OH2 1256   4.943   0.292   4.909
  431TIP3    H1 1257   4.984   0.214   4.946
  431TIP3    H2 1258   4.893   0.330   4.981
  432TIP3   OH2 1259   0.986   2.045   0.788
  432TIP3    H1 1260   0.969   2.130   0.828
  432TIP3    H2 1261   0.918   1.988   0.824
  433TIP3   OH2 1262   3.074   0.593   0.412
  433TIP3    H1 1263   3.042   0.633   0.493
  433TIP3    H2 1264   3.027   0.640   0.343
  434TIP3   OH2 1265   3.904   1.839   4.416
  434TIP3    H1 1266   3.945   1.906   4.362
  434TIP3    H2 1267   3.932   1.756   4.376
  435TIP3   OH2 1268   4.526   2.016   5.650
  435TIP3    H1 1269   4.477   2.066   5.584
  435TIP3    H2 1270   4.491   2.045   5.734
  436TIP3   OH2 1271   6.643   3.846  -0.026
  436TIP3    H1 1272   6.649   3.788   0.049
  436TIP3    H2 1273   6.643   3.935   0.011
  437TIP3   OH2 1274   4.637   1.114   1.058
  437TIP3    H1 1275   4.561   1.095   1.113
  437TIP3    H2 1276   4.710   1.069   1.101
  438TIP3   OH2 1277   4.398   1.244   0.214
  438TIP3    H1 1278   4.427   1.295   0.290
  438TIP3    H2 1279   4.305   1.227   0.231
  439TIP3   OH2 1280   6.727   4.858   5.837
  439TIP3    H1 1281   6.782   4.792   5.881
  439TIP3    H2 1282   6.649   4.809   5.810
  440TIP3   OH2 1283   7.111   3.664   2.885
  440TIP3    H1 1284   7.056   3.663   2.964
  440TIP3    H2 1285   7.099   3.577   2.847
  441TIP3   OH2 1286   3.249   2.249   4.588
  441TIP3    H1 1287   3.249   2.250   4.492
  441TIP3    H2 1288   3.260   2.157   4.611
  442TIP3   OH2 1289   6.226   1.943   0.423
  442TIP3    H1 1290   6.202   1.978   0.509
  442TIP3    H2 1291   6.157   1.976   0.364
  443TIP3   OH2 1292   4.123   5.510   3.068
  443TIP3    H1 1293   4.150   5.432   3.117
  443TIP3    H2 1294   4.108   5.479   2.979
  444TIP3   OH2 1295   6.161   1.992   1.775
  444TIP3    H1 1296   6.080   2.012   1.728
  444TIP3    H2 1297   6.211   1.938   1.713
  445TIP3   OH2 1298   4.066   4.637   3.361
  445TIP3    H1 1299   4.050   4.637   3.267
  445TIP3    H2 1300   4.159   4.655   3.370
  446TIP3   OH2 1301   5.313   0.131   3.044
  446TIP3    H1 1302   5.384   0.099   2.989
  446TIP3    H2 1303   5.336   0.222   3.063
  447TIP3   OH2 1304   5.633   4.919   5.261
  447TIP3    H1 1305   5.727   4.931   5.247
  447TIP3    H2 1306   5.595   4.919   5.173
  448TIP3   OH2 1307   6.861   5.758   2.035
  448TIP3    H1 1308   6.887   5.669   2.010
  448TIP3    H2 1309   6.933   5.813   2.003
  449TIP3   OH2 1310   1.701   1.655   5.498
  449TIP3    H1 1311   1.611   1.626   5.511
  449TIP3    H2 1312   1.748   1.627   5.577
  450TIP3   OH2 1313   0.197   4.098   1.353
  450TIP3    H1 1314   0.291   4.090   1.370
  450TIP3    H2 1315   0.155   4.053   1.427
  451TIP3   OH2 1316   0.340   6.436   1.499
  451TIP3    H1 1317   0.293   6.362   1.460
  451TIP3    H2 1318   0.369   6.404   1.585
  452TIP3   OH2 1319   4.402   1.280   3.438
  452TIP3    H1 1320   4.469   1.227   3.480
  452TIP3    H2 1321   4.415   1.264   3.344
  453TIP3   OH2 1322   6.224   0.375   3.609
  453TIP3    H1 1323   6.187   0.344   3.692
  453TIP3    H2 1324   6.311   0.407   3.632
  454TIP3   OH2 1325   1.105   2.685   1.663
  454TIP3    H1 1326   1.115   2.714   1.754
  454TIP3    H2 1327   1.183   2.716   1.618
  455TIP3   OH2 1328   5.133   5.455   4.374
  455TIP3    H1 1329   5.098   5.517   4.309
  455TIP3    H2 1330   5.064   5.390   4.385
  456TIP3   OH2 1331   4.466   0.655   4.486
  456TIP3    H1 1332   4.430   0.595   4.551
  456TIP3    H2 1333   4.555   0.624   4.470
  457TIP3   OH2 1334   2.303   2.335   1.317
  457TIP3    H1 1335   2.329   2.312   1.406
  457TIP3    H2 1336   2.233   2.399   1.328
  458TIP3   OH2 1337   3.848   2.699   1.312
  458TIP3    H1 1338   3.867   2.606   1.300
  458TIP3    H2 1339   3.796   2.703   1.392
  459TIP3   OH2 1340   0.319   0.581   3.217
  459TIP3    H1 1341   0.375   0.656   3.200
  459TIP3    H2 1342   0.282   0.558   3.132
  460TIP3   OH2 1343   5.999   3.958   4.305
  460TIP3    H1 1344   6.025   4.049   4.320
  460TIP3    H2 1345   5.968   3.928   4.391
  461TIP3   OH2 1346   3.662   0.825   0.908
  461TIP3    H1 1347   3.582   0.878   0.909
  461TIP3    H2 1348   3.716   0.864   0.839
  462TIP3   OH2 1349   5.101   2.085   5.575
  462TIP3    H1 1350   5.121   2.074   5.667
  462TIP3    H2 1351   5.106   1.997   5.538
  463TIP3   OH2 1352   3.307   1.992   4.201
  463TIP3    H1 1353   3.296   1.900   4.226
  463TIP3    H2 1354   3.269   1.997   4.113
  464TIP3   OH2 1355   2.195   4.495   2.941
  464TIP3    H1 1356   2.156   4.564   2.994
  464TIP3    H2 1357   2.289   4.511   2.946
  465TIP3   OH2 1358   6.413   3.438   4.943
  465TIP3    H1 1359   6.422   3.532   4.961
  465TIP3    H2 1360   6.320   3.420   4.956
  466TIP3   OH2 1361   6.094   0.231   2.896
  466TIP3    H1 1362   6.017   0.220   2.952
  466TIP3    H2 1363   6.060   0.221   2.807
  467TIP3   OH2 1364   6.765   1.627   2.094
  467TIP3    H1 1365   6.678   1.666   2.102
  467TIP3    H2 1366   6.825   1.701   2.103
  468TIP3   OH2 1367   1.304   0.299   5.815
  468TIP3    H1 1368   1.209   0.291   5.803
  468TIP3    H2 1369   1.315   0.380   5.864
  469TIP3   OH2 1370   4.175   6.331   5.644
  469TIP3    H1 1371   4.102   6.281   5.680
  469TIP3    H2 1372   4.183   6.298   5.554
  470TIP3   OH2 1373   2.982  -0.081   3.095
  470TIP3    H1 1374   2.959  -0.032   3.016
  470TIP3    H2 1375   2.951  -0.026   3.167
  471TIP3   OH2 1376   4.780   6.714   3.282
  471TIP3    H1 1377   4.829   6.650   3.230
  471TIP3    H2 1378   4.704   6.735   3.228
  472TIP3   OH2 1379   6.661   6.143   3.513
  472TIP3    H1 1380   6.733   6.105   3.562
  472TIP3    H2 1381   6.611   6.068   3.481
  473TIP3   OH2 1382   2.365   5.110   1.002
  473TIP3    H1 1383   2.448   5.084   0.962
  473TIP3    H2 1384   2.302   5.045   0.971
  474TIP3   OH2 1385   5.069   4.392   4.066
  474TIP3    H1 1386   5.115   4.423   3.988
  474TIP3    H2 1387   5.025   4.311   4.038
  475TIP3   OH2 1388   3.918   3.333   1.412
  475TIP3    H1 1389   3.920   3.267   1.344
  475TIP3    H2 1390   3.830   3.328   1.448
  476TIP3   OH2 1391   0.155   0.617   2.418
  476TIP3    H1 1392   0.221   0.548   2.409
  476TIP3    H2 1393   0.206   0.697   2.426
  477TIP3   OH2 1394   5.040   5.519   4.799
  477TIP3    H1 1395   4.987   5.540   4.876
  477TIP3    H2 1396   5.066   5.428   4.812
  478TIP3   OH2 1397   1.535   6.559   3.458
  478TIP3    H1 1398   1.493   6.644   3.471
  478TIP3    H2 1399   1.603   6.575   3.393
  479TIP3   OH2 1400   1.122   4.410   4.211
  479TIP3    H1 1401   1.181   4.357   4.265
  479TIP3    H2 1402   1.169   4.422   4.129
  480TIP3   OH2 1403   5.311   6.347   3.487
  480TIP3    H1 1404   5.344   6.331   3.576
  480TIP3    H2 1405   5.246   6.279   3.473
  481TIP3   OH2 1406   3.415   1.272   0.213
  481TIP3    H1 1407   3.462   1.352   0.238
  481TIP3    H2 1408   3.422   1.268   0.118
  482TIP3   OH2 1409   6.847   1.604   2.677
  482TIP3    H1 1410   6.753   1.591   2.664
  482TIP3    H2 1411   6.865   1.692   2.644
  483TIP3   OH2 1412   4.305   5.573   3.663
  483TIP3    H1 1413   4.368   5.573   3.590
  483TIP3    H2 1414   4.317   5.488   3.705
  484TIP3   OH2 1415   1.778   4.997   1.265
  484TIP3    H1 1416   1.726   4.969   1.190
  484TIP3    H2 1417   1.867   4.966   1.246
  485TIP3   OH2 1418   1.494   5.682   5.385
  485TIP3    H1 1419   1.408   5.645   5.407
  485TIP3    H2 1420   1.477   5.739   5.310
  486TIP3   OH2 1421   4.755   4.949   0.973
  486TIP3    H1 1422   4.778   4.959   1.065
  486TIP3    H2 1423   4.665   4.914   0.974
  487TIP3   OH2 1424   0.161   5.926   1.338
  487TIP3    H1 1425   0.206   5.852   1.378
  487TIP3    H2 1426   0.103   5.886   1.273
  488TIP3   OH2 1427   1.544   2.034   3.750
  488TIP3    H1 1428   1.525   1.949   3.709
  488TIP3    H2 1429   1.613   2.014   3.813
  489TIP3   OH2 1430   6.548   5.047   5.502
  489TIP3    H1 1431   6.609   5.079   5.569
  489TIP3    H2 1432   6.479   5.114   5.498
  490TIP3   OH2 1433   6.977   1.000   1.892
  490TIP3    H1 1434   7.062   1.000   1.850
  490TIP3    H2 1435   6.995   0.980   1.984
  491TIP3   OH2 1436   5.474   5.886   4.667
  491TIP3    H1 1437   5.483   5.800   4.707
  491TIP3    H2 1438   5.454   5.945   4.740
  492TIP3   OH2 1439   2.037   4.516   0.720
  492TIP3    H1 1440   1.975   4.492   0.651
  492TIP3    H2 1441   2.020   4.454   0.790
  493TIP3   OH2 1442   2.302   1.010   1.454
  493TIP3    H1 1443   2.224   1.000   1.509
  493TIP3    H2 1444   2.359   1.068   1.504
  494TIP3   OH2 1445   2.296   0.982   2.619
  494TIP3    H1 1446   2.216   0.939   2.588
  494TIP3    H2 1447   2.358   0.910   2.631
  495TIP3   OH2 1448   4.648   5.947   3.568
  495TIP3    H1 1449   4.662   5.935   3.474
  495TIP3    H2 1450   4.656   6.041   3.582
  496TIP3   OH2 1451   0.394   5.252   2.292
  496TIP3    H1 1452   0.406   5.201   2.373
  496TIP3    H2 1453   0.476   5.301   2.283
  497TIP3   OH2 1454   3.563   0.155   5.291
  497TIP3    H1 1455   3.469   0.139   5.288
  497TIP3    H2 1456   3.599   0.101   5.221
  498TIP3   OH2 1457   2.908   5.718   1.800
  498TIP3    H1 1458   2.920   5.672   1.883
  498TIP3    H2 1459   2.981   5.689   1.745
  499TIP3   OH2 1460   1.593   4.705   4.285
  499TIP3    H1 1461   1.679   4.733   4.314
  499TIP3    H2 1462   1.604   4.613   4.263
  500TIP3   OH2 1463   4.383   3.319   0.726
  500TIP3    H1 1464   4.342   3.266   0.657
  500TIP3    H2 1465   4.477   3.313   0.708
  501TIP3   OH2 1466   2.029   1.450   5.425
  501TIP3    H1 1467   2.040   1.519   5.359
  501TIP3    H2 1468   2.074   1.483   5.502
  502TIP3   OH2 1469   3.389   0.574   5.521
  502TIP3    H1 1470   3.449   0.543   5.453
  502TIP3    H2 1471   3.352   0.655   5.485
  503TIP3   OH2 1472   3.207   2.489   4.150
  503TIP3    H1 1473   3.273   2.537   4.100
  503TIP3    H2 1474   3.124   2.531   4.127
  504TIP3   OH2 1475   2.630   6.497   3.885
  504TIP3    H1 1476   2.544   6.530   3.911
  504TIP3    H2 1477   2.636   6.520   3.792
  505TIP3   OH2 1478   4.187   6.290   1.958
  505TIP3    H1 1479   4.201   6.372   1.911
  505TIP3    H2 1480   4.146   6.316   2.040
  506TIP3   OH2 1481   4.099   0.030   3.527
  506TIP3    H1 1482   4.114   0.052   3.619
  506TIP3    H2 1483   4.072   0.113   3.487
  507TIP3   OH2 1484   6.044   4.391  -0.059
  507TIP3    H1 1485   6.001   4.380   0.026
  507TIP3    H2 1486   6.070   4.483  -0.061
  508TIP3   OH2 1487   6.835   2.788   2.808
  508TIP3    H1 1488   6.904   2.751   2.753
  508TIP3    H2 1489   6.755   2.745   2.779
  509TIP3   OH2 1490   3.441   6.432   3.042
  509TIP3    H1 1491   3.401   6.358   3.087
  509TIP3    H2 1492   3.385   6.507   3.065
  510TIP3   OH2 1493   2.879   6.553   4.584
  510TIP3    H1 1494   2.863   6.541   4.491
  510TIP3    H2 1495   2.928   6.474   4.610
  511TIP3   OH2 1496   5.321   3.481   1.283
  511TIP3    H1 1497   5.409   3.497   1.318
  511TIP3    H2 1498   5.288   3.406   1.332
  512TIP3   OH2 1499   3.678   6.008   5.502
  512TIP3    H1 1500   3.679   5.920   5.539
  512TIP3    H2 1501   3.677   6.066   5.578
  513TIP3   OH2 1502   1.496   0.830   3.585
  513TIP3    H1 1503   1.550   0.841   3.663
  513TIP3    H2 1504   1.499   0.915   3.540
  514TIP3   OH2 1505   4.241   6.202   0.217
  514TIP3    H1 1506   4.168   6.166   0.167
  514TIP3    H2 1507   4.268   6.131   0.276
  515TIP3   OH2 1508   0.555   3.295   2.005
  515TIP3    H1 1509   0.508   3.276   2.087
  515TIP3    H2 1510   0.563   3.391   2.005
  516TIP3   OH2 1511   3.283   0.193   3.998
  516TIP3    H1 1512   3.311   0.175   3.908
  516TIP3    H2 1513   3.238   0.277   3.993
  517TIP3   OH2 1514   3.816   2.469   1.050
  517TIP3    H1 1515   3.812   2.450   1.144
  517TIP3    H2 1516   3.895   2.424   1.019
  518TIP3   OH2 1517   0.623   5.712   2.716
  518TIP3    H1 1518   0.706   5.708   2.670
  518TIP3    H2 1519   0.581   5.628   2.698
  519TIP3   OH2 1520   3.618   3.111   5.218
  519TIP3    H1 1521   3.632   3.088   5.126
  519TIP3    H2 1522   3.608   3.027   5.262
  520TIP3   OH2 1523   3.526   5.247   3.971
  520TIP3    H1 1524   3.572   5.178   4.020
  520TIP3    H2 1525   3.440   5.210   3.953
  521TIP3   OH2 1526   1.951   1.604   0.844
  521TIP3    H1 1527   1.875   1.580   0.791
  521TIP3    H2 1528   1.987   1.520   0.873
  522TIP3   OH2 1529   0.313   0.592   3.631
  522TIP3    H1 1530   0.288   0.513   3.583
  522TIP3    H2 1531   0.273   0.663   3.581
  523TIP3   OH2 1532   3.628   3.417   4.544
  523TIP3    H1 1533   3.656   3.357   4.475
  523TIP3    H2 1534   3.617   3.363   4.621
  524TIP3   OH2 1535   1.770   6.084   0.942
  524TIP3    H1 1536   1.844   6.099   1.001
  524TIP3    H2 1537   1.770   6.161   0.884
  525TIP3   OH2 1538   2.362   2.903   4.944
  525TIP3    H1 1539   2.403   2.817   4.929
  525TIP3    H2 1540   2.332   2.899   5.035
  526TIP3   OH2 1541   1.991   1.900   4.664
  526TIP3    H1 1542   2.047   1.903   4.586
  526TIP3    H2 1543   2.052   1.889   4.737
  527TIP3   OH2 1544   0.143   4.703   1.755
  527TIP3    H1 1545   0.226   4.751   1.762
  527TIP3    H2 1546   0.168   4.611   1.752
  528TIP3   OH2 1547   2.498   2.089   2.777
  528TIP3    H1 1548   2.553   2.101   2.855
  528TIP3    H2 1549   2.560   2.082   2.705
  529TIP3   OH2 1550   2.385   0.157   0.026
  529TIP3    H1 1551   2.393   0.245  -0.012
  529TIP3    H2 1552   2.367   0.173   0.119
  530TIP3   OH2 1553   4.620   5.441   3.986
  530TIP3    H1 1554   4.544   5.480   3.944
  530TIP3    H2 1555   4.619   5.474   4.075
  531TIP3   OH2 1556   5.594   4.985   5.532
  531TIP3    H1 1557   5.686   5.005   5.516
  531TIP3    H2 1558   5.559   4.962   5.446
  532TIP3   OH2 1559   2.761   3.872   4.526
  532TIP3    H1 1560   2.670   3.859   4.552
  532TIP3    H2 1561   2.812   3.845   4.602
  533TIP3   OH2 1562   2.533   0.486   2.602
  533TIP3    H1 1563   2.467   0.422   2.628
  533TIP3    H2 1564   2.504   0.517   2.516
  534TIP3   OH2 1565   6.319   1.049   4.715
  534TIP3    H1 1566   6.285   1.138   4.717
  534TIP3    H2 1567   6.379   1.045   4.790
  535TIP3   OH2 1568   5.212   2.171   5.846
  535TIP3    H1 1569   5.208   2.132   5.933
  535TIP3    H2 1570   5.236   2.263   5.862
  536TIP3   OH2 1571   5.303   0.964   0.817
  536TIP3    H1 1572   5.385   0.914   0.808
  536TIP3    H2 1573   5.300   0.988   0.909
  537TIP3   OH2 1574   6.177   1.056   0.173
  537TIP3    H1 1575   6.122   0.985   0.140
  537TIP3    H2 1576   6.122   1.134   0.164
  538TIP3   OH2 1577   5.323   0.546   1.462
  538TIP3    H1 1578   5.246   0.502   1.424
  538TIP3    H2 1579   5.311   0.639   1.439
  539TIP3   OH2 1580   7.090   4.815   4.823
  539TIP3    H1 1581   7.041   4.895   4.838
  539TIP3    H2 1582   7.042   4.771   4.752
  540TIP3   OH2 1583   0.359   6.088   1.400
  540TIP3    H1 1584   0.399   6.096   1.314
  540TIP3    H2 1585   0.274   6.047   1.384
  541TIP3   OH2 1586   6.850   0.665   1.628
  541TIP3    H1 1587   6.836   0.757   1.606
  541TIP3    H2 1588   6.854   0.663   1.724
  542TIP3   OH2 1589   2.873   3.567   2.340
  542TIP3    H1 1590   2.873   3.662   2.351
  542TIP3    H2 1591   2.961   3.546   2.311
  543TIP3   OH2 1592   0.917   2.229   1.790
  543TIP3    H1 1593   1.002   2.271   1.777
  543TIP3    H2 1594   0.897   2.241   1.883
  544TIP3   OH2 1595   5.991   0.031   1.373
  544TIP3    H1 1596   5.930  -0.016   1.316
  544TIP3    H2 1597   6.039   0.090   1.314
  545TIP3   OH2 1598   2.886   5.847   0.622
  545TIP3    H1 1599   2.791   5.853   0.606
  545TIP3    H2 1600   2.913   5.769   0.572
  546TIP3   OH2 1601   5.216   5.801   2.189
  546TIP3    H1 1602   5.184   5.799   2.098
  546TIP3    H2 1603   5.239   5.710   2.207
  547TIP3   OH2 1604   2.375   5.128   2.617
  547TIP3    H1 1605   2.443   5.189   2.586
  547TIP3    H2 1606   2.333   5.174   2.690
  548TIP3   OH2 1607   3.721   4.839   4.879
  548TIP3    H1 1608   3.705   4.845   4.973
  548TIP3    H2 1609   3.634   4.827   4.841
  549TIP3   OH2 1610   0.750   3.877   5.745
  549TIP3    H1 1611   0.809   3.925   5.688
  549TIP3    H2 1612   0.688   3.943   5.777
  550TIP3   OH2 1613   3.723   1.254   2.128
  550TIP3    H1 1614   3.633   1.279   2.148
  550TIP3    H2 1615   3.774   1.334   2.139
  551TIP3   OH2 1616   1.149   4.915   5.187
  551TIP3    H1 1617   1.244   4.922   5.200
  551TIP3    H2 1618   1.136   4.831   5.144
  552TIP3   OH2 1619   1.948   0.708   3.953
  552TIP3    H1 1620   1.936   0.642   4.021
  552TIP3    H2 1621   1.860   0.724   3.919
  553TIP3   OH2 1622   0.102   4.468   4.866
  553TIP3    H1 1623   0.141   4.500   4.785
  553TIP3    H2 1624   0.087   4.374   4.851
  554TIP3   OH2 1625   1.729   3.253   4.083
  554TIP3    H1 1626   1.737   3.266   4.177
  554TIP3    H2 1627   1.705   3.339   4.048
  555TIP3   OH2 1628   3.825   6.501   2.713
  555TIP3    H1 1629   3.794   6.576   2.763
  555TIP3    H2 1630   3.801   6.521   2.623
  556TIP3   OH2 1631   1.449   5.561   1.323
  556TIP3    H1 1632   1.360   5.532   1.303
  556TIP3    H2 1633   1.463   5.535   1.414
  557TIP3   OH2 1634   5.500   3.811   0.156
  557TIP3    H1 1635   5.588   3.804   0.121
  557TIP3    H2 1636   5.506   3.772   0.243
  558TIP3   OH2 1637   3.239   6.761   2.360
  558TIP3    H1 1638   3.159   6.795   2.399
  558TIP3    H2 1639   3.305   6.828   2.377
  559TIP3   OH2 1640   5.019   0.525   1.033
  559TIP3    H1 1641   5.049   0.500   1.120
  559TIP3    H2 1642   5.082   0.484   0.973
  560TIP3   OH2 1643   3.218   4.338   0.653
  560TIP3    H1 1644   3.234   4.336   0.747
  560TIP3    H2 1645   3.130   4.302   0.643
  561TIP3   OH2 1646   3.216   3.158   3.215
  561TIP3    H1 1647   3.171   3.240   3.195
  561TIP3    H2 1648   3.183   3.096   3.150
  562TIP3   OH2 1649   5.547   4.776   2.695
  562TIP3    H1 1650   5.570   4.749   2.606
  562TIP3    H2 1651   5.453   4.795   2.691
  563TIP3   OH2 1652   1.401   4.294   1.889
  563TIP3    H1 1653   1.384   4.388   1.882
  563TIP3    H2 1654   1.315   4.256   1.906
  564TIP3   OH2 1655   1.344   5.261   5.060
  564TIP3    H1 1656   1.367   5.344   5.020
  564TIP3    H2 1657   1.340   5.279   5.154
  565TIP3   OH2 1658   2.769   5.539   0.224
  565TIP3    H1 1659   2.832   5.561   0.156
  565TIP3    H2 1660   2.684   5.550   0.182
  566TIP3   OH2 1661   3.866   0.646   2.700
  566TIP3    H1 1662   3.854   0.569   2.755
  566TIP3    H2 1663   3.891   0.716   2.761
  567TIP3   OH2 1664   2.117   6.875   1.034
  567TIP3    H1 1665   2.100   6.787   1.000
  567TIP3    H2 1666   2.210   6.890   1.016
  568TIP3   OH2 1667   3.913   0.484   0.602
  568TIP3    H1 1668   3.913   0.579   0.611
  568TIP3    H2 1669   3.855   0.453   0.672
  569TIP3   OH2 1670   2.685   4.751   2.062
  569TIP3    H1 1671   2.603   4.793   2.035
  569TIP3    H2 1672   2.658   4.666   2.096
  570TIP3   OH2 1673   3.304   6.809   2.095
  570TIP3    H1 1674   3.270   6.748   2.029
  570TIP3    H2 1675   3.261   6.783   2.176
  571TIP3   OH2 1676   2.713   5.502   4.562
  571TIP3    H1 1677   2.658   5.574   4.593
  571TIP3    H2 1678   2.772   5.543   4.499
  572TIP3   OH2 1679   3.357   4.189   4.488
  572TIP3    H1 1680   3.374   4.213   4.579
  572TIP3    H2 1681   3.264   4.167   4.486
  573TIP3   OH2 1682   3.228   5.491   0.056
  573TIP3    H1 1683   3.252   5.503  -0.036
  573TIP3    H2 1684   3.180   5.571   0.078
  574TIP3   OH2 1685   2.519   2.653   4.900
  574TIP3    H1 1686   2.605   2.691   4.882
  574TIP3    H2 1687   2.536   2.561   4.916
  575TIP3   OH2 1688   0.558   2.022   4.816
  575TIP3    H1 1689   0.589   2.077   4.744
  575TIP3    H2 1690   0.557   2.081   4.892
  576TIP3   OH2 1691   2.702   1.320   0.628
  576TIP3    H1 1692   2.683   1.409   0.658
  576TIP3    H2 1693   2.693   1.266   0.706
  577TIP3   OH2 1694   5.723   4.634   3.216
  577TIP3    H1 1695   5.688   4.664   3.132
  577TIP3    H2 1696   5.811   4.671   3.220
  578TIP3   OH2 1697   6.363   5.191   3.513
  578TIP3    H1 1698   6.382   5.129   3.442
  578TIP3    H2 1699   6.440   5.246   3.518
  579TIP3   OH2 1700   3.769   2.359   1.598
  579TIP3    H1 1701   3.704   2.292   1.581
  579TIP3    H2 1702   3.730   2.413   1.667
  580TIP3   OH2 1703   3.169   0.673   0.032
  580TIP3    H1 1704   3.255   0.636   0.014
  580TIP3    H2 1705   3.116   0.650  -0.044
  581TIP3   OH2 1706   3.771   4.752   2.734
  581TIP3    H1 1707   3.723   4.817   2.682
  581TIP3    H2 1708   3.702   4.701   2.777
  582TIP3   OH2 1709   2.997   1.107   0.763
  582TIP3    H1 1710   2.951   1.028   0.788
  582TIP3    H2 1711   3.014   1.097   0.669
  583TIP3   OH2 1712   4.607   0.963   5.270
  583TIP3    H1 1713   4.688   0.980   5.319
  583TIP3    H2 1714   4.544   1.026   5.306
  584TIP3   OH2 1715   0.273   5.663   2.284
  584TIP3    H1 1716   0.269   5.599   2.213
  584TIP3    H2 1717   0.254   5.612   2.363
  585TIP3   OH2 1718   4.738   3.498   0.420
  585TIP3    H1 1719   4.728   3.590   0.445
  585TIP3    H2 1720   4.832   3.484   0.416
  586TIP3   OH2 1721   0.209   0.285   0.090
  586TIP3    H1 1722   0.235   0.202   0.130
  586TIP3    H2 1723   0.273   0.298   0.020
  587TIP3   OH2 1724   1.083   5.420   3.156
  587TIP3    H1 1725   1.164   5.452   3.117
  587TIP3    H2 1726   1.026   5.404   3.081
  588TIP3   OH2 1727   6.523   5.526   1.061
  588TIP3    H1 1728   6.437   5.553   1.095
  588TIP3    H2 1729   6.506   5.444   1.015
  589TIP3   OH2 1730   3.048   2.828   1.251
  589TIP3    H1 1731   2.969   2.871   1.220
  589TIP3    H2 1732   3.031   2.735   1.237
  590TIP3   OH2 1733   7.062   4.009   0.483
  590TIP3    H1 1734   7.084   4.085   0.535
  590TIP3    H2 1735   6.988   4.036   0.429
  591TIP3   OH2 1736   5.247   1.361   2.029
  591TIP3    H1 1737   5.206   1.315   2.102
  591TIP3    H2 1738   5.183   1.427   2.003
  592TIP3   OH2 1739   7.197   6.642   5.065
  592TIP3    H1 1740   7.288   6.624   5.088
  592TIP3    H2 1741   7.197   6.653   4.970
  593TIP3   OH2 1742   2.129   3.267   3.178
  593TIP3    H1 1743   2.144   3.190   3.122
  593TIP3    H2 1744   2.152   3.341   3.122
  594TIP3   OH2 1745   0.428   4.010   1.505
  594TIP3    H1 1746   0.369   3.953   1.554
  594TIP3    H2 1747   0.451   4.079   1.568
  595TIP3   OH2 1748   0.582   2.245   0.389
  595TIP3    H1 1749   0.544   2.270   0.305
  595TIP3    H2 1750   0.509   2.207   0.438
  596TIP3   OH2 1751   1.531   6.221   4.022
  596TIP3    H1 1752   1.494   6.138   4.052
  596TIP3    H2 1753   1.551   6.269   4.102
  597TIP3   OH2 1754   3.079   0.364   0.862
  597TIP3    H1 1755   3.021   0.325   0.797
  597TIP3    H2 1756   3.163   0.320   0.848
  598TIP3   OH2 1757   1.853   3.416   3.259
  598TIP3    H1 1758   1.888   3.505   3.261
  598TIP3    H2 1759   1.928   3.359   3.278
  599TIP3   OH2 1760   1.036   3.557   4.234
  599TIP3    H1 1761   1.052   3.567   4.327
  599TIP3    H2 1762   1.101   3.493   4.205
  600TIP3   OH2 1763   2.487   1.839   0.084
  600TIP3    H1 1764   2.442   1.887   0.015
  600TIP3    H2 1765   2.450   1.751   0.080
  601TIP3   OH2 1766   6.783   2.431   2.612
  601TIP3    H1 1767   6.706   2.432   2.556
  601TIP3    H2 1768   6.749   2.446   2.700
  602TIP3   OH2 1769   1.185   6.669   1.042
  602TIP3    H1 1770   1.131   6.629   1.110
  602TIP3    H2 1771   1.251   6.604   1.022
  603TIP3   OH2 1772   3.077   3.611   4.445
  603TIP3    H1 1773   3.111   3.600   4.534
  603TIP3    H2 1774   3.128   3.684   4.409
  604TIP3   OH2 1775   6.137   4.189   4.438
  604TIP3    H1 1776   6.202   4.213   4.504
  604TIP3    H2 1777   6.078   4.265   4.434
  605TIP3   OH2 1778   2.437   5.768   0.341
  605TIP3    H1 1779   2.473   5.784   0.428
  605TIP3    H2 1780   2.351   5.812   0.342
  606TIP3   OH2 1781   5.152   2.804   5.518
  606TIP3    H1 1782   5.235   2.817   5.564
  606TIP3    H2 1783   5.171   2.734   5.455
  607TIP3   OH2 1784   1.188   2.359   4.485
  607TIP3    H1 1785   1.210   2.380   4.576
  607TIP3    H2 1786   1.149   2.272   4.489
  608TIP3   OH2 1787   5.931   4.013   5.038
  608TIP3    H1 1788   5.853   4.065   5.057
  608TIP3    H2 1789   5.987   4.024   5.115
  609TIP3   OH2 1790   4.194   0.438   5.575
  609TIP3    H1 1791   4.174   0.453   5.668
  609TIP3    H2 1792   4.116   0.468   5.529
  610TIP3   OH2 1793   3.505   2.036   0.602
  610TIP3    H1 1794   3.472   1.993   0.522
  610TIP3    H2 1795   3.501   1.968   0.669
  611TIP3   OH2 1796   6.956   5.386   4.329
  611TIP3    H1 1797   6.949   5.380   4.424
  611TIP3    H2 1798   7.048   5.368   4.310
  612TIP3   OH2 1799   2.571   5.345   0.351
  612TIP3    H1 1800   2.528   5.373   0.431
  612TIP3    H2 1801   2.542   5.408   0.284
  613TIP3   OH2 1802   4.278   0.175   4.512
  613TIP3    H1 1803   4.285   0.199   4.604
  613TIP3    H2 1804   4.218   0.100   4.512
  614TIP3   OH2 1805   1.200   6.041   2.702
  614TIP3    H1 1806   1.196   5.954   2.661
  614TIP3    H2 1807   1.236   6.098   2.634
  615TIP3   OH2 1808   4.658   4.319   1.786
  615TIP3    H1 1809   4.646   4.326   1.881
  615TIP3    H2 1810   4.693   4.230   1.773
  616TIP3   OH2 1811   5.550   3.326   1.576
  616TIP3    H1 1812   5.517   3.392   1.515
  616TIP3    H2 1813   5.608   3.271   1.523
  617TIP3   OH2 1814   2.268   6.721   1.628
  617TIP3    H1 1815   2.213   6.689   1.556
  617TIP3    H2 1816   2.336   6.655   1.637
  618TIP3   OH2 1817   6.771   5.784   2.436
  618TIP3    H1 1818   6.753   5.831   2.518
  618TIP3    H2 1819   6.792   5.695   2.464
  619TIP3   OH2 1820   3.788   1.998   3.086
  619TIP3    H1 1821   3.757   2.043   3.165
  619TIP3    H2 1822   3.736   1.917   3.083
  620TIP3   OH2 1823   2.766   3.366   3.268
  620TIP3    H1 1824   2.772   3.282   3.313
  620TIP3    H2 1825   2.695   3.412   3.314
  621TIP3   OH2 1826   1.458   1.188   5.720
  621TIP3    H1 1827   1.507   1.204   5.801
  621TIP3    H2 1828   1.525   1.178   5.653
  622TIP3   OH2 1829   5.211   1.730   0.521
  622TIP3    H1 1830   5.286   1.681   0.555
  622TIP3    H2 1831   5.226   1.735   0.427
  623TIP3   OH2 1832   5.303   1.166   2.904
  623TIP3    H1 1833   5.261   1.250   2.921
  623TIP3    H2 1834   5.361   1.153   2.979
  624TIP3   OH2 1835   4.017   5.373   1.746
  624TIP3    H1 1836   4.087   5.420   1.791
  624TIP3    H2 1837   4.032   5.389   1.653
  625TIP3   OH2 1838   5.922   2.864   1.816
  625TIP3    H1 1839   5.848   2.807   1.795
  625TIP3    H2 1840   5.996   2.805   1.823
  626TIP3   OH2 1841   6.429   0.506   4.347
  626TIP3    H1 1842   6.382   0.589   4.338
  626TIP3    H2 1843   6.362   0.439   4.332
  627TIP3   OH2 1844   4.179   6.269   1.308
  627TIP3    H1 1845   4.096   6.243   1.269
  627TIP3    H2 1846   4.200   6.199   1.369
  628TIP3   OH2 1847   5.958   6.402   5.204
  628TIP3    H1 1848   6.021   6.330   5.210
  628TIP3    H2 1849   5.945   6.414   5.110
  629TIP3   OH2 1850   1.085   5.395   3.627
  629TIP3    H1 1851   1.014   5.440   3.672
  629TIP3    H2 1852   1.110   5.325   3.686
  630TIP3   OH2 1853   7.064   2.056   1.899
  630TIP3    H1 1854   7.089   2.058   1.807
  630TIP3    H2 1855   7.059   1.963   1.922
  631TIP3   OH2 1856   3.849   2.097   0.969
  631TIP3    H1 1857   3.821   2.007   0.954
  631TIP3    H2 1858   3.773   2.150   0.946
  632TIP3   OH2 1859   6.569   0.267   4.572
  632TIP3    H1 1860   6.661   0.273   4.598
  632TIP3    H2 1861   6.533   0.354   4.591
  633TIP3   OH2 1862   5.411   0.918   4.976
  633TIP3    H1 1863   5.479   0.891   5.037
  633TIP3    H2 1864   5.329   0.891   5.018
  634TIP3   OH2 1865   3.408   2.589   5.093
  634TIP3    H1 1866   3.383   2.511   5.043
  634TIP3    H2 1867   3.356   2.585   5.173
  635TIP3   OH2 1868   5.318   3.778   3.747
  635TIP3    H1 1869   5.400   3.814   3.714
  635TIP3    H2 1870   5.342   3.693   3.783
  636TIP3   OH2 1871   3.780   3.190   4.440
  636TIP3    H1 1872   3.704   3.143   4.473
  636TIP3    H2 1873   3.852   3.159   4.495
  637TIP3   OH2 1874   4.539   6.520   4.915
  637TIP3    H1 1875   4.488   6.600   4.899
  637TIP3    H2 1876   4.514   6.493   5.003
  638TIP3   OH2 1877   7.062   2.549   5.383
  638TIP3    H1 1878   7.084   2.602   5.459
  638TIP3    H2 1879   7.076   2.607   5.308
  639TIP3   OH2 1880   5.074   4.452   4.655
  639TIP3    H1 1881   5.159   4.424   4.690
  639TIP3    H2 1882   5.071   4.416   4.566
  640TIP3   OH2 1883   5.072   0.897   2.589
  640TIP3    H1 1884   5.034   0.815   2.557
  640TIP3    H2 1885   5.123   0.872   2.666
  641TIP3   OH2 1886   5.976   1.269   1.758
  641TIP3    H1 1887   6.021   1.309   1.683
  641TIP3    H2 1888   5.926   1.197   1.720
  642TIP3   OH2 1889   6.972   2.831   2.157
  642TIP3    H1 1890   6.893   2.846   2.209
  642TIP3    H2 1891   6.958   2.885   2.078
  643TIP3   OH2 1892   1.859   2.564   0.453
  643TIP3    H1 1893   1.848   2.494   0.388
  643TIP3    H2 1894   1.843   2.645   0.405
  644TIP3   OH2 1895   2.455   4.525   4.443
  644TIP3    H1 1896   2.536   4.575   4.457
  644TIP3    H2 1897   2.476   4.468   4.369
  645TIP3   OH2 1898   6.423   0.606   0.900
  645TIP3    H1 1899   6.365   0.576   0.831
  645TIP3    H2 1900   6.372   0.671   0.948
  646TIP3   OH2 1901   5.488   3.245   5.574
  646TIP3    H1 1902   5.528   3.233   5.660
  646TIP3    H2 1903   5.398   3.272   5.593
  647TIP3   OH2 1904   5.355   5.318   0.800
  647TIP3    H1 1905   5.405   5.397   0.820
  647TIP3    H2 1906   5.409   5.270   0.738
  648TIP3   OH2 1907   6.299   4.064   2.271
  648TIP3    H1 1908   6.230   4.128   2.289
  648TIP3    H2 1909   6.352   4.104   2.202
  649TIP3   OH2 1910   0.945   4.754   4.779
  649TIP3    H1 1911   0.965   4.770   4.871
  649TIP3    H2 1912   1.030   4.735   4.739
  650TIP3   OH2 1913   1.065   0.103   4.955
  650TIP3    H1 1914   1.015   0.101   5.037
  650TIP3    H2 1915   0.999   0.102   4.886
  651TIP3   OH2 1916   2.685   1.674   3.799
  651TIP3    H1 1917   2.603   1.651   3.842
  651TIP3    H2 1918   2.663   1.684   3.707
  652TIP3   OH2 1919   4.422   2.122   0.919
  652TIP3    H1 1920   4.385   2.096   1.003
  652TIP3    H2 1921   4.516   2.125   0.934
  653TIP3   OH2 1922   6.099   5.009   4.929
  653TIP3    H1 1923   6.038   4.986   4.859
  653TIP3    H2 1924   6.049   5.000   5.010
  654TIP3   OH2 1925   2.137   2.898   3.856
  654TIP3    H1 1926   2.208   2.959   3.835
  654TIP3    H2 1927   2.075   2.908   3.784
  655TIP3   OH2 1928   5.534   4.048   5.288
  655TIP3    H1 1929   5.490   3.968   5.260
  655TIP3    H2 1930   5.512   4.112   5.220
  656TIP3   OH2 1931   3.305   6.314   1.455
  656TIP3    H1 1932   3.378   6.376   1.455
  656TIP3    H2 1933   3.227   6.368   1.464
  657TIP3   OH2 1934   6.146   3.837   5.540
  657TIP3    H1 1935   6.055   3.815   5.561
  657TIP3    H2 1936   6.197   3.796   5.610
  658TIP3   OH2 1937   2.534   5.158   3.014
  658TIP3    H1 1938   2.601   5.224   2.998
  658TIP3    H2 1939   2.580   5.075   3.001
  659TIP3   OH2 1940   2.726   2.519   0.033
  659TIP3    H1 1941   2.806   2.486   0.075
  659TIP3    H2 1942   2.748   2.608   0.006
  660TIP3   OH2 1943   1.147   3.254   3.278
  660TIP3    H1 1944   1.119   3.173   3.236
  660TIP3    H2 1945   1.078   3.318   3.257
  661TIP3   OH2 1946   1.096   6.631   0.293
  661TIP3    H1 1947   1.115   6.621   0.387
  661TIP3    H2 1948   1.001   6.620   0.287
  662TIP3   OH2 1949   0.446   3.189   0.637
  662TIP3    H1 1950   0.458   3.283   0.647
  662TIP3    H2 1951   0.358   3.180   0.600
  663TIP3   OH2 1952   6.293   6.522   2.818
  663TIP3    H1 1953   6.260   6.605   2.853
  663TIP3    H2 1954   6.318   6.472   2.895
  664TIP3   OH2 1955   6.920   0.713   5.188
  664TIP3    H1 1956   6.947   0.802   5.166
  664TIP3    H2 1957   6.935   0.706   5.283
  665TIP3   OH2 1958   4.230   1.963   4.088
  665TIP3    H1 1959   4.255   1.872   4.103
  665TIP3    H2 1960   4.210   1.997   4.176
  666TIP3   OH2 1961   3.344   1.543   3.524
  666TIP3    H1 1962   3.351   1.491   3.445
  666TIP3    H2 1963   3.427   1.589   3.531
  667TIP3   OH2 1964   1.140   6.273   1.314
  667TIP3    H1 1965   1.144   6.184   1.281
  667TIP3    H2 1966   1.228   6.290   1.347
  668TIP3   OH2 1967   5.362   0.212   1.204
  668TIP3    H1 1968   5.268   0.202   1.219
  668TIP3    H2 1969   5.384   0.295   1.246
  669TIP3   OH2 1970   3.097   3.137   1.882
  669TIP3    H1 1971   3.128   3.048   1.899
  669TIP3    H2 1972   3.094   3.179   1.969
  670TIP3   OH2 1973   6.548   4.911   2.434
  670TIP3    H1 1974   6.609   4.843   2.407
  670TIP3    H2 1975   6.558   4.917   2.529
  671TIP3   OH2 1976   2.593   5.555   2.699
  671TIP3    H1 1977   2.559   5.501   2.627
  671TIP3    H2 1978   2.681   5.521   2.715
  672TIP3   OH2 1979   3.409   5.293   0.097
  672TIP3    H1 1980   3.477   5.345   0.140
  672TIP3    H2 1981   3.333   5.352   0.094
  673TIP3   OH2 1982   0.951   1.006   1.761
  673TIP3    H1 1983   0.936   1.039   1.850
  673TIP3    H2 1984   0.863   0.995   1.725
  674TIP3   OH2 1985   6.143   4.604   3.448
  674TIP3    H1 1986   6.222   4.573   3.403
  674TIP3    H2 1987   6.072   4.553   3.408
  675TIP3   OH2 1988   6.444   5.917   1.413
  675TIP3    H1 1989   6.440   5.991   1.473
  675TIP3    H2 1990   6.518   5.865   1.444
  676TIP3   OH2 1991   3.410   5.703   3.769
  676TIP3    H1 1992   3.357   5.701   3.690
  676TIP3    H2 1993   3.480   5.640   3.754
  677TIP3   OH2 1994   1.951   0.266   2.607
  677TIP3    H1 1995   1.930   0.189   2.554
  677TIP3    H2 1996   2.041   0.251   2.636
  678TIP3   OH2 1997   4.143   2.532   3.828
  678TIP3    H1 1998   4.195   2.454   3.845
  678TIP3    H2 1999   4.200   2.588   3.776
  679TIP3   OH2 2000   1.486   5.298   4.622
  679TIP3    H1 2001   1.569   5.314   4.667
  679TIP3    H2 2002   1.509   5.294   4.529
  680TIP3   OH2 2003   7.149   5.735   0.595
  680TIP3    H1 2004   7.081   5.722   0.528
  680TIP3    H2 2005   7.105   5.715   0.678
  681TIP3   OH2 2006   6.289   3.803   2.145
  681TIP3    H1 2007   6.212   3.825   2.093
  681TIP3    H2 2008   6.317   3.887   2.183
  682TIP3   OH2 2009   3.078   2.981   3.060
  682TIP3    H1 2010   3.131   2.958   2.984
  682TIP3    H2 2011   2.993   3.005   3.024
  683TIP3   OH2 2012   6.661   5.547   0.685
  683TIP3    H1 2013   6.700   5.490   0.618
  683TIP3    H2 2014   6.582   5.502   0.712
  684TIP3   OH2 2015   4.956   0.721   4.660
  684TIP3    H1 2016   5.034   0.769   4.688
  684TIP3    H2 2017   4.967   0.634   4.699
  685TIP3   OH2 2018   0.449   1.508   5.440
  685TIP3    H1 2019   0.412   1.516   5.352
  685TIP3    H2 2020   0.431   1.593   5.481
  686TIP3   OH2 2021   0.495   4.447   1.861
  686TIP3    H1 2022   0.486   4.425   1.954
  686TIP3    H2 2023   0.486   4.542   1.857
  687TIP3   OH2 2024   2.453   3.858   2.902
  687TIP3    H1 2025   2.361   3.880   2.920
  687TIP3    H2 2026   2.474   3.790   2.966
  688TIP3   OH2 2027   1.699   6.459   3.221
  688TIP3    H1 2028   1.695   6.393   3.290
  688TIP3    H2 2029   1.746   6.532   3.260
  689TIP3   OH2 2030   3.101   0.871   0.239
  689TIP3    H1 2031   3.122   0.784   0.204
  689TIP3    H2 2032   3.014   0.890   0.202
  690TIP3   OH2 2033   3.158   0.444   3.942
  690TIP3    H1 2034   3.226   0.470   3.880
  690TIP3    H2 2035   3.090   0.404   3.887
  691TIP3   OH2 2036   2.745   3.761   2.013
  691TIP3    H1 2037   2.779   3.817   2.083
  691TIP3    H2 2038   2.652   3.784   2.009
  692TIP3   OH2 2039   5.157   6.535   4.025
  692TIP3    H1 2040   5.197   6.577   3.949
  692TIP3    H2 2041   5.123   6.608   4.078
  693TIP3   OH2 2042   6.255   3.474   5.865
  693TIP3    H1 2043   6.330   3.416   5.873
  693TIP3    H2 2044   6.183   3.426   5.907
  694TIP3   OH2 2045   7.009   2.236   5.120
  694TIP3    H1 2046   6.929   2.268   5.077
  694TIP3    H2 2047   7.059   2.315   5.140
  695TIP3   OH2 2048   5.341   0.113   4.587
  695TIP3    H1 2049   5.258   0.066   4.584
  695TIP3    H2 2050   5.369   0.106   4.678
  696TIP3   OH2 2051   4.837   3.546   0.725
  696TIP3    H1 2052   4.794   3.609   0.668
  696TIP3    H2 2053   4.924   3.535   0.687
  697TIP3   OH2 2054   5.416   3.991   5.713
  697TIP3    H1 2055   5.452   3.950   5.634
  697TIP3    H2 2056   5.331   4.026   5.686
  698TIP3   OH2 2057   3.053   3.959   5.054
  698TIP3    H1 2058   3.128   3.987   5.106
  698TIP3    H2 2059   2.988   3.931   5.118
  699TIP3   OH2 2060   6.944   4.331   3.210
  699TIP3    H1 2061   6.882   4.287   3.152
  699TIP3    H2 2062   7.028   4.324   3.166
  700TIP3   OH2 2063   5.582   4.766   2.427
  700TIP3    H1 2064   5.555   4.699   2.364
  700TIP3    H2 2065   5.511   4.829   2.427
  701TIP3   OH2 2066   6.746   0.415   2.774
  701TIP3    H1 2067   6.679   0.472   2.736
  701TIP3    H2 2068   6.697   0.354   2.829
  702TIP3   OH2 2069   6.364   0.860   0.169
  702TIP3    H1 2070   6.334   0.784   0.120
  702TIP3    H2 2071   6.305   0.931   0.143
  703TIP3   OH2 2072   4.673   1.188   2.219
  703TIP3    H1 2073   4.608   1.231   2.164
  703TIP3    H2 2074   4.681   1.244   2.296
  704TIP3   OH2 2075   5.935   0.092   4.810
  704TIP3    H1 2076   5.899   0.027   4.871
  704TIP3    H2 2077   6.023   0.058   4.789
  705TIP3   OH2 2078   2.849   6.692   2.923
  705TIP3    H1 2079   2.773   6.701   2.865
  705TIP3    H2 2080   2.827   6.744   3.000
  706TIP3   OH2 2081   1.669   4.244   1.951
  706TIP3    H1 2082   1.579   4.275   1.957
  706TIP3    H2 2083   1.673   4.197   1.867
  707TIP3   OH2 2084   6.296  -0.028   3.102
  707TIP3    H1 2085   6.237  -0.103   3.094
  707TIP3    H2 2086   6.367  -0.047   3.040
  708TIP3   OH2 2087   0.204   3.230   4.111
  708TIP3    H1 2088   0.219   3.317   4.075
  708TIP3    H2 2089   0.267   3.174   4.066
  709TIP3   OH2 2090   3.850   5.105   4.468
  709TIP3    H1 2091   3.843   5.104   4.373
  709TIP3    H2 2092   3.942   5.089   4.487
  710TIP3   OH2 2093   4.670   0.746   4.014
  710TIP3    H1 2094   4.605   0.769   3.947
  710TIP3    H2 2095   4.712   0.667   3.980
  711TIP3   OH2 2096   3.323   6.113   2.437
  711TIP3    H1 2097   3.329   6.028   2.481
  711TIP3    H2 2098   3.369   6.174   2.494
  712TIP3   OH2 2099   0.609   2.059   1.735
  712TIP3    H1 2100   0.581   2.005   1.809
  712TIP3    H2 2101   0.680   2.009   1.694
  713TIP3   OH2 2102   7.120   3.843   5.225
  713TIP3    H1 2103   7.115   3.912   5.159
  713TIP3    H2 2104   7.040   3.792   5.213
  714TIP3   OH2 2105   0.087   5.873   0.866
  714TIP3    H1 2106   0.008   5.901   0.820
  714TIP3    H2 2107   0.139   5.828   0.799
  715TIP3   OH2 2108   5.923   2.629   2.466
  715TIP3    H1 2109   5.867   2.706   2.461
  715TIP3    H2 2110   5.930   2.598   2.376
  716TIP3   OH2 2111   2.018   3.104   4.024
  716TIP3    H1 2112   1.986   3.070   4.107
  716TIP3    H2 2113   2.078   3.036   3.992
  717TIP3   OH2 2114   3.957   1.197   5.458
  717TIP3    H1 2115   3.907   1.161   5.384
  717TIP3    H2 2116   4.029   1.245   5.417
  718TIP3   OH2 2117   3.308   1.381   2.575
  718TIP3    H1 2118   3.342   1.345   2.656
  718TIP3    H2 2119   3.382   1.380   2.515
  719TIP3   OH2 2120   5.234   4.509   0.832
  719TIP3    H1 2121   5.176   4.448   0.786
  719TIP3    H2 2122   5.252   4.466   0.916
  720TIP3   OH2 2123   4.578   6.798   0.396
  720TIP3    H1 2124   4.642   6.847   0.344
  720TIP3    H2 2125   4.586   6.708   0.366
  721TIP3   OH2 2126   4.529   4.606   1.409
  721TIP3    H1 2127   4.578   4.681   1.443
  721TIP3    H2 2128   4.447   4.643   1.378
  722TIP3   OH2 2129   1.100   3.311   2.618
  722TIP3    H1 2130   1.026   3.346   2.570
  722TIP3    H2 2131   1.138   3.245   2.559
  723TIP3   OH2 2132   3.667   5.100   5.378
  723TIP3    H1 2133   3.760   5.092   5.356
  723TIP3    H2 2134   3.666   5.147   5.462
  724TIP3   OH2 2135   5.696   4.868   1.303
  724TIP3    H1 2136   5.603   4.849   1.308
  724TIP3    H2 2137   5.705   4.957   1.338
  725TIP3   OH2 2138   3.335   2.758   1.424
  725TIP3    H1 2139   3.298   2.675   1.455
  725TIP3    H2 2140   3.322   2.755   1.329
  726TIP3   OH2 2141   0.868   3.092   3.796
  726TIP3    H1 2142   0.788   3.090   3.744
  726TIP3    H2 2143   0.891   3.185   3.802
  727TIP3   OH2 2144   3.647   1.109   4.138
  727TIP3    H1 2145   3.559   1.070   4.136
  727TIP3    H2 2146   3.636   1.192   4.185
  728TIP3   OH2 2147   1.782   1.364   5.458
  728TIP3    H1 2148   1.773   1.438   5.517
  728TIP3    H2 2149   1.876   1.360   5.439
  729TIP3   OH2 2150   4.565   6.317   5.467
  729TIP3    H1 2151   4.604   6.338   5.382
  729TIP3    H2 2152   4.640   6.295   5.522
  730TIP3   OH2 2153   4.590   5.135   3.832
  730TIP3    H1 2154   4.653   5.184   3.779
  730TIP3    H2 2155   4.504   5.170   3.807
  731TIP3   OH2 2156   5.748   0.150   3.985
  731TIP3    H1 2157   5.719   0.211   3.917
  731TIP3    H2 2158   5.735   0.198   4.067
  732TIP3   OH2 2159   3.310   1.588   2.089
  732TIP3    H1 2160   3.332   1.662   2.032
  732TIP3    H2 2161   3.291   1.628   2.174
  733TIP3   OH2 2162   4.643   4.845   2.368
  733TIP3    H1 2163   4.580   4.918   2.371
  733TIP3    H2 2164   4.614   4.793   2.293
  734TIP3   OH2 2165   6.382   0.788   4.621
  734TIP3    H1 2166   6.472   0.794   4.653
  734TIP3    H2 2167   6.339   0.865   4.659
  735TIP3   OH2 2168   3.053   1.767   0.715
  735TIP3    H1 2169   3.085   1.733   0.799
  735TIP3    H2 2170   3.032   1.858   0.733
  736TIP3   OH2 2171   7.110   4.078   0.870
  736TIP3    H1 2172   7.112   4.156   0.924
  736TIP3    H2 2173   7.202   4.051   0.863
  737TIP3   OH2 2174   3.781   5.448   2.585
  737TIP3    H1 2175   3.753   5.430   2.675
  737TIP3    H2 2176   3.845   5.519   2.594
  738TIP3   OH2 2177   1.896   3.259   2.315
  738TIP3    H1 2178   1.876   3.343   2.356
  738TIP3    H2 2179   1.964   3.220   2.370
  739TIP3   OH2 2180   4.420   2.705   4.164
  739TIP3    H1 2181   4.435   2.772   4.097
  739TIP3    H2 2182   4.507   2.671   4.183
  740TIP3   OH2 2183   0.664   3.201   0.836
  740TIP3    H1 2184   0.606   3.219   0.910
  740TIP3    H2 2185   0.752   3.210   0.872
  741TIP3   OH2 2186   6.603   3.180   3.749
  741TIP3    H1 2187   6.594   3.120   3.823
  741TIP3    H2 2188   6.652   3.130   3.683
  742TIP3   OH2 2189   0.384   4.706   3.997
  742TIP3    H1 2190   0.345   4.619   3.989
  742TIP3    H2 2191   0.476   4.693   3.978
  743TIP3   OH2 2192   1.172   1.015   1.500
  743TIP3    H1 2193   1.259   1.039   1.532
  743TIP3    H2 2194   1.188   0.939   1.443
  744TIP3   OH2 2195   2.135   0.794   0.610
  744TIP3    H1 2196   2.224   0.829   0.616
  744TIP3    H2 2197   2.111   0.805   0.519
  745TIP3   OH2 2198   0.988   3.732   0.716
  745TIP3    H1 2199   1.009   3.664   0.652
  745TIP3    H2 2200   0.912   3.698   0.764
  746TIP3   OH2 2201   6.222   3.400   4.254
  746TIP3    H1 2202   6.251   3.465   4.190
  746TIP3    H2 2203   6.233   3.443   4.339
  747TIP3   OH2 2204   0.604   6.778   4.134
  747TIP3    H1 2205   0.626   6.689   4.105
  747TIP3    H2 2206   0.519   6.797   4.094
  748TIP3   OH2 2207   6.683   0.180   1.814
  748TIP3    H1 2208   6.733   0.259   1.794
  748TIP3    H2 2209   6.712   0.154   1.901
  749TIP3   OH2 2210   0.038   0.357   0.426
  749TIP3    H1 2211   0.057   0.263   0.433
  749TIP3    H2 2212   0.043   0.375   0.332
  750TIP3   OH2 2213   7.069   0.189   4.023
  750TIP3    H1 2214   6.995   0.136   4.054
  750TIP3    H2 2215   7.101   0.143   3.946
  751TIP3   OH2 2216   5.402   5.742   1.367
  751TIP3    H1 2217   5.403   5.740   1.271
  751TIP3    H2 2218   5.460   5.670   1.393
  752TIP3   OH2 2219   5.630   1.317   3.360
  752TIP3    H1 2220   5.629   1.243   3.420
  752TIP3    H2 2221   5.723   1.337   3.348
  753TIP3   OH2 2222   5.092   6.038   2.262
  753TIP3    H1 2223   5.152   5.987   2.207
  753TIP3    H2 2224   5.117   6.016   2.352
  754TIP3   OH2 2225   1.739   5.791   3.033
  754TIP3    H1 2226   1.645   5.807   3.031
  754TIP3    H2 2227   1.748   5.699   3.008
  755TIP3   OH2 2228   1.416   3.190   4.893
  755TIP3    H1 2229   1.470   3.244   4.835
  755TIP3    H2 2230   1.332   3.235   4.896
  756TIP3   OH2 2231   1.929   6.672   0.976
  756TIP3    H1 2232   1.946   6.582   0.951
  756TIP3    H2 2233   1.898   6.714   0.895
  757TIP3   OH2 2234   2.823   2.918   1.138
  757TIP3    H1 2235   2.748   2.974   1.161
  757TIP3    H2 2236   2.819   2.911   1.042
  758TIP3   OH2 2237   5.169   0.681   0.793
  758TIP3    H1 2238   5.207   0.769   0.787
  758TIP3    H2 2239   5.112   0.685   0.870
  759TIP3   OH2 2240   1.132   4.701   0.096
  759TIP3    H1 2241   1.200   4.750   0.049
  759TIP3    H2 2242   1.166   4.612   0.100
  760TIP3   OH2 2243   5.457   0.423   4.775
  760TIP3    H1 2244   5.379   0.404   4.723
  760TIP3    H2 2245   5.506   0.340   4.776
  761TIP3   OH2 2246   1.751   2.811   0.339
  761TIP3    H1 2247   1.672   2.816   0.392
  761TIP3    H2 2248   1.721   2.776   0.255
  762TIP3   OH2 2249   5.676   4.684   0.553
  762TIP3    H1 2250   5.595   4.671   0.602
  762TIP3    H2 2251   5.683   4.605   0.499
  763TIP3   OH2 2252   2.002   4.683   2.539
  763TIP3    H1 2253   1.988   4.750   2.473
  763TIP3    H2 2254   1.913   4.655   2.563
  764TIP3   OH2 2255   6.821   0.409   1.816
  764TIP3    H1 2256   6.877   0.372   1.748
  764TIP3    H2 2257   6.882   0.447   1.879
  765TIP3   OH2 2258   6.079   1.215   2.690
  765TIP3    H1 2259   5.998   1.261   2.667
  765TIP3    H2 2260   6.139   1.238   2.619
  766TIP3   OH2 2261   0.436   3.319   1.370
  766TIP3    H1 2262   0.466   3.369   1.445
  766TIP3    H2 2263   0.516   3.290   1.326
  767TIP3   OH2 2264   1.605   2.212   1.090
  767TIP3    H1 2265   1.546   2.278   1.126
  767TIP3    H2 2266   1.580   2.130   1.132
  768TIP3   OH2 2267   2.502   1.364   0.884
  768TIP3    H1 2268   2.574   1.326   0.935
  768TIP3    H2 2269   2.432   1.299   0.891
  769TIP3   OH2 2270   3.780   2.597   0.534
  769TIP3    H1 2271   3.719   2.647   0.587
  769TIP3    H2 2272   3.727   2.561   0.463
  770TIP3   OH2 2273   3.971   5.836   5.485
  770TIP3    H1 2274   3.909   5.909   5.486
  770TIP3    H2 2275   3.931   5.771   5.426
  771TIP3   OH2 2276   5.489   3.371   0.505
  771TIP3    H1 2277   5.501   3.436   0.574
  771TIP3    H2 2278   5.546   3.400   0.434
  772TIP3   OH2 2279   6.999   3.446   4.301
  772TIP3    H1 2280   7.041   3.521   4.260
  772TIP3    H2 2281   7.044   3.435   4.384
  773TIP3   OH2 2282   4.076   4.164   2.574
  773TIP3    H1 2283   4.133   4.225   2.525
  773TIP3    H2 2284   4.137   4.103   2.616
  774TIP3   OH2 2285   5.297   0.385   3.532
  774TIP3    H1 2286   5.212   0.378   3.577
  774TIP3    H2 2287   5.286   0.459   3.472
  775TIP3   OH2 2288   2.764   2.763   4.810
  775TIP3    H1 2289   2.696   2.827   4.789
  775TIP3    H2 2290   2.846   2.812   4.807
  776TIP3   OH2 2291   3.214   6.796   0.626
  776TIP3    H1 2292   3.243   6.731   0.562
  776TIP3    H2 2293   3.272   6.782   0.701
  777TIP3   OH2 2294   3.313   5.270   4.925
  777TIP3    H1 2295   3.219   5.285   4.932
  777TIP3    H2 2296   3.336   5.217   5.001
  778TIP3   OH2 2297   6.935   6.564   5.125
  778TIP3    H1 2298   7.029   6.579   5.116
  778TIP3    H2 2299   6.924   6.471   5.107
  779TIP3   OH2 2300   5.994   1.716   2.437
  779TIP3    H1 2301   5.976   1.791   2.380
  779TIP3    H2 2302   5.986   1.640   2.379
  780TIP3   OH2 2303   6.609   4.548   1.336
  780TIP3    H1 2304   6.658   4.601   1.273
  780TIP3    H2 2305   6.638   4.580   1.421
  781TIP3   OH2 2306   3.060   5.577   4.172
  781TIP3    H1 2307   3.146   5.618   4.167
  781TIP3    H2 2308   3.074   5.488   4.141
  782TIP3   OH2 2309   7.072   5.937   1.975
  782TIP3    H1 2310   7.096   6.029   1.963
  782TIP3    H2 2311   7.140   5.888   1.928
  783TIP3   OH2 2312   5.707   6.788   4.101
  783TIP3    H1 2313   5.657   6.867   4.120
  783TIP3    H2 2314   5.661   6.718   4.148
  784TIP3   OH2 2315   1.625   3.373   3.114
  784TIP3    H1 2316   1.675   3.384   3.033
  784TIP3    H2 2317   1.690   3.383   3.183
  785TIP3   OH2 2318   0.447   2.177   2.437
  785TIP3    H1 2319   0.459   2.252   2.495
  785TIP3    H2 2320   0.370   2.132   2.472
  786TIP3   OH2 2321   2.886   3.530   2.021
  786TIP3    H1 2322   2.817   3.592   2.042
  786TIP3    H2 2323   2.941   3.527   2.100
  787TIP3   OH2 2324   4.879   3.915   4.330
  787TIP3    H1 2325   4.812   3.980   4.310
  787TIP3    H2 2326   4.870   3.849   4.261
  788TIP3   OH2 2327   5.789   0.439   5.403
  788TIP3    H1 2328   5.860   0.467   5.346
  788TIP3    H2 2329   5.833   0.401   5.479
  789TIP3   OH2 2330   3.411   4.273   1.234
  789TIP3    H1 2331   3.500   4.300   1.213
  789TIP3    H2 2332   3.419   4.181   1.258
  790TIP3   OH2 2333   0.509   1.013   5.711
  790TIP3    H1 2334   0.604   1.023   5.704
  790TIP3    H2 2335   0.473   1.076   5.648
  791TIP3   OH2 2336   4.637   6.273   0.120
  791TIP3    H1 2337   4.579   6.335   0.164
  791TIP3    H2 2338   4.583   6.233   0.053
  792TIP3   OH2 2339   5.312   0.087   5.903
  792TIP3    H1 2340   5.340   0.060   5.816
  792TIP3    H2 2341   5.217   0.093   5.896
  793TIP3   OH2 2342   4.983   2.614   1.220
  793TIP3    H1 2343   5.070   2.632   1.255
  793TIP3    H2 2344   4.938   2.566   1.290
  794TIP3   OH2 2345   3.876   4.289   5.700
  794TIP3    H1 2346   3.917   4.223   5.757
  794TIP3    H2 2347   3.892   4.257   5.612
  795TIP3   OH2 2348   5.513   1.740   0.918
  795TIP3    H1 2349   5.497   1.793   0.839
  795TIP3    H2 2350   5.498   1.800   0.990
  796TIP3   OH2 2351   3.331   0.348   1.890
  796TIP3    H1 2352   3.425   0.329   1.897
  796TIP3    H2 2353   3.288   0.277   1.937
  797TIP3   OH2 2354   6.756   0.849   3.229
  797TIP3    H1 2355   6.807   0.930   3.230
  797TIP3    H2 2356   6.822   0.780   3.235
  798TIP3   OH2 2357   2.758   4.958   0.315
  798TIP3    H1 2358   2.777   4.925   0.403
  798TIP3    H2 2359   2.841   4.994   0.285
  799TIP3   OH2 2360   0.746   5.923   5.385
  799TIP3    H1 2361   0.666   5.870   5.387
  799TIP3    H2 2362   0.776   5.916   5.294
  800TIP3   OH2 2363   1.453   4.535   3.715
  800TIP3    H1 2364   1.496   4.584   3.645
  800TIP3    H2 2365   1.381   4.592   3.743
  801TIP3   OH2 2366   6.843   5.148   4.268
  801TIP3    H1 2367   6.870   5.096   4.344
  801TIP3    H2 2368   6.885   5.233   4.282
  802TIP3   OH2 2369   0.259   0.363   1.158
  802TIP3    H1 2370   0.350   0.392   1.150
  802TIP3    H2 2371   0.223   0.373   1.070
  803TIP3   OH2 2372   2.670   0.296   4.165
  803TIP3    H1 2373   2.663   0.200   4.162
  803TIP3    H2 2374   2.752   0.312   4.212
  804TIP3   OH2 2375   5.447   1.139   0.552
  804TIP3    H1 2376   5.441   1.046   0.530
  804TIP3    H2 2377   5.534   1.150   0.588
  805TIP3   OH2 2378   4.541   6.747   3.856
  805TIP3    H1 2379   4.487   6.765   3.934
  805TIP3    H2 2380   4.531   6.826   3.802
  806TIP3   OH2 2381   3.945   3.168   2.900
  806TIP3    H1 2382   4.039   3.163   2.914
  806TIP3    H2 2383   3.931   3.130   2.813
  807TIP3   OH2 2384   4.873   2.752   4.154
  807TIP3    H1 2385   4.841   2.838   4.183
  807TIP3    H2 2386   4.816   2.689   4.198
  808TIP3   OH2 2387   5.552   6.663   5.283
  808TIP3    H1 2388   5.629   6.691   5.234
  808TIP3    H2 2389   5.588   6.609   5.354
  809TIP3   OH2 2390   0.216   0.889   2.147
  809TIP3    H1 2391   0.260   0.889   2.232
  809TIP3    H2 2392   0.262   0.822   2.096
  810TIP3   OH2 2393   7.091   0.458   5.398
  810TIP3    H1 2394   7.051   0.535   5.436
  810TIP3    H2 2395   7.185   0.467   5.417
  811TIP3   OH2 2396   1.739   5.205   5.026
  811TIP3    H1 2397   1.773   5.181   4.940
  811TIP3    H2 2398   1.805   5.174   5.087
  812TIP3   OH2 2399   6.042   1.297   0.168
  812TIP3    H1 2400   6.041   1.374   0.225
  812TIP3    H2 2401   5.950   1.277   0.154
  813TIP3   OH2 2402   2.405   4.785   3.932
  813TIP3    H1 2403   2.403   4.870   3.975
  813TIP3    H2 2404   2.498   4.762   3.929
  814TIP3   OH2 2405   6.531  -0.037   2.907
  814TIP3    H1 2406   6.539  -0.072   2.818
  814TIP3    H2 2407   6.604   0.025   2.915
  815TIP3   OH2 2408   3.326   1.647   1.032
  815TIP3    H1 2409   3.290   1.577   0.977
  815TIP3    H2 2410   3.359   1.712   0.969
  816TIP3   OH2 2411   0.233   2.356   2.204
  816TIP3    H1 2412   0.257   2.272   2.166
  816TIP3    H2 2413   0.244   2.419   2.133
  817TIP3   OH2 2414   5.317   0.705   4.007
  817TIP3    H1 2415   5.260   0.706   4.084
  817TIP3    H2 2416   5.274   0.646   3.946
  818TIP3   OH2 2417   2.442   4.426   4.745
  818TIP3    H1 2418   2.350   4.405   4.730
  818TIP3    H2 2419   2.441   4.517   4.774
  819TIP3   OH2 2420   6.055   4.035   5.320
  819TIP3    H1 2421   6.099   3.964   5.367
  819TIP3    H2 2422   5.962   4.011   5.322
  820TIP3   OH2 2423   6.265   1.567   2.837
  820TIP3    H1 2424   6.336   1.629   2.820
  820TIP3    H2 2425   6.267   1.508   2.762
  821TIP3   OH2 2426   0.350   3.644   4.552
  821TIP3    H1 2427   0.319   3.634   4.642
  821TIP3    H2 2428   0.434   3.688   4.560
  822TIP3   OH2 2429   1.719   3.504   1.203
  822TIP3    H1 2430   1.735   3.533   1.292
  822TIP3    H2 2431   1.805   3.495   1.164
  823TIP3   OH2 2432   2.260   5.469   4.204
  823TIP3    H1 2433   2.268   5.485   4.110
  823TIP3    H2 2434   2.238   5.554   4.241
  824TIP3   OH2 2435   6.314   5.486   3.267
  824TIP3    H1 2436   6.271   5.514   3.186
  824TIP3    H2 2437   6.402   5.524   3.261
  825TIP3   OH2 2438   1.673   0.641   3.743
  825TIP3    H1 2439   1.708   0.590   3.815
  825TIP3    H2 2440   1.749   0.666   3.691
  826TIP3   OH2 2441   3.031   6.028   4.059
  826TIP3    H1 2442   3.000   5.938   4.047
  826TIP3    H2 2443   3.110   6.034   4.006
  827TIP3   OH2 2444   2.206   0.540   5.595
  827TIP3    H1 2445   2.134   0.504   5.645
  827TIP3    H2 2446   2.185   0.633   5.586
  828TIP3   OH2 2447   5.453   2.217   1.908
  828TIP3    H1 2448   5.424   2.188   1.994
  828TIP3    H2 2449   5.376   2.260   1.870
  829TIP3   OH2 2450   5.103   4.693   0.179
  829TIP3    H1 2451   5.012   4.701   0.206
  829TIP3    H2 2452   5.148   4.766   0.222
  830TIP3   OH2 2453   2.825   3.636   5.005
  830TIP3    H1 2454   2.736   3.640   4.971
  830TIP3    H2 2455   2.875   3.590   4.938
  831TIP3   OH2 2456   4.384   4.913   5.354
  831TIP3    H1 2457   4.302   4.914   5.305
  831TIP3    H2 2458   4.442   4.972   5.306
  832TIP3   OH2 2459   0.621   4.747   0.074
  832TIP3    H1 2460   0.663   4.809   0.134
  832TIP3    H2 2461   0.689   4.684   0.053
  833TIP3   OH2 2462   6.185   6.365   4.118
  833TIP3    H1 2463   6.206   6.457   4.137
  833TIP3    H2 2464   6.234   6.315   4.183
  834TIP3   OH2 2465   0.634   3.811   2.393
  834TIP3    H1 2466   0.660   3.726   2.428
  834TIP3    H2 2467   0.540   3.801   2.375
  835TIP3   OH2 2468   0.338   6.596   4.016
  835TIP3    H1 2469   0.375   6.509   4.030
  835TIP3    H2 2470   0.243   6.582   4.021
  836TIP3   OH2 2471   3.051   0.356   2.637
  836TIP3    H1 2472   3.141   0.378   2.661
  836TIP3    H2 2473   3.058   0.272   2.591
  837TIP3   OH2 2474   4.922   6.247   3.232
  837TIP3    H1 2475   4.990   6.211   3.176
  837TIP3    H2 2476   4.966   6.316   3.282
  838TIP3   OH2 2477   4.907   0.254   0.883
  838TIP3    H1 2478   4.850   0.314   0.931
  838TIP3    H2 2479   4.921   0.296   0.798
  839TIP3   OH2 2480   4.590   3.117   1.742
  839TIP3    H1 2481   4.659   3.181   1.763
  839TIP3    H2 2482   4.520   3.170   1.703
  840TIP3   OH2 2483   4.585   4.215   2.916
  840TIP3    H1 2484   4.499   4.175   2.904
  840TIP3    H2 2485   4.644   4.140   2.928
  841TIP3   OH2 2486   4.852   1.659   4.648
  841TIP3    H1 2487   4.929   1.643   4.704
  841TIP3    H2 2488   4.871   1.613   4.567
  842TIP3   OH2 2489   2.406   0.727   4.912
  842TIP3    H1 2490   2.482   0.673   4.890
  842TIP3    H2 2491   2.419   0.809   4.864
  843TIP3   OH2 2492   3.447   0.306   2.440
  843TIP3    H1 2493   3.374   0.278   2.384
  843TIP3    H2 2494   3.483   0.224   2.474
  844TIP3   OH2 2495   6.010   2.518   5.100
  844TIP3    H1 2496   5.988   2.557   5.016
  844TIP3    H2 2497   5.926   2.487   5.135
  845TIP3   OH2 2498  -0.044   6.204   5.697
  845TIP3    H1 2499  -0.064   6.296   5.685
  845TIP3    H2 2500   0.015   6.201   5.772
  846TIP3   OH2 2501   6.396   6.303   2.665
  846TIP3    H1 2502   6.364   6.382   2.709
  846TIP3    H2 2503   6.451   6.260   2.731
  847TIP3   OH2 2504   4.533   4.769   3.640
  847TIP3    H1 2505   4.566   4.776   3.550
  847TIP3    H2 2506   4.555   4.680   3.667
  848TIP3   OH2 2507   5.503   6.058   2.356
  848TIP3    H1 2508   5.528   6.049   2.265
  848TIP3    H2 2509   5.547   5.986   2.401
  849TIP3   OH2 2510   2.237   1.297   4.354
  849TIP3    H1 2511   2.208   1.299   4.262
  849TIP3    H2 2512   2.289   1.377   4.364
  850TIP3   OH2 2513   6.202   0.059   2.408
  850TIP3    H1 2514   6.225   0.126   2.472
  850TIP3    H2 2515   6.225   0.098   2.323
  851TIP3   OH2 2516   1.394   4.873   0.233
  851TIP3    H1 2517   1.411   4.811   0.304
  851TIP3    H2 2518   1.377   4.956   0.276
  852TIP3   OH2 2519   4.999   0.649   2.471
  852TIP3    H1 2520   5.014   0.631   2.564
  852TIP3    H2 2521   4.942   0.578   2.441
  853TIP3   OH2 2522   6.093   4.864   0.889
  853TIP3    H1 2523   6.044   4.944   0.907
  853TIP3    H2 2524   6.164   4.892   0.830
  854TIP3   OH2 2525   1.317   3.059   2.199
  854TIP3    H1 2526   1.330   3.081   2.107
  854TIP3    H2 2527   1.392   3.096   2.244
  855TIP3   OH2 2528  -0.048   6.751   2.792
  855TIP3    H1 2529  -0.112   6.716   2.854
  855TIP3    H2 2530   0.008   6.809   2.844
  856TIP3   OH2 2531   6.904   0.667   0.890
  856TIP3    H1 2532   6.811   0.645   0.893
  856TIP3    H2 2533   6.922   0.705   0.976
  857TIP3   OH2 2534   4.669   6.356   2.459
  857TIP3    H1 2535   4.574   6.357   2.448
  857TIP3    H2 2536   4.690   6.439   2.500
  858TIP3   OH2 2537   6.196   1.613   3.973
  858TIP3    H1 2538   6.166   1.641   3.887
  858TIP3    H2 2539   6.265   1.676   3.996
  859TIP3   OH2 2540   3.087   4.592   0.964
  859TIP3    H1 2541   3.030   4.523   0.999
  859TIP3    H2 2542   3.174   4.570   0.996
  860TIP3   OH2 2543   4.592   2.353   4.277
  860TIP3    H1 2544   4.604   2.415   4.205
  860TIP3    H2 2545   4.609   2.267   4.238
  861TIP3   OH2 2546   2.198   3.941   1.687
  861TIP3    H1 2547   2.221   3.980   1.771
  861TIP3    H2 2548   2.176   3.850   1.708
  862TIP3   OH2 2549   4.770   3.497   2.213
  862TIP3    H1 2550   4.798   3.512   2.303
  862TIP3    H2 2551   4.791   3.578   2.167
  863TIP3   OH2 2552   4.864   4.856   4.047
  863TIP3    H1 2553   4.886   4.766   4.071
  863TIP3    H2 2554   4.784   4.848   3.995
  864TIP3   OH2 2555   0.860   1.430   1.134
  864TIP3    H1 2556   0.904   1.388   1.208
  864TIP3    H2 2557   0.922   1.420   1.061
  865TIP3   OH2 2558   1.058   0.841   4.125
  865TIP3    H1 2559   1.007   0.918   4.150
  865TIP3    H2 2560   1.035   0.825   4.034
  866TIP3   OH2 2561   0.733   0.246   5.799
  866TIP3    H1 2562   0.750   0.171   5.855
  866TIP3    H2 2563   0.739   0.211   5.710
  867TIP3   OH2 2564   3.868   5.714   2.265
  867TIP3    H1 2565   3.955   5.685   2.295
  867TIP3    H2 2566   3.807   5.656   2.310
  868TIP3   OH2 2567   3.024   4.702   2.588
  868TIP3    H1 2568   2.984   4.633   2.535
  868TIP3    H2 2569   3.118   4.693   2.571
  869TIP3   OH2 2570   0.091   1.903   1.030
  869TIP3    H1 2571   0.147   1.960   0.976
  869TIP3    H2 2572   0.146   1.829   1.052
  870TIP3   OH2 2573   6.316   0.501   1.426
  870TIP3    H1 2574   6.299   0.525   1.518
  870TIP3    H2 2575   6.374   0.426   1.431
  871TIP3   OH2 2576   3.091   6.249   3.023
  871TIP3    H1 2577   3.151   6.252   2.949
  871TIP3    H2 2578   3.144   6.217   3.096
  872TIP3   OH2 2579   4.190   5.559   1.854
  872TIP3    H1 2580   4.112   5.602   1.891
  872TIP3    H2 2581   4.261   5.621   1.870
  873TIP3   OH2 2582   1.430   0.020   0.728
  873TIP3    H1 2583   1.354   0.073   0.752
  873TIP3    H2 2584   1.413  -0.065   0.769
  874TIP3   OH2 2585   3.926   1.405   2.299
  874TIP3    H1 2586   3.919   1.476   2.364
  874TIP3    H2 2587   4.020   1.387   2.294
  875TIP3   OH2 2588   5.500   2.596   3.782
  875TIP3    H1 2589   5.509   2.646   3.863
  875TIP3    H2 2590   5.436   2.528   3.802
  876TIP3   OH2 2591   6.775   0.092   2.068
  876TIP3    H1 2592   6.746   0.004   2.092
  876TIP3    H2 2593   6.753   0.147   2.143
  877TIP3   OH2 2594   1.398   2.792   1.645
  877TIP3    H1 2595   1.454   2.810   1.570
  877TIP3    H2 2596   1.452   2.811   1.721
  878TIP3   OH2 2597   6.035   1.450   3.755
  878TIP3    H1 2598   5.940   1.440   3.748
  878TIP3    H2 2599   6.049   1.545   3.755
  879TIP3   OH2 2600   5.480   4.357   0.938
  879TIP3    H1 2601   5.566   4.315   0.936
  879TIP3    H2 2602   5.418   4.287   0.920
  880TIP3   OH2 2603   3.892   0.830   5.799
  880TIP3    H1 2604   3.840   0.894   5.848
  880TIP3    H2 2605   3.948   0.884   5.742
  881TIP3   OH2 2606   4.950   3.368   2.872
  881TIP3    H1 2607   5.023   3.426   2.851
  881TIP3    H2 2608   4.883   3.427   2.908
  882TIP3   OH2 2609   4.037   4.908   3.598
  882TIP3    H1 2610   4.053   4.839   3.662
  882TIP3    H2 2611   3.948   4.936   3.614
  883TIP3   OH2 2612   5.961   0.767   5.479
  883TIP3    H1 2613   5.871   0.796   5.464
  883TIP3    H2 2614   6.011   0.847   5.494
  884TIP3   OH2 2615   6.197   2.579   0.719
  884TIP3    H1 2616   6.290   2.581   0.742
  884TIP3    H2 2617   6.173   2.672   0.711
  885TIP3   OH2 2618   0.211   0.341   5.155
  885TIP3    H1 2619   0.274   0.292   5.103
  885TIP3    H2 2620   0.141   0.362   5.093
  886TIP3   OH2 2621   1.838   2.905   3.217
  886TIP3    H1 2622   1.799   2.913   3.130
  886TIP3    H2 2623   1.814   2.987   3.261
  887TIP3   OH2 2624   3.276   1.632   2.685
  887TIP3    H1 2625   3.190   1.657   2.651
  887TIP3    H2 2626   3.295   1.548   2.641
  888TIP3   OH2 2627   0.049   5.081   0.610
  888TIP3    H1 2628   0.016   5.096   0.699
  888TIP3    H2 2629   0.123   5.022   0.622
  889TIP3   OH2 2630   5.318   5.100   5.227
  889TIP3    H1 2631   5.302   5.050   5.307
  889TIP3    H2 2632   5.235   5.144   5.209
  890TIP3   OH2 2633   1.046   4.730   0.748
  890TIP3    H1 2634   1.074   4.640   0.730
  890TIP3    H2 2635   0.976   4.747   0.684
  891TIP3   OH2 2636   6.784   0.296   2.254
  891TIP3    H1 2637   6.878   0.279   2.248
  891TIP3    H2 2638   6.774   0.342   2.338
  892TIP3   OH2 2639   7.011   5.687   1.166
  892TIP3    H1 2640   6.931   5.697   1.114
  892TIP3    H2 2641   6.980   5.654   1.251
  893TIP3   OH2 2642   0.375   4.046   3.429
  893TIP3    H1 2643   0.365   4.042   3.524
  893TIP3    H2 2644   0.357   4.138   3.407
  894TIP3   OH2 2645   1.349   3.989   3.755
  894TIP3    H1 2646   1.326   3.982   3.662
  894TIP3    H2 2647   1.284   3.934   3.800
  895TIP3   OH2 2648   0.711   2.107   2.418
  895TIP3    H1 2649   0.773   2.179   2.408
  895TIP3    H2 2650   0.625   2.148   2.416
  896TIP3   OH2 2651   1.447   4.874   2.496
  896TIP3    H1 2652   1.406   4.823   2.565
  896TIP3    H2 2653   1.541   4.868   2.514
  897TIP3   OH2 2654   6.528   2.432   4.828
  897TIP3    H1 2655   6.440   2.440   4.791
  897TIP3    H2 2656   6.540   2.510   4.882
  898TIP3   OH2 2657   0.158   1.403   0.637
  898TIP3    H1 2658   0.123   1.492   0.629
  898TIP3    H2 2659   0.252   1.414   0.626
  899TIP3   OH2 2660   6.492   6.018   5.382
  899TIP3    H1 2661   6.479   6.110   5.361
  899TIP3    H2 2662   6.461   6.010   5.473
  900TIP3   OH2 2663   0.668   1.295   0.397
  900TIP3    H1 2664   0.653   1.202   0.414
  900TIP3    H2 2665   0.690   1.332   0.482
  901TIP3   OH2 2666   5.557   0.812   3.722
  901TIP3    H1 2667   5.505   0.859   3.787
  901TIP3    H2 2668   5.551   0.864   3.642
  902TIP3   OH2 2669   1.172   1.093   5.472
  902TIP3    H1 2670   1.234   1.165   5.483
  902TIP3    H2 2671   1.144   1.073   5.561
  903TIP3   OH2 2672   3.415   5.806   5.669
  903TIP3    H1 2673   3.468   5.772   5.597
  903TIP3    H2 2674   3.325   5.787   5.643
  904TIP3   OH2 2675   3.634   0.281   0.631
  904TIP3    H1 2676   3.710   0.241   0.673
  904TIP3    H2 2677   3.629   0.237   0.546
  905TIP3   OH2 2678   5.118   0.159   0.411
  905TIP3    H1 2679   5.140   0.245   0.447
  905TIP3    H2 2680   5.182   0.099   0.450
  906TIP3   OH2 2681   1.378   2.140   5.586
  906TIP3    H1 2682   1.452   2.094   5.547
  906TIP3    H2 2683   1.366   2.218   5.531
  907TIP3   OH2 2684   6.598   6.198   5.860
  907TIP3    H1 2685   6.662   6.191   5.931
  907TIP3    H2 2686   6.649   6.234   5.787
  908TIP3   OH2 2687   5.146   5.172   3.749
  908TIP3    H1 2688   5.160   5.111   3.822
  908TIP3    H2 2689   5.104   5.119   3.682
  909TIP3   OH2 2690   5.681   3.639   3.736
  909TIP3    H1 2691   5.725   3.564   3.776
  909TIP3    H2 2692   5.742   3.668   3.667
  910TIP3   OH2 2693   4.934   2.702   3.730
  910TIP3    H1 2694   4.927   2.791   3.698
  910TIP3    H2 2695   4.867   2.653   3.682
  911TIP3   OH2 2696   0.103   3.873   2.909
  911TIP3    H1 2697   0.180   3.832   2.949
  911TIP3    H2 2698   0.060   3.801   2.861
  912TIP3   OH2 2699   0.067   6.406   4.242
  912TIP3    H1 2700   0.037   6.415   4.332
  912TIP3    H2 2701   0.152   6.363   4.250
  913TIP3   OH2 2702   5.136   2.486   4.388
  913TIP3    H1 2703   5.184   2.409   4.417
  913TIP3    H2 2704   5.068   2.499   4.454
  914TIP3   OH2 2705   4.702   1.415   1.846
  914TIP3    H1 2706   4.666   1.460   1.922
  914TIP3    H2 2707   4.772   1.360   1.881
  915TIP3   OH2 2708   0.417   1.896   3.858
  915TIP3    H1 2709   0.415   1.809   3.899
  915TIP3    H2 2710   0.509   1.910   3.837
  916TIP3   OH2 2711   2.751   0.662   0.928
  916TIP3    H1 2712   2.689   0.590   0.913
  916TIP3    H2 2713   2.705   0.719   0.990
  917TIP3   OH2 2714   3.725   1.732   4.632
  917TIP3    H1 2715   3.786   1.698   4.697
  917TIP3    H2 2716   3.780   1.782   4.572
  918TIP3   OH2 2717   2.828   0.681   0.067
  918TIP3    H1 2718   2.774   0.607   0.095
  918TIP3    H2 2719   2.917   0.646   0.061
  919TIP3   OH2 2720   3.595   4.548   2.924
  919TIP3    H1 2721   3.554   4.618   2.872
  919TIP3    H2 2722   3.660   4.594   2.977
  920TIP3   OH2 2723   1.023   3.498   5.213
  920TIP3    H1 2724   0.994   3.588   5.198
  920TIP3    H2 2725   1.072   3.501   5.295
  921TIP3   OH2 2726   2.668   0.030   4.157
  921TIP3    H1 2727   2.591   0.009   4.209
  921TIP3    H2 2728   2.699  -0.055   4.125
  922TIP3   OH2 2729   2.615   3.105   1.159
  922TIP3    H1 2730   2.668   3.177   1.195
  922TIP3    H2 2731   2.527   3.143   1.151
  923TIP3   OH2 2732   1.971   4.748   3.387
  923TIP3    H1 2733   2.024   4.695   3.446
  923TIP3    H2 2734   1.880   4.729   3.412
  924TIP3   OH2 2735   5.796   1.413   1.080
  924TIP3    H1 2736   5.842   1.377   1.005
  924TIP3    H2 2737   5.753   1.338   1.120
  925TIP3   OH2 2738   1.355   4.330   5.688
  925TIP3    H1 2739   1.308   4.400   5.643
  925TIP3    H2 2740   1.294   4.257   5.689
  926TIP3   OH2 2741   0.707   1.207   4.911
  926TIP3    H1 2742   0.803   1.204   4.906
  926TIP3    H2 2743   0.686   1.174   4.998
  927TIP3   OH2 2744   7.154   0.708   0.478
  927TIP3    H1 2745   7.106   0.706   0.395
  927TIP3    H2 2746   7.088   0.734   0.543
  928TIP3   OH2 2747   2.179   1.438   1.742
  928TIP3    H1 2748   2.182   1.343   1.756
  928TIP3    H2 2749   2.268   1.462   1.717
  929TIP3   OH2 2750   5.536   2.451   4.362
  929TIP3    H1 2751   5.486   2.402   4.296
  929TIP3    H2 2752   5.490   2.534   4.370
  930TIP3   OH2 2753   6.534   4.253   2.562
  930TIP3    H1 2754   6.450   4.251   2.607
  930TIP3    H2 2755   6.589   4.310   2.616
  931TIP3   OH2 2756   5.479   1.639   4.843
  931TIP3    H1 2757   5.532   1.687   4.779
  931TIP3    H2 2758   5.542   1.589   4.894
  932TIP3   OH2 2759   4.444   2.218   2.446
  932TIP3    H1 2760   4.414   2.274   2.374
  932TIP3    H2 2761   4.459   2.278   2.519
  933TIP3   OH2 2762   3.681   6.228   1.268
  933TIP3    H1 2763   3.742   6.301   1.262
  933TIP3    H2 2764   3.652   6.227   1.359
  934TIP3   OH2 2765   0.095   1.318   2.304
  934TIP3    H1 2766   0.103   1.335   2.210
  934TIP3    H2 2767   0.164   1.254   2.323
  935TIP3   OH2 2768   1.444   1.177   0.414
  935TIP3    H1 2769   1.441   1.111   0.483
  935TIP3    H2 2770   1.443   1.126   0.333
  936TIP3   OH2 2771   5.908   4.666   4.512
  936TIP3    H1 2772   5.924   4.684   4.604
  936TIP3    H2 2773   5.938   4.745   4.466
  937TIP3   OH2 2774   4.088   4.615   2.383
  937TIP3    H1 2775   4.005   4.648   2.350
  937TIP3    H2 2776   4.128   4.571   2.308
  938TIP3   OH2 2777   1.230   2.692   4.839
  938TIP3    H1 2778   1.257   2.732   4.922
  938TIP3    H2 2779   1.249   2.759   4.773
  939TIP3   OH2 2780   1.614   3.349   0.689
  939TIP3    H1 2781   1.566   3.333   0.607
  939TIP3    H2 2782   1.634   3.262   0.723
  940TIP3   OH2 2783   6.623   1.317   0.649
  940TIP3    H1 2784   6.535   1.353   0.638
  940TIP3    H2 2785   6.678   1.393   0.671
  941TIP3   OH2 2786   2.492   6.766   4.868
  941TIP3    H1 2787   2.534   6.822   4.932
  941TIP3    H2 2788   2.401   6.758   4.899
  942TIP3   OH2 2789   3.325   1.950   5.833
  942TIP3    H1 2790   3.301   1.860   5.814
  942TIP3    H2 2791   3.363   1.947   5.920
  943TIP3   OH2 2792   1.935   1.985   4.252
  943TIP3    H1 2793   1.913   1.893   4.236
  943TIP3    H2 2794   2.015   1.982   4.305
  944TIP3   OH2 2795   4.968   6.427   2.411
  944TIP3    H1 2796   4.923   6.509   2.432
  944TIP3    H2 2797   4.905   6.359   2.435
  945TIP3   OH2 2798   2.100   2.578   5.280
  945TIP3    H1 2799   2.040   2.653   5.281
  945TIP3    H2 2800   2.153   2.591   5.202
  946TIP3   OH2 2801   6.662   1.515   1.852
  946TIP3    H1 2802   6.740   1.548   1.897
  946TIP3    H2 2803   6.602   1.589   1.851
  947TIP3   OH2 2804   3.380   0.336   4.810
  947TIP3    H1 2805   3.390   0.386   4.890
  947TIP3    H2 2806   3.367   0.246   4.839
  948TIP3   OH2 2807   4.683   1.329   5.115
  948TIP3    H1 2808   4.713   1.249   5.072
  948TIP3    H2 2809   4.740   1.338   5.192
  949TIP3   OH2 2810   0.032   0.016   2.704
  949TIP3    H1 2811   0.073   0.043   2.787
  949TIP3    H2 2812   0.033   0.094   2.650
  950TIP3   OH2 2813   1.633   6.347   4.269
  950TIP3    H1 2814   1.566   6.294   4.313
  950TIP3    H2 2815   1.714   6.328   4.317
  951TIP3   OH2 2816   3.671   3.967   3.341
  951TIP3    H1 2817   3.634   3.895   3.290
  951TIP3    H2 2818   3.609   4.039   3.330
  952TIP3   OH2 2819   4.272   5.713   5.464
  952TIP3    H1 2820   4.257   5.783   5.528
  952TIP3    H2 2821   4.212   5.643   5.490
  953TIP3   OH2 2822   6.597   3.456   3.945
  953TIP3    H1 2823   6.616   3.374   3.899
  953TIP3    H2 2824   6.672   3.468   4.004
  954TIP3   OH2 2825   2.731   4.537   5.650
  954TIP3    H1 2826   2.692   4.486   5.579
  954TIP3    H2 2827   2.684   4.509   5.728
  955TIP3   OH2 2828   3.789   0.904   4.282
  955TIP3    H1 2829   3.814   0.836   4.220
  955TIP3    H2 2830   3.761   0.977   4.227
  956TIP3   OH2 2831   4.756   2.091   0.519
  956TIP3    H1 2832   4.852   2.098   0.521
  956TIP3    H2 2833   4.739   2.013   0.466
  957TIP3   OH2 2834   6.794   0.249   0.246
  957TIP3    H1 2835   6.701   0.233   0.230
  957TIP3    H2 2836   6.840   0.190   0.186
  958TIP3   OH2 2837   4.594   4.649   3.388
  958TIP3    H1 2838   4.590   4.665   3.294
  958TIP3    H2 2839   4.514   4.600   3.407
  959TIP3   OH2 2840   2.388   5.436   5.773
  959TIP3    H1 2841   2.368   5.528   5.788
  959TIP3    H2 2842   2.467   5.436   5.720
  960TIP3   OH2 2843   3.463   4.390   4.989
  960TIP3    H1 2844   3.410   4.343   5.052
  960TIP3    H2 2845   3.549   4.398   5.030
  961TIP3   OH2 2846   6.270   0.830   5.194
  961TIP3    H1 2847   6.295   0.919   5.172
  961TIP3    H2 2848   6.291   0.821   5.287
  962TIP3   OH2 2849   4.673   4.774   5.794
  962TIP3    H1 2850   4.697   4.799   5.705
  962TIP3    H2 2851   4.579   4.788   5.799
  963TIP3   OH2 2852   6.405   1.460   0.552
  963TIP3    H1 2853   6.316   1.434   0.576
  963TIP3    H2 2854   6.403   1.556   0.555
  964TIP3   OH2 2855   4.466   4.201   4.876
  964TIP3    H1 2856   4.442   4.122   4.827
  964TIP3    H2 2857   4.447   4.180   4.967
  965TIP3   OH2 2858   5.398   4.661   5.482
  965TIP3    H1 2859   5.486   4.635   5.456
  965TIP3    H2 2860   5.406   4.683   5.575
  966TIP3   OH2 2861   6.237   6.481   3.550
  966TIP3    H1 2862   6.167   6.504   3.611
  966TIP3    H2 2863   6.212   6.522   3.467
  967TIP3   OH2 2864   2.394   4.607   2.205
  967TIP3    H1 2865   2.399   4.518   2.241
  967TIP3    H2 2866   2.370   4.661   2.280
  968TIP3   OH2 2867   3.366   4.194   4.018
  968TIP3    H1 2868   3.333   4.230   4.100
  968TIP3    H2 2869   3.461   4.206   4.023
  969TIP3   OH2 2870   6.230   1.901   5.919
  969TIP3    H1 2871   6.188   1.962   5.980
  969TIP3    H2 2872   6.235   1.949   5.836
  970TIP3   OH2 2873   6.370   4.465   3.286
  970TIP3    H1 2874   6.307   4.396   3.308
  970TIP3    H2 2875   6.440   4.456   3.352
  971TIP3   OH2 2876   5.277   2.908   4.482
  971TIP3    H1 2877   5.331   2.969   4.531
  971TIP3    H2 2878   5.240   2.850   4.549
  972TIP3   OH2 2879   3.454   1.384   4.706
  972TIP3    H1 2880   3.451   1.327   4.629
  972TIP3    H2 2881   3.471   1.324   4.779
  973TIP3   OH2 2882   5.861   2.131   1.064
  973TIP3    H1 2883   5.828   2.173   0.984
  973TIP3    H2 2884   5.821   2.044   1.063
  974TIP3   OH2 2885   5.380   4.964   2.418
  974TIP3    H1 2886   5.289   4.982   2.444
  974TIP3    H2 2887   5.422   5.050   2.418
  975TIP3   OH2 2888   0.053   2.821   1.973
  975TIP3    H1 2889   0.048   2.763   2.049
  975TIP3    H2 2890   0.140   2.860   1.979
  976TIP3   OH2 2891   4.344   2.331   3.696
  976TIP3    H1 2892   4.398   2.277   3.639
  976TIP3    H2 2893   4.404   2.360   3.765
  977TIP3   OH2 2894   0.580   5.636   4.374
  977TIP3    H1 2895   0.670   5.662   4.390
  977TIP3    H2 2896   0.531   5.719   4.373
  978TIP3   OH2 2897   5.162   5.398   3.058
  978TIP3    H1 2898   5.166   5.303   3.068
  978TIP3    H2 2899   5.071   5.420   3.076
  979TIP3   OH2 2900   2.142   5.190   4.230
  979TIP3    H1 2901   2.104   5.192   4.318
  979TIP3    H2 2902   2.177   5.277   4.217
  980TIP3   OH2 2903   1.404   5.656   3.319
  980TIP3    H1 2904   1.481   5.696   3.359
  980TIP3    H2 2905   1.393   5.573   3.365
  981TIP3   OH2 2906   2.585   2.073   5.487
  981TIP3    H1 2907   2.646   2.127   5.538
  981TIP3    H2 2908   2.638   2.000   5.456
  982TIP3   OH2 2909   5.731   6.692   5.826
  982TIP3    H1 2910   5.685   6.663   5.747
  982TIP3    H2 2911   5.819   6.714   5.796
  983TIP3   OH2 2912   5.270   3.782   2.406
  983TIP3    H1 2913   5.315   3.724   2.467
  983TIP3    H2 2914   5.248   3.860   2.458
  984TIP3   OH2 2915   6.017   1.279   5.325
  984TIP3    H1 2916   5.957   1.353   5.332
  984TIP3    H2 2917   6.085   1.309   5.266
  985TIP3   OH2 2918   4.109   3.449   0.110
  985TIP3    H1 2919   4.028   3.493   0.137
  985TIP3    H2 2920   4.080   3.379   0.052
  986TIP3   OH2 2921   1.465   6.652   5.138
  986TIP3    H1 2922   1.470   6.624   5.230
  986TIP3    H2 2923   1.372   6.662   5.121
  987TIP3   OH2 2924   7.148   6.568   2.232
  987TIP3    H1 2925   7.194   6.572   2.148
  987TIP3    H2 2926   7.154   6.477   2.259
  988TIP3   OH2 2927   5.769   5.432   5.016
  988TIP3    H1 2928   5.845   5.420   5.072
  988TIP3    H2 2929   5.707   5.365   5.045
  989TIP3   OH2 2930   5.857   1.897   3.541
  989TIP3    H1 2931   5.857   1.892   3.636
  989TIP3    H2 2932   5.927   1.959   3.519
  990TIP3   OH2 2933   0.947   6.400   1.502
  990TIP3    H1 2934   0.997   6.364   1.428
  990TIP3    H2 2935   0.999   6.474   1.532
  991TIP3   OH2 2936   3.900   4.879   1.383
  991TIP3    H1 2937   3.825   4.881   1.324
  991TIP3    H2 2938   3.876   4.940   1.453
  992TIP3   OH2 2939   6.629   6.510   4.476
  992TIP3    H1 2940   6.553   6.556   4.512
  992TIP3    H2 2941   6.633   6.428   4.525
  993TIP3   OH2 2942   3.034   3.168   4.135
  993TIP3    H1 2943   3.037   3.118   4.054
  993TIP3    H2 2944   3.022   3.258   4.108
  994TIP3   OH2 2945   1.265   6.527   4.456
  994TIP3    H1 2946   1.295   6.523   4.547
  994TIP3    H2 2947   1.176   6.560   4.461
  995TIP3   OH2 2948   2.584   0.980   3.525
  995TIP3    H1 2949   2.535   1.048   3.572
  995TIP3    H2 2950   2.628   1.026   3.454
  996TIP3   OH2 2951   6.341   5.306   2.584
  996TIP3    H1 2952   6.411   5.302   2.519
  996TIP3    H2 2953   6.386   5.325   2.666
  997TIP3   OH2 2954   4.131   4.714   0.808
  997TIP3    H1 2955   4.049   4.666   0.820
  997TIP3    H2 2956   4.199   4.655   0.840
  998TIP3   OH2 2957   4.220   5.138   2.894
  998TIP3    H1 2958   4.160   5.141   2.969
  998TIP3    H2 2959   4.169   5.170   2.821
  999TIP3   OH2 2960   6.195   0.743   0.999
  999TIP3    H1 2961   6.106   0.721   1.025
  999TIP3    H2 2962   6.211   0.828   1.040
 1000TIP3   OH2 2963   1.757   2.716   1.371
 1000TIP3    H1 2964   1.781   2.624   1.358
 1000TIP3    H2 2965   1.811   2.764   1.308
 1001TIP3   OH2 2966   3.813   0.638   5.622
 1001TIP3    H1 2967   3.832   0.551   5.658
 1001TIP3    H2 2968   3.821   0.697   5.697
 1002TIP3   OH2 2969   0.971   0.507   3.905
 1002TIP3    H1 2970   1.010   0.570   3.966
 1002TIP3    H2 2971   1.014   0.525   3.822
 1003TIP3   OH2 2972   4.219   3.707   0.034
 1003TIP3    H1 2973   4.128   3.735   0.048
 1003TIP3    H2 2974   4.215   3.611   0.035
 1004TIP3   OH2 2975   5.162   5.023   0.821
 1004TIP3    H1 2976   5.106   4.961   0.776
 1004TIP3    H2 2977   5.241   4.974   0.841
 1005TIP3   OH2 2978   0.060   1.877   0.606
 1005TIP3    H1 2979   0.093   1.883   0.517
 1005TIP3    H2 2980   0.109   1.805   0.646
 1006TIP3   OH2 2981   3.505   5.119   5.047
 1006TIP3    H1 2982   3.580   5.178   5.048
 1006TIP3    H2 2983   3.489   5.099   5.139
 1007TIP3   OH2 2984   0.762   0.494   1.055
 1007TIP3    H1 2985   0.812   0.568   1.088
 1007TIP3    H2 2986   0.713   0.463   1.131
 1008TIP3   OH2 2987   3.251   0.433   2.778
 1008TIP3    H1 2988   3.337   0.392   2.771
 1008TIP3    H2 2989   3.238   0.447   2.871
 1009TIP3   OH2 2990   5.467   4.687   3.973
 1009TIP3    H1 2991   5.535   4.744   3.935
 1009TIP3    H2 2992   5.386   4.713   3.929
 1010TIP3   OH2 2993   0.214   6.167   4.136
 1010TIP3    H1 2994   0.197   6.204   4.050
 1010TIP3    H2 2995   0.266   6.088   4.119
 1011TIP3   OH2 2996   4.939   3.701   0.157
 1011TIP3    H1 2997   4.894   3.655   0.228
 1011TIP3    H2 2998   4.884   3.686   0.080
 1012TIP3   OH2 2999   4.814   3.870   3.673
 1012TIP3    H1 3000   4.908   3.856   3.663
 1012TIP3    H2 3001   4.793   3.941   3.613
 1013TIP3   OH2 3002   7.193   3.752   5.681
 1013TIP3    H1 3003   7.105   3.762   5.720
 1013TIP3    H2 3004   7.232   3.679   5.729
 1014TIP3   OH2 3005   5.338   0.807   5.495
 1014TIP3    H1 3006   5.403   0.741   5.470
 1014TIP3    H2 3007   5.390   0.881   5.527
 1015TIP3   OH2 3008   6.222   5.552   1.809
 1015TIP3    H1 3009   6.146   5.600   1.776
 1015TIP3    H2 3010   6.185   5.490   1.872
 1016TIP3   OH2 3011   4.437   1.289   1.791
 1016TIP3    H1 3012   4.378   1.363   1.805
 1016TIP3    H2 3013   4.508   1.325   1.737
 1017TIP3   OH2 3014   2.729   4.304   1.763
 1017TIP3    H1 3015   2.662   4.359   1.805
 1017TIP3    H2 3016   2.810   4.354   1.774
 1018TIP3   OH2 3017   1.367   5.430   2.268
 1018TIP3    H1 3018   1.316   5.510   2.252
 1018TIP3    H2 3019   1.446   5.460   2.312
 1019TIP3   OH2 3020   5.865   4.326   2.477
 1019TIP3    H1 3021   5.810   4.367   2.544
 1019TIP3    H2 3022   5.805   4.307   2.405
 1020TIP3   OH2 3023   6.174   2.850   1.374
 1020TIP3    H1 3024   6.084   2.827   1.397
 1020TIP3    H2 3025   6.200   2.914   1.440
 1021TIP3   OH2 3026   4.812   4.206   1.198
 1021TIP3    H1 3027   4.767   4.124   1.220
 1021TIP3    H2 3028   4.834   4.245   1.282
 1022TIP3   OH2 3029   5.240   0.528   2.855
 1022TIP3    H1 3030   5.322   0.494   2.890
 1022TIP3    H2 3031   5.208   0.588   2.922
 1023TIP3   OH2 3032   3.940   0.611   3.835
 1023TIP3    H1 3033   4.023   0.647   3.803
 1023TIP3    H2 3034   3.880   0.622   3.761
 1024TIP3   OH2 3035   4.813   4.775   0.313
 1024TIP3    H1 3036   4.827   4.846   0.376
 1024TIP3    H2 3037   4.760   4.711   0.361
 1025TIP3   OH2 3038   2.481   6.718   0.564
 1025TIP3    H1 3039   2.511   6.632   0.592
 1025TIP3    H2 3040   2.531   6.779   0.618
 1026TIP3   OH2 3041   6.576   6.514   3.205
 1026TIP3    H1 3042   6.583   6.449   3.275
 1026TIP3    H2 3043   6.653   6.570   3.217
 1027TIP3   OH2 3044   1.256   3.799   0.509
 1027TIP3    H1 3045   1.250   3.719   0.562
 1027TIP3    H2 3046   1.328   3.848   0.548
 1028TIP3   OH2 3047   2.287   3.085   4.243
 1028TIP3    H1 3048   2.259   2.995   4.260
 1028TIP3    H2 3049   2.265   3.132   4.323
 1029TIP3   OH2 3050   3.731   1.029   0.189
 1029TIP3    H1 3051   3.679   0.963   0.235
 1029TIP3    H2 3052   3.772   0.981   0.117
 1030TIP3   OH2 3053   0.097   3.257   1.920
 1030TIP3    H1 3054   0.055   3.280   1.837
 1030TIP3    H2 3055   0.166   3.194   1.896
 1031TIP3   OH2 3056   2.936   1.627   4.385
 1031TIP3    H1 3057   3.020   1.584   4.402
 1031TIP3    H2 3058   2.926   1.688   4.459
 1032TIP3   OH2 3059   3.471   4.525   2.003
 1032TIP3    H1 3060   3.483   4.510   2.097
 1032TIP3    H2 3061   3.376   4.526   1.991
 1033TIP3   OH2 3062   0.748   4.239   1.490
 1033TIP3    H1 3063   0.683   4.235   1.561
 1033TIP3    H2 3064   0.695   4.253   1.411
 1034TIP3   OH2 3065   5.579   5.173   1.179
 1034TIP3    H1 3066   5.658   5.175   1.125
 1034TIP3    H2 3067   5.550   5.264   1.181
 1035TIP3   OH2 3068   4.450   0.634   2.387
 1035TIP3    H1 3069   4.408   0.719   2.373
 1035TIP3    H2 3070   4.436   0.615   2.479
 1036TIP3   OH2 3071   0.515   2.451   4.830
 1036TIP3    H1 3072   0.439   2.487   4.784
 1036TIP3    H2 3073   0.582   2.444   4.763
 1037TIP3   OH2 3074   2.803   5.622   4.854
 1037TIP3    H1 3075   2.864   5.630   4.781
 1037TIP3    H2 3076   2.760   5.538   4.840
 1038TIP3   OH2 3077   1.049   4.771   4.200
 1038TIP3    H1 3078   1.044   4.774   4.296
 1038TIP3    H2 3079   1.115   4.705   4.181
 1039TIP3   OH2 3080   3.582   3.650   1.573
 1039TIP3    H1 3081   3.621   3.698   1.500
 1039TIP3    H2 3082   3.568   3.717   1.641
 1040TIP3   OH2 3083   4.597   1.567   0.278
 1040TIP3    H1 3084   4.509   1.600   0.261
 1040TIP3    H2 3085   4.634   1.551   0.192
 1041TIP3   OH2 3086   1.600   5.132   2.733
 1041TIP3    H1 3087   1.584   5.127   2.828
 1041TIP3    H2 3088   1.662   5.061   2.715
 1042TIP3   OH2 3089   6.840   2.575   1.161
 1042TIP3    H1 3090   6.887   2.657   1.174
 1042TIP3    H2 3091   6.833   2.537   1.249
 1043TIP3   OH2 3092   0.773   6.488   2.773
 1043TIP3    H1 3093   0.768   6.491   2.868
 1043TIP3    H2 3094   0.861   6.455   2.754
 1044TIP3   OH2 3095   6.355   0.082   4.506
 1044TIP3    H1 3096   6.295   0.100   4.435
 1044TIP3    H2 3097   6.413   0.158   4.508
 1045TIP3   OH2 3098   0.119   2.298   3.084
 1045TIP3    H1 3099   0.121   2.344   3.168
 1045TIP3    H2 3100   0.190   2.234   3.090
 1046TIP3   OH2 3101   7.255   2.053   0.187
 1046TIP3    H1 3102   7.171   2.017   0.215
 1046TIP3    H2 3103   7.238   2.089   0.100
 1047TIP3   OH2 3104   0.651   3.931   1.807
 1047TIP3    H1 3105   0.646   3.840   1.775
 1047TIP3    H2 3106   0.731   3.932   1.861
 1048TIP3   OH2 3107   6.004   2.518   3.524
 1048TIP3    H1 3108   6.053   2.592   3.561
 1048TIP3    H2 3109   5.976   2.548   3.438
 1049TIP3   OH2 3110   3.439   5.417   3.147
 1049TIP3    H1 3111   3.508   5.361   3.112
 1049TIP3    H2 3112   3.441   5.401   3.242
 1050TIP3   OH2 3113   2.576   1.649   0.965
 1050TIP3    H1 3114   2.520   1.576   0.940
 1050TIP3    H2 3115   2.617   1.622   1.047
 1051TIP3   OH2 3116   3.497   4.625   1.638
 1051TIP3    H1 3117   3.407   4.657   1.634
 1051TIP3    H2 3118   3.551   4.700   1.614
 1052TIP3   OH2 3119   5.417   5.175   3.319
 1052TIP3    H1 3120   5.388   5.247   3.375
 1052TIP3    H2 3121   5.513   5.185   3.315
 1053TIP3   OH2 3122   7.059   0.975   5.546
 1053TIP3    H1 3123   7.005   1.030   5.604
 1053TIP3    H2 3124   7.149   1.004   5.563
 1054TIP3   OH2 3125   3.528   5.470   1.275
 1054TIP3    H1 3126   3.439   5.441   1.256
 1054TIP3    H2 3127   3.522   5.511   1.361
 1055TIP3   OH2 3128   1.364   1.831   4.942
 1055TIP3    H1 3129   1.287   1.803   4.991
 1055TIP3    H2 3130   1.332   1.843   4.852
 1056TIP3   OH2 3131   3.073   1.622   3.582
 1056TIP3    H1 3132   3.161   1.584   3.591
 1056TIP3    H2 3133   3.014   1.553   3.613
 1057TIP3   OH2 3134   4.314   4.695   3.979
 1057TIP3    H1 3135   4.404   4.668   3.996
 1057TIP3    H2 3136   4.284   4.637   3.910
 1058TIP3   OH2 3137   5.020   5.190   0.536
 1058TIP3    H1 3138   5.047   5.224   0.621
 1058TIP3    H2 3139   4.925   5.185   0.541
 1059TIP3   OH2 3140   5.336   5.911   3.393
 1059TIP3    H1 3141   5.386   5.914   3.311
 1059TIP3    H2 3142   5.325   5.818   3.411
 1060TIP3   OH2 3143   1.608   6.432   1.054
 1060TIP3    H1 3144   1.591   6.526   1.058
 1060TIP3    H2 3145   1.686   6.420   1.108
 1061TIP3   OH2 3146   5.541   0.402   1.341
 1061TIP3    H1 3147   5.480   0.440   1.404
 1061TIP3    H2 3148   5.613   0.368   1.395
 1062TIP3   OH2 3149   3.991   5.862   1.143
 1062TIP3    H1 3150   3.970   5.927   1.077
 1062TIP3    H2 3151   3.914   5.862   1.201
 1063TIP3   OH2 3152   1.635   4.537   1.168
 1063TIP3    H1 3153   1.644   4.462   1.226
 1063TIP3    H2 3154   1.688   4.606   1.209
 1064TIP3   OH2 3155   1.625   1.249   1.333
 1064TIP3    H1 3156   1.668   1.231   1.416
 1064TIP3    H2 3157   1.603   1.342   1.338
 1065TIP3   OH2 3158   0.976   3.457   3.208
 1065TIP3    H1 3159   0.886   3.427   3.220
 1065TIP3    H2 3160   0.980   3.541   3.254
 1066TIP3   OH2 3161   2.063   3.970   2.187
 1066TIP3    H1 3162   2.046   3.877   2.203
 1066TIP3    H2 3163   2.125   3.995   2.255
 1067TIP3   OH2 3164   6.355   3.544   4.061
 1067TIP3    H1 3165   6.421   3.520   3.996
 1067TIP3    H2 3166   6.405   3.570   4.138
 1068TIP3   OH2 3167   4.736   4.307   4.112
 1068TIP3    H1 3168   4.793   4.233   4.134
 1068TIP3    H2 3169   4.680   4.319   4.189
 1069TIP3   OH2 3170   6.841   4.991   3.497
 1069TIP3    H1 3171   6.814   4.909   3.540
 1069TIP3    H2 3172   6.788   4.994   3.417
 1070TIP3   OH2 3173   4.100   1.503   3.669
 1070TIP3    H1 3174   4.155   1.463   3.737
 1070TIP3    H2 3175   4.152   1.497   3.589
 1071TIP3   OH2 3176   1.802   1.499   0.376
 1071TIP3    H1 3177   1.710   1.492   0.402
 1071TIP3    H2 3178   1.800   1.548   0.294
 1072TIP3   OH2 3179   3.945   4.604   1.797
 1072TIP3    H1 3180   3.852   4.583   1.798
 1072TIP3    H2 3181   3.948   4.700   1.796
 1073TIP3   OH2 3182   2.303   4.922   5.637
 1073TIP3    H1 3183   2.347   4.876   5.709
 1073TIP3    H2 3184   2.248   4.987   5.680
 1074TIP3   OH2 3185   2.992   2.222   5.889
 1074TIP3    H1 3186   3.029   2.257   5.808
 1074TIP3    H2 3187   3.018   2.129   5.889
 1075TIP3   OH2 3188   7.209   3.523   5.252
 1075TIP3    H1 3189   7.144   3.590   5.236
 1075TIP3    H2 3190   7.170   3.466   5.319
 1076TIP3   OH2 3191   4.258   2.777   5.288
 1076TIP3    H1 3192   4.225   2.864   5.311
 1076TIP3    H2 3193   4.323   2.794   5.220
 1077TIP3   OH2 3194   5.246   2.471   3.875
 1077TIP3    H1 3195   5.206   2.390   3.844
 1077TIP3    H2 3196   5.173   2.524   3.908
 1078TIP3   OH2 3197   4.256   3.717   4.787
 1078TIP3    H1 3198   4.211   3.642   4.748
 1078TIP3    H2 3199   4.337   3.726   4.737
 1079TIP3   OH2 3200   5.142   5.315   0.312
 1079TIP3    H1 3201   5.100   5.264   0.381
 1079TIP3    H2 3202   5.232   5.327   0.343
 1080TIP3   OH2 3203   3.566   1.344   2.454
 1080TIP3    H1 3204   3.570   1.249   2.456
 1080TIP3    H2 3205   3.549   1.365   2.362
 1081TIP3   OH2 3206   7.052   6.012   3.159
 1081TIP3    H1 3207   7.096   5.928   3.172
 1081TIP3    H2 3208   7.086   6.044   3.076
 1082TIP3   OH2 3209   6.970   5.012   4.948
 1082TIP3    H1 3210   7.034   5.082   4.961
 1082TIP3    H2 3211   6.895   5.038   5.000
 1083TIP3   OH2 3212   2.916   1.406   2.325
 1083TIP3    H1 3213   2.944   1.383   2.413
 1083TIP3    H2 3214   2.997   1.405   2.273
 1084TIP3   OH2 3215   2.956   5.145   1.814
 1084TIP3    H1 3216   2.942   5.205   1.741
 1084TIP3    H2 3217   3.006   5.195   1.878
 1085TIP3   OH2 3218   2.707   0.459   5.688
 1085TIP3    H1 3219   2.767   0.461   5.763
 1085TIP3    H2 3220   2.754   0.409   5.621
 1086TIP3   OH2 3221   5.286   5.546   2.233
 1086TIP3    H1 3222   5.198   5.519   2.256
 1086TIP3    H2 3223   5.343   5.494   2.288
 1087TIP3   OH2 3224   4.969   6.782   2.285
 1087TIP3    H1 3225   4.928   6.801   2.201
 1087TIP3    H2 3226   4.911   6.717   2.326
 1088TIP3   OH2 3227   2.048   5.879   1.197
 1088TIP3    H1 3228   1.973   5.820   1.206
 1088TIP3    H2 3229   2.118   5.836   1.246
 1089TIP3   OH2 3230   0.742   4.757   0.942
 1089TIP3    H1 3231   0.713   4.829   0.997
 1089TIP3    H2 3232   0.681   4.685   0.962
 1090TIP3   OH2 3233   6.659   5.506   5.608
 1090TIP3    H1 3234   6.626   5.587   5.569
 1090TIP3    H2 3235   6.734   5.482   5.553
 1091TIP3   OH2 3236   6.274   2.392   2.282
 1091TIP3    H1 3237   6.247   2.394   2.191
 1091TIP3    H2 3238   6.345   2.327   2.285
 1092TIP3   OH2 3239   0.975   2.570   5.786
 1092TIP3    H1 3240   1.053   2.520   5.811
 1092TIP3    H2 3241   0.946   2.530   5.705
 1093TIP3   OH2 3242   4.216   2.827   2.641
 1093TIP3    H1 3243   4.212   2.897   2.576
 1093TIP3    H2 3244   4.161   2.758   2.604
 1094TIP3   OH2 3245   3.763   4.823   3.909
 1094TIP3    H1 3246   3.836   4.776   3.948
 1094TIP3    H2 3247   3.685   4.773   3.935
 1095TIP3   OH2 3248   4.861   0.551   0.360
 1095TIP3    H1 3249   4.872   0.600   0.442
 1095TIP3    H2 3250   4.767   0.557   0.341
 1096TIP3   OH2 3251   2.140   0.356   4.902
 1096TIP3    H1 3252   2.136   0.418   4.830
 1096TIP3    H2 3253   2.075   0.388   4.965
 1097TIP3   OH2 3254   0.630   1.128   3.777
 1097TIP3    H1 3255   0.547   1.081   3.787
 1097TIP3    H2 3256   0.616   1.184   3.701
 1098TIP3   OH2 3257   0.888   0.049   3.425
 1098TIP3    H1 3258   0.965   0.105   3.409
 1098TIP3    H2 3259   0.860   0.074   3.513
 1099TIP3   OH2 3260   3.584   0.380   3.213
 1099TIP3    H1 3261   3.634   0.375   3.295
 1099TIP3    H2 3262   3.636   0.331   3.150
 1100TIP3   OH2 3263   0.955   0.819   2.021
 1100TIP3    H1 3264   0.866   0.785   2.031
 1100TIP3    H2 3265   0.958   0.852   1.931
 1101TIP3   OH2 3266   4.937   2.349   4.765
 1101TIP3    H1 3267   4.923   2.443   4.754
 1101TIP3    H2 3268   5.030   2.337   4.748
 1102TIP3   OH2 3269   1.904   0.754   4.381
 1102TIP3    H1 3270   1.936   0.785   4.465
 1102TIP3    H2 3271   1.837   0.819   4.356
 1103TIP3   OH2 3272   2.710   3.301   0.894
 1103TIP3    H1 3273   2.675   3.228   0.842
 1103TIP3    H2 3274   2.788   3.264   0.936
 1104TIP3   OH2 3275   5.827   0.214   0.782
 1104TIP3    H1 3276   5.916   0.246   0.797
 1104TIP3    H2 3277   5.795   0.191   0.869
 1105TIP3   OH2 3278   2.906   5.718   3.539
 1105TIP3    H1 3279   2.888   5.768   3.619
 1105TIP3    H2 3280   2.992   5.749   3.511
 1106TIP3   OH2 3281   1.874   1.729   4.176
 1106TIP3    H1 3282   1.784   1.703   4.195
 1106TIP3    H2 3283   1.896   1.682   4.096
 1107TIP3   OH2 3284   6.985   4.341   2.031
 1107TIP3    H1 3285   6.985   4.406   1.961
 1107TIP3    H2 3286   6.924   4.375   2.097
 1108TIP3   OH2 3287   2.952   1.289   0.514
 1108TIP3    H1 3288   2.986   1.377   0.525
 1108TIP3    H2 3289   2.861   1.294   0.545
 1109TIP3   OH2 3290   1.596   0.934   0.289
 1109TIP3    H1 3291   1.690   0.945   0.306
 1109TIP3    H2 3292   1.578   0.843   0.315
 1110TIP3   OH2 3293   0.300   5.350   5.702
 1110TIP3    H1 3294   0.240   5.279   5.677
 1110TIP3    H2 3295   0.347   5.315   5.778
 1111TIP3   OH2 3296   1.580   6.583   1.414
 1111TIP3    H1 3297   1.537   6.524   1.353
 1111TIP3    H2 3298   1.652   6.621   1.363
 1112TIP3   OH2 3299   6.008   5.289   3.794
 1112TIP3    H1 3300   6.088   5.321   3.835
 1112TIP3    H2 3301   5.938   5.316   3.854
 1113TIP3   OH2 3302   0.736   1.815   4.905
 1113TIP3    H1 3303   0.791   1.808   4.827
 1113TIP3    H2 3304   0.678   1.888   4.887
 1114TIP3   OH2 3305   1.785   5.659   1.120
 1114TIP3    H1 3306   1.738   5.575   1.123
 1114TIP3    H2 3307   1.876   5.636   1.140
 1115TIP3   OH2 3308   3.865   4.026   1.834
 1115TIP3    H1 3309   3.910   4.017   1.750
 1115TIP3    H2 3310   3.849   4.120   1.843
 1116TIP3   OH2 3311   5.001   1.408   4.796
 1116TIP3    H1 3312   5.095   1.427   4.796
 1116TIP3    H2 3313   4.967   1.459   4.870
 1117TIP3   OH2 3314   1.977   6.620   0.203
 1117TIP3    H1 3315   1.976   6.550   0.267
 1117TIP3    H2 3316   1.954   6.699   0.253
 1118TIP3   OH2 3317   7.080   1.172   5.067
 1118TIP3    H1 3318   7.053   1.202   5.154
 1118TIP3    H2 3319   7.084   1.251   5.014
 1119TIP3   OH2 3320   0.423   4.638   0.837
 1119TIP3    H1 3321   0.373   4.657   0.917
 1119TIP3    H2 3322   0.425   4.721   0.790
 1120TIP3   OH2 3323   5.806   1.109   3.764
 1120TIP3    H1 3324   5.812   1.198   3.799
 1120TIP3    H2 3325   5.819   1.053   3.840
 1121TIP3   OH2 3326   5.901   4.095   4.762
 1121TIP3    H1 3327   5.915   4.054   4.848
 1121TIP3    H2 3328   5.958   4.172   4.763
 1122TIP3   OH2 3329   6.785   3.836   5.622
 1122TIP3    H1 3330   6.781   3.908   5.686
 1122TIP3    H2 3331   6.778   3.879   5.537
 1123TIP3   OH2 3332   3.052   6.469   1.372
 1123TIP3    H1 3333   2.995   6.490   1.446
 1123TIP3    H2 3334   3.057   6.550   1.321
 1124TIP3   OH2 3335   0.484   4.790   5.277
 1124TIP3    H1 3336   0.433   4.838   5.210
 1124TIP3    H2 3337   0.447   4.819   5.360
 1125TIP3   OH2 3338   4.678   2.006   0.772
 1125TIP3    H1 3339   4.673   2.056   0.691
 1125TIP3    H2 3340   4.611   1.938   0.762
 1126TIP3   OH2 3341   3.411   1.938   5.470
 1126TIP3    H1 3342   3.338   1.997   5.489
 1126TIP3    H2 3343   3.369   1.858   5.438
 1127TIP3   OH2 3344   4.847   4.595   2.244
 1127TIP3    H1 3345   4.754   4.617   2.239
 1127TIP3    H2 3346   4.869   4.564   2.157
 1128TIP3   OH2 3347   3.875   2.127   1.229
 1128TIP3    H1 3348   3.825   2.047   1.245
 1128TIP3    H2 3349   3.868   2.141   1.134
 1129TIP3   OH2 3350   3.583   4.759   1.354
 1129TIP3    H1 3351   3.616   4.849   1.342
 1129TIP3    H2 3352   3.520   4.766   1.426
 1130TIP3   OH2 3353   6.887   1.284   1.131
 1130TIP3    H1 3354   6.796   1.304   1.150
 1130TIP3    H2 3355   6.924   1.367   1.100
 1131TIP3   OH2 3356   3.296   0.845   4.238
 1131TIP3    H1 3357   3.347   0.908   4.290
 1131TIP3    H2 3358   3.353   0.769   4.230
 1132TIP3   OH2 3359   6.964   3.337   5.232
 1132TIP3    H1 3360   7.004   3.330   5.145
 1132TIP3    H2 3361   6.870   3.338   5.215
 1133TIP3   OH2 3362   0.632  -0.123   0.317
 1133TIP3    H1 3363   0.703  -0.089   0.370
 1133TIP3    H2 3364   0.660  -0.108   0.227
 1134TIP3   OH2 3365   2.877   3.048   0.175
 1134TIP3    H1 3366   2.897   3.140   0.195
 1134TIP3    H2 3367   2.869   3.046   0.080
 1135TIP3   OH2 3368   4.833   5.795   3.266
 1135TIP3    H1 3369   4.836   5.742   3.346
 1135TIP3    H2 3370   4.907   5.764   3.214
 1136TIP3   OH2 3371   7.208   3.368   0.776
 1136TIP3    H1 3372   7.296   3.338   0.754
 1136TIP3    H2 3373   7.181   3.423   0.702
 1137TIP3   OH2 3374   5.512   0.966   5.618
 1137TIP3    H1 3375   5.501   0.960   5.713
 1137TIP3    H2 3376   5.530   1.059   5.602
 1138TIP3   OH2 3377   7.093   1.047   4.697
 1138TIP3    H1 3378   7.053   1.006   4.774
 1138TIP3    H2 3379   7.023   1.051   4.633
 1139TIP3   OH2 3380   0.066   4.443   1.490
 1139TIP3    H1 3381   0.150   4.453   1.537
 1139TIP3    H2 3382   0.019   4.376   1.539
 1140TIP3   OH2 3383   6.915   1.071   3.316
 1140TIP3    H1 3384   6.854   1.108   3.379
 1140TIP3    H2 3385   7.000   1.106   3.342
 1141TIP3   OH2 3386   5.941   6.684   4.009
 1141TIP3    H1 3387   5.872   6.750   4.009
 1141TIP3    H2 3388   5.894   6.601   4.021
 1142TIP3   OH2 3389   3.126   5.274   3.804
 1142TIP3    H1 3390   3.168   5.290   3.720
 1142TIP3    H2 3391   3.054   5.338   3.807
 1143TIP3   OH2 3392   6.923   3.828   4.646
 1143TIP3    H1 3393   6.914   3.745   4.693
 1143TIP3    H2 3394   6.834   3.864   4.644
 1144TIP3   OH2 3395   2.402   3.102   2.420
 1144TIP3    H1 3396   2.376   3.038   2.486
 1144TIP3    H2 3397   2.497   3.112   2.433
 1145TIP3   OH2 3398   1.491   6.712   4.704
 1145TIP3    H1 3399   1.519   6.720   4.796
 1145TIP3    H2 3400   1.413   6.768   4.698
 1146TIP3   OH2 3401   1.006   4.950   1.169
 1146TIP3    H1 3402   0.959   4.896   1.233
 1146TIP3    H2 3403   1.083   4.981   1.216
 1147TIP3   OH2 3404   6.929   2.655   2.539
 1147TIP3    H1 3405   6.873   2.686   2.467
 1147TIP3    H2 3406   6.891   2.571   2.564
 1148TIP3   OH2 3407   2.179   5.115   3.974
 1148TIP3    H1 3408   2.272   5.095   3.980
 1148TIP3    H2 3409   2.154   5.141   4.063
 1149TIP3   OH2 3410   4.257   6.024   1.526
 1149TIP3    H1 3411   4.191   5.965   1.489
 1149TIP3    H2 3412   4.310   5.967   1.582
 1150TIP3   OH2 3413   4.351   1.316   4.301
 1150TIP3    H1 3414   4.372   1.230   4.337
 1150TIP3    H2 3415   4.281   1.349   4.356
 1151TIP3   OH2 3416   2.783   0.886   1.137
 1151TIP3    H1 3417   2.715   0.953   1.147
 1151TIP3    H2 3418   2.806   0.861   1.226
 1152TIP3   OH2 3419   2.421   4.685   4.818
 1152TIP3    H1 3420   2.368   4.704   4.741
 1152TIP3    H2 3421   2.478   4.762   4.827
 1153TIP3   OH2 3422   6.288   1.555   1.063
 1153TIP3    H1 3423   6.227   1.495   1.020
 1153TIP3    H2 3424   6.346   1.585   0.994
 1154TIP3   OH2 3425   1.876   1.669   4.489
 1154TIP3    H1 3426   1.823   1.701   4.416
 1154TIP3    H2 3427   1.966   1.681   4.460
 1155TIP3   OH2 3428   1.646   1.441   0.797
 1155TIP3    H1 3429   1.670   1.374   0.733
 1155TIP3    H2 3430   1.669   1.524   0.756
 1156TIP3   OH2 3431   3.747   0.603   3.619
 1156TIP3    H1 3432   3.673   0.660   3.600
 1156TIP3    H2 3433   3.732   0.524   3.566
 1157TIP3   OH2 3434   1.621   1.652   2.815
 1157TIP3    H1 3435   1.536   1.610   2.833
 1157TIP3    H2 3436   1.637   1.636   2.722
 1158TIP3   OH2 3437   1.686   5.858   4.614
 1158TIP3    H1 3438   1.596   5.838   4.589
 1158TIP3    H2 3439   1.703   5.944   4.577
 1159TIP3   OH2 3440   6.345   4.768   4.067
 1159TIP3    H1 3441   6.395   4.823   4.007
 1159TIP3    H2 3442   6.400   4.761   4.145
 1160TIP3   OH2 3443   4.116   6.811   4.043
 1160TIP3    H1 3444   4.049   6.801   4.111
 1160TIP3    H2 3445   4.075   6.778   3.963
 1161TIP3   OH2 3446   0.097   4.991   4.969
 1161TIP3    H1 3447   0.074   5.084   4.979
 1161TIP3    H2 3448   0.015   4.944   4.986
 1162TIP3   OH2 3449   3.344   2.211   5.689
 1162TIP3    H1 3450   3.264   2.225   5.639
 1162TIP3    H2 3451   3.332   2.126   5.731
 1163TIP3   OH2 3452   1.138   2.915   0.881
 1163TIP3    H1 3453   1.210   2.882   0.935
 1163TIP3    H2 3454   1.124   2.847   0.816
 1164TIP3   OH2 3455   5.126   6.450   0.809
 1164TIP3    H1 3456   5.068   6.519   0.776
 1164TIP3    H2 3457   5.192   6.497   0.860
 1165TIP3   OH2 3458   0.229   2.198  -0.011
 1165TIP3    H1 3459   0.295   2.143  -0.052
 1165TIP3    H2 3460   0.224   2.166   0.079
 1166TIP3   OH2 3461   1.844   4.361   5.864
 1166TIP3    H1 3462   1.762   4.333   5.824
 1166TIP3    H2 3463   1.845   4.316   5.949
 1167TIP3   OH2 3464   6.268   4.303   2.645
 1167TIP3    H1 3465   6.262   4.354   2.565
 1167TIP3    H2 3466   6.206   4.345   2.705
 1168TIP3   OH2 3467   3.169   0.029   5.402
 1168TIP3    H1 3468   3.135   0.058   5.486
 1168TIP3    H2 3469   3.132   0.090   5.339
 1169TIP3   OH2 3470   1.012   4.938   0.899
 1169TIP3    H1 3471   0.997   4.927   0.992
 1169TIP3    H2 3472   1.026   4.849   0.866
 1170TIP3   OH2 3473   2.858   6.361   2.348
 1170TIP3    H1 3474   2.846   6.325   2.436
 1170TIP3    H2 3475   2.950   6.389   2.345
 1171TIP3   OH2 3476   1.956   1.661   1.405
 1171TIP3    H1 3477   1.909   1.635   1.326
 1171TIP3    H2 3478   2.014   1.587   1.424
 1172TIP3   OH2 3479   5.717   0.140   1.846
 1172TIP3    H1 3480   5.703   0.060   1.898
 1172TIP3    H2 3481   5.780   0.114   1.779
 1173TIP3   OH2 3482   2.285   0.272   5.543
 1173TIP3    H1 3483   2.276   0.367   5.540
 1173TIP3    H2 3484   2.352   0.251   5.478
 1174TIP3   OH2 3485   5.700   6.522   2.723
 1174TIP3    H1 3486   5.768   6.584   2.747
 1174TIP3    H2 3487   5.674   6.482   2.805
 1175TIP3   OH2 3488   5.095   5.824   4.585
 1175TIP3    H1 3489   5.115   5.800   4.495
 1175TIP3    H2 3490   5.158   5.775   4.638
 1176TIP3   OH2 3491   6.161   3.076   0.374
 1176TIP3    H1 3492   6.163   3.096   0.467
 1176TIP3    H2 3493   6.253   3.083   0.346
 1177TIP3   OH2 3494   1.761   3.630   0.190
 1177TIP3    H1 3495   1.730   3.578   0.265
 1177TIP3    H2 3496   1.850   3.599   0.175
 1178TIP3   OH2 3497   5.510   4.463   5.255
 1178TIP3    H1 3498   5.568   4.531   5.291
 1178TIP3    H2 3499   5.533   4.459   5.162
 1179TIP3   OH2 3500   4.116   2.565   2.805
 1179TIP3    H1 3501   4.162   2.641   2.843
 1179TIP3    H2 3502   4.146   2.562   2.714
 1180TIP3   OH2 3503   0.360   6.415   3.412
 1180TIP3    H1 3504   0.435   6.441   3.360
 1180TIP3    H2 3505   0.285   6.453   3.367
 1181TIP3   OH2 3506   5.665   4.940   4.505
 1181TIP3    H1 3507   5.708   5.026   4.501
 1181TIP3    H2 3508   5.622   4.939   4.591
 1182TIP3   OH2 3509   1.514   4.555   4.864
 1182TIP3    H1 3510   1.542   4.572   4.774
 1182TIP3    H2 3511   1.420   4.539   4.857
 1183TIP3   OH2 3512   1.802   3.479   3.724
 1183TIP3    H1 3513   1.739   3.509   3.659
 1183TIP3    H2 3514   1.758   3.493   3.808
 1184TIP3   OH2 3515   4.385   4.740   4.896
 1184TIP3    H1 3516   4.421   4.700   4.975
 1184TIP3    H2 3517   4.314   4.683   4.870
 1185TIP3   OH2 3518   1.177   1.213   1.757
 1185TIP3    H1 3519   1.261   1.185   1.721
 1185TIP3    H2 3520   1.115   1.144   1.732
 1186TIP3   OH2 3521   6.923   2.690   0.067
 1186TIP3    H1 3522   6.910   2.754   0.137
 1186TIP3    H2 3523   6.963   2.614   0.110
 1187TIP3   OH2 3524   4.994   1.725   0.141
 1187TIP3    H1 3525   5.013   1.714   0.048
 1187TIP3    H2 3526   5.040   1.653   0.183
 1188TIP3   OH2 3527   6.153   6.036   0.403
 1188TIP3    H1 3528   6.146   6.052   0.309
 1188TIP3    H2 3529   6.179   6.120   0.440
 1189TIP3   OH2 3530   1.705   0.385   2.435
 1189TIP3    H1 3531   1.676   0.303   2.474
 1189TIP3    H2 3532   1.740   0.436   2.509
 1190TIP3   OH2 3533   0.276   5.472   3.255
 1190TIP3    H1 3534   0.198   5.464   3.309
 1190TIP3    H2 3535   0.348   5.476   3.318
 1191TIP3   OH2 3536   1.845   3.891   3.638
 1191TIP3    H1 3537   1.780   3.850   3.695
 1191TIP3    H2 3538   1.857   3.979   3.675
 1192TIP3   OH2 3539   4.911   1.506   3.516
 1192TIP3    H1 3540   4.856   1.486   3.440
 1192TIP3    H2 3541   4.851   1.543   3.580
 1193TIP3   OH2 3542   0.823   1.987   0.033
 1193TIP3    H1 3543   0.841   2.033   0.115
 1193TIP3    H2 3544   0.909   1.967  -0.003
 1194TIP3   OH2 3545   2.460   6.519   0.827
 1194TIP3    H1 3546   2.497   6.477   0.750
 1194TIP3    H2 3547   2.367   6.496   0.825
 1195TIP3   OH2 3548   6.694   1.233   1.570
 1195TIP3    H1 3549   6.756   1.213   1.500
 1195TIP3    H2 3550   6.672   1.149   1.608
 1196TIP3   OH2 3551   2.347   5.390   5.270
 1196TIP3    H1 3552   2.255   5.399   5.244
 1196TIP3    H2 3553   2.380   5.480   5.273
 1197TIP3   OH2 3554   2.999   2.543   1.237
 1197TIP3    H1 3555   3.066   2.479   1.211
 1197TIP3    H2 3556   2.929   2.490   1.273
 1198TIP3   OH2 3557   3.423   5.043   5.309
 1198TIP3    H1 3558   3.516   5.064   5.317
 1198TIP3    H2 3559   3.411   4.966   5.364
 1199TIP3   OH2 3560   1.873   3.309   1.747
 1199TIP3    H1 3561   1.936   3.361   1.698
 1199TIP3    H2 3562   1.888   3.332   1.839
 1200TIP3   OH2 3563   5.051   0.155   5.869
 1200TIP3    H1 3564   5.017   0.219   5.932
 1200TIP3    H2 3565   4.989   0.082   5.875
 1201TIP3   OH2 3566   5.924   1.789   5.820
 1201TIP3    H1 3567   5.893   1.708   5.858
 1201TIP3    H2 3568   6.011   1.768   5.786
 1202TIP3   OH2 3569   5.404   3.116   1.077
 1202TIP3    H1 3570   5.422   3.055   1.149
 1202TIP3    H2 3571   5.471   3.184   1.086
 1203TIP3   OH2 3572   3.566   1.015   2.075
 1203TIP3    H1 3573   3.637   1.079   2.081
 1203TIP3    H2 3574   3.564   0.974   2.161
 1204TIP3   OH2 3575   1.710   0.982   2.361
 1204TIP3    H1 3576   1.685   1.057   2.306
 1204TIP3    H2 3577   1.632   0.963   2.413
 1205TIP3   OH2 3578   1.960   4.852   5.666
 1205TIP3    H1 3579   1.937   4.764   5.697
 1205TIP3    H2 3580   2.022   4.837   5.594
 1206TIP3   OH2 3581   1.301   6.212   2.514
 1206TIP3    H1 3582   1.316   6.306   2.520
 1206TIP3    H2 3583   1.378   6.178   2.468
 1207TIP3   OH2 3584   1.397   2.546   3.562
 1207TIP3    H1 3585   1.303   2.537   3.573
 1207TIP3    H2 3586   1.427   2.587   3.643
 1208TIP3   OH2 3587   5.954   1.821   1.516
 1208TIP3    H1 3588   6.008   1.898   1.501
 1208TIP3    H2 3589   5.873   1.839   1.468
 1209TIP3   OH2 3590   4.164   6.089   3.222
 1209TIP3    H1 3591   4.222   6.015   3.237
 1209TIP3    H2 3592   4.160   6.135   3.306
 1210TIP3   OH2 3593   2.740   2.448   1.608
 1210TIP3    H1 3594   2.774   2.420   1.523
 1210TIP3    H2 3595   2.657   2.491   1.589
 1211TIP3   OH2 3596   6.126   6.623   1.290
 1211TIP3    H1 3597   6.079   6.599   1.370
 1211TIP3    H2 3598   6.058   6.639   1.225
 1212TIP3   OH2 3599   5.199   6.219   3.744
 1212TIP3    H1 3600   5.269   6.271   3.783
 1212TIP3    H2 3601   5.131   6.217   3.811
 1213TIP3   OH2 3602   4.670   6.266   2.719
 1213TIP3    H1 3603   4.685   6.216   2.639
 1213TIP3    H2 3604   4.731   6.340   2.714
 1214TIP3   OH2 3605   0.433   0.617   4.737
 1214TIP3    H1 3606   0.339   0.614   4.724
 1214TIP3    H2 3607   0.471   0.600   4.650
 1215TIP3   OH2 3608   3.228   6.334   0.720
 1215TIP3    H1 3609   3.296   6.335   0.652
 1215TIP3    H2 3610   3.272   6.367   0.798
 1216TIP3   OH2 3611   2.983   4.422   1.469
 1216TIP3    H1 3612   2.911   4.383   1.421
 1216TIP3    H2 3613   3.062   4.396   1.421
 1217TIP3   OH2 3614   2.081   0.617   2.455
 1217TIP3    H1 3615   2.150   0.552   2.452
 1217TIP3    H2 3616   2.048   0.622   2.365
 1218TIP3   OH2 3617   2.338   3.992   2.634
 1218TIP3    H1 3618   2.384   4.021   2.713
 1218TIP3    H2 3619   2.268   4.057   2.622
 1219TIP3   OH2 3620   3.285   0.306   3.295
 1219TIP3    H1 3621   3.313   0.322   3.385
 1219TIP3    H2 3622   3.335   0.368   3.242
 1220TIP3   OH2 3623   3.891   5.889   5.003
 1220TIP3    H1 3624   3.800   5.917   4.994
 1220TIP3    H2 3625   3.888   5.819   5.068
 1221TIP3   OH2 3626   5.193   2.157   3.617
 1221TIP3    H1 3627   5.279   2.143   3.656
 1221TIP3    H2 3628   5.195   2.248   3.588
 1222TIP3   OH2 3629   4.516   2.841   1.661
 1222TIP3    H1 3630   4.497   2.880   1.575
 1222TIP3    H2 3631   4.524   2.916   1.720
 1223TIP3   OH2 3632   4.860   0.399   5.707
 1223TIP3    H1 3633   4.773   0.406   5.745
 1223TIP3    H2 3634   4.919   0.426   5.777
 1224TIP3   OH2 3635   1.993   5.401   3.521
 1224TIP3    H1 3636   1.986   5.307   3.509
 1224TIP3    H2 3637   1.978   5.438   3.433
 1225TIP3   OH2 3638   4.139   3.043   1.166
 1225TIP3    H1 3639   4.180   2.991   1.097
 1225TIP3    H2 3640   4.086   2.980   1.215
 1226TIP3   OH2 3641   5.149   2.008   2.093
 1226TIP3    H1 3642   5.062   2.047   2.094
 1226TIP3    H2 3643   5.134   1.917   2.067
 1227TIP3   OH2 3644   2.085   0.778   5.655
 1227TIP3    H1 3645   2.129   0.852   5.698
 1227TIP3    H2 3646   2.007   0.762   5.708
 1228TIP3   OH2 3647   1.892   0.404   4.170
 1228TIP3    H1 3648   1.913   0.414   4.263
 1228TIP3    H2 3649   1.810   0.451   4.158
 1229TIP3   OH2 3650   2.262   5.312   1.384
 1229TIP3    H1 3651   2.199   5.373   1.423
 1229TIP3    H2 3652   2.221   5.226   1.393
 1230TIP3   OH2 3653   5.461   2.967   5.497
 1230TIP3    H1 3654   5.495   2.922   5.420
 1230TIP3    H2 3655   5.479   3.059   5.481
 1231TIP3   OH2 3656   6.442   1.135   3.502
 1231TIP3    H1 3657   6.379   1.187   3.553
 1231TIP3    H2 3658   6.404   1.047   3.499
 1232TIP3   OH2 3659   3.004   1.117   2.692
 1232TIP3    H1 3660   2.913   1.086   2.684
 1232TIP3    H2 3661   3.051   1.044   2.730
 1233TIP3   OH2 3662   1.837   4.788   4.414
 1233TIP3    H1 3663   1.920   4.740   4.418
 1233TIP3    H2 3664   1.861   4.871   4.372
 1234TIP3   OH2 3665   3.390   5.722   1.103
 1234TIP3    H1 3666   3.390   5.632   1.072
 1234TIP3    H2 3667   3.434   5.772   1.034
 1235TIP3   OH2 3668   6.528   6.335   0.432
 1235TIP3    H1 3669   6.554   6.341   0.524
 1235TIP3    H2 3670   6.465   6.263   0.429
 1236TIP3   OH2 3671   6.886   1.611   5.550
 1236TIP3    H1 3672   6.817   1.604   5.484
 1236TIP3    H2 3673   6.966   1.585   5.503
 1237TIP3   OH2 3674   4.702   3.479   1.219
 1237TIP3    H1 3675   4.642   3.410   1.245
 1237TIP3    H2 3676   4.693   3.485   1.124
 1238TIP3   OH2 3677   2.123   1.584   5.654
 1238TIP3    H1 3678   2.132   1.671   5.693
 1238TIP3    H2 3679   2.185   1.530   5.703
 1239TIP3   OH2 3680   2.989   2.716   2.352
 1239TIP3    H1 3681   2.998   2.755   2.265
 1239TIP3    H2 3682   3.066   2.747   2.400
 1240TIP3   OH2 3683   4.429   5.466   1.589
 1240TIP3    H1 3684   4.374   5.518   1.530
 1240TIP3    H2 3685   4.456   5.528   1.657
 1241TIP3   OH2 3686   4.728   4.372   5.678
 1241TIP3    H1 3687   4.792   4.302   5.689
 1241TIP3    H2 3688   4.714   4.405   5.767
 1242TIP3   OH2 3689   1.067   3.414   2.946
 1242TIP3    H1 3690   1.032   3.434   3.033
 1242TIP3    H2 3691   1.160   3.394   2.962
 1243TIP3   OH2 3692   5.811   3.032   2.605
 1243TIP3    H1 3693   5.720   3.051   2.580
 1243TIP3    H2 3694   5.830   3.097   2.673
 1244TIP3   OH2 3695   0.128   0.652   2.701
 1244TIP3    H1 3696   0.090   0.629   2.616
 1244TIP3    H2 3697   0.109   0.576   2.757
 1245TIP3   OH2 3698   6.589   5.006   4.982
 1245TIP3    H1 3699   6.633   4.922   4.971
 1245TIP3    H2 3700   6.533   5.015   4.905
 1246TIP3   OH2 3701   4.708   3.939   0.976
 1246TIP3    H1 3702   4.641   3.964   1.039
 1246TIP3    H2 3703   4.662   3.937   0.892
 1247TIP3   OH2 3704   5.932   0.310   1.353
 1247TIP3    H1 3705   5.857   0.283   1.407
 1247TIP3    H2 3706   5.978   0.376   1.406
 1248TIP3   OH2 3707   2.607   3.223   3.075
 1248TIP3    H1 3708   2.550   3.181   3.139
 1248TIP3    H2 3709   2.661   3.283   3.126
 1249TIP3   OH2 3710   5.608   2.657   1.432
 1249TIP3    H1 3711   5.664   2.594   1.476
 1249TIP3    H2 3712   5.564   2.606   1.363
 1250TIP3   OH2 3713   2.415   0.776   3.072
 1250TIP3    H1 3714   2.395   0.724   3.150
 1250TIP3    H2 3715   2.440   0.711   3.006
 1251TIP3   OH2 3716   3.191   0.847   4.538
 1251TIP3    H1 3717   3.188   0.943   4.534
 1251TIP3    H2 3718   3.164   0.818   4.451
 1252TIP3   OH2 3719   1.969   2.520   3.118
 1252TIP3    H1 3720   2.010   2.547   3.036
 1252TIP3    H2 3721   1.891   2.574   3.125
 1253TIP3   OH2 3722   1.793   0.954   5.334
 1253TIP3    H1 3723   1.813   0.937   5.242
 1253TIP3    H2 3724   1.876   0.983   5.372
 1254TIP3   OH2 3725   1.817   4.151   0.940
 1254TIP3    H1 3726   1.866   4.163   1.022
 1254TIP3    H2 3727   1.791   4.059   0.941
 1255TIP3   OH2 3728   3.656   4.958   2.594
 1255TIP3    H1 3729   3.653   5.053   2.581
 1255TIP3    H2 3730   3.574   4.926   2.558
 1256TIP3   OH2 3731   2.328   3.075   0.326
 1256TIP3    H1 3732   2.373   2.995   0.352
 1256TIP3    H2 3733   2.252   3.045   0.276
 1257TIP3   OH2 3734   4.869   6.812   0.043
 1257TIP3    H1 3735   4.842   6.734   0.092
 1257TIP3    H2 3736   4.965   6.810   0.046
 1258TIP3   OH2 3737   2.863   0.993   0.389
 1258TIP3    H1 3738   2.834   1.068   0.337
 1258TIP3    H2 3739   2.950   1.018   0.421
 1259TIP3   OH2 3740   1.309   5.018   2.746
 1259TIP3    H1 3741   1.395   5.055   2.728
 1259TIP3    H2 3742   1.311   4.931   2.706
 1260TIP3   OH2 3743   0.323   4.880   1.846
 1260TIP3    H1 3744   0.381   4.821   1.895
 1260TIP3    H2 3745   0.298   4.947   1.909
 1261TIP3   OH2 3746   5.072   1.517   1.888
 1261TIP3    H1 3747   5.065   1.500   1.794
 1261TIP3    H2 3748   5.032   1.440   1.929
 1262TIP3   OH2 3749   2.235   2.574   2.351
 1262TIP3    H1 3750   2.283   2.504   2.306
 1262TIP3    H2 3751   2.199   2.532   2.429
 1263TIP3   OH2 3752   6.018   5.954   2.085
 1263TIP3    H1 3753   6.073   5.979   2.011
 1263TIP3    H2 3754   5.976   6.035   2.113
 1264TIP3   OH2 3755   6.403   1.497   5.408
 1264TIP3    H1 3756   6.491   1.525   5.384
 1264TIP3    H2 3757   6.393   1.411   5.368
 1265TIP3   OH2 3758   7.169   2.923   3.109
 1265TIP3    H1 3759   7.122   2.849   3.148
 1265TIP3    H2 3760   7.103   2.968   3.057
 1266TIP3   OH2 3761   1.079   5.878   0.881
 1266TIP3    H1 3762   1.033   5.846   0.959
 1266TIP3    H2 3763   1.061   5.972   0.880
 1267TIP3   OH2 3764   4.268   1.161   3.143
 1267TIP3    H1 3765   4.352   1.207   3.145
 1267TIP3    H2 3766   4.202   1.230   3.157
 1268TIP3   OH2 3767   0.224   2.720   5.070
 1268TIP3    H1 3768   0.184   2.753   4.990
 1268TIP3    H2 3769   0.156   2.728   5.137
 1269TIP3   OH2 3770   3.514   1.291   3.703
 1269TIP3    H1 3771   3.579   1.362   3.696
 1269TIP3    H2 3772   3.564   1.212   3.685
 1270TIP3   OH2 3773   5.995   0.049   3.750
 1270TIP3    H1 3774   5.975   0.008   3.834
 1270TIP3    H2 3775   5.943   0.130   3.750
 1271TIP3   OH2 3776   2.093   4.482   1.159
 1271TIP3    H1 3777   2.099   4.415   1.227
 1271TIP3    H2 3778   2.180   4.483   1.118
 1272TIP3   OH2 3779   6.571   6.836   4.196
 1272TIP3    H1 3780   6.521   6.808   4.272
 1272TIP3    H2 3781   6.647   6.881   4.232
 1273TIP3   OH2 3782   2.660   4.884   5.299
 1273TIP3    H1 3783   2.676   4.978   5.306
 1273TIP3    H2 3784   2.601   4.864   5.372
 1274TIP3   OH2 3785   6.518   3.854   3.732
 1274TIP3    H1 3786   6.528   3.759   3.733
 1274TIP3    H2 3787   6.466   3.873   3.811
 1275TIP3   OH2 3788   3.835   4.304   0.524
 1275TIP3    H1 3789   3.784   4.281   0.601
 1275TIP3    H2 3790   3.799   4.250   0.454
 1276TIP3   OH2 3791   7.050   0.861   1.060
 1276TIP3    H1 3792   7.124   0.826   1.009
 1276TIP3    H2 3793   7.023   0.939   1.012
 1277TIP3   OH2 3794   0.564   5.386   1.892
 1277TIP3    H1 3795   0.608   5.426   1.816
 1277TIP3    H2 3796   0.631   5.383   1.960
 1278TIP3   OH2 3797   5.192   2.538   0.673
 1278TIP3    H1 3798   5.190   2.510   0.765
 1278TIP3    H2 3799   5.222   2.460   0.626
 1279TIP3   OH2 3800   2.201   3.120   3.386
 1279TIP3    H1 3801   2.160   3.176   3.320
 1279TIP3    H2 3802   2.260   3.178   3.434
 1280TIP3   OH2 3803   6.515   4.363   3.523
 1280TIP3    H1 3804   6.440   4.351   3.582
 1280TIP3    H2 3805   6.549   4.450   3.544
 1281TIP3   OH2 3806   0.374   5.510   5.239
 1281TIP3    H1 3807   0.371   5.441   5.172
 1281TIP3    H2 3808   0.404   5.465   5.318
 1282TIP3   OH2 3809   1.204   4.204   0.731
 1282TIP3    H1 3810   1.190   4.111   0.749
 1282TIP3    H2 3811   1.290   4.223   0.769
 1283TIP3   OH2 3812   3.067   0.213   5.568
 1283TIP3    H1 3813   3.118   0.289   5.596
 1283TIP3    H2 3814   3.016   0.244   5.493
 1284TIP3   OH2 3815   0.995   2.968   1.339
 1284TIP3    H1 3816   0.910   3.012   1.339
 1284TIP3    H2 3817   0.980   2.888   1.288
 1285TIP3   OH2 3818   6.909   1.573   1.063
 1285TIP3    H1 3819   6.992   1.621   1.073
 1285TIP3    H2 3820   6.843   1.633   1.097
 1286TIP3   OH2 3821   2.462   3.680   1.208
 1286TIP3    H1 3822   2.537   3.668   1.267
 1286TIP3    H2 3823   2.493   3.648   1.124
 1287TIP3   OH2 3824   0.759   4.741   5.302
 1287TIP3    H1 3825   0.790   4.667   5.250
 1287TIP3    H2 3826   0.675   4.764   5.263
 1288TIP3   OH2 3827   4.070   5.348   2.093
 1288TIP3    H1 3828   4.037   5.382   2.177
 1288TIP3    H2 3829   4.037   5.410   2.028
 1289TIP3   OH2 3830   2.020   0.203   1.005
 1289TIP3    H1 3831   1.966   0.125   0.995
 1289TIP3    H2 3832   1.961   0.271   1.037
 1290TIP3   OH2 3833   2.047   0.715   5.263
 1290TIP3    H1 3834   2.035   0.785   5.327
 1290TIP3    H2 3835   2.141   0.715   5.245
 1291TIP3   OH2 3836   6.773   4.963   5.363
 1291TIP3    H1 3837   6.776   5.018   5.285
 1291TIP3    H2 3838   6.696   4.993   5.411
 1292TIP3   OH2 3839   2.302   2.020   2.147
 1292TIP3    H1 3840   2.232   1.966   2.110
 1292TIP3    H2 3841   2.383   1.973   2.126
 1293TIP3   OH2 3842   2.937   1.448   2.985
 1293TIP3    H1 3843   2.863   1.392   2.965
 1293TIP3    H2 3844   3.010   1.411   2.936
 1294TIP3   OH2 3845   4.727   2.118   0.025
 1294TIP3    H1 3846   4.725   2.022   0.021
 1294TIP3    H2 3847   4.686   2.139   0.110
 1295TIP3   OH2 3848   6.047   2.194   5.079
 1295TIP3    H1 3849   6.129   2.183   5.127
 1295TIP3    H2 3850   5.980   2.199   5.148
 1296TIP3   OH2 3851   5.163   5.608   2.664
 1296TIP3    H1 3852   5.090   5.670   2.660
 1296TIP3    H2 3853   5.140   5.550   2.737
 1297TIP3   OH2 3854   3.748   4.947   0.613
 1297TIP3    H1 3855   3.663   4.906   0.597
 1297TIP3    H2 3856   3.752   4.959   0.708
 1298TIP3   OH2 3857   0.102   3.782   4.976
 1298TIP3    H1 3858   0.012   3.808   4.960
 1298TIP3    H2 3859   0.114   3.792   5.070
 1299TIP3   OH2 3860   1.121   6.731   0.043
 1299TIP3    H1 3861   1.128   6.675   0.119
 1299TIP3    H2 3862   1.125   6.820   0.078
 1300TIP3   OH2 3863   3.402   0.058   4.223
 1300TIP3    H1 3864   3.394   0.102   4.139
 1300TIP3    H2 3865   3.388   0.126   4.288
 1301TIP3   OH2 3866   3.116   3.888   4.589
 1301TIP3    H1 3867   3.041   3.885   4.649
 1301TIP3    H2 3868   3.090   3.950   4.522
 1302TIP3   OH2 3869   1.350   1.691   1.076
 1302TIP3    H1 3870   1.353   1.610   1.127
 1302TIP3    H2 3871   1.398   1.670   0.995
 1303TIP3   OH2 3872   6.221   0.950   2.008
 1303TIP3    H1 3873   6.311   0.954   2.040
 1303TIP3    H2 3874   6.221   1.004   1.930
 1304TIP3   OH2 3875   2.992   2.626   5.720
 1304TIP3    H1 3876   2.913   2.630   5.773
 1304TIP3    H2 3877   3.049   2.694   5.756
 1305TIP3   OH2 3878   6.043   3.308   3.265
 1305TIP3    H1 3879   5.956   3.271   3.249
 1305TIP3    H2 3880   6.059   3.292   3.358
 1306TIP3   OH2 3881   0.747   4.155   5.026
 1306TIP3    H1 3882   0.839   4.182   5.024
 1306TIP3    H2 3883   0.725   4.150   5.119
 1307TIP3   OH2 3884   6.079   0.546   1.253
 1307TIP3    H1 3885   6.163   0.524   1.292
 1307TIP3    H2 3886   6.049   0.463   1.214
 1308TIP3   OH2 3887   6.102   1.380   2.395
 1308TIP3    H1 3888   6.022   1.369   2.345
 1308TIP3    H2 3889   6.170   1.394   2.329
 1309TIP3   OH2 3890   3.536   6.746   0.131
 1309TIP3    H1 3891   3.591   6.758   0.209
 1309TIP3    H2 3892   3.447   6.757   0.164
 1310TIP3   OH2 3893   2.591   5.298   2.589
 1310TIP3    H1 3894   2.670   5.291   2.643
 1310TIP3    H2 3895   2.620   5.345   2.511
 1311TIP3   OH2 3896   3.637   2.465   5.223
 1311TIP3    H1 3897   3.552   2.505   5.204
 1311TIP3    H2 3898   3.618   2.394   5.283
 1312TIP3   OH2 3899   5.828   2.176   1.885
 1312TIP3    H1 3900   5.884   2.230   1.941
 1312TIP3    H2 3901   5.884   2.155   1.810
 1313TIP3   OH2 3902   2.951   3.279   4.837
 1313TIP3    H1 3903   2.950   3.228   4.918
 1313TIP3    H2 3904   2.992   3.362   4.861
 1314TIP3   OH2 3905   4.106   3.218   3.227
 1314TIP3    H1 3906   4.101   3.131   3.266
 1314TIP3    H2 3907   4.193   3.221   3.187
 1315TIP3   OH2 3908   0.523   3.836   5.577
 1315TIP3    H1 3909   0.582   3.852   5.651
 1315TIP3    H2 3910   0.452   3.899   5.590
 1316TIP3   OH2 3911   2.359   6.100   4.645
 1316TIP3    H1 3912   2.441   6.079   4.599
 1316TIP3    H2 3913   2.309   6.019   4.642
 1317TIP3   OH2 3914   0.127   4.455   2.230
 1317TIP3    H1 3915   0.077   4.407   2.296
 1317TIP3    H2 3916   0.175   4.521   2.281
 1318TIP3   OH2 3917   1.664  -0.045   4.497
 1318TIP3    H1 3918   1.725  -0.076   4.564
 1318TIP3    H2 3919   1.647   0.046   4.520
 1319TIP3   OH2 3920   0.124   2.839   1.195
 1319TIP3    H1 3921   0.180   2.778   1.243
 1319TIP3    H2 3922   0.103   2.794   1.114
 1320TIP3   OH2 3923   2.833   1.450   0.287
 1320TIP3    H1 3924   2.878   1.434   0.370
 1320TIP3    H2 3925   2.904   1.458   0.223
 1321TIP3   OH2 3926   0.860   5.934   1.658
 1321TIP3    H1 3927   0.894   5.939   1.569
 1321TIP3    H2 3928   0.799   6.008   1.664
 1322TIP3   OH2 3929   4.531   4.099   1.436
 1322TIP3    H1 3930   4.469   4.086   1.364
 1322TIP3    H2 3931   4.542   4.194   1.441
 1323TIP3   OH2 3932   3.265   5.392   2.504
 1323TIP3    H1 3933   3.319   5.442   2.566
 1323TIP3    H2 3934   3.326   5.328   2.468
 1324TIP3   OH2 3935   2.260   3.712   1.439
 1324TIP3    H1 3936   2.266   3.719   1.344
 1324TIP3    H2 3937   2.351   3.704   1.469
 1325TIP3   OH2 3938   5.796   6.713   0.687
 1325TIP3    H1 3939   5.855   6.768   0.636
 1325TIP3    H2 3940   5.740   6.672   0.621
 1326TIP3   OH2 3941   3.252   6.793   0.220
 1326TIP3    H1 3942   3.243   6.735   0.296
 1326TIP3    H2 3943   3.163   6.808   0.190
 1327TIP3   OH2 3944   1.459   0.815   4.312
 1327TIP3    H1 3945   1.443   0.859   4.396
 1327TIP3    H2 3946   1.522   0.872   4.267
 1328TIP3   OH2 3947   5.832   2.662   2.860
 1328TIP3    H1 3948   5.818   2.640   2.952
 1328TIP3    H2 3949   5.818   2.580   2.813
 1329TIP3   OH2 3950   6.852   0.373   5.307
 1329TIP3    H1 3951   6.944   0.394   5.319
 1329TIP3    H2 3952   6.842   0.362   5.212
 1330TIP3   OH2 3953   2.418   6.800   2.052
 1330TIP3    H1 3954   2.510   6.826   2.059
 1330TIP3    H2 3955   2.396   6.769   2.140
 1331TIP3   OH2 3956   1.391   6.631   4.166
 1331TIP3    H1 3957   1.358   6.569   4.230
 1331TIP3    H2 3958   1.317   6.646   4.107
 1332TIP3   OH2 3959   3.983   4.585   1.206
 1332TIP3    H1 3960   3.972   4.604   1.300
 1332TIP3    H2 3961   4.028   4.501   1.203
 1333TIP3   OH2 3962   5.201   3.268   5.646
 1333TIP3    H1 3963   5.163   3.186   5.680
 1333TIP3    H2 3964   5.176   3.334   5.711
 1334TIP3   OH2 3965   2.894   2.918   3.274
 1334TIP3    H1 3966   2.864   2.994   3.323
 1334TIP3    H2 3967   2.942   2.955   3.200
 1335TIP3   OH2 3968   0.888   1.559   0.708
 1335TIP3    H1 3969   0.804   1.518   0.725
 1335TIP3    H2 3970   0.869   1.627   0.643
 1336TIP3   OH2 3971   1.432   3.819   2.315
 1336TIP3    H1 3972   1.523   3.844   2.301
 1336TIP3    H2 3973   1.385   3.902   2.319
 1337TIP3   OH2 3974   0.611   4.328   1.270
 1337TIP3    H1 3975   0.521   4.356   1.287
 1337TIP3    H2 3976   0.603   4.238   1.238
 1338TIP3   OH2 3977   2.611   5.864   4.071
 1338TIP3    H1 3978   2.674   5.936   4.061
 1338TIP3    H2 3979   2.588   5.840   3.981
 1339TIP3   OH2 3980   1.085   5.638   2.928
 1339TIP3    H1 3981   1.157   5.615   2.987
 1339TIP3    H2 3982   1.036   5.556   2.918
 1340TIP3   OH2 3983   0.346   1.703   3.521
 1340TIP3    H1 3984   0.418   1.758   3.553
 1340TIP3    H2 3985   0.386   1.617   3.509
 1341TIP3   OH2 3986   1.605   2.358   2.776
 1341TIP3    H1 3987   1.648   2.277   2.805
 1341TIP3    H2 3988   1.574   2.399   2.857
 1342TIP3   OH2 3989   7.002   6.448   2.753
 1342TIP3    H1 3990   6.990   6.438   2.658
 1342TIP3    H2 3991   7.073   6.388   2.774
 1343TIP3   OH2 3992   5.663   0.631   1.658
 1343TIP3    H1 3993   5.578   0.657   1.622
 1343TIP3    H2 3994   5.680   0.696   1.727
 1344TIP3   OH2 3995   4.617   3.515   1.847
 1344TIP3    H1 3996   4.609   3.578   1.775
 1344TIP3    H2 3997   4.655   3.566   1.919
 1345TIP3   OH2 3998   1.501   4.384   3.940
 1345TIP3    H1 3999   1.587   4.419   3.960
 1345TIP3    H2 4000   1.478   4.423   3.855
 1346TIP3   OH2 4001   6.762   0.416   5.653
 1346TIP3    H1 4002   6.804   0.345   5.702
 1346TIP3    H2 4003   6.764   0.386   5.562
 1347TIP3   OH2 4004   2.989   6.765   1.635
 1347TIP3    H1 4005   3.071   6.771   1.586
 1347TIP3    H2 4006   2.940   6.695   1.591
 1348TIP3   OH2 4007   3.845   4.310   4.395
 1348TIP3    H1 4008   3.872   4.401   4.409
 1348TIP3    H2 4009   3.907   4.258   4.446
 1349TIP3   OH2 4010   2.601   4.902   2.709
 1349TIP3    H1 4011   2.612   4.977   2.651
 1349TIP3    H2 4012   2.514   4.868   2.687
 1350TIP3   OH2 4013   2.126   2.166   3.223
 1350TIP3    H1 4014   2.093   2.089   3.176
 1350TIP3    H2 4015   2.160   2.223   3.154
 1351TIP3   OH2 4016   0.904   3.741   5.179
 1351TIP3    H1 4017   0.876   3.814   5.234
 1351TIP3    H2 4018   0.834   3.732   5.114
 1352TIP3   OH2 4019   4.418   0.940   1.844
 1352TIP3    H1 4020   4.454   0.856   1.817
 1352TIP3    H2 4021   4.344   0.954   1.784
 1353TIP3   OH2 4022   1.774   5.063   5.340
 1353TIP3    H1 4023   1.728   5.025   5.415
 1353TIP3    H2 4024   1.761   5.000   5.270
 1354TIP3   OH2 4025   6.458   0.088   1.365
 1354TIP3    H1 4026   6.466   0.021   1.433
 1354TIP3    H2 4027   6.424   0.041   1.289
 1355TIP3   OH2 4028   3.935   1.737   2.149
 1355TIP3    H1 4029   3.932   1.652   2.106
 1355TIP3    H2 4030   3.846   1.752   2.181
 1356TIP3   OH2 4031   3.329   5.329   2.888
 1356TIP3    H1 4032   3.309   5.261   2.824
 1356TIP3    H2 4033   3.346   5.281   2.969
 1357TIP3   OH2 4034   1.613   1.983   4.810
 1357TIP3    H1 4035   1.565   1.994   4.729
 1357TIP3    H2 4036   1.704   2.001   4.786
 1358TIP3   OH2 4037   0.003   4.959   3.120
 1358TIP3    H1 4038  -0.061   4.937   3.187
 1358TIP3    H2 4039   0.017   5.053   3.130
 1359TIP3   OH2 4040   3.174   3.172   2.157
 1359TIP3    H1 4041   3.105   3.128   2.207
 1359TIP3    H2 4042   3.253   3.161   2.210
 1360TIP3   OH2 4043   3.002   1.825   3.179
 1360TIP3    H1 4044   3.014   1.825   3.273
 1360TIP3    H2 4045   2.924   1.771   3.165
 1361TIP3   OH2 4046   4.342   1.726   3.101
 1361TIP3    H1 4047   4.376   1.664   3.166
 1361TIP3    H2 4048   4.249   1.732   3.121
 1362TIP3   OH2 4049   3.187   3.492   4.665
 1362TIP3    H1 4050   3.187   3.405   4.626
 1362TIP3    H2 4051   3.196   3.477   4.759
 1363TIP3   OH2 4052   1.928   0.021   3.564
 1363TIP3    H1 4053   1.886   0.101   3.531
 1363TIP3    H2 4054   1.886   0.005   3.648
 1364TIP3   OH2 4055   1.027   3.707   4.503
 1364TIP3    H1 4056   0.947   3.705   4.555
 1364TIP3    H2 4057   1.048   3.800   4.495
 1365TIP3   OH2 4058   1.452   1.830   1.356
 1365TIP3    H1 4059   1.519   1.879   1.403
 1365TIP3    H2 4060   1.449   1.871   1.269
 1366TIP3   OH2 4061   7.129   6.719   4.794
 1366TIP3    H1 4062   7.173   6.735   4.710
 1366TIP3    H2 4063   7.126   6.805   4.836
 1367TIP3   OH2 4064   5.101   0.247   3.956
 1367TIP3    H1 4065   5.150   0.215   3.880
 1367TIP3    H2 4066   5.085   0.169   4.008
 1368TIP3   OH2 4067   2.180   6.519   0.872
 1368TIP3    H1 4068   2.099   6.468   0.870
 1368TIP3    H2 4069   2.160   6.598   0.822
 1369TIP3   OH2 4070   2.332   4.696   1.180
 1369TIP3    H1 4071   2.427   4.688   1.195
 1369TIP3    H2 4072   2.315   4.642   1.104
 1370TIP3   OH2 4073   1.358   2.579   2.738
 1370TIP3    H1 4074   1.419   2.592   2.666
 1370TIP3    H2 4075   1.362   2.485   2.757
 1371TIP3   OH2 4076   6.273   1.556   3.150
 1371TIP3    H1 4077   6.368   1.561   3.166
 1371TIP3    H2 4078   6.262   1.584   3.060
 1372TIP3   OH2 4079   4.850   2.481   1.438
 1372TIP3    H1 4080   4.792   2.413   1.471
 1372TIP3    H2 4081   4.929   2.474   1.493
 1373TIP3   OH2 4082   0.744   1.116   5.556
 1373TIP3    H1 4083   0.721   1.209   5.559
 1373TIP3    H2 4084   0.801   1.108   5.479
 1374TIP3   OH2 4085   6.524   2.923   5.664
 1374TIP3    H1 4086   6.547   3.010   5.696
 1374TIP3    H2 4087   6.608   2.879   5.652
 1375TIP3   OH2 4088   0.735   3.964   0.585
 1375TIP3    H1 4089   0.828   3.949   0.570
 1375TIP3    H2 4090   0.705   3.887   0.633
 1376TIP3   OH2 4091   3.449   1.154   4.485
 1376TIP3    H1 4092   3.473   1.067   4.453
 1376TIP3    H2 4093   3.358   1.165   4.459
 1377TIP3   OH2 4094   3.623   6.596   3.379
 1377TIP3    H1 4095   3.603   6.669   3.321
 1377TIP3    H2 4096   3.678   6.635   3.448
 1378TIP3   OH2 4097   6.633   1.220   1.884
 1378TIP3    H1 4098   6.605   1.311   1.893
 1378TIP3    H2 4099   6.726   1.226   1.863
 1379TIP3   OH2 4100   6.780   0.144   0.515
 1379TIP3    H1 4101   6.854   0.085   0.500
 1379TIP3    H2 4102   6.775   0.198   0.437
 1380TIP3   OH2 4103   6.919   3.949   3.894
 1380TIP3    H1 4104   6.919   3.954   3.798
 1380TIP3    H2 4105   6.964   4.028   3.922
 1381TIP3   OH2 4106   4.709   2.724   3.330
 1381TIP3    H1 4107   4.785   2.667   3.338
 1381TIP3    H2 4108   4.745   2.810   3.307
 1382TIP3   OH2 4109   5.357   1.492   2.859
 1382TIP3    H1 4110   5.287   1.533   2.909
 1382TIP3    H2 4111   5.436   1.541   2.884
 1383TIP3   OH2 4112   3.305   6.405   2.522
 1383TIP3    H1 4113   3.357   6.457   2.583
 1383TIP3    H2 4114   3.362   6.390   2.447
 1384TIP3   OH2 4115   2.217   4.285   5.433
 1384TIP3    H1 4116   2.259   4.362   5.395
 1384TIP3    H2 4117   2.185   4.315   5.518
 1385TIP3   OH2 4118   1.782   4.662   1.613
 1385TIP3    H1 4119   1.734   4.632   1.691
 1385TIP3    H2 4120   1.839   4.588   1.591
 1386TIP3   OH2 4121   3.932   1.143   1.320
 1386TIP3    H1 4122   3.866   1.105   1.262
 1386TIP3    H2 4123   3.947   1.230   1.285
 1387TIP3   OH2 4124   7.076   2.018   2.692
 1387TIP3    H1 4125   7.047   2.019   2.783
 1387TIP3    H2 4126   7.062   2.107   2.661
 1388TIP3   OH2 4127   2.246   0.503   4.664
 1388TIP3    H1 4128   2.263   0.573   4.601
 1388TIP3    H2 4129   2.325   0.449   4.662
 1389TIP3   OH2 4130   3.067   3.598   0.992
 1389TIP3    H1 4131   3.153   3.566   1.018
 1389TIP3    H2 4132   3.029   3.634   1.072
 1390TIP3   OH2 4133   3.664   5.376   2.822
 1390TIP3    H1 4134   3.685   5.435   2.895
 1390TIP3    H2 4135   3.588   5.326   2.853
 1391TIP3   OH2 4136   4.485   3.528   1.447
 1391TIP3    H1 4137   4.473   3.457   1.510
 1391TIP3    H2 4138   4.473   3.486   1.361
 1392TIP3   OH2 4139   1.338   3.828   0.245
 1392TIP3    H1 4140   1.281   3.806   0.318
 1392TIP3    H2 4141   1.336   3.750   0.188
 1393TIP3   OH2 4142   2.570   5.271   4.499
 1393TIP3    H1 4143   2.589   5.267   4.405
 1393TIP3    H2 4144   2.629   5.338   4.532
 1394TIP3   OH2 4145   6.092   2.725   3.150
 1394TIP3    H1 4146   6.093   2.821   3.147
 1394TIP3    H2 4147   6.033   2.704   3.222
 1395TIP3   OH2 4148   7.183   2.504   3.559
 1395TIP3    H1 4149   7.112   2.551   3.603
 1395TIP3    H2 4150   7.190   2.421   3.607
 1396TIP3   OH2 4151   7.077   1.605   4.121
 1396TIP3    H1 4152   7.079   1.646   4.035
 1396TIP3    H2 4153   7.003   1.544   4.117
 1397TIP3   OH2 4154   6.924   1.034   0.511
 1397TIP3    H1 4155   6.977   1.111   0.529
 1397TIP3    H2 4156   6.975   0.986   0.445
 1398TIP3   OH2 4157   7.124   3.106   2.186
 1398TIP3    H1 4158   7.129   3.022   2.140
 1398TIP3    H2 4159   7.143   3.171   2.118
 1399TIP3   OH2 4160   3.414   3.655   1.275
 1399TIP3    H1 4161   3.507   3.633   1.279
 1399TIP3    H2 4162   3.400   3.712   1.351
 1400TIP3   OH2 4163   4.642   4.877   3.900
 1400TIP3    H1 4164   4.615   4.832   3.820
 1400TIP3    H2 4165   4.632   4.970   3.881
 1401TIP3   OH2 4166   5.401   3.325   3.155
 1401TIP3    H1 4167   5.458   3.290   3.224
 1401TIP3    H2 4168   5.320   3.348   3.201
 1402TIP3   OH2 4169   0.344   2.685   5.929
 1402TIP3    H1 4170   0.399   2.739   5.987
 1402TIP3    H2 4171   0.298   2.749   5.874
 1403TIP3   OH2 4172   4.556   4.955   0.097
 1403TIP3    H1 4173   4.489   4.899   0.136
 1403TIP3    H2 4174   4.597   4.900   0.030
 1404TIP3   OH2 4175   1.392   6.298   3.514
 1404TIP3    H1 4176   1.417   6.390   3.523
 1404TIP3    H2 4177   1.300   6.300   3.486
 1405TIP3   OH2 4178   0.625   6.325   2.597
 1405TIP3    H1 4179   0.560   6.393   2.575
 1405TIP3    H2 4180   0.668   6.359   2.676
 1406TIP3   OH2 4181   6.606   2.176   1.258
 1406TIP3    H1 4182   6.587   2.258   1.213
 1406TIP3    H2 4183   6.579   2.108   1.196
 1407TIP3   OH2 4184   1.664   2.101   0.709
 1407TIP3    H1 4185   1.640   2.144   0.791
 1407TIP3    H2 4186   1.751   2.135   0.687
 1408TIP3   OH2 4187   6.606   1.845   5.408
 1408TIP3    H1 4188   6.601   1.937   5.433
 1408TIP3    H2 4189   6.564   1.798   5.480
 1409TIP3   OH2 4190   3.091   6.109   3.389
 1409TIP3    H1 4191   3.008   6.147   3.418
 1409TIP3    H2 4192   3.066   6.033   3.336
 1410TIP3   OH2 4193   3.614   5.898   2.479
 1410TIP3    H1 4194   3.550   5.865   2.417
 1410TIP3    H2 4195   3.619   5.992   2.461
 1411TIP3   OH2 4196   1.287   1.967   5.364
 1411TIP3    H1 4197   1.287   1.939   5.456
 1411TIP3    H2 4198   1.258   1.889   5.316
 1412TIP3   OH2 4199   6.295   6.346   1.644
 1412TIP3    H1 4200   6.288   6.432   1.686
 1412TIP3    H2 4201   6.209   6.305   1.659
 1413TIP3   OH2 4202   2.779   6.454   3.249
 1413TIP3    H1 4203   2.867   6.474   3.219
 1413TIP3    H2 4204   2.785   6.366   3.287
 1414TIP3   OH2 4205   3.539   2.762   3.413
 1414TIP3    H1 4206   3.474   2.693   3.398
 1414TIP3    H2 4207   3.532   2.782   3.506
 1415TIP3   OH2 4208   7.041   2.180   0.388
 1415TIP3    H1 4209   6.995   2.148   0.466
 1415TIP3    H2 4210   6.999   2.135   0.315
 1416TIP3   OH2 4211   6.938   3.105   3.020
 1416TIP3    H1 4212   6.948   3.135   2.930
 1416TIP3    H2 4213   6.862   3.046   3.017
 1417TIP3   OH2 4214   0.219   4.299   5.158
 1417TIP3    H1 4215   0.199   4.390   5.180
 1417TIP3    H2 4216   0.186   4.288   5.069
 1418TIP3   OH2 4217   5.271   0.302   4.214
 1418TIP3    H1 4218   5.221   0.271   4.290
 1418TIP3    H2 4219   5.207   0.302   4.143
 1419TIP3   OH2 4220   2.019   3.592   2.816
 1419TIP3    H1 4221   2.072   3.574   2.738
 1419TIP3    H2 4222   1.968   3.670   2.793
 1420TIP3   OH2 4223   5.712   6.699   4.543
 1420TIP3    H1 4224   5.777   6.770   4.538
 1420TIP3    H2 4225   5.729   6.646   4.465
 1421TIP3   OH2 4226   6.708   2.586   0.913
 1421TIP3    H1 4227   6.765   2.592   0.991
 1421TIP3    H2 4228   6.743   2.652   0.853
 1422TIP3   OH2 4229   6.742   4.257   4.622
 1422TIP3    H1 4230   6.698   4.175   4.645
 1422TIP3    H2 4231   6.716   4.273   4.531
 1423TIP3   OH2 4232   4.113   3.504   1.088
 1423TIP3    H1 4233   4.164   3.424   1.102
 1423TIP3    H2 4234   4.116   3.517   0.993
 1424TIP3   OH2 4235   2.461   5.888   4.330
 1424TIP3    H1 4236   2.515   5.876   4.251
 1424TIP3    H2 4237   2.482   5.976   4.361
 1425TIP3   OH2 4238   6.589   2.865   5.145
 1425TIP3    H1 4239   6.682   2.882   5.134
 1425TIP3    H2 4240   6.546   2.937   5.098
 1426TIP3   OH2 4241   1.135   6.660   0.541
 1426TIP3    H1 4242   1.056   6.673   0.594
 1426TIP3    H2 4243   1.204   6.642   0.604
 1427TIP3   OH2 4244   6.015   0.940   4.669
 1427TIP3    H1 4245   6.027   1.033   4.652
 1427TIP3    H2 4246   5.947   0.936   4.737
 1428TIP3   OH2 4247   5.655   2.321   3.860
 1428TIP3    H1 4248   5.719   2.277   3.916
 1428TIP3    H2 4249   5.652   2.267   3.780
 1429TIP3   OH2 4250   5.981   5.546   1.004
 1429TIP3    H1 4251   5.887   5.529   0.999
 1429TIP3    H2 4252   6.009   5.507   1.086
 1430TIP3   OH2 4253   1.530   1.952   0.960
 1430TIP3    H1 4254   1.479   1.883   0.917
 1430TIP3    H2 4255   1.567   2.003   0.888
 1431TIP3   OH2 4256   4.611   1.458   2.940
 1431TIP3    H1 4257   4.618   1.552   2.952
 1431TIP3    H2 4258   4.700   1.430   2.918
 1432TIP3   OH2 4259   5.520   3.384   3.911
 1432TIP3    H1 4260   5.454   3.341   3.965
 1432TIP3    H2 4261   5.589   3.319   3.900
 1433TIP3   OH2 4262   4.231   0.477   2.081
 1433TIP3    H1 4263   4.139   0.453   2.070
 1433TIP3    H2 4264   4.228   0.561   2.127
 1434TIP3   OH2 4265   5.322   4.335   3.226
 1434TIP3    H1 4266   5.398   4.299   3.270
 1434TIP3    H2 4267   5.275   4.384   3.294
 1435TIP3   OH2 4268   1.271   6.499   3.772
 1435TIP3    H1 4269   1.269   6.587   3.809
 1435TIP3    H2 4270   1.190   6.493   3.722
 1436TIP3   OH2 4271   2.876   4.976   4.742
 1436TIP3    H1 4272   2.862   4.886   4.772
 1436TIP3    H2 4273   2.870   4.971   4.647
 1437TIP3   OH2 4274   4.788   1.710   2.082
 1437TIP3    H1 4275   4.811   1.696   2.174
 1437TIP3    H2 4276   4.870   1.736   2.040
 1438TIP3   OH2 4277   4.131   6.137   0.971
 1438TIP3    H1 4278   4.107   6.056   0.926
 1438TIP3    H2 4279   4.062   6.150   1.035
 1439TIP3   OH2 4280   6.506   4.028   0.930
 1439TIP3    H1 4281   6.535   3.960   0.869
 1439TIP3    H2 4282   6.587   4.055   0.974
 1440TIP3   OH2 4283   6.154   5.468   3.001
 1440TIP3    H1 4284   6.165   5.373   2.993
 1440TIP3    H2 4285   6.103   5.492   2.923
 1441TIP3   OH2 4286   3.207   0.548   5.100
 1441TIP3    H1 4287   3.203   0.631   5.147
 1441TIP3    H2 4288   3.301   0.528   5.095
 1442TIP3   OH2 4289   1.820   6.040   0.124
 1442TIP3    H1 4290   1.898   6.017   0.174
 1442TIP3    H2 4291   1.809   5.969   0.061
 1443TIP3   OH2 4292   0.486   5.821   2.363
 1443TIP3    H1 4293   0.436   5.765   2.304
 1443TIP3    H2 4294   0.577   5.794   2.351
 1444TIP3   OH2 4295   4.800   5.225   3.672
 1444TIP3    H1 4296   4.865   5.292   3.649
 1444TIP3    H2 4297   4.846   5.169   3.734
 1445TIP3   OH2 4298   0.025   4.663   5.025
 1445TIP3    H1 4299  -0.021   4.728   4.972
 1445TIP3    H2 4300   0.065   4.604   4.962
 1446TIP3   OH2 4301   5.932   6.681   1.094
 1446TIP3    H1 4302   5.841   6.657   1.112
 1446TIP3    H2 4303   5.928   6.774   1.070
 1447TIP3   OH2 4304   1.738   6.029   5.228
 1447TIP3    H1 4305   1.802   6.028   5.156
 1447TIP3    H2 4306   1.792   6.030   5.307
 1448TIP3   OH2 4307   3.724   4.506   3.877
 1448TIP3    H1 4308   3.742   4.560   3.801
 1448TIP3    H2 4309   3.651   4.549   3.921
 1449TIP3   OH2 4310   3.522   2.538   3.788
 1449TIP3    H1 4311   3.460   2.467   3.806
 1449TIP3    H2 4312   3.592   2.496   3.737
 1450TIP3   OH2 4313   1.348   2.198   4.893
 1450TIP3    H1 4314   1.413   2.257   4.929
 1450TIP3    H2 4315   1.379   2.179   4.804
 1451TIP3   OH2 4316   1.453   0.883   4.813
 1451TIP3    H1 4317   1.482   0.804   4.768
 1451TIP3    H2 4318   1.358   0.875   4.818
 1452TIP3   OH2 4319   4.783   6.121   2.481
 1452TIP3    H1 4320   4.732   6.194   2.448
 1452TIP3    H2 4321   4.827   6.086   2.403
 1453TIP3   OH2 4322   3.797   4.941   2.223
 1453TIP3    H1 4323   3.854   4.998   2.172
 1453TIP3    H2 4324   3.834   4.941   2.311
 1454TIP3   OH2 4325   6.245   4.965   3.703
 1454TIP3    H1 4326   6.150   4.954   3.693
 1454TIP3    H2 4327   6.256   4.989   3.795
 1455TIP3   OH2 4328   6.489   1.745   1.976
 1455TIP3    H1 4329   6.431   1.799   1.922
 1455TIP3    H2 4330   6.429   1.695   2.031
 1456TIP3   OH2 4331   6.541   1.309   5.177
 1456TIP3    H1 4332   6.504   1.367   5.110
 1456TIP3    H2 4333   6.622   1.353   5.204
 1457TIP3   OH2 4334   1.161   3.486   1.678
 1457TIP3    H1 4335   1.106   3.551   1.634
 1457TIP3    H2 4336   1.223   3.458   1.612
 1458TIP3   OH2 4337   4.395   5.687   0.095
 1458TIP3    H1 4338   4.357   5.603   0.123
 1458TIP3    H2 4339   4.461   5.663   0.030
 1459TIP3   OH2 4340   5.018   5.334   3.996
 1459TIP3    H1 4341   5.090   5.291   4.043
 1459TIP3    H2 4342   4.982   5.265   3.940
 1460TIP3   OH2 4343   0.142   2.157   2.785
 1460TIP3    H1 4344   0.216   2.196   2.832
 1460TIP3    H2 4345   0.118   2.080   2.838
 1461TIP3   OH2 4346   5.121   5.008   2.485
 1461TIP3    H1 4347   5.030   5.007   2.455
 1461TIP3    H2 4348   5.125   5.084   2.543
 1462TIP3   OH2 4349   6.564   4.009   1.640
 1462TIP3    H1 4350   6.615   3.994   1.561
 1462TIP3    H2 4351   6.630   4.026   1.708
 1463TIP3   OH2 4352   0.624   1.669   3.928
 1463TIP3    H1 4353   0.550   1.614   3.901
 1463TIP3    H2 4354   0.611   1.682   4.021
 1464TIP3   OH2 4355   6.385   3.571   0.564
 1464TIP3    H1 4356   6.388   3.511   0.639
 1464TIP3    H2 4357   6.305   3.622   0.578
 1465TIP3   OH2 4358   6.123   1.037   1.575
 1465TIP3    H1 4359   6.153   1.056   1.486
 1465TIP3    H2 4360   6.030   1.020   1.567
 1466TIP3   OH2 4361   3.327   2.519   2.780
 1466TIP3    H1 4362   3.350   2.611   2.790
 1466TIP3    H2 4363   3.403   2.472   2.816
 1467TIP3   OH2 4364   1.252   0.549   2.108
 1467TIP3    H1 4365   1.283   0.588   2.026
 1467TIP3    H2 4366   1.287   0.460   2.108
 1468TIP3   OH2 4367   7.192   4.232   1.648
 1468TIP3    H1 4368   7.256   4.174   1.608
 1468TIP3    H2 4369   7.204   4.221   1.742
 1469TIP3   OH2 4370   4.864   5.324   5.436
 1469TIP3    H1 4371   4.951   5.363   5.445
 1469TIP3    H2 4372   4.820   5.379   5.371
 1470TIP3   OH2 4373   3.548   1.341   1.373
 1470TIP3    H1 4374   3.560   1.313   1.283
 1470TIP3    H2 4375   3.531   1.261   1.422
 1471TIP3   OH2 4376   2.596   2.901   2.201
 1471TIP3    H1 4377   2.579   2.813   2.234
 1471TIP3    H2 4378   2.539   2.910   2.124
 1472TIP3   OH2 4379  -0.002   5.349   4.238
 1472TIP3    H1 4380  -0.027   5.328   4.148
 1472TIP3    H2 4381   0.077   5.298   4.254
 1473TIP3   OH2 4382   1.666   1.222   4.498
 1473TIP3    H1 4383   1.642   1.197   4.409
 1473TIP3    H2 4384   1.589   1.269   4.531
 1474TIP3   OH2 4385   2.990   1.557   1.737
 1474TIP3    H1 4386   3.058   1.619   1.761
 1474TIP3    H2 4387   3.012   1.477   1.785
 1475TIP3   OH2 4388   4.365   3.756   0.261
 1475TIP3    H1 4389   4.312   3.740   0.184
 1475TIP3    H2 4390   4.443   3.702   0.247
 1476TIP3   OH2 4391   7.195   1.360   1.026
 1476TIP3    H1 4392   7.163   1.447   1.003
 1476TIP3    H2 4393   7.210   1.317   0.942
 1477TIP3   OH2 4394   0.311   2.669   0.686
 1477TIP3    H1 4395   0.318   2.627   0.600
 1477TIP3    H2 4396   0.401   2.676   0.717
 1478TIP3   OH2 4397   0.897   0.685   2.777
 1478TIP3    H1 4398   0.934   0.611   2.826
 1478TIP3    H2 4399   0.953   0.759   2.801
 1479TIP3   OH2 4400   6.110   0.648   2.415
 1479TIP3    H1 4401   6.025   0.662   2.372
 1479TIP3    H2 4402   6.159   0.593   2.354
 1480TIP3   OH2 4403   5.444   0.565   0.708
 1480TIP3    H1 4404   5.512   0.531   0.766
 1480TIP3    H2 4405   5.383   0.610   0.766
 1481TIP3   OH2 4406   6.139   3.135   0.737
 1481TIP3    H1 4407   6.064   3.170   0.786
 1481TIP3    H2 4408   6.174   3.211   0.690
 1482TIP3   OH2 4409   0.312   6.246   2.589
 1482TIP3    H1 4410   0.400   6.232   2.624
 1482TIP3    H2 4411   0.283   6.159   2.562
 1483TIP3   OH2 4412   4.652   0.738   3.488
 1483TIP3    H1 4413   4.633   0.691   3.407
 1483TIP3    H2 4414   4.725   0.796   3.466
 1484TIP3   OH2 4415   6.201   0.484   2.214
 1484TIP3    H1 4416   6.297   0.481   2.220
 1484TIP3    H2 4417   6.183   0.560   2.158
 1485TIP3   OH2 4418   1.801   0.979   2.701
 1485TIP3    H1 4419   1.765   0.995   2.613
 1485TIP3    H2 4420   1.822   1.066   2.734
 1486TIP3   OH2 4421   4.243   5.062   4.052
 1486TIP3    H1 4422   4.151   5.086   4.042
 1486TIP3    H2 4423   4.265   5.016   3.971
 1487TIP3   OH2 4424   3.955   2.447   3.637
 1487TIP3    H1 4425   3.866   2.482   3.628
 1487TIP3    H2 4426   3.989   2.490   3.716
 1488TIP3   OH2 4427   6.767   0.516   2.099
 1488TIP3    H1 4428   6.784   0.436   2.149
 1488TIP3    H2 4429   6.732   0.577   2.163
 1489TIP3   OH2 4430   4.897   4.615   1.721
 1489TIP3    H1 4431   4.865   4.535   1.679
 1489TIP3    H2 4432   4.988   4.596   1.742
 1490TIP3   OH2 4433   6.681   3.045   3.996
 1490TIP3    H1 4434   6.763   3.044   3.947
 1490TIP3    H2 4435   6.704   3.006   4.080
 1491TIP3   OH2 4436   6.057   2.594   2.218
 1491TIP3    H1 4437   5.977   2.614   2.169
 1491TIP3    H2 4438   6.121   2.570   2.151
 1492TIP3   OH2 4439   1.743   3.448   5.042
 1492TIP3    H1 4440   1.755   3.542   5.052
 1492TIP3    H2 4441   1.651   3.433   5.062
 1493TIP3   OH2 4442   2.115   2.241   5.549
 1493TIP3    H1 4443   2.187   2.208   5.495
 1493TIP3    H2 4444   2.142   2.330   5.573
 1494TIP3   OH2 4445   6.892   6.301   1.094
 1494TIP3    H1 4446   6.977   6.292   1.052
 1494TIP3    H2 4447   6.879   6.395   1.102
 1495TIP3   OH2 4448   5.331   3.023   1.581
 1495TIP3    H1 4449   5.361   3.030   1.671
 1495TIP3    H2 4450   5.274   3.099   1.568
 1496TIP3   OH2 4451   5.067   6.400   5.084
 1496TIP3    H1 4452   4.975   6.425   5.073
 1496TIP3    H2 4453   5.091   6.360   5.000
 1497TIP3   OH2 4454   5.994   5.767   4.062
 1497TIP3    H1 4455   5.938   5.712   4.007
 1497TIP3    H2 4456   5.943   5.783   4.140
 1498TIP3   OH2 4457   0.544   3.233   4.476
 1498TIP3    H1 4458   0.456   3.217   4.444
 1498TIP3    H2 4459   0.532   3.292   4.551
 1499TIP3   OH2 4460   5.645   6.381   2.485
 1499TIP3    H1 4461   5.719   6.325   2.463
 1499TIP3    H2 4462   5.676   6.435   2.557
 1500TIP3   OH2 4463   7.100   3.307   3.139
 1500TIP3    H1 4464   7.044   3.240   3.099
 1500TIP3    H2 4465   7.189   3.281   3.115
 1501TIP3   OH2 4466   4.680   1.739   3.374
 1501TIP3    H1 4467   4.614   1.679   3.340
 1501TIP3    H2 4468   4.672   1.817   3.319
 1502TIP3   OH2 4469   4.000   2.310   2.063
 1502TIP3    H1 4470   4.058   2.323   1.988
 1502TIP3    H2 4471   3.990   2.215   2.069
 1503TIP3   OH2 4472   2.879   2.389   0.505
 1503TIP3    H1 4473   2.962   2.378   0.459
 1503TIP3    H2 4474   2.835   2.460   0.458
 1504TIP3   OH2 4475   1.035   5.963   3.481
 1504TIP3    H1 4476   1.055   5.995   3.392
 1504TIP3    H2 4477   1.081   5.879   3.487
 1505TIP3   OH2 4478   3.510   5.952   3.573
 1505TIP3    H1 4479   3.583   6.013   3.561
 1505TIP3    H2 4480   3.488   5.958   3.666
 1506TIP3   OH2 4481   3.210   5.857   1.425
 1506TIP3    H1 4482   3.234   5.936   1.473
 1506TIP3    H2 4483   3.115   5.856   1.426
 1507TIP3   OH2 4484   6.888   2.777   0.332
 1507TIP3    H1 4485   6.955   2.766   0.399
 1507TIP3    H2 4486   6.809   2.737   0.368
 1508TIP3   OH2 4487   2.913   5.158   1.392
 1508TIP3    H1 4488   2.847   5.117   1.449
 1508TIP3    H2 4489   2.995   5.148   1.439
 1509TIP3   OH2 4490   4.582   1.159   2.883
 1509TIP3    H1 4491   4.624   1.228   2.934
 1509TIP3    H2 4492   4.612   1.077   2.923
 1510TIP3   OH2 4493   2.283   1.212   0.898
 1510TIP3    H1 4494   2.202   1.230   0.851
 1510TIP3    H2 4495   2.256   1.204   0.990
 1511TIP3   OH2 4496   0.625   4.085   2.449
 1511TIP3    H1 4497   0.640   3.992   2.432
 1511TIP3    H2 4498   0.697   4.111   2.508
 1512TIP3   OH2 4499   5.848   5.658   5.602
 1512TIP3    H1 4500   5.763   5.618   5.619
 1512TIP3    H2 4501   5.908   5.584   5.592
 1513TIP3   OH2 4502   3.117   0.198   4.223
 1513TIP3    H1 4503   3.177   0.209   4.150
 1513TIP3    H2 4504   3.073   0.115   4.206
 1514TIP3   OH2 4505   6.202   6.116   3.963
 1514TIP3    H1 4506   6.212   6.092   4.056
 1514TIP3    H2 4507   6.252   6.197   3.954
 1515TIP3   OH2 4508   4.822   1.542   5.917
 1515TIP3    H1 4509   4.886   1.490   5.965
 1515TIP3    H2 4510   4.875   1.603   5.865
 1516TIP3   OH2 4511   6.304   3.268   2.571
 1516TIP3    H1 4512   6.223   3.266   2.518
 1516TIP3    H2 4513   6.368   3.222   2.517
 1517TIP3   OH2 4514   5.114   4.286   5.486
 1517TIP3    H1 4515   5.047   4.288   5.418
 1517TIP3    H2 4516   5.194   4.316   5.442
 1518TIP3   OH2 4517   2.473   6.715   2.510
 1518TIP3    H1 4518   2.535   6.785   2.485
 1518TIP3    H2 4519   2.453   6.671   2.427
 1519TIP3   OH2 4520   2.060   5.894   4.325
 1519TIP3    H1 4521   2.053   5.901   4.420
 1519TIP3    H2 4522   1.970   5.887   4.294
 1520TIP3   OH2 4523   1.524   6.048   3.601
 1520TIP3    H1 4524   1.484   6.007   3.524
 1520TIP3    H2 4525   1.478   6.131   3.610
 1521TIP3   OH2 4526   2.122   0.707   3.561
 1521TIP3    H1 4527   2.161   0.674   3.480
 1521TIP3    H2 4528   2.166   0.658   3.630
 1522TIP3   OH2 4529   6.102   3.630   3.436
 1522TIP3    H1 4530   6.116   3.654   3.345
 1522TIP3    H2 4531   6.180   3.664   3.482
 1523TIP3   OH2 4532   2.264   2.415   3.538
 1523TIP3    H1 4533   2.214   2.480   3.489
 1523TIP3    H2 4534   2.351   2.417   3.497
 1524TIP3   OH2 4535   1.912   2.419   4.531
 1524TIP3    H1 4536   1.858   2.427   4.453
 1524TIP3    H2 4537   1.986   2.365   4.504
 1525TIP3   OH2 4538   5.565   0.841   0.466
 1525TIP3    H1 4539   5.566   0.857   0.372
 1525TIP3    H2 4540   5.657   0.843   0.492
 1526TIP3   OH2 4541   5.959   0.209   5.332
 1526TIP3    H1 4542   6.019   0.218   5.406
 1526TIP3    H2 4543   5.965   0.293   5.286
 1527TIP3   OH2 4544   3.306   0.518   4.607
 1527TIP3    H1 4545   3.314   0.598   4.659
 1527TIP3    H2 4546   3.343   0.449   4.662
 1528TIP3   OH2 4547   6.826   0.348   4.603
 1528TIP3    H1 4548   6.918   0.325   4.588
 1528TIP3    H2 4549   6.815   0.432   4.559
 1529TIP3   OH2 4550   5.546   0.863   5.880
 1529TIP3    H1 4551   5.562   0.932   5.945
 1529TIP3    H2 4552   5.618   0.801   5.894
 1530TIP3   OH2 4553   3.229   4.722   3.422
 1530TIP3    H1 4554   3.233   4.771   3.340
 1530TIP3    H2 4555   3.267   4.780   3.487
 1531TIP3   OH2 4556   0.563   3.502   2.766
 1531TIP3    H1 4557   0.657   3.501   2.781
 1531TIP3    H2 4558   0.553   3.517   2.672
 1532TIP3   OH2 4559   1.412   6.239   3.143
 1532TIP3    H1 4560   1.447   6.325   3.118
 1532TIP3    H2 4561   1.353   6.215   3.072
 1533TIP3   OH2 4562   2.096   2.891   2.284
 1533TIP3    H1 4563   2.111   2.799   2.302
 1533TIP3    H2 4564   2.166   2.916   2.224
 1534TIP3   OH2 4565   7.060   4.458   5.122
 1534TIP3    H1 4566   7.022   4.420   5.043
 1534TIP3    H2 4567   7.104   4.538   5.092
 1535TIP3   OH2 4568   0.534   2.063   0.090
 1535TIP3    H1 4569   0.514   2.042  -0.001
 1535TIP3    H2 4570   0.626   2.089   0.089
 1536TIP3   OH2 4571   0.224   1.102   2.626
 1536TIP3    H1 4572   0.182   1.046   2.560
 1536TIP3    H2 4573   0.222   1.190   2.588
 1537TIP3   OH2 4574   6.297   1.917   3.324
 1537TIP3    H1 4575   6.225   1.918   3.262
 1537TIP3    H2 4576   6.372   1.950   3.275
 1538TIP3   OH2 4577   2.277   5.724   3.369
 1538TIP3    H1 4578   2.215   5.688   3.305
 1538TIP3    H2 4579   2.223   5.775   3.429
 1539TIP3   OH2 4580   2.886   4.217   0.317
 1539TIP3    H1 4581   2.911   4.176   0.234
 1539TIP3    H2 4582   2.835   4.150   0.362
 1540TIP3   OH2 4583   0.879   3.073   3.323
 1540TIP3    H1 4584   0.942   3.071   3.395
 1540TIP3    H2 4585   0.933   3.078   3.244
 1541TIP3   OH2 4586   3.128   4.510   2.981
 1541TIP3    H1 4587   3.191   4.441   2.965
 1541TIP3    H2 4588   3.083   4.484   3.061
 1542TIP3   OH2 4589   6.644   0.859   1.219
 1542TIP3    H1 4590   6.567   0.817   1.256
 1542TIP3    H2 4591   6.609   0.923   1.158
 1543TIP3   OH2 4592   5.377   2.420   5.109
 1543TIP3    H1 4593   5.385   2.490   5.044
 1543TIP3    H2 4594   5.386   2.339   5.059
 1544TIP3   OH2 4595   1.179   0.715   1.420
 1544TIP3    H1 4596   1.181   0.628   1.380
 1544TIP3    H2 4597   1.255   0.760   1.382
 1545TIP3   OH2 4598   0.982   5.257   4.039
 1545TIP3    H1 4599   1.056   5.219   3.991
 1545TIP3    H2 4600   1.004   5.245   4.131
 1546TIP3   OH2 4601   4.329   2.078   4.356
 1546TIP3    H1 4602   4.381   2.131   4.415
 1546TIP3    H2 4603   4.279   2.020   4.413
 1547TIP3   OH2 4604   5.387   3.523   5.300
 1547TIP3    H1 4605   5.337   3.476   5.234
 1547TIP3    H2 4606   5.462   3.559   5.252
 1548TIP3   OH2 4607   2.929   5.863   1.396
 1548TIP3    H1 4608   2.950   5.850   1.303
 1548TIP3    H2 4609   2.837   5.890   1.396
 1549TIP3   OH2 4610   5.863   1.047   5.259
 1549TIP3    H1 4611   5.942   1.001   5.231
 1549TIP3    H2 4612   5.896   1.121   5.310
 1550TIP3   OH2 4613   6.648   1.167   2.319
 1550TIP3    H1 4614   6.693   1.179   2.403
 1550TIP3    H2 4615   6.707   1.207   2.255
 1551TIP3   OH2 4616   6.175   0.101   1.595
 1551TIP3    H1 4617   6.163   0.067   1.506
 1551TIP3    H2 4618   6.264   0.076   1.619
 1552TIP3   OH2 4619   4.526   5.655   3.399
 1552TIP3    H1 4620   4.567   5.726   3.448
 1552TIP3    H2 4621   4.597   5.618   3.347
 1553TIP3   OH2 4622   1.867   5.987   2.166
 1553TIP3    H1 4623   1.848   5.984   2.073
 1553TIP3    H2 4624   1.962   5.975   2.172
 1554TIP3   OH2 4625   1.435   5.122   3.337
 1554TIP3    H1 4626   1.382   5.043   3.329
 1554TIP3    H2 4627   1.490   5.122   3.258
 1555TIP3   OH2 4628   7.046   4.454   0.902
 1555TIP3    H1 4629   7.029   4.373   0.951
 1555TIP3    H2 4630   7.140   4.449   0.881
 1556TIP3   OH2 4631   5.764   6.615   1.385
 1556TIP3    H1 4632   5.710   6.583   1.313
 1556TIP3    H2 4633   5.737   6.563   1.460
 1557TIP3   OH2 4634   4.653   0.652   0.602
 1557TIP3    H1 4635   4.617   0.718   0.543
 1557TIP3    H2 4636   4.605   0.663   0.683
 1558TIP3   OH2 4637   0.852   6.246   5.055
 1558TIP3    H1 4638   0.825   6.303   5.127
 1558TIP3    H2 4639   0.773   6.197   5.032
 1559TIP3   OH2 4640   6.090   1.937   3.140
 1559TIP3    H1 4641   6.084   1.999   3.068
 1559TIP3    H2 4642   6.100   1.852   3.097
 1560TIP3   OH2 4643   6.411   3.800   1.574
 1560TIP3    H1 4644   6.489   3.854   1.585
 1560TIP3    H2 4645   6.371   3.831   1.493
 1561TIP3   OH2 4646   4.634   2.779   4.956
 1561TIP3    H1 4647   4.647   2.704   4.897
 1561TIP3    H2 4648   4.711   2.779   5.012
 1562TIP3   OH2 4649   1.502   3.756   3.226
 1562TIP3    H1 4650   1.428   3.808   3.194
 1562TIP3    H2 4651   1.579   3.806   3.201
 1563TIP3   OH2 4652   0.100   4.837   2.353
 1563TIP3    H1 4653   0.170   4.777   2.327
 1563TIP3    H2 4654   0.020   4.784   2.346
 1564TIP3   OH2 4655   3.372   6.130   5.362
 1564TIP3    H1 4656   3.458   6.127   5.320
 1564TIP3    H2 4657   3.375   6.208   5.417
 1565TIP3   OH2 4658   2.172   3.479   4.897
 1565TIP3    H1 4659   2.149   3.571   4.887
 1565TIP3    H2 4660   2.218   3.457   4.816
 1566TIP3   OH2 4661   5.729   4.397   5.578
 1566TIP3    H1 4662   5.649   4.359   5.544
 1566TIP3    H2 4663   5.700   4.462   5.642
 1567TIP3   OH2 4664   2.173   2.647   0.528
 1567TIP3    H1 4665   2.079   2.640   0.511
 1567TIP3    H2 4666   2.191   2.577   0.591
 1568TIP3   OH2 4667   2.473   5.068   3.999
 1568TIP3    H1 4668   2.556   5.078   3.952
 1568TIP3    H2 4669   2.467   5.145   4.054
 1569TIP3   OH2 4670   1.202   2.239   2.957
 1569TIP3    H1 4671   1.228   2.160   3.005
 1569TIP3    H2 4672   1.137   2.208   2.894
 1570TIP3   OH2 4673   3.015   1.871   1.553
 1570TIP3    H1 4674   2.996   1.928   1.628
 1570TIP3    H2 4675   3.061   1.796   1.590
 1571TIP3   OH2 4676   7.017   6.305   1.935
 1571TIP3    H1 4677   7.091   6.263   1.891
 1571TIP3    H2 4678   7.005   6.253   2.015
 1572TIP3   OH2 4679   1.138   2.240   5.327
 1572TIP3    H1 4680   1.173   2.288   5.253
 1572TIP3    H2 4681   1.168   2.150   5.313
 1573TIP3   OH2 4682   6.885   4.663   0.212
 1573TIP3    H1 4683   6.865   4.593   0.273
 1573TIP3    H2 4684   6.825   4.734   0.235
 1574TIP3   OH2 4685   5.585   3.261   3.342
 1574TIP3    H1 4686   5.540   3.193   3.392
 1574TIP3    H2 4687   5.627   3.316   3.408
 1575TIP3   OH2 4688   3.312   4.927   4.960
 1575TIP3    H1 4689   3.368   4.989   5.006
 1575TIP3    H2 4690   3.371   4.879   4.902
 1576TIP3   OH2 4691   1.773   5.438   3.820
 1576TIP3    H1 4692   1.843   5.376   3.841
 1576TIP3    H2 4693   1.770   5.441   3.725
 1577TIP3   OH2 4694   5.441   4.329   2.631
 1577TIP3    H1 4695   5.448   4.240   2.595
 1577TIP3    H2 4696   5.362   4.364   2.590
 1578TIP3   OH2 4697   1.103   0.179   0.625
 1578TIP3    H1 4698   1.158   0.189   0.703
 1578TIP3    H2 4699   1.143   0.238   0.561
 1579TIP3   OH2 4700   4.898   2.556   5.269
 1579TIP3    H1 4701   4.993   2.551   5.262
 1579TIP3    H2 4702   4.867   2.482   5.217
 1580TIP3   OH2 4703   0.985   4.974   2.140
 1580TIP3    H1 4704   1.033   4.904   2.097
 1580TIP3    H2 4705   1.052   5.028   2.182
 1581TIP3   OH2 4706   6.899   1.812   4.606
 1581TIP3    H1 4707   6.901   1.754   4.530
 1581TIP3    H2 4708   6.815   1.858   4.599
 1582TIP3   OH2 4709   0.982   1.622   0.225
 1582TIP3    H1 4710   0.990   1.528   0.242
 1582TIP3    H2 4711   0.955   1.628   0.134
 1583TIP3   OH2 4712   1.148   5.256   2.376
 1583TIP3    H1 4713   1.231   5.287   2.338
 1583TIP3    H2 4714   1.172   5.176   2.423
 1584TIP3   OH2 4715   5.254   5.120   3.085
 1584TIP3    H1 4716   5.277   5.160   3.169
 1584TIP3    H2 4717   5.262   5.026   3.101
 1585TIP3   OH2 4718   1.526   4.805   3.155
 1585TIP3    H1 4719   1.563   4.755   3.228
 1585TIP3    H2 4720   1.440   4.834   3.187
 1586TIP3   OH2 4721   4.793   6.319   2.042
 1586TIP3    H1 4722   4.869   6.335   2.099
 1586TIP3    H2 4723   4.759   6.235   2.071
 1587TIP3   OH2 4724   0.707   2.215   3.645
 1587TIP3    H1 4725   0.731   2.301   3.610
 1587TIP3    H2 4726   0.770   2.155   3.604
 1588TIP3   OH2 4727   5.848   5.800   5.300
 1588TIP3    H1 4728   5.928   5.747   5.302
 1588TIP3    H2 4729   5.859   5.859   5.226
 1589TIP3   OH2 4730   4.196   3.839   5.015
 1589TIP3    H1 4731   4.219   3.793   4.934
 1589TIP3    H2 4732   4.266   3.903   5.027
 1590TIP3   OH2 4733   6.851   0.079   3.413
 1590TIP3    H1 4734   6.904   0.000   3.400
 1590TIP3    H2 4735   6.873   0.136   3.340
 1591TIP3   OH2 4736   5.885   0.068   1.633
 1591TIP3    H1 4737   5.918   0.082   1.544
 1591TIP3    H2 4738   5.925  -0.015   1.660
 1592TIP3   OH2 4739   6.740   2.756   1.905
 1592TIP3    H1 4740   6.790   2.678   1.881
 1592TIP3    H2 4741   6.799   2.829   1.889
 1593TIP3   OH2 4742   4.537   3.154   3.736
 1593TIP3    H1 4743   4.509   3.114   3.819
 1593TIP3    H2 4744   4.522   3.086   3.670
 1594TIP3   OH2 4745   6.368   2.316   4.444
 1594TIP3    H1 4746   6.363   2.319   4.539
 1594TIP3    H2 4747   6.341   2.228   4.421
 1595TIP3   OH2 4748   3.059   0.066   2.142
 1595TIP3    H1 4749   2.987   0.082   2.202
 1595TIP3    H2 4750   3.019   0.021   2.068
 1596TIP3   OH2 4751   1.533   3.924   3.499
 1596TIP3    H1 4752   1.558   3.928   3.591
 1596TIP3    H2 4753   1.596   3.864   3.459
 1597TIP3   OH2 4754   6.379   5.957   0.038
 1597TIP3    H1 4755   6.344   5.904   0.110
 1597TIP3    H2 4756   6.328   5.930  -0.038
 1598TIP3   OH2 4757   5.143   0.086   0.133
 1598TIP3    H1 4758   5.204   0.014   0.151
 1598TIP3    H2 4759   5.133   0.130   0.217
 1599TIP3   OH2 4760   1.339   5.535   2.708
 1599TIP3    H1 4761   1.420   5.585   2.699
 1599TIP3    H2 4762   1.331   5.519   2.802
 1600TIP3   OH2 4763   6.656   4.344   1.754
 1600TIP3    H1 4764   6.675   4.301   1.670
 1600TIP3    H2 4765   6.568   4.313   1.777
 1601TIP3   OH2 4766   2.765   1.574   5.303
 1601TIP3    H1 4767   2.809   1.503   5.257
 1601TIP3    H2 4768   2.673   1.547   5.305
 1602TIP3   OH2 4769   5.884   0.297   0.469
 1602TIP3    H1 4770   5.913   0.364   0.531
 1602TIP3    H2 4771   5.948   0.301   0.398
 1603TIP3   OH2 4772   0.050   2.064   5.731
 1603TIP3    H1 4773   0.079   2.002   5.664
 1603TIP3    H2 4774   0.056   2.015   5.813
 1604TIP3   OH2 4775   4.838   3.288   4.469
 1604TIP3    H1 4776   4.897   3.225   4.512
 1604TIP3    H2 4777   4.751   3.262   4.497
 1605TIP3   OH2 4778   0.806   4.922   4.515
 1605TIP3    H1 4779   0.885   4.961   4.480
 1605TIP3    H2 4780   0.812   4.936   4.610
 1606TIP3   OH2 4781   3.542   4.487   4.578
 1606TIP3    H1 4782   3.599   4.522   4.645
 1606TIP3    H2 4783   3.577   4.522   4.496
 1607TIP3   OH2 4784   7.204   1.617   0.319
 1607TIP3    H1 4785   7.197   1.669   0.239
 1607TIP3    H2 4786   7.133   1.649   0.375
 1608TIP3   OH2 4787   4.842   3.574   4.721
 1608TIP3    H1 4788   4.811   3.592   4.632
 1608TIP3    H2 4789   4.783   3.506   4.754
 1609TIP3   OH2 4790   5.713   1.992   2.035
 1609TIP3    H1 4791   5.686   1.990   2.127
 1609TIP3    H2 4792   5.743   2.082   2.022
 1610TIP3   OH2 4793   7.118   6.239   5.343
 1610TIP3    H1 4794   7.088   6.287   5.420
 1610TIP3    H2 4795   7.172   6.168   5.379
 1611TIP3   OH2 4796   3.552   1.543   1.622
 1611TIP3    H1 4797   3.495   1.498   1.685
 1611TIP3    H2 4798   3.518   1.518   1.537
 1612TIP3   OH2 4799   2.918   5.603   0.507
 1612TIP3    H1 4800   2.938   5.515   0.540
 1612TIP3    H2 4801   2.851   5.589   0.441
 1613TIP3   OH2 4802   0.455   1.954   3.048
 1613TIP3    H1 4803   0.547   1.949   3.073
 1613TIP3    H2 4804   0.408   1.909   3.119
 1614TIP3   OH2 4805   3.815   5.405   4.799
 1614TIP3    H1 4806   3.808   5.309   4.801
 1614TIP3    H2 4807   3.732   5.436   4.835
 1615TIP3   OH2 4808   0.171   6.405   2.403
 1615TIP3    H1 4809   0.241   6.352   2.441
 1615TIP3    H2 4810   0.139   6.353   2.329
 1616TIP3   OH2 4811   4.201   6.551   1.888
 1616TIP3    H1 4812   4.292   6.581   1.882
 1616TIP3    H2 4813   4.156   6.621   1.934
 1617TIP3   OH2 4814   2.436   1.384   3.889
 1617TIP3    H1 4815   2.506   1.409   3.949
 1617TIP3    H2 4816   2.479   1.375   3.804
 1618TIP3   OH2 4817   3.044   2.813   4.262
 1618TIP3    H1 4818   3.015   2.832   4.173
 1618TIP3    H2 4819   3.089   2.892   4.290
 1619TIP3   OH2 4820   1.851   3.762   3.405
 1619TIP3    H1 4821   1.846   3.830   3.471
 1619TIP3    H2 4822   1.903   3.801   3.334
 1620TIP3   OH2 4823   1.625   4.354   0.913
 1620TIP3    H1 4824   1.702   4.302   0.934
 1620TIP3    H2 4825   1.557   4.290   0.892
 1621TIP3   OH2 4826   6.017   3.688   2.008
 1621TIP3    H1 4827   5.925   3.671   2.029
 1621TIP3    H2 4828   6.027   3.782   2.020
 1622TIP3   OH2 4829   5.808   3.870   1.734
 1622TIP3    H1 4830   5.754   3.917   1.796
 1622TIP3    H2 4831   5.838   3.937   1.672
 1623TIP3   OH2 4832   5.134   2.716   4.235
 1623TIP3    H1 4833   5.045   2.743   4.258
 1623TIP3    H2 4834   5.147   2.634   4.283
 1624TIP3   OH2 4835   5.653   6.319   4.138
 1624TIP3    H1 4836   5.700   6.268   4.203
 1624TIP3    H2 4837   5.711   6.323   4.063
 1625TIP3   OH2 4838   0.061   4.640   3.217
 1625TIP3    H1 4839   0.121   4.715   3.221
 1625TIP3    H2 4840   0.117   4.566   3.193
 1626TIP3   OH2 4841   6.198   4.328   3.633
 1626TIP3    H1 4842   6.243   4.272   3.696
 1626TIP3    H2 4843   6.143   4.385   3.687
 1627TIP3   OH2 4844   2.493   0.949   1.863
 1627TIP3    H1 4845   2.554   1.014   1.899
 1627TIP3    H2 4846   2.549   0.878   1.831
 1628TIP3   OH2 4847   5.299   0.461   1.753
 1628TIP3    H1 4848   5.333   0.373   1.737
 1628TIP3    H2 4849   5.307   0.506   1.669
 1629TIP3   OH2 4850   6.661   6.012   1.844
 1629TIP3    H1 4851   6.703   6.079   1.791
 1629TIP3    H2 4852   6.570   6.041   1.851
 1630TIP3   OH2 4853   3.826   0.142   0.787
 1630TIP3    H1 4854   3.828   0.128   0.881
 1630TIP3    H2 4855   3.916   0.129   0.758
 1631TIP3   OH2 4856   6.385   5.264   1.847
 1631TIP3    H1 4857   6.445   5.337   1.863
 1631TIP3    H2 4858   6.443   5.192   1.821
 1632TIP3   OH2 4859   0.804   4.775   0.620
 1632TIP3    H1 4860   0.797   4.782   0.715
 1632TIP3    H2 4861   0.771   4.859   0.588
 1633TIP3   OH2 4862   4.077   6.024   2.412
 1633TIP3    H1 4863   4.036   5.955   2.465
 1633TIP3    H2 4864   4.089   6.097   2.473
 1634TIP3   OH2 4865   1.138   3.078   5.246
 1634TIP3    H1 4866   1.078   3.116   5.182
 1634TIP3    H2 4867   1.090   3.004   5.283
 1635TIP3   OH2 4868   5.596   5.770   3.881
 1635TIP3    H1 4869   5.508   5.798   3.854
 1635TIP3    H2 4870   5.622   5.833   3.949
 1636TIP3   OH2 4871   5.004   6.632   3.140
 1636TIP3    H1 4872   5.061   6.702   3.174
 1636TIP3    H2 4873   5.025   6.556   3.194
 1637TIP3   OH2 4874   2.907   3.831   2.258
 1637TIP3    H1 4875   2.985   3.816   2.204
 1637TIP3    H2 4876   2.924   3.914   2.302
 1638TIP3   OH2 4877   3.529   3.606   5.308
 1638TIP3    H1 4878   3.553   3.549   5.235
 1638TIP3    H2 4879   3.566   3.691   5.285
 1639TIP3   OH2 4880   1.760   2.652   4.371
 1639TIP3    H1 4881   1.685   2.712   4.377
 1639TIP3    H2 4882   1.721   2.566   4.359
 1640TIP3   OH2 4883   1.045   6.445   3.657
 1640TIP3    H1 4884   1.042   6.351   3.669
 1640TIP3    H2 4885   1.047   6.457   3.562
 1641TIP3   OH2 4886   6.412   1.160   3.854
 1641TIP3    H1 4887   6.415   1.196   3.943
 1641TIP3    H2 4888   6.334   1.104   3.853
 1642TIP3   OH2 4889   0.765   1.698   4.412
 1642TIP3    H1 4890   0.805   1.611   4.421
 1642TIP3    H2 4891   0.696   1.686   4.348
 1643TIP3   OH2 4892   1.063   1.968   0.519
 1643TIP3    H1 4893   1.003   2.004   0.584
 1643TIP3    H2 4894   1.149   1.972   0.561
 1644TIP3   OH2 4895   5.048   6.460   3.364
 1644TIP3    H1 4896   5.129   6.409   3.365
 1644TIP3    H2 4897   5.019   6.459   3.455
 1645TIP3   OH2 4898   0.379   4.515   1.288
 1645TIP3    H1 4899   0.331   4.538   1.208
 1645TIP3    H2 4900   0.312   4.513   1.356
 1646TIP3   OH2 4901   4.134   4.646   5.279
 1646TIP3    H1 4902   4.217   4.600   5.262
 1646TIP3    H2 4903   4.116   4.628   5.371
 1647TIP3   OH2 4904   3.661   0.056   1.274
 1647TIP3    H1 4905   3.737   0.035   1.330
 1647TIP3    H2 4906   3.671  -0.002   1.199
 1648TIP3   OH2 4907   4.871   3.066   1.543
 1648TIP3    H1 4908   4.887   2.976   1.572
 1648TIP3    H2 4909   4.849   3.113   1.623
 1649TIP3   OH2 4910   6.594   1.099   1.087
 1649TIP3    H1 4911   6.597   1.193   1.106
 1649TIP3    H2 4912   6.572   1.094   0.994
 1650TIP3   OH2 4913   2.789   6.603   0.391
 1650TIP3    H1 4914   2.835   6.675   0.434
 1650TIP3    H2 4915   2.809   6.613   0.298
 1651TIP3   OH2 4916   5.209   3.435   5.103
 1651TIP3    H1 4917   5.187   3.342   5.099
 1651TIP3    H2 4918   5.139   3.478   5.053
 1652TIP3   OH2 4919   4.536   0.878   5.527
 1652TIP3    H1 4920   4.509   0.965   5.495
 1652TIP3    H2 4921   4.514   0.880   5.620
 1653TIP3   OH2 4922   4.965   4.012   0.836
 1653TIP3    H1 4923   5.030   3.942   0.829
 1653TIP3    H2 4924   4.903   3.980   0.902
 1654TIP3   OH2 4925   5.838   3.368   0.681
 1654TIP3    H1 4926   5.804   3.297   0.736
 1654TIP3    H2 4927   5.777   3.440   0.695
 1655TIP3   OH2 4928   0.089   1.846   5.560
 1655TIP3    H1 4929   0.014   1.841   5.502
 1655TIP3    H2 4930   0.110   1.755   5.580
 1656TIP3   OH2 4931   0.654   6.260   2.001
 1656TIP3    H1 4932   0.640   6.280   2.093
 1656TIP3    H2 4933   0.659   6.346   1.958
 1657TIP3   OH2 4934   1.232   1.029   3.464
 1657TIP3    H1 4935   1.226   0.936   3.443
 1657TIP3    H2 4936   1.320   1.055   3.438
 1658TIP3   OH2 4937   4.554   1.429   4.126
 1658TIP3    H1 4938   4.493   1.389   4.188
 1658TIP3    H2 4939   4.544   1.523   4.140
 1659TIP3   OH2 4940   4.580   2.623   0.068
 1659TIP3    H1 4941   4.629   2.629   0.150
 1659TIP3    H2 4942   4.495   2.586   0.092
 1660TIP3   OH2 4943   2.917   1.469   1.478
 1660TIP3    H1 4944   2.943   1.376   1.480
 1660TIP3    H2 4945   2.936   1.501   1.566
 1661TIP3   OH2 4946   1.970   1.803   3.774
 1661TIP3    H1 4947   1.971   1.805   3.678
 1661TIP3    H2 4948   2.050   1.849   3.800
 1662TIP3   OH2 4949   3.393   5.521   5.604
 1662TIP3    H1 4950   3.324   5.584   5.626
 1662TIP3    H2 4951   3.390   5.515   5.509
 1663TIP3   OH2 4952   7.095   6.058   3.880
 1663TIP3    H1 4953   7.084   6.150   3.904
 1663TIP3    H2 4954   7.006   6.023   3.880
 1664TIP3   OH2 4955   3.848   3.957   2.518
 1664TIP3    H1 4956   3.804   3.874   2.539
 1664TIP3    H2 4957   3.938   3.945   2.549
 1665TIP3   OH2 4958   4.440   5.694   3.892
 1665TIP3    H1 4959   4.404   5.780   3.912
 1665TIP3    H2 4960   4.401   5.671   3.808
 1666TIP3   OH2 4961   7.061   1.994   1.098
 1666TIP3    H1 4962   7.080   2.051   1.172
 1666TIP3    H2 4963   7.145   1.951   1.079
 1667TIP3   OH2 4964   4.090   2.720   5.539
 1667TIP3    H1 4965   4.122   2.789   5.481
 1667TIP3    H2 4966   4.090   2.760   5.626
 1668TIP3   OH2 4967   3.577   0.339   1.325
 1668TIP3    H1 4968   3.501   0.302   1.280
 1668TIP3    H2 4969   3.547   0.425   1.357
 1669TIP3   OH2 4970   2.152   3.233   2.613
 1669TIP3    H1 4971   2.200   3.210   2.692
 1669TIP3    H2 4972   2.220   3.261   2.551
 1670TIP3   OH2 4973   2.655   2.089   3.873
 1670TIP3    H1 4974   2.591   2.041   3.820
 1670TIP3    H2 4975   2.610   2.170   3.896
 1671TIP3   OH2 4976   0.834   6.604   0.280
 1671TIP3    H1 4977   0.759   6.661   0.264
 1671TIP3    H2 4978   0.798   6.515   0.276
 1672TIP3   OH2 4979   6.981   6.453   0.218
 1672TIP3    H1 4980   6.996   6.456   0.123
 1672TIP3    H2 4981   7.043   6.516   0.254
 1673TIP3   OH2 4982   1.378   5.894   2.541
 1673TIP3    H1 4983   1.455   5.859   2.498
 1673TIP3    H2 4984   1.409   5.973   2.585
 1674TIP3   OH2 4985   0.000   2.280   2.353
 1674TIP3    H1 4986  -0.053   2.229   2.291
 1674TIP3    H2 4987   0.066   2.323   2.298
 1675TIP3   OH2 4988   2.376   3.872   0.193
 1675TIP3    H1 4989   2.400   3.782   0.170
 1675TIP3    H2 4990   2.352   3.912   0.109
 1676TIP3   OH2 4991   3.060   5.382   0.692
 1676TIP3    H1 4992   3.032   5.432   0.769
 1676TIP3    H2 4993   3.136   5.430   0.658
 1677TIP3   OH2 4994   3.615   1.775   3.019
 1677TIP3    H1 4995   3.540   1.715   3.015
 1677TIP3    H2 4996   3.682   1.734   2.966
 1678TIP3   OH2 4997   3.188   1.996   3.487
 1678TIP3    H1 4998   3.133   1.988   3.565
 1678TIP3    H2 4999   3.211   2.089   3.484
 1679TIP3   OH2 5000   3.105   0.582   2.275
 1679TIP3    H1 5001   3.144   0.495   2.265
 1679TIP3    H2 5002   3.161   0.639   2.222
 1680TIP3   OH2 5003   1.784   1.583   3.667
 1680TIP3    H1 5004   1.834   1.654   3.626
 1680TIP3    H2 5005   1.818   1.503   3.625
 1681TIP3   OH2 5006   6.139   2.352   3.208
 1681TIP3    H1 5007   6.208   2.391   3.262
 1681TIP3    H2 5008   6.091   2.295   3.269
 1682TIP3   OH2 5009   7.175   0.371   1.492
 1682TIP3    H1 5010   7.208   0.301   1.436
 1682TIP3    H2 5011   7.138   0.326   1.568
 1683TIP3   OH2 5012   6.063   3.510   4.866
 1683TIP3    H1 5013   6.003   3.530   4.793
 1683TIP3    H2 5014   6.145   3.554   4.841
 1684TIP3   OH2 5015   4.229   5.797   2.808
 1684TIP3    H1 5016   4.260   5.879   2.770
 1684TIP3    H2 5017   4.246   5.731   2.741
 1685TIP3   OH2 5018   0.922   3.003   4.087
 1685TIP3    H1 5019   0.963   3.015   4.002
 1685TIP3    H2 5020   0.915   2.908   4.098
 1686TIP3   OH2 5021   4.918   0.346   2.950
 1686TIP3    H1 5022   4.971   0.404   3.004
 1686TIP3    H2 5023   4.836   0.394   2.935
 1687TIP3   OH2 5024   7.003   3.640   3.919
 1687TIP3    H1 5025   6.979   3.725   3.883
 1687TIP3    H2 5026   6.952   3.577   3.868
 1688TIP3   OH2 5027   4.791   3.204   3.673
 1688TIP3    H1 5028   4.697   3.194   3.687
 1688TIP3    H2 5029   4.814   3.284   3.721
 1689TIP3   OH2 5030   3.108   4.064   0.462
 1689TIP3    H1 5031   3.102   4.108   0.547
 1689TIP3    H2 5032   3.018   4.063   0.429
 1690TIP3   OH2 5033   0.126   1.584   2.399
 1690TIP3    H1 5034   0.093   1.509   2.350
 1690TIP3    H2 5035   0.048   1.622   2.439
 1691TIP3   OH2 5036   6.606   2.684   4.663
 1691TIP3    H1 5037   6.543   2.631   4.614
 1691TIP3    H2 5038   6.574   2.682   4.754
 1692TIP3   OH2 5039   4.862   1.530   5.425
 1692TIP3    H1 5040   4.847   1.437   5.407
 1692TIP3    H2 5041   4.803   1.551   5.498
 1693TIP3   OH2 5042   4.039   1.215   1.556
 1693TIP3    H1 5043   3.992   1.183   1.479
 1693TIP3    H2 5044   4.007   1.305   1.568
 1694TIP3   OH2 5045   0.942   6.024   2.159
 1694TIP3    H1 5046   0.876   6.080   2.198
 1694TIP3    H2 5047   1.016   6.028   2.220
 1695TIP3   OH2 5048   2.078   4.547   2.149
 1695TIP3    H1 5049   2.159   4.563   2.196
 1695TIP3    H2 5050   2.025   4.495   2.209
 1696TIP3   OH2 5051   1.346   3.436   2.607
 1696TIP3    H1 5052   1.401   3.423   2.685
 1696TIP3    H2 5053   1.273   3.376   2.619
 1697TIP3   OH2 5054   5.512   6.155   5.910
 1697TIP3    H1 5055   5.466   6.224   5.863
 1697TIP3    H2 5056   5.500   6.077   5.856
 1698TIP3   OH2 5057   2.221   1.125   5.462
 1698TIP3    H1 5058   2.303   1.168   5.435
 1698TIP3    H2 5059   2.215   1.141   5.556
 1699TIP3   OH2 5060   6.123   0.704   2.043
 1699TIP3    H1 5061   6.168   0.785   2.017
 1699TIP3    H2 5062   6.037   0.710   2.001
 1700TIP3   OH2 5063   6.020   5.730   5.784
 1700TIP3    H1 5064   5.990   5.657   5.837
 1700TIP3    H2 5065   5.973   5.721   5.701
 1701TIP3   OH2 5066   4.485   2.267   1.204
 1701TIP3    H1 5067   4.395   2.296   1.195
 1701TIP3    H2 5068   4.491   2.233   1.293
 1702TIP3   OH2 5069   3.688   0.872   1.266
 1702TIP3    H1 5070   3.726   0.953   1.231
 1702TIP3    H2 5071   3.699   0.809   1.195
 1703TIP3   OH2 5072   6.028   6.516   0.165
 1703TIP3    H1 5073   6.047   6.569   0.242
 1703TIP3    H2 5074   5.944   6.550   0.133
 1704TIP3   OH2 5075   4.449   5.452   5.034
 1704TIP3    H1 5076   4.393   5.505   4.976
 1704TIP3    H2 5077   4.426   5.480   5.122
 1705TIP3   OH2 5078   6.637   4.715   3.973
 1705TIP3    H1 5079   6.704   4.661   4.015
 1705TIP3    H2 5080   6.674   4.803   3.972
 1706TIP3   OH2 5081   5.969   6.558   1.802
 1706TIP3    H1 5082   5.951   6.583   1.893
 1706TIP3    H2 5083   5.927   6.626   1.750
 1707TIP3   OH2 5084   0.874   1.040   5.322
 1707TIP3    H1 5085   0.966   1.042   5.299
 1707TIP3    H2 5086   0.827   1.054   5.240
 1708TIP3   OH2 5087   0.325   4.658   3.067
 1708TIP3    H1 5088   0.404   4.675   3.117
 1708TIP3    H2 5089   0.304   4.566   3.085
 1709TIP3   OH2 5090   6.830   4.000   5.104
 1709TIP3    H1 5091   6.867   3.975   5.019
 1709TIP3    H2 5092   6.744   4.036   5.083
 1710TIP3   OH2 5093   5.910   0.900   2.376
 1710TIP3    H1 5094   5.839   0.960   2.399
 1710TIP3    H2 5095   5.870   0.813   2.380
 1711TIP3   OH2 5096   0.121   1.702   1.745
 1711TIP3    H1 5097   0.176   1.623   1.744
 1711TIP3    H2 5098   0.032   1.669   1.731
 1712TIP3   OH2 5099   2.687   1.122   0.172
 1712TIP3    H1 5100   2.691   1.202   0.120
 1712TIP3    H2 5101   2.752   1.064   0.133
 1713TIP3   OH2 5102   1.434   4.804   4.717
 1713TIP3    H1 5103   1.459   4.822   4.627
 1713TIP3    H2 5104   1.516   4.779   4.760
 1714TIP3   OH2 5105   3.538   4.173   0.123
 1714TIP3    H1 5106   3.497   4.245   0.171
 1714TIP3    H2 5107   3.476   4.100   0.131
 1715TIP3   OH2 5108   3.669   0.321   3.538
 1715TIP3    H1 5109   3.757   0.348   3.513
 1715TIP3    H2 5110   3.676   0.227   3.555
 1716TIP3   OH2 5111   0.596   2.230   4.993
 1716TIP3    H1 5112   0.635   2.261   5.075
 1716TIP3    H2 5113   0.580   2.310   4.943
 1717TIP3   OH2 5114   6.639   1.012   5.543
 1717TIP3    H1 5115   6.654   1.106   5.540
 1717TIP3    H2 5116   6.669   0.985   5.629
 1718TIP3   OH2 5117   5.257   4.010   1.407
 1718TIP3    H1 5118   5.350   4.030   1.418
 1718TIP3    H2 5119   5.255   3.918   1.380
 1719TIP3   OH2 5120   6.758   0.653   2.333
 1719TIP3    H1 5121   6.784   0.735   2.375
 1719TIP3    H2 5122   6.787   0.585   2.393
 1720TIP3   OH2 5123   5.400   3.632   0.369
 1720TIP3    H1 5124   5.317   3.678   0.358
 1720TIP3    H2 5125   5.394   3.558   0.309
 1721TIP3   OH2 5126   0.356   6.214   3.212
 1721TIP3    H1 5127   0.395   6.256   3.135
 1721TIP3    H2 5128   0.366   6.278   3.282
 1722TIP3   OH2 5129   6.762   5.292   4.782
 1722TIP3    H1 5130   6.668   5.302   4.791
 1722TIP3    H2 5131   6.800   5.362   4.836
 1723TIP3   OH2 5132   2.990   4.212   0.710
 1723TIP3    H1 5133   3.016   4.181   0.796
 1723TIP3    H2 5134   2.906   4.170   0.693
 1724TIP3   OH2 5135   6.907   5.683   0.455
 1724TIP3    H1 5136   6.844   5.616   0.428
 1724TIP3    H2 5137   6.882   5.761   0.406
 1725TIP3   OH2 5138   6.702   0.854   2.117
 1725TIP3    H1 5139   6.638   0.917   2.150
 1725TIP3    H2 5140   6.732   0.807   2.195
 1726TIP3   OH2 5141   3.950   1.411   1.269
 1726TIP3    H1 5142   4.003   1.488   1.291
 1726TIP3    H2 5143   3.865   1.427   1.310
 1727TIP3   OH2 5144   4.669   5.720   0.766
 1727TIP3    H1 5145   4.743   5.779   0.756
 1727TIP3    H2 5146   4.614   5.736   0.689
 1728TIP3   OH2 5147   3.480   1.358   2.159
 1728TIP3    H1 5148   3.436   1.296   2.100
 1728TIP3    H2 5149   3.438   1.442   2.139
 1729TIP3   OH2 5150   6.213   1.212   1.323
 1729TIP3    H1 5151   6.185   1.182   1.236
 1729TIP3    H2 5152   6.289   1.158   1.344
 1730TIP3   OH2 5153   4.545   5.882   2.502
 1730TIP3    H1 5154   4.544   5.923   2.415
 1730TIP3    H2 5155   4.632   5.842   2.508
 1731TIP3   OH2 5156   4.132   1.418   1.004
 1731TIP3    H1 5157   4.209   1.474   0.994
 1731TIP3    H2 5158   4.107   1.427   1.096
 1732TIP3   OH2 5159   3.008   1.789   0.049
 1732TIP3    H1 5160   2.981   1.711   0.001
 1732TIP3    H2 5161   2.927   1.837   0.064
 1733TIP3   OH2 5162   5.469   0.443   4.129
 1733TIP3    H1 5163   5.395   0.394   4.164
 1733TIP3    H2 5164   5.435   0.487   4.051
 1734TIP3   OH2 5165   1.948   2.770   5.110
 1734TIP3    H1 5166   1.985   2.818   5.036
 1734TIP3    H2 5167   1.874   2.823   5.140
 1735TIP3   OH2 5168   3.386   0.601   1.787
 1735TIP3    H1 5169   3.358   0.519   1.828
 1735TIP3    H2 5170   3.447   0.640   1.849
 1736TIP3   OH2 5171   0.735   0.532   5.446
 1736TIP3    H1 5172   0.723   0.625   5.428
 1736TIP3    H2 5173   0.658   0.508   5.499
 1737TIP3   OH2 5174   2.288   1.406   5.153
 1737TIP3    H1 5175   2.334   1.383   5.234
 1737TIP3    H2 5176   2.198   1.377   5.168
 1738TIP3   OH2 5177   3.444   5.666   3.103
 1738TIP3    H1 5178   3.496   5.698   3.178
 1738TIP3    H2 5179   3.458   5.572   3.102
 1739TIP3   OH2 5180   4.029   1.525   1.655
 1739TIP3    H1 5181   3.981   1.595   1.610
 1739TIP3    H2 5182   3.961   1.465   1.686
 1740TIP3   OH2 5183   0.472   0.748   3.788
 1740TIP3    H1 5184   0.409   0.820   3.782
 1740TIP3    H2 5185   0.428   0.674   3.747
 1741TIP3   OH2 5186   3.936   5.422   3.999
 1741TIP3    H1 5187   4.026   5.445   3.974
 1741TIP3    H2 5188   3.898   5.503   4.030
 1742TIP3   OH2 5189   2.233   1.990   3.862
 1742TIP3    H1 5190   2.201   2.048   3.793
 1742TIP3    H2 5191   2.321   1.966   3.835
 1743TIP3   OH2 5192  -0.018   2.112   1.649
 1743TIP3    H1 5193   0.013   2.136   1.562
 1743TIP3    H2 5194   0.058   2.074   1.693
 1744TIP3   OH2 5195   4.964   2.866   4.419
 1744TIP3    H1 5196   5.053   2.883   4.451
 1744TIP3    H2 5197   4.910   2.869   4.498
 1745TIP3   OH2 5198   4.748   2.555   0.320
 1745TIP3    H1 5199   4.782   2.522   0.403
 1745TIP3    H2 5200   4.729   2.477   0.268
 1746TIP3   OH2 5201   6.779   1.017   3.618
 1746TIP3    H1 5202   6.862   0.993   3.576
 1746TIP3    H2 5203   6.745   1.089   3.565
 1747TIP3   OH2 5204   1.202   0.356   0.439
 1747TIP3    H1 5205   1.172   0.427   0.382
 1747TIP3    H2 5206   1.281   0.390   0.480
 1748TIP3   OH2 5207   3.508   0.066   1.512
 1748TIP3    H1 5208   3.562   0.062   1.433
 1748TIP3    H2 5209   3.419   0.079   1.480
 1749TIP3   OH2 5210   2.486   4.723   0.822
 1749TIP3    H1 5211   2.467   4.773   0.742
 1749TIP3    H2 5212   2.437   4.641   0.810
 1750TIP3   OH2 5213   5.184   1.479   2.642
 1750TIP3    H1 5214   5.193   1.571   2.665
 1750TIP3    H2 5215   5.232   1.432   2.710
 1751TIP3   OH2 5216   5.665   6.548   5.502
 1751TIP3    H1 5217   5.621   6.472   5.540
 1751TIP3    H2 5218   5.758   6.531   5.515
 1752TIP3   OH2 5219   6.071   4.912   3.276
 1752TIP3    H1 5220   6.017   4.954   3.209
 1752TIP3    H2 5221   6.066   4.819   3.257
 1753TIP3   OH2 5222   2.546   0.504   4.323
 1753TIP3    H1 5223   2.459   0.465   4.326
 1753TIP3    H2 5224   2.595   0.449   4.262
 1754TIP3   OH2 5225   4.863   4.967   4.338
 1754TIP3    H1 5226   4.771   4.977   4.313
 1754TIP3    H2 5227   4.906   4.937   4.258
 1755TIP3   OH2 5228   3.695   5.406   5.200
 1755TIP3    H1 5229   3.765   5.353   5.161
 1755TIP3    H2 5230   3.740   5.483   5.234
 1756TIP3   OH2 5231   4.539   2.045   4.564
 1756TIP3    H1 5232   4.608   2.071   4.624
 1756TIP3    H2 5233   4.462   2.095   4.593
 1757TIP3   OH2 5234   1.094   6.078   1.706
 1757TIP3    H1 5235   1.048   6.155   1.675
 1757TIP3    H2 5236   1.025   6.012   1.719
 1758TIP3   OH2 5237   1.542   5.897   5.596
 1758TIP3    H1 5238   1.530   5.838   5.522
 1758TIP3    H2 5239   1.516   5.983   5.563
 1759TIP3   OH2 5240   2.049   1.605   2.785
 1759TIP3    H1 5241   2.083   1.559   2.709
 1759TIP3    H2 5242   2.126   1.622   2.840
 1760TIP3   OH2 5243   6.453   4.925   4.493
 1760TIP3    H1 5244   6.513   4.893   4.560
 1760TIP3    H2 5245   6.484   5.014   4.474
 1761TIP3   OH2 5246   4.309   0.428   1.117
 1761TIP3    H1 5247   4.362   0.476   1.180
 1761TIP3    H2 5248   4.357   0.434   1.034
 1762TIP3   OH2 5249   2.748   4.933   1.540
 1762TIP3    H1 5250   2.777   4.863   1.598
 1762TIP3    H2 5251   2.757   4.897   1.452
 1763TIP3   OH2 5252   6.661   3.841   1.175
 1763TIP3    H1 5253   6.630   3.753   1.154
 1763TIP3    H2 5254   6.736   3.854   1.117
 1764TIP3   OH2 5255   6.775   3.252   4.971
 1764TIP3    H1 5256   6.699   3.289   5.016
 1764TIP3    H2 5257   6.786   3.307   4.894
 1765TIP3   OH2 5258   4.678   6.294   3.856
 1765TIP3    H1 5259   4.686   6.200   3.871
 1765TIP3    H2 5260   4.641   6.328   3.937
 1766TIP3   OH2 5261   0.125   5.271   4.694
 1766TIP3    H1 5262   0.159   5.356   4.721
 1766TIP3    H2 5263   0.194   5.209   4.720
 1767TIP3   OH2 5264   3.859   4.195   3.351
 1767TIP3    H1 5265   3.780   4.153   3.385
 1767TIP3    H2 5266   3.839   4.288   3.350
 1768TIP3   OH2 5267   2.827   5.016   5.505
 1768TIP3    H1 5268   2.883   5.038   5.432
 1768TIP3    H2 5269   2.823   4.920   5.505
 1769TIP3   OH2 5270   6.018   3.632   4.424
 1769TIP3    H1 5271   6.072   3.578   4.481
 1769TIP3    H2 5272   6.077   3.699   4.391
 1770TIP3   OH2 5273   0.448   2.554   0.281
 1770TIP3    H1 5274   0.447   2.481   0.219
 1770TIP3    H2 5275   0.540   2.575   0.293
 1771TIP3   OH2 5276   1.387   2.043   1.192
 1771TIP3    H1 5277   1.428   2.005   1.114
 1771TIP3    H2 5278   1.293   2.030   1.179
 1772TIP3   OH2 5279   7.219   4.808   5.313
 1772TIP3    H1 5280   7.171   4.735   5.353
 1772TIP3    H2 5281   7.263   4.769   5.238
 1773TIP3   OH2 5282   6.085   3.728   3.197
 1773TIP3    H1 5283   6.112   3.818   3.215
 1773TIP3    H2 5284   5.995   3.736   3.167
 1774TIP3   OH2 5285   6.463   4.498   3.837
 1774TIP3    H1 5286   6.510   4.568   3.882
 1774TIP3    H2 5287   6.389   4.541   3.796
 1775TIP3   OH2 5288   1.156   2.180   5.753
 1775TIP3    H1 5289   1.202   2.110   5.707
 1775TIP3    H2 5290   1.091   2.211   5.690
 1776TIP3   OH2 5291   0.887   2.102   0.317
 1776TIP3    H1 5292   0.941   2.052   0.379
 1776TIP3    H2 5293   0.938   2.181   0.298
 1777TIP3   OH2 5294   1.814   2.286   3.829
 1777TIP3    H1 5295   1.731   2.289   3.781
 1777TIP3    H2 5296   1.789   2.297   3.921
 1778TIP3   OH2 5297   3.730   2.294   4.278
 1778TIP3    H1 5298   3.695   2.383   4.277
 1778TIP3    H2 5299   3.661   2.240   4.240
 1779TIP3   OH2 5300   4.444   3.970   1.680
 1779TIP3    H1 5301   4.483   3.885   1.661
 1779TIP3    H2 5302   4.462   4.023   1.603
 1780TIP3   OH2 5303   2.765   1.350   5.133
 1780TIP3    H1 5304   2.764   1.303   5.049
 1780TIP3    H2 5305   2.734   1.286   5.197
 1781TIP3   OH2 5306   3.701   3.482   3.702
 1781TIP3    H1 5307   3.694   3.577   3.690
 1781TIP3    H2 5308   3.783   3.470   3.750
 1782TIP3   OH2 5309   0.674   5.562   0.597
 1782TIP3    H1 5310   0.743   5.499   0.618
 1782TIP3    H2 5311   0.592   5.513   0.608
 1783TIP3   OH2 5312   5.251   0.217   2.668
 1783TIP3    H1 5313   5.166   0.183   2.695
 1783TIP3    H2 5314   5.281   0.270   2.743
 1784TIP3   OH2 5315   6.312   4.243   1.524
 1784TIP3    H1 5316   6.227   4.239   1.568
 1784TIP3    H2 5317   6.376   4.246   1.595
 1785TIP3   OH2 5318   6.307   0.268   3.234
 1785TIP3    H1 5319   6.392   0.310   3.247
 1785TIP3    H2 5320   6.326   0.190   3.183
 1786TIP3   OH2 5321   2.612   3.925   5.315
 1786TIP3    H1 5322   2.697   3.927   5.272
 1786TIP3    H2 5323   2.564   3.999   5.276
 1787TIP3   OH2 5324   6.486   6.274   5.308
 1787TIP3    H1 5325   6.494   6.333   5.233
 1787TIP3    H2 5326   6.476   6.332   5.383
 1788TIP3   OH2 5327   2.229   5.687   1.707
 1788TIP3    H1 5328   2.138   5.704   1.730
 1788TIP3    H2 5329   2.277   5.765   1.738
 1789TIP3   OH2 5330   1.574   3.396   5.691
 1789TIP3    H1 5331   1.592   3.486   5.716
 1789TIP3    H2 5332   1.583   3.394   5.596
 1790TIP3   OH2 5333   5.664   5.320   4.795
 1790TIP3    H1 5334   5.728   5.371   4.845
 1790TIP3    H2 5335   5.586   5.318   4.851
 1791TIP3   OH2 5336   5.881   6.068   3.656
 1791TIP3    H1 5337   5.817   6.000   3.635
 1791TIP3    H2 5338   5.892   6.118   3.575
 1792TIP3   OH2 5339   0.197   0.870   4.821
 1792TIP3    H1 5340   0.234   0.924   4.751
 1792TIP3    H2 5341   0.186   0.784   4.781
 1793TIP3   OH2 5342   1.264   0.032   0.105
 1793TIP3    H1 5343   1.185   0.083   0.123
 1793TIP3    H2 5344   1.303   0.017   0.191
 1794TIP3   OH2 5345   3.551   2.991   4.594
 1794TIP3    H1 5346   3.610   2.952   4.530
 1794TIP3    H2 5347   3.482   2.926   4.606
 1795TIP3   OH2 5348   6.963   0.586   3.974
 1795TIP3    H1 5349   7.044   0.536   3.964
 1795TIP3    H2 5350   6.895   0.519   3.982
 1796TIP3   OH2 5351   4.749   1.324   4.498
 1796TIP3    H1 5352   4.686   1.258   4.469
 1796TIP3    H2 5353   4.770   1.298   4.588
 1797TIP3   OH2 5354   6.239   2.008   0.688
 1797TIP3    H1 5355   6.219   2.076   0.752
 1797TIP3    H2 5356   6.330   2.024   0.665
 1798TIP3   OH2 5357   6.940   5.736   5.611
 1798TIP3    H1 5358   6.860   5.755   5.563
 1798TIP3    H2 5359   6.960   5.816   5.659
 1799TIP3   OH2 5360   6.640   0.250   3.972
 1799TIP3    H1 5361   6.631   0.165   4.016
 1799TIP3    H2 5362   6.551   0.271   3.943
 1800TIP3   OH2 5363   6.060   1.865   2.667
 1800TIP3    H1 5364   6.099   1.799   2.609
 1800TIP3    H2 5365   6.000   1.913   2.611
 1801TIP3   OH2 5366   4.951   1.956   2.882
 1801TIP3    H1 5367   5.005   1.940   2.959
 1801TIP3    H2 5368   4.912   1.870   2.862
 1802TIP3   OH2 5369   2.711   4.712   0.979
 1802TIP3    H1 5370   2.635   4.683   0.929
 1802TIP3    H2 5371   2.784   4.703   0.917
 1803TIP3   OH2 5372   0.966   1.365   0.335
 1803TIP3    H1 5373   0.877   1.338   0.358
 1803TIP3    H2 5374   0.994   1.302   0.269
 1804TIP3   OH2 5375   0.666   6.521   1.781
 1804TIP3    H1 5376   0.601   6.564   1.837
 1804TIP3    H2 5377   0.743   6.578   1.785
 1805TIP3   OH2 5378   5.483   5.230   2.470
 1805TIP3    H1 5379   5.419   5.267   2.531
 1805TIP3    H2 5380   5.538   5.304   2.445
 1806TIP3   OH2 5381   5.121   5.413   5.466
 1806TIP3    H1 5382   5.193   5.463   5.427
 1806TIP3    H2 5383   5.158   5.378   5.547
 1807TIP3   OH2 5384   2.165   2.650   4.676
 1807TIP3    H1 5385   2.217   2.597   4.615
 1807TIP3    H2 5386   2.104   2.588   4.715
 1808TIP3   OH2 5387   5.752   3.526   1.207
 1808TIP3    H1 5388   5.800   3.582   1.268
 1808TIP3    H2 5389   5.808   3.522   1.130
 1809TIP3   OH2 5390   4.413   2.203   5.513
 1809TIP3    H1 5391   4.421   2.276   5.575
 1809TIP3    H2 5392   4.355   2.237   5.444
 1810TIP3   OH2 5393   2.521   4.293   0.402
 1810TIP3    H1 5394   2.603   4.248   0.378
 1810TIP3    H2 5395   2.453   4.244   0.357
 1811TIP3   OH2 5396   0.956   5.845   5.552
 1811TIP3    H1 5397   0.866   5.839   5.518
 1811TIP3    H2 5398   1.006   5.886   5.481
 1812TIP3   OH2 5399   6.370   5.996   5.643
 1812TIP3    H1 5400   6.357   5.924   5.704
 1812TIP3    H2 5401   6.356   6.075   5.695
 1813TIP3   OH2 5402   1.252   5.803   5.706
 1813TIP3    H1 5403   1.307   5.841   5.636
 1813TIP3    H2 5404   1.248   5.710   5.684
 1814TIP3   OH2 5405   0.236   3.545   1.721
 1814TIP3    H1 5406   0.163   3.503   1.676
 1814TIP3    H2 5407   0.213   3.541   1.813
 1815TIP3   OH2 5408   2.497   0.062   1.262
 1815TIP3    H1 5409   2.580   0.081   1.305
 1815TIP3    H2 5410   2.432   0.113   1.311
 1816TIP3   OH2 5411   1.871   3.972   1.614
 1816TIP3    H1 5412   1.867   4.000   1.706
 1816TIP3    H2 5413   1.800   3.908   1.606
 1817TIP3   OH2 5414   4.623   3.949   5.738
 1817TIP3    H1 5415   4.658   4.009   5.671
 1817TIP3    H2 5416   4.537   3.924   5.704
 1818TIP3   OH2 5417   6.688   5.450   4.245
 1818TIP3    H1 5418   6.781   5.463   4.259
 1818TIP3    H2 5419   6.678   5.448   4.149
 1819TIP3   OH2 5420   5.095   3.009   4.728
 1819TIP3    H1 5421   5.143   3.058   4.794
 1819TIP3    H2 5422   5.126   2.919   4.737
 1820TIP3   OH2 5423   6.117   3.889   3.809
 1820TIP3    H1 5424   6.151   3.954   3.872
 1820TIP3    H2 5425   6.171   3.902   3.731
 1821TIP3   OH2 5426   6.147   5.332   0.843
 1821TIP3    H1 5427   6.087   5.404   0.865
 1821TIP3    H2 5428   6.150   5.333   0.747
 1822TIP3   OH2 5429   5.417   1.280   4.236
 1822TIP3    H1 5430   5.381   1.314   4.154
 1822TIP3    H2 5431   5.512   1.284   4.224
 1823TIP3   OH2 5432   3.700   6.535   0.905
 1823TIP3    H1 5433   3.676   6.526   0.813
 1823TIP3    H2 5434   3.658   6.617   0.932
 1824TIP3   OH2 5435   3.695   2.545   3.565
 1824TIP3    H1 5436   3.656   2.623   3.603
 1824TIP3    H2 5437   3.631   2.517   3.499
 1825TIP3   OH2 5438   7.220   1.508   4.456
 1825TIP3    H1 5439   7.157   1.580   4.452
 1825TIP3    H2 5440   7.196   1.459   4.535
 1826TIP3   OH2 5441   2.650   3.055   0.800
 1826TIP3    H1 5442   2.697   2.973   0.786
 1826TIP3    H2 5443   2.562   3.027   0.826
 1827TIP3   OH2 5444   5.469   3.652   0.963
 1827TIP3    H1 5445   5.384   3.616   0.988
 1827TIP3    H2 5446   5.520   3.650   1.044
 1828TIP3   OH2 5447   3.235   0.816   2.466
 1828TIP3    H1 5448   3.243   0.805   2.561
 1828TIP3    H2 5449   3.276   0.738   2.429
 1829TIP3   OH2 5450   6.137   3.168   5.139
 1829TIP3    H1 5451   6.059   3.222   5.145
 1829TIP3    H2 5452   6.189   3.193   5.215
 1830TIP3   OH2 5453   4.823   6.066   2.148
 1830TIP3    H1 5454   4.818   5.974   2.120
 1830TIP3    H2 5455   4.915   6.079   2.172
 1831TIP3   OH2 5456   2.962   4.391   4.442
 1831TIP3    H1 5457   3.053   4.419   4.451
 1831TIP3    H2 5458   2.967   4.295   4.436
 1832TIP3   OH2 5459   1.963   6.832   2.123
 1832TIP3    H1 5460   2.018   6.794   2.056
 1832TIP3    H2 5461   1.876   6.839   2.083
 1833TIP3   OH2 5462   3.565   5.552   4.446
 1833TIP3    H1 5463   3.634   5.544   4.381
 1833TIP3    H2 5464   3.577   5.639   4.484
 1834TIP3   OH2 5465   6.142   4.516   1.959
 1834TIP3    H1 5466   6.230   4.507   1.996
 1834TIP3    H2 5467   6.134   4.609   1.939
 1835TIP3   OH2 5468   2.797   2.244   3.195
 1835TIP3    H1 5469   2.772   2.323   3.243
 1835TIP3    H2 5470   2.882   2.219   3.232
 1836TIP3   OH2 5471   2.514   3.917   3.803
 1836TIP3    H1 5472   2.478   3.866   3.876
 1836TIP3    H2 5473   2.603   3.884   3.792
 1837TIP3   OH2 5474   4.314   4.237   1.127
 1837TIP3    H1 5475   4.315   4.144   1.150
 1837TIP3    H2 5476   4.368   4.278   1.194
 1838TIP3   OH2 5477   4.911   4.804   1.453
 1838TIP3    H1 5478   4.974   4.750   1.406
 1838TIP3    H2 5479   4.896   4.757   1.535
 1839TIP3   OH2 5480   1.367   6.008   1.603
 1839TIP3    H1 5481   1.400   6.019   1.692
 1839TIP3    H2 5482   1.278   6.041   1.606
 1840TIP3   OH2 5483   1.851   6.704   3.064
 1840TIP3    H1 5484   1.866   6.715   3.158
 1840TIP3    H2 5485   1.869   6.612   3.047
 1841TIP3   OH2 5486   5.472   2.601   3.068
 1841TIP3    H1 5487   5.528   2.649   3.129
 1841TIP3    H2 5488   5.383   2.615   3.101
 1842TIP3   OH2 5489   5.520   5.136   3.820
 1842TIP3    H1 5490   5.479   5.099   3.898
 1842TIP3    H2 5491   5.474   5.097   3.747
 1843TIP3   OH2 5492   2.848   4.677   1.417
 1843TIP3    H1 5493   2.849   4.651   1.509
 1843TIP3    H2 5494   2.926   4.636   1.379
 1844TIP3   OH2 5495   0.312   6.795   0.952
 1844TIP3    H1 5496   0.279   6.826   0.868
 1844TIP3    H2 5497   0.342   6.706   0.935
 1845TIP3   OH2 5498   4.099   2.565   5.217
 1845TIP3    H1 5499   4.158   2.631   5.253
 1845TIP3    H2 5500   4.102   2.580   5.123
 1846TIP3   OH2 5501   4.589   1.769   2.420
 1846TIP3    H1 5502   4.681   1.786   2.399
 1846TIP3    H2 5503   4.547   1.855   2.418
 1847TIP3   OH2 5504   2.899   4.774   5.795
 1847TIP3    H1 5505   2.889   4.792   5.889
 1847TIP3    H2 5506   2.815   4.798   5.757
 1848TIP3   OH2 5507   2.016   0.280   2.208
 1848TIP3    H1 5508   2.002   0.253   2.118
 1848TIP3    H2 5509   1.965   0.217   2.260
 1849TIP3   OH2 5510   3.838   4.131   0.987
 1849TIP3    H1 5511   3.849   4.154   0.895
 1849TIP3    H2 5512   3.924   4.103   1.016
 1850TIP3   OH2 5513   0.773   5.732   2.370
 1850TIP3    H1 5514   0.852   5.782   2.349
 1850TIP3    H2 5515   0.801   5.668   2.436
 1851TIP3   OH2 5516   1.272   4.041   2.324
 1851TIP3    H1 5517   1.251   4.077   2.410
 1851TIP3    H2 5518   1.303   4.116   2.273
 1852TIP3   OH2 5519   4.700   3.044   3.973
 1852TIP3    H1 5520   4.758   3.111   3.936
 1852TIP3    H2 5521   4.633   3.093   4.019
 1853TIP3   OH2 5522   6.940   1.080   0.940
 1853TIP3    H1 5523   6.852   1.060   0.906
 1853TIP3    H2 5524   6.927   1.155   0.997
 1854TIP3   OH2 5525   5.001   2.983   1.114
 1854TIP3    H1 5526   4.931   2.918   1.117
 1854TIP3    H2 5527   4.999   3.016   1.025
 1855TIP3   OH2 5528   2.581   3.914   4.912
 1855TIP3    H1 5529   2.555   3.969   4.986
 1855TIP3    H2 5530   2.596   3.976   4.840
 1856TIP3   OH2 5531   6.459   0.394   1.179
 1856TIP3    H1 5532   6.537   0.343   1.200
 1856TIP3    H2 5533   6.493   0.480   1.153
 1857TIP3   OH2 5534   1.239   0.715   4.933
 1857TIP3    H1 5535   1.160   0.732   4.881
 1857TIP3    H2 5536   1.233   0.622   4.955
 1858TIP3   OH2 5537   1.641   6.655   3.740
 1858TIP3    H1 5538   1.596   6.572   3.756
 1858TIP3    H2 5539   1.621   6.676   3.649
 1859TIP3   OH2 5540   5.039   5.033   1.442
 1859TIP3    H1 5541   4.981   4.958   1.448
 1859TIP3    H2 5542   5.079   5.040   1.528
 1860TIP3   OH2 5543   4.842   0.229   3.515
 1860TIP3    H1 5544   4.823   0.143   3.477
 1860TIP3    H2 5545   4.858   0.211   3.608
 1861TIP3   OH2 5546   6.904   2.985   1.926
 1861TIP3    H1 5547   6.876   3.073   1.949
 1861TIP3    H2 5548   6.936   2.993   1.836
 1862TIP3   OH2 5549   5.040   0.040   4.158
 1862TIP3    H1 5550   5.109  -0.019   4.128
 1862TIP3    H2 5551   4.997  -0.007   4.229
 1863TIP3   OH2 5552   7.095   5.361   1.217
 1863TIP3    H1 5553   7.079   5.324   1.130
 1863TIP3    H2 5554   7.166   5.424   1.203
 1864TIP3   OH2 5555   0.264   4.106   3.174
 1864TIP3    H1 5556   0.265   4.025   3.123
 1864TIP3    H2 5557   0.230   4.080   3.260
 1865TIP3   OH2 5558   4.564   6.274   0.543
 1865TIP3    H1 5559   4.630   6.241   0.605
 1865TIP3    H2 5560   4.555   6.204   0.479
 1866TIP3   OH2 5561   5.507   3.087   5.145
 1866TIP3    H1 5562   5.475   3.009   5.191
 1866TIP3    H2 5563   5.587   3.059   5.102
 1867TIP3   OH2 5564   2.492   1.197   0.498
 1867TIP3    H1 5565   2.472   1.284   0.532
 1867TIP3    H2 5566   2.535   1.152   0.570
 1868TIP3   OH2 5567   1.435   0.638   5.872
 1868TIP3    H1 5568   1.363   0.688   5.836
 1868TIP3    H2 5569   1.393   0.570   5.925
 1869TIP3   OH2 5570   2.082   5.065   0.371
 1869TIP3    H1 5571   2.034   5.051   0.452
 1869TIP3    H2 5572   2.110   4.977   0.343
 1870TIP3   OH2 5573   2.331   0.176   4.894
 1870TIP3    H1 5574   2.407   0.234   4.893
 1870TIP3    H2 5575   2.256   0.235   4.907
 1871TIP3   OH2 5576   1.351   3.587   3.764
 1871TIP3    H1 5577   1.385   3.545   3.685
 1871TIP3    H2 5578   1.270   3.630   3.736
 1872TIP3   OH2 5579   4.205   6.730   1.090
 1872TIP3    H1 5580   4.114   6.727   1.118
 1872TIP3    H2 5581   4.252   6.679   1.156
 1873TIP3   OH2 5582   5.742   5.219   2.916
 1873TIP3    H1 5583   5.753   5.153   2.984
 1873TIP3    H2 5584   5.647   5.226   2.904
 1874TIP3   OH2 5585   1.892   1.658   2.185
 1874TIP3    H1 5586   1.906   1.597   2.258
 1874TIP3    H2 5587   1.829   1.612   2.128
 1875TIP3   OH2 5588   2.064   1.837   0.787
 1875TIP3    H1 5589   2.155   1.825   0.815
 1875TIP3    H2 5590   2.022   1.753   0.807
 1876TIP3   OH2 5591   0.949   4.956   1.846
 1876TIP3    H1 5592   0.957   4.901   1.768
 1876TIP3    H2 5593   1.035   4.952   1.887
 1877TIP3   OH2 5594   1.392   4.778   3.855
 1877TIP3    H1 5595   1.340   4.777   3.936
 1877TIP3    H2 5596   1.352   4.847   3.802
 1878TIP3   OH2 5597   5.930   3.922   2.223
 1878TIP3    H1 5598   6.013   3.949   2.184
 1878TIP3    H2 5599   5.953   3.888   2.310
 1879TIP3   OH2 5600   1.735   2.341   4.720
 1879TIP3    H1 5601   1.714   2.282   4.647
 1879TIP3    H2 5602   1.787   2.411   4.680
 1880TIP3   OH2 5603   2.910   2.181   3.864
 1880TIP3    H1 5604   2.826   2.134   3.864
 1880TIP3    H2 5605   2.904   2.242   3.791
 1881TIP3   OH2 5606   5.964   4.809   0.264
 1881TIP3    H1 5607   5.891   4.848   0.215
 1881TIP3    H2 5608   5.923   4.772   0.341
 1882TIP3   OH2 5609   4.319   6.235   3.043
 1882TIP3    H1 5610   4.278   6.176   3.106
 1882TIP3    H2 5611   4.377   6.179   2.991
 1883TIP3   OH2 5612   5.441   2.831   3.639
 1883TIP3    H1 5613   5.463   2.744   3.670
 1883TIP3    H2 5614   5.348   2.826   3.618
 1884TIP3   OH2 5615   3.725   1.754   0.535
 1884TIP3    H1 5616   3.666   1.798   0.598
 1884TIP3    H2 5617   3.708   1.661   0.547
 1885TIP3   OH2 5618   4.242   3.633   1.504
 1885TIP3    H1 5619   4.211   3.543   1.490
 1885TIP3    H2 5620   4.335   3.624   1.522
 1886TIP3   OH2 5621   6.166   6.684   3.052
 1886TIP3    H1 5622   6.156   6.749   3.122
 1886TIP3    H2 5623   6.253   6.701   3.015
 1887TIP3   OH2 5624   6.910   0.733   1.903
 1887TIP3    H1 5625   6.900   0.823   1.873
 1887TIP3    H2 5626   6.886   0.735   1.995
 1888TIP3   OH2 5627   5.699   0.318   4.206
 1888TIP3    H1 5628   5.621   0.357   4.168
 1888TIP3    H2 5629   5.667   0.267   4.281
 1889TIP3   OH2 5630   5.317   3.208   4.014
 1889TIP3    H1 5631   5.263   3.196   4.092
 1889TIP3    H2 5632   5.315   3.123   3.970
 1890TIP3   OH2 5633   5.227   0.619   5.804
 1890TIP3    H1 5634   5.315   0.647   5.779
 1890TIP3    H2 5635   5.242   0.554   5.873
 1891TIP3   OH2 5636   2.801   6.285   1.597
 1891TIP3    H1 5637   2.887   6.327   1.603
 1891TIP3    H2 5638   2.780   6.260   1.687
 1892TIP3   OH2 5639   5.427   2.989   1.332
 1892TIP3    H1 5640   5.508   2.984   1.383
 1892TIP3    H2 5641   5.359   2.998   1.398
 1893TIP3   OH2 5642   5.163   5.736   0.926
 1893TIP3    H1 5643   5.180   5.644   0.946
 1893TIP3    H2 5644   5.079   5.754   0.967
 1894TIP3   OH2 5645   4.431   5.866   5.173
 1894TIP3    H1 5646   4.463   5.797   5.115
 1894TIP3    H2 5647   4.347   5.834   5.205
 1895TIP3   OH2 5648   4.358   0.330   2.312
 1895TIP3    H1 5649   4.322   0.304   2.227
 1895TIP3    H2 5650   4.378   0.423   2.303
 1896TIP3   OH2 5651   3.088   4.841   3.881
 1896TIP3    H1 5652   3.175   4.842   3.840
 1896TIP3    H2 5653   3.101   4.880   3.967
 1897TIP3   OH2 5654   4.626   0.687   1.971
 1897TIP3    H1 5655   4.698   0.658   1.914
 1897TIP3    H2 5656   4.552   0.633   1.944
 1898TIP3   OH2 5657   3.127   0.454   5.722
 1898TIP3    H1 5658   3.195   0.423   5.781
 1898TIP3    H2 5659   3.047   0.453   5.774
 1899TIP3   OH2 5660   3.199   3.310   3.731
 1899TIP3    H1 5661   3.127   3.369   3.755
 1899TIP3    H2 5662   3.177   3.281   3.642
 1900TIP3   OH2 5663   0.420   6.552   0.278
 1900TIP3    H1 5664   0.343   6.537   0.223
 1900TIP3    H2 5665   0.449   6.465   0.304
 1901TIP3   OH2 5666   3.104   4.044   4.146
 1901TIP3    H1 5667   3.164   4.047   4.071
 1901TIP3    H2 5668   3.144   4.100   4.212
 1902TIP3   OH2 5669   4.234   0.143   1.796
 1902TIP3    H1 5670   4.181   0.200   1.740
 1902TIP3    H2 5671   4.206   0.164   1.885
 1903TIP3   OH2 5672   7.042   0.635   1.411
 1903TIP3    H1 5673   7.024   0.696   1.340
 1903TIP3    H2 5674   6.967   0.643   1.470
 1904TIP3   OH2 5675   3.544   0.273   2.173
 1904TIP3    H1 5676   3.472   0.220   2.138
 1904TIP3    H2 5677   3.513   0.300   2.259
 1905TIP3   OH2 5678   1.610   2.773   5.399
 1905TIP3    H1 5679   1.634   2.681   5.402
 1905TIP3    H2 5680   1.615   2.796   5.306
 1906TIP3   OH2 5681   5.204   2.612   5.309
 1906TIP3    H1 5682   5.237   2.610   5.220
 1906TIP3    H2 5683   5.255   2.547   5.356
 1907TIP3   OH2 5684   2.226   3.592   0.911
 1907TIP3    H1 5685   2.249   3.566   1.000
 1907TIP3    H2 5686   2.253   3.518   0.857
 1908TIP3   OH2 5687   2.495   5.115   0.214
 1908TIP3    H1 5688   2.571   5.061   0.234
 1908TIP3    H2 5689   2.501   5.189   0.275
 1909TIP3   OH2 5690   2.991   0.763   0.629
 1909TIP3    H1 5691   3.050   0.829   0.591
 1909TIP3    H2 5692   2.905   0.783   0.590
 1910TIP3   OH2 5693   3.499   1.220   3.065
 1910TIP3    H1 5694   3.532   1.288   3.124
 1910TIP3    H2 5695   3.562   1.148   3.075
 1911TIP3   OH2 5696   6.495   5.746   4.706
 1911TIP3    H1 5697   6.461   5.658   4.692
 1911TIP3    H2 5698   6.421   5.804   4.685
 1912TIP3   OH2 5699   1.221   0.803   3.805
 1912TIP3    H1 5700   1.139   0.850   3.817
 1912TIP3    H2 5701   1.206   0.748   3.728
 1913TIP3   OH2 5702   4.954   0.645   3.720
 1913TIP3    H1 5703   4.983   0.719   3.773
 1913TIP3    H2 5704   4.910   0.587   3.782
 1914TIP3   OH2 5705   5.371   4.119   4.768
 1914TIP3    H1 5706   5.297   4.083   4.719
 1914TIP3    H2 5707   5.419   4.171   4.704
 1915TIP3   OH2 5708   5.145   4.077   3.418
 1915TIP3    H1 5709   5.081   4.142   3.389
 1915TIP3    H2 5710   5.129   4.067   3.512
 1916TIP3   OH2 5711   5.254   3.754   1.324
 1916TIP3    H1 5712   5.267   3.659   1.327
 1916TIP3    H2 5713   5.167   3.765   1.286
 1917TIP3   OH2 5714   2.357   5.935   0.686
 1917TIP3    H1 5715   2.290   5.999   0.709
 1917TIP3    H2 5716   2.364   5.879   0.764
 1918TIP3   OH2 5717   5.496   4.602   4.779
 1918TIP3    H1 5718   5.563   4.553   4.731
 1918TIP3    H2 5719   5.417   4.593   4.726
 1919TIP3   OH2 5720   1.826   4.607   0.942
 1919TIP3    H1 5721   1.855   4.656   0.866
 1919TIP3    H2 5722   1.872   4.647   1.016
 1920TIP3   OH2 5723   4.703   0.383   0.688
 1920TIP3    H1 5724   4.791   0.419   0.697
 1920TIP3    H2 5725   4.665   0.430   0.614
 1921TIP3   OH2 5726   4.578   5.441   2.019
 1921TIP3    H1 5727   4.488   5.410   2.003
 1921TIP3    H2 5728   4.629   5.361   2.029
 1922TIP3   OH2 5729   1.179   4.545   0.971
 1922TIP3    H1 5730   1.110   4.481   0.989
 1922TIP3    H2 5731   1.147   4.626   1.011
 1923TIP3   OH2 5732   0.278   4.902   5.428
 1923TIP3    H1 5733   0.197   4.869   5.389
 1923TIP3    H2 5734   0.300   4.838   5.496
 1924TIP3   OH2 5735   4.039   0.984   0.490
 1924TIP3    H1 5736   4.050   1.029   0.573
 1924TIP3    H2 5737   3.944   0.979   0.478
 1925TIP3   OH2 5738   0.285   6.558   3.669
 1925TIP3    H1 5739   0.306   6.510   3.588
 1925TIP3    H2 5740   0.271   6.648   3.639
 1926TIP3   OH2 5741   4.944   2.275   1.060
 1926TIP3    H1 5742   4.856   2.309   1.045
 1926TIP3    H2 5743   4.988   2.284   0.975
 1927TIP3   OH2 5744   2.616   5.563   4.168
 1927TIP3    H1 5745   2.642   5.612   4.090
 1927TIP3    H2 5746   2.523   5.582   4.180
 1928TIP3   OH2 5747   5.146   0.945   4.684
 1928TIP3    H1 5748   5.231   0.930   4.644
 1928TIP3    H2 5749   5.162   1.012   4.751
 1929TIP3   OH2 5750   2.814   0.285   1.758
 1929TIP3    H1 5751   2.879   0.238   1.706
 1929TIP3    H2 5752   2.754   0.322   1.693
 1930TIP3   OH2 5753   0.521   3.130   3.275
 1930TIP3    H1 5754   0.493   3.148   3.185
 1930TIP3    H2 5755   0.440   3.107   3.320
 1931TIP3   OH2 5756   5.028   1.459   2.407
 1931TIP3    H1 5757   4.936   1.486   2.414
 1931TIP3    H2 5758   5.066   1.486   2.491
 1932TIP3   OH2 5759   3.670   4.855   0.149
 1932TIP3    H1 5760   3.672   4.761   0.170
 1932TIP3    H2 5761   3.759   4.874   0.119
 1933TIP3   OH2 5762   2.815   4.485   0.328
 1933TIP3    H1 5763   2.893   4.527   0.291
 1933TIP3    H2 5764   2.823   4.393   0.301
 1934TIP3   OH2 5765   6.915   0.312   4.897
 1934TIP3    H1 5766   6.881   0.304   4.808
 1934TIP3    H2 5767   6.887   0.399   4.925
 1935TIP3   OH2 5768   0.160   4.988   0.960
 1935TIP3    H1 5769   0.083   5.038   0.932
 1935TIP3    H2 5770   0.138   4.956   1.047
 1936TIP3   OH2 5771   0.542   5.498   0.901
 1936TIP3    H1 5772   0.470   5.441   0.931
 1936TIP3    H2 5773   0.499   5.579   0.874
 1937TIP3   OH2 5774   3.733   4.933   0.889
 1937TIP3    H1 5775   3.809   4.891   0.929
 1937TIP3    H2 5776   3.678   4.959   0.963
 1938TIP3   OH2 5777   4.293   0.659   3.285
 1938TIP3    H1 5778   4.271   0.752   3.288
 1938TIP3    H2 5779   4.255   0.628   3.202
 1939TIP3   OH2 5780   0.394   0.479   1.451
 1939TIP3    H1 5781   0.465   0.495   1.389
 1939TIP3    H2 5782   0.383   0.384   1.453
 1940TIP3   OH2 5783   4.659   4.072   4.306
 1940TIP3    H1 5784   4.616   4.144   4.350
 1940TIP3    H2 5785   4.592   4.035   4.248
 1941TIP3   OH2 5786   6.969   3.751   1.187
 1941TIP3    H1 5787   6.983   3.717   1.098
 1941TIP3    H2 5788   7.014   3.689   1.244
 1942TIP3   OH2 5789   6.553   2.096   2.548
 1942TIP3    H1 5790   6.466   2.073   2.580
 1942TIP3    H2 5791   6.542   2.106   2.453
 1943TIP3   OH2 5792   7.053   5.324   0.933
 1943TIP3    H1 5793   7.005   5.398   0.895
 1943TIP3    H2 5794   6.993   5.250   0.926
 1944TIP3   OH2 5795   0.344   4.988   0.297
 1944TIP3    H1 5796   0.369   4.947   0.214
 1944TIP3    H2 5797   0.407   5.060   0.306
 1945TIP3   OH2 5798   3.057   0.544   4.424
 1945TIP3    H1 5799   3.117   0.536   4.350
 1945TIP3    H2 5800   3.113   0.566   4.498
 1946TIP3   OH2 5801   4.659   0.502   1.284
 1946TIP3    H1 5802   4.741   0.527   1.328
 1946TIP3    H2 5803   4.618   0.440   1.345
 1947TIP3   OH2 5804   0.242   1.324   3.636
 1947TIP3    H1 5805   0.163   1.276   3.612
 1947TIP3    H2 5806   0.219   1.370   3.716
 1948TIP3   OH2 5807   1.442   1.767   3.632
 1948TIP3    H1 5808   1.347   1.770   3.617
 1948TIP3    H2 5809   1.480   1.812   3.557
 1949TIP3   OH2 5810   2.558   0.091   3.811
 1949TIP3    H1 5811   2.631   0.091   3.872
 1949TIP3    H2 5812   2.481   0.079   3.866
 1950TIP3   OH2 5813   4.210   4.036   3.095
 1950TIP3    H1 5814   4.299   4.008   3.075
 1950TIP3    H2 5815   4.157   3.958   3.082
 1951TIP3   OH2 5816   5.205   2.768   2.830
 1951TIP3    H1 5817   5.193   2.837   2.765
 1951TIP3    H2 5818   5.274   2.801   2.888
 1952TIP3   OH2 5819   0.058   3.617   3.181
 1952TIP3    H1 5820  -0.015   3.658   3.228
 1952TIP3    H2 5821   0.026   3.606   3.091
 1953TIP3   OH2 5822   6.939   0.962   4.916
 1953TIP3    H1 5823   6.945   1.042   4.968
 1953TIP3    H2 5824   6.852   0.927   4.935
 1954TIP3   OH2 5825   5.122   6.496   4.449
 1954TIP3    H1 5826   5.030   6.522   4.455
 1954TIP3    H2 5827   5.170   6.578   4.441
 1955TIP3   OH2 5828   0.387   0.480   2.444
 1955TIP3    H1 5829   0.443   0.484   2.522
 1955TIP3    H2 5830   0.388   0.388   2.418
 1956TIP3   OH2 5831   6.627   4.301   2.083
 1956TIP3    H1 5832   6.629   4.364   2.011
 1956TIP3    H2 5833   6.539   4.307   2.119
 1957TIP3   OH2 5834   5.012   5.894   1.635
 1957TIP3    H1 5835   5.059   5.828   1.583
 1957TIP3    H2 5836   4.936   5.917   1.581
 1958TIP3   OH2 5837   1.997   4.443   4.761
 1958TIP3    H1 5838   1.975   4.503   4.833
 1958TIP3    H2 5839   2.074   4.483   4.720
 1959TIP3   OH2 5840   3.053   0.227   3.784
 1959TIP3    H1 5841   3.047   0.175   3.864
 1959TIP3    H2 5842   2.964   0.260   3.770
 1960TIP3   OH2 5843   1.178   3.958   4.174
 1960TIP3    H1 5844   1.179   3.870   4.211
 1960TIP3    H2 5845   1.110   3.955   4.107
 1961TIP3   OH2 5846   5.431   6.372   3.739
 1961TIP3    H1 5847   5.509   6.346   3.787
 1961TIP3    H2 5848   5.438   6.468   3.732
 1962TIP3   OH2 5849   6.304   6.267   1.987
 1962TIP3    H1 5850   6.305   6.326   1.911
 1962TIP3    H2 5851   6.394   6.235   1.993
 1963TIP3   OH2 5852   2.592   0.947   2.222
 1963TIP3    H1 5853   2.539   0.908   2.292
 1963TIP3    H2 5854   2.591   1.041   2.241
 1964TIP3   OH2 5855   5.491   1.900   5.697
 1964TIP3    H1 5856   5.570   1.954   5.707
 1964TIP3    H2 5857   5.467   1.876   5.786
 1965TIP3   OH2 5858   6.838   3.405   1.460
 1965TIP3    H1 5859   6.797   3.349   1.525
 1965TIP3    H2 5860   6.810   3.370   1.376
 1966TIP3   OH2 5861   2.780   5.319   5.375
 1966TIP3    H1 5862   2.742   5.259   5.311
 1966TIP3    H2 5863   2.869   5.286   5.388
 1967TIP3   OH2 5864   0.855   1.717   0.468
 1967TIP3    H1 5865   0.882   1.714   0.376
 1967TIP3    H2 5866   0.813   1.803   0.477
 1968TIP3   OH2 5867   3.575   1.056   2.462
 1968TIP3    H1 5868   3.572   1.044   2.557
 1968TIP3    H2 5869   3.563   0.968   2.426
 1969TIP3   OH2 5870   6.746   0.160   5.066
 1969TIP3    H1 5871   6.802   0.107   5.122
 1969TIP3    H2 5872   6.807   0.205   5.007
 1970TIP3   OH2 5873   2.190   2.490   0.761
 1970TIP3    H1 5874   2.185   2.395   0.767
 1970TIP3    H2 5875   2.107   2.521   0.796
 1971TIP3   OH2 5876   4.037   6.495   1.522
 1971TIP3    H1 5877   4.027   6.404   1.548
 1971TIP3    H2 5878   4.026   6.495   1.427
 1972TIP3   OH2 5879   0.674   1.072   1.151
 1972TIP3    H1 5880   0.744   1.126   1.115
 1972TIP3    H2 5881   0.648   1.117   1.232
 1973TIP3   OH2 5882   4.279   2.396   3.196
 1973TIP3    H1 5883   4.296   2.488   3.177
 1973TIP3    H2 5884   4.206   2.397   3.258
 1974TIP3   OH2 5885   2.878   1.160   4.513
 1974TIP3    H1 5886   2.868   1.255   4.504
 1974TIP3    H2 5887   2.968   1.143   4.486
 1975TIP3   OH2 5888   3.142   5.176   3.548
 1975TIP3    H1 5889   3.066   5.117   3.552
 1975TIP3    H2 5890   3.213   5.120   3.517
 1976TIP3   OH2 5891   0.061   2.516   5.672
 1976TIP3    H1 5892  -0.028   2.533   5.639
 1976TIP3    H2 5893   0.055   2.533   5.766
 1977TIP3   OH2 5894   4.873   5.478   4.213
 1977TIP3    H1 5895   4.887   5.424   4.290
 1977TIP3    H2 5896   4.916   5.430   4.142
 1978TIP3   OH2 5897   0.675   5.846   1.148
 1978TIP3    H1 5898   0.680   5.789   1.225
 1978TIP3    H2 5899   0.591   5.825   1.108
 1979TIP3   OH2 5900   3.416   3.637   4.651
 1979TIP3    H1 5901   3.464   3.559   4.677
 1979TIP3    H2 5902   3.327   3.622   4.682
 1980TIP3   OH2 5903   1.436   3.547   0.617
 1980TIP3    H1 5904   1.530   3.535   0.630
 1980TIP3    H2 5905   1.396   3.519   0.699
 1981TIP3   OH2 5906   2.525   0.260   5.393
 1981TIP3    H1 5907   2.565   0.251   5.307
 1981TIP3    H2 5908   2.538   0.351   5.417
 1982TIP3   OH2 5909   0.902   6.794   2.780
 1982TIP3    H1 5910   0.944   6.739   2.846
 1982TIP3    H2 5911   0.899   6.738   2.702
 1983TIP3   OH2 5912   0.357   2.926   0.533
 1983TIP3    H1 5913   0.349   2.842   0.579
 1983TIP3    H2 5914   0.375   2.989   0.603
 1984TIP3   OH2 5915   3.935   3.147   1.741
 1984TIP3    H1 5916   3.887   3.226   1.767
 1984TIP3    H2 5917   3.867   3.084   1.717
 1985TIP3   OH2 5918   3.248   2.081   0.271
 1985TIP3    H1 5919   3.317   2.020   0.299
 1985TIP3    H2 5920   3.203   2.104   0.353
 1986TIP3   OH2 5921   0.452   5.322   1.575
 1986TIP3    H1 5922   0.522   5.374   1.614
 1986TIP3    H2 5923   0.449   5.242   1.627
 1987TIP3   OH2 5924   1.547   3.446   4.331
 1987TIP3    H1 5925   1.514   3.501   4.259
 1987TIP3    H2 5926   1.469   3.409   4.371
 1988TIP3   OH2 5927   1.330   1.153   4.295
 1988TIP3    H1 5928   1.376   1.119   4.371
 1988TIP3    H2 5929   1.381   1.230   4.269
 1989TIP3   OH2 5930   4.900   0.974   4.860
 1989TIP3    H1 5931   4.876   1.042   4.922
 1989TIP3    H2 5932   4.992   0.955   4.880
 1990TIP3   OH2 5933   4.062   0.134   0.197
 1990TIP3    H1 5934   4.155   0.156   0.192
 1990TIP3    H2 5935   4.053   0.058   0.140
 1991TIP3   OH2 5936   3.421   3.420   1.570
 1991TIP3    H1 5937   3.412   3.372   1.652
 1991TIP3    H2 5938   3.491   3.484   1.588
 1992TIP3   OH2 5939   2.754   2.064   5.774
 1992TIP3    H1 5940   2.716   2.034   5.856
 1992TIP3    H2 5941   2.848   2.054   5.786
 1993TIP3   OH2 5942   5.434   3.857   0.813
 1993TIP3    H1 5943   5.443   3.784   0.873
 1993TIP3    H2 5944   5.524   3.884   0.794
 1994TIP3   OH2 5945   4.313   4.720   3.422
 1994TIP3    H1 5946   4.323   4.749   3.513
 1994TIP3    H2 5947   4.348   4.793   3.370
 1995TIP3   OH2 5948   3.549   4.293   2.915
 1995TIP3    H1 5949   3.627   4.257   2.957
 1995TIP3    H2 5950   3.549   4.386   2.939
 1996TIP3   OH2 5951   4.630   3.311   0.591
 1996TIP3    H1 5952   4.667   3.391   0.553
 1996TIP3    H2 5953   4.570   3.278   0.523
 1997TIP3   OH2 5954   3.410   1.397   1.782
 1997TIP3    H1 5955   3.375   1.387   1.871
 1997TIP3    H2 5956   3.357   1.339   1.728
 1998TIP3   OH2 5957   2.076   4.884   3.836
 1998TIP3    H1 5958   2.055   4.913   3.747
 1998TIP3    H2 5959   2.136   4.951   3.869
 1999TIP3   OH2 5960   4.723   0.574   0.024
 1999TIP3    H1 5961   4.686   0.581   0.112
 1999TIP3    H2 5962   4.803   0.523   0.036
 2000TIP3   OH2 5963   3.390   3.868   2.975
 2000TIP3    H1 5964   3.335   3.869   2.897
 2000TIP3    H2 5965   3.376   3.953   3.016
 2001TIP3   OH2 5966   2.507   0.407   3.654
 2001TIP3    H1 5967   2.536   0.497   3.642
 2001TIP3    H2 5968   2.412   0.410   3.637
 2002TIP3   OH2 5969   3.117   3.784   1.278
 2002TIP3    H1 5970   3.201   3.751   1.247
 2002TIP3    H2 5971   3.103   3.739   1.361
 2003TIP3   OH2 5972   3.911   3.060   4.770
 2003TIP3    H1 5973   3.973   2.988   4.769
 2003TIP3    H2 5974   3.938   3.116   4.697
 2004TIP3   OH2 5975   4.587   1.923   4.324
 2004TIP3    H1 5976   4.593   1.996   4.262
 2004TIP3    H2 5977   4.570   1.964   4.409
 2005TIP3   OH2 5978   0.362   1.811   2.483
 2005TIP3    H1 5979   0.356   1.854   2.569
 2005TIP3    H2 5980   0.271   1.789   2.461
 2006TIP3   OH2 5981   1.458   0.621   3.068
 2006TIP3    H1 5982   1.416   0.697   3.030
 2006TIP3    H2 5983   1.416   0.610   3.153
 2007TIP3   OH2 5984   0.520   5.757   5.344
 2007TIP3    H1 5985   0.435   5.731   5.379
 2007TIP3    H2 5986   0.501   5.793   5.257
 2008TIP3   OH2 5987   4.526   2.879   0.836
 2008TIP3    H1 5988   4.445   2.839   0.803
 2008TIP3    H2 5989   4.596   2.821   0.806
 2009TIP3   OH2 5990   2.277   0.372   2.529
 2009TIP3    H1 5991   2.299   0.333   2.443
 2009TIP3    H2 5992   2.243   0.298   2.580
 2010TIP3   OH2 5993   4.492   6.619   0.049
 2010TIP3    H1 5994   4.541   6.581  -0.024
 2010TIP3    H2 5995   4.477   6.546   0.109
 2011TIP3   OH2 5996   0.413   5.704   0.777
 2011TIP3    H1 5997   0.351   5.710   0.704
 2011TIP3    H2 5998   0.499   5.696   0.735
 2012TIP3   OH2 5999   3.752   3.360   4.213
 2012TIP3    H1 6000   3.663   3.394   4.213
 2012TIP3    H2 6001   3.752   3.291   4.280
 2013TIP3   OH2 6002   2.329   4.773   4.528
 2013TIP3    H1 6003   2.358   4.690   4.490
 2013TIP3    H2 6004   2.409   4.826   4.534
 2014TIP3   OH2 6005   0.775   5.546   5.489
 2014TIP3    H1 6006   0.816   5.588   5.414
 2014TIP3    H2 6007   0.685   5.579   5.489
 2015TIP3   OH2 6008   0.229   1.262   0.359
 2015TIP3    H1 6009   0.232   1.351   0.395
 2015TIP3    H2 6010   0.163   1.266   0.290
 2016TIP3   OH2 6011   5.685   1.114   1.875
 2016TIP3    H1 6012   5.620   1.184   1.890
 2016TIP3    H2 6013   5.762   1.142   1.924
 2017TIP3   OH2 6014   2.482   4.777   5.483
 2017TIP3    H1 6015   2.415   4.837   5.514
 2017TIP3    H2 6016   2.435   4.695   5.467
 2018TIP3   OH2 6017   6.305   0.145   3.474
 2018TIP3    H1 6018   6.301   0.175   3.383
 2018TIP3    H2 6019   6.282   0.222   3.526
 2019TIP3   OH2 6020   3.794   3.014   3.711
 2019TIP3    H1 6021   3.813   3.103   3.681
 2019TIP3    H2 6022   3.715   3.024   3.764
 2020TIP3   OH2 6023   7.261   0.729   3.115
 2020TIP3    H1 6024   7.237   0.637   3.106
 2020TIP3    H2 6025   7.186   0.777   3.080
 2021TIP3   OH2 6026  -0.008   3.452   3.925
 2021TIP3    H1 6027   0.030   3.470   3.839
 2021TIP3    H2 6028  -0.080   3.514   3.933
 2022TIP3   OH2 6029   4.143   2.561   2.153
 2022TIP3    H1 6030   4.088   2.487   2.129
 2022TIP3    H2 6031   4.218   2.557   2.094
 2023TIP3   OH2 6032   5.055   1.404   1.184
 2023TIP3    H1 6033   4.992   1.410   1.112
 2023TIP3    H2 6034   5.140   1.405   1.141
 2024TIP3   OH2 6035   1.019   3.081   3.105
 2024TIP3    H1 6036   0.989   2.996   3.074
 2024TIP3    H2 6037   0.996   3.142   3.035
 2025TIP3   OH2 6038   0.306   1.579   0.346
 2025TIP3    H1 6039   0.211   1.591   0.338
 2025TIP3    H2 6040   0.341   1.666   0.362
 2026TIP3   OH2 6041   2.178   6.449   2.463
 2026TIP3    H1 6042   2.233   6.375   2.439
 2026TIP3    H2 6043   2.116   6.459   2.391
 2027TIP3   OH2 6044   5.123   4.266   0.716
 2027TIP3    H1 6045   5.132   4.200   0.785
 2027TIP3    H2 6046   5.171   4.230   0.642
 2028TIP3   OH2 6047   4.813   0.725   4.242
 2028TIP3    H1 6048   4.761   0.724   4.162
 2028TIP3    H2 6049   4.752   0.701   4.311
 2029TIP3   OH2 6050   2.521   0.659   1.113
 2029TIP3    H1 6051   2.569   0.578   1.132
 2029TIP3    H2 6052   2.482   0.684   1.197
 2030TIP3   OH2 6053   4.610   0.643   0.279
 2030TIP3    H1 6054   4.650   0.730   0.282
 2030TIP3    H2 6055   4.533   0.650   0.337
 2031TIP3   OH2 6056   4.372   6.631   4.286
 2031TIP3    H1 6057   4.314   6.707   4.286
 2031TIP3    H2 6058   4.353   6.587   4.202
 2032TIP3   OH2 6059   4.829   6.541   1.119
 2032TIP3    H1 6060   4.759   6.547   1.184
 2032TIP3    H2 6061   4.854   6.449   1.118
 2033TIP3   OH2 6062   0.437   4.183   0.320
 2033TIP3    H1 6063   0.485   4.103   0.298
 2033TIP3    H2 6064   0.456   4.198   0.412
 2034TIP3   OH2 6065   3.763   6.622   1.500
 2034TIP3    H1 6066   3.839   6.680   1.503
 2034TIP3    H2 6067   3.707   6.659   1.432
 2035TIP3   OH2 6068   5.332   1.178   4.567
 2035TIP3    H1 6069   5.318   1.258   4.617
 2035TIP3    H2 6070   5.381   1.121   4.626
 2036TIP3   OH2 6071   4.121   4.053   0.880
 2036TIP3    H1 6072   4.118   4.147   0.863
 2036TIP3    H2 6073   4.049   4.017   0.829
 2037TIP3   OH2 6074   2.202   2.650   1.083
 2037TIP3    H1 6075   2.251   2.686   1.009
 2037TIP3    H2 6076   2.258   2.581   1.118
 2038TIP3   OH2 6077   0.731   0.162   3.634
 2038TIP3    H1 6078   0.662   0.213   3.591
 2038TIP3    H2 6079   0.746   0.208   3.717
 2039TIP3   OH2 6080   0.882   5.948   3.825
 2039TIP3    H1 6081   0.840   5.946   3.739
 2039TIP3    H2 6082   0.975   5.960   3.805
 2040TIP3   OH2 6083   5.851   1.450   2.903
 2040TIP3    H1 6084   5.873   1.498   2.823
 2040TIP3    H2 6085   5.916   1.380   2.908
 2041TIP3   OH2 6086   5.418   6.013   5.687
 2041TIP3    H1 6087   5.332   6.054   5.689
 2041TIP3    H2 6088   5.401   5.919   5.682
 2042TIP3   OH2 6089   1.425   0.101   1.272
 2042TIP3    H1 6090   1.350   0.074   1.325
 2042TIP3    H2 6091   1.488   0.030   1.280
 2043TIP3   OH2 6092   0.842   3.789   2.746
 2043TIP3    H1 6093   0.875   3.714   2.796
 2043TIP3    H2 6094   0.797   3.749   2.671
 2044TIP3   OH2 6095   0.170   6.503   5.644
 2044TIP3    H1 6096   0.196   6.561   5.572
 2044TIP3    H2 6097   0.077   6.486   5.628
 2045TIP3   OH2 6098   1.639   0.142   2.532
 2045TIP3    H1 6099   1.725   0.106   2.554
 2045TIP3    H2 6100   1.587   0.066   2.506
 2046TIP3   OH2 6101   1.719   2.242   5.525
 2046TIP3    H1 6102   1.652   2.181   5.495
 2046TIP3    H2 6103   1.774   2.257   5.448
 2047TIP3   OH2 6104   6.716   3.620   5.023
 2047TIP3    H1 6105   6.693   3.688   4.959
 2047TIP3    H2 6106   6.750   3.549   4.970
 2048TIP3   OH2 6107   3.150   3.566   0.207
 2048TIP3    H1 6108   3.166   3.659   0.192
 2048TIP3    H2 6109   3.098   3.563   0.287
 2049TIP3   OH2 6110   5.221   0.869   5.226
 2049TIP3    H1 6111   5.213   0.777   5.203
 2049TIP3    H2 6112   5.241   0.870   5.319
 2050TIP3   OH2 6113   0.247   2.950   0.307
 2050TIP3    H1 6114   0.294   2.918   0.384
 2050TIP3    H2 6115   0.176   2.887   0.295
 2051TIP3   OH2 6116   2.336   0.294   1.743
 2051TIP3    H1 6117   2.408   0.284   1.680
 2051TIP3    H2 6118   2.362   0.368   1.798
 2052TIP3   OH2 6119   4.175   4.924   5.177
 2052TIP3    H1 6120   4.218   4.940   5.092
 2052TIP3    H2 6121   4.133   4.839   5.167
 2053TIP3   OH2 6122   5.661   3.389   4.846
 2053TIP3    H1 6123   5.702   3.475   4.841
 2053TIP3    H2 6124   5.591   3.391   4.781
 2054TIP3   OH2 6125   3.305   4.697   0.295
 2054TIP3    H1 6126   3.349   4.622   0.337
 2054TIP3    H2 6127   3.233   4.718   0.354
 2055TIP3   OH2 6128   1.276   1.544   2.146
 2055TIP3    H1 6129   1.312   1.632   2.129
 2055TIP3    H2 6130   1.276   1.502   2.060
 2056TIP3   OH2 6131   3.372   3.739   5.670
 2056TIP3    H1 6132   3.404   3.779   5.751
 2056TIP3    H2 6133   3.295   3.791   5.647
 2057TIP3   OH2 6134   4.949   0.176   2.700
 2057TIP3    H1 6135   4.953   0.239   2.772
 2057TIP3    H2 6136   4.855   0.161   2.687
 2058TIP3   OH2 6137   3.487   3.161   4.312
 2058TIP3    H1 6138   3.452   3.221   4.246
 2058TIP3    H2 6139   3.419   3.155   4.379
 2059TIP3   OH2 6140   3.488   0.949   2.725
 2059TIP3    H1 6141   3.441   0.876   2.685
 2059TIP3    H2 6142   3.558   0.908   2.776
 2060TIP3   OH2 6143   4.213   2.428   4.587
 2060TIP3    H1 6144   4.188   2.446   4.496
 2060TIP3    H2 6145   4.307   2.410   4.582
 2061TIP3   OH2 6146   6.279   4.686   2.578
 2061TIP3    H1 6147   6.322   4.678   2.664
 2061TIP3    H2 6148   6.188   4.663   2.595
 2062TIP3   OH2 6149   1.879   5.958   2.568
 2062TIP3    H1 6150   1.956   5.926   2.614
 2062TIP3    H2 6151   1.912   6.029   2.512
 2063TIP3   OH2 6152   1.550   4.718   2.890
 2063TIP3    H1 6153   1.645   4.713   2.902
 2063TIP3    H2 6154   1.520   4.767   2.967
 2064TIP3   OH2 6155   1.786   0.459   4.694
 2064TIP3    H1 6156   1.750   0.409   4.767
 2064TIP3    H2 6157   1.796   0.548   4.728
 2065TIP3   OH2 6158   5.051   5.465   0.990
 2065TIP3    H1 6159   5.064   5.431   0.901
 2065TIP3    H2 6160   4.956   5.479   0.996
 2066TIP3   OH2 6161   6.990   5.676   4.383
 2066TIP3    H1 6162   6.946   5.618   4.321
 2066TIP3    H2 6163   6.997   5.623   4.463
 2067TIP3   OH2 6164   4.781   0.907   0.316
 2067TIP3    H1 6165   4.795   0.938   0.227
 2067TIP3    H2 6166   4.865   0.867   0.340
 2068TIP3   OH2 6167   1.607   6.631   1.942
 2068TIP3    H1 6168   1.609   6.633   1.847
 2068TIP3    H2 6169   1.615   6.539   1.965
 2069TIP3   OH2 6170   0.674   2.836   1.807
 2069TIP3    H1 6171   0.730   2.848   1.731
 2069TIP3    H2 6172   0.731   2.849   1.883
 2070TIP3   OH2 6173   1.223   0.673   1.872
 2070TIP3    H1 6174   1.178   0.709   1.796
 2070TIP3    H2 6175   1.244   0.583   1.848
 2071TIP3   OH2 6176   0.471   2.442   3.054
 2071TIP3    H1 6177   0.495   2.450   3.147
 2071TIP3    H2 6178   0.453   2.531   3.026
 2072TIP3   OH2 6179   0.755   6.653   2.568
 2072TIP3    H1 6180   0.760   6.615   2.480
 2072TIP3    H2 6181   0.749   6.577   2.626
 2073TIP3   OH2 6182   3.186   6.630   3.788
 2073TIP3    H1 6183   3.204   6.640   3.882
 2073TIP3    H2 6184   3.103   6.677   3.775
 2074TIP3   OH2 6185   5.417   1.249   3.947
 2074TIP3    H1 6186   5.422   1.345   3.943
 2074TIP3    H2 6187   5.361   1.226   3.872
 2075TIP3   OH2 6188   6.317   4.764   1.027
 2075TIP3    H1 6189   6.226   4.770   0.999
 2075TIP3    H2 6190   6.334   4.846   1.074
 2076TIP3   OH2 6191   5.606   3.988   4.061
 2076TIP3    H1 6192   5.615   4.026   3.974
 2076TIP3    H2 6193   5.523   4.022   4.094
 2077TIP3   OH2 6194   1.678   5.589   5.556
 2077TIP3    H1 6195   1.650   5.549   5.639
 2077TIP3    H2 6196   1.608   5.650   5.533
 2078TIP3   OH2 6197   0.645   1.550   1.645
 2078TIP3    H1 6198   0.665   1.637   1.681
 2078TIP3    H2 6199   0.665   1.489   1.717
 2079TIP3   OH2 6200   0.060   2.844   1.702
 2079TIP3    H1 6201   0.092   2.755   1.684
 2079TIP3    H2 6202   0.048   2.845   1.797
 2080TIP3   OH2 6203   2.088   0.012   3.175
 2080TIP3    H1 6204   2.123  -0.037   3.101
 2080TIP3    H2 6205   2.159   0.070   3.202
 2081TIP3   OH2 6206   3.704   0.468   2.087
 2081TIP3    H1 6207   3.758   0.505   2.157
 2081TIP3    H2 6208   3.656   0.397   2.128
 2082TIP3   OH2 6209   4.101   0.963   3.563
 2082TIP3    H1 6210   4.130   0.956   3.472
 2082TIP3    H2 6211   4.181   0.953   3.615
 2083TIP3   OH2 6212   1.475   6.630   3.161
 2083TIP3    H1 6213   1.395   6.577   3.166
 2083TIP3    H2 6214   1.546   6.566   3.151
 2084TIP3   OH2 6215   0.691   2.282   0.993
 2084TIP3    H1 6216   0.652   2.267   1.079
 2084TIP3    H2 6217   0.616   2.294   0.935
 2085TIP3   OH2 6218   6.853   6.826   2.310
 2085TIP3    H1 6219   6.943   6.811   2.281
 2085TIP3    H2 6220   6.800   6.818   2.231
 2086TIP3   OH2 6221   4.267   2.489   1.187
 2086TIP3    H1 6222   4.340   2.542   1.156
 2086TIP3    H2 6223   4.235   2.534   1.266
 2087TIP3   OH2 6224   0.145   2.148   2.033
 2087TIP3    H1 6225   0.122   2.219   1.973
 2087TIP3    H2 6226   0.074   2.147   2.098
 2088TIP3   OH2 6227   3.864   4.701   0.514
 2088TIP3    H1 6228   3.843   4.790   0.542
 2088TIP3    H2 6229   3.954   4.706   0.482
 2089TIP3   OH2 6230   4.296   5.608   1.373
 2089TIP3    H1 6231   4.319   5.672   1.305
 2089TIP3    H2 6232   4.201   5.610   1.376
 2090TIP3   OH2 6233   4.417   6.281   4.776
 2090TIP3    H1 6234   4.434   6.326   4.859
 2090TIP3    H2 6235   4.383   6.349   4.719
 2091TIP3   OH2 6236   4.156   4.987   5.992
 2091TIP3    H1 6237   4.150   5.030   5.907
 2091TIP3    H2 6238   4.077   4.932   5.996
 2092TIP3   OH2 6239   3.304   6.683   3.094
 2092TIP3    H1 6240   3.286   6.712   3.183
 2092TIP3    H2 6241   3.222   6.644   3.064
 2093TIP3   OH2 6242   5.079   2.481   2.604
 2093TIP3    H1 6243   5.056   2.572   2.623
 2093TIP3    H2 6244   4.996   2.440   2.581
 2094TIP3   OH2 6245   5.406   5.507   5.787
 2094TIP3    H1 6246   5.463   5.478   5.715
 2094TIP3    H2 6247   5.463   5.560   5.843
 2095TIP3   OH2 6248   6.791   6.051   5.196
 2095TIP3    H1 6249   6.746   5.996   5.132
 2095TIP3    H2 6250   6.771   6.011   5.281
 2096TIP3   OH2 6251   0.482   6.117   5.715
 2096TIP3    H1 6252   0.468   6.066   5.795
 2096TIP3    H2 6253   0.571   6.150   5.724
 2097TIP3   OH2 6254   0.432   6.113   5.373
 2097TIP3    H1 6255   0.380   6.050   5.422
 2097TIP3    H2 6256   0.432   6.080   5.283
 2098TIP3   OH2 6257   6.360   6.448   4.689
 2098TIP3    H1 6258   6.324   6.531   4.658
 2098TIP3    H2 6259   6.419   6.473   4.760
 2099TIP3   OH2 6260   5.455   1.244   1.889
 2099TIP3    H1 6261   5.401   1.290   1.954
 2099TIP3    H2 6262   5.401   1.240   1.811
 2100TIP3   OH2 6263   1.112   2.676   2.827
 2100TIP3    H1 6264   1.057   2.600   2.812
 2100TIP3    H2 6265   1.197   2.652   2.792
 2101TIP3   OH2 6266   2.359   4.169   4.396
 2101TIP3    H1 6267   2.414   4.189   4.320
 2101TIP3    H2 6268   2.419   4.169   4.470
 2102TIP3   OH2 6269   2.772   1.637   2.307
 2102TIP3    H1 6270   2.841   1.577   2.335
 2102TIP3    H2 6271   2.692   1.585   2.313
 2103TIP3   OH2 6272   2.019   3.796   1.133
 2103TIP3    H1 6273   2.094   3.846   1.101
 2103TIP3    H2 6274   2.020   3.808   1.228
 2104TIP3   OH2 6275   5.557   4.080   0.466
 2104TIP3    H1 6276   5.632   4.020   0.464
 2104TIP3    H2 6277   5.541   4.102   0.375
 2105TIP3   OH2 6278   1.955   2.506   3.776
 2105TIP3    H1 6279   1.916   2.435   3.827
 2105TIP3    H2 6280   1.952   2.474   3.685
 2106TIP3   OH2 6281   6.969   0.238   2.960
 2106TIP3    H1 6282   6.986   0.239   2.866
 2106TIP3    H2 6283   6.910   0.164   2.973
 2107TIP3   OH2 6284   4.989   4.792   5.462
 2107TIP3    H1 6285   5.004   4.865   5.522
 2107TIP3    H2 6286   4.982   4.715   5.519
 2108TIP3   OH2 6287   3.987   3.097   2.633
 2108TIP3    H1 6288   4.019   3.176   2.589
 2108TIP3    H2 6289   4.046   3.028   2.604
 2109TIP3   OH2 6290   5.163   4.264   5.078
 2109TIP3    H1 6291   5.116   4.271   4.996
 2109TIP3    H2 6292   5.166   4.353   5.113
 2110TIP3   OH2 6293   5.046   1.123   0.405
 2110TIP3    H1 6294   5.033   1.100   0.313
 2110TIP3    H2 6295   5.082   1.044   0.445
 2111TIP3   OH2 6296   1.894   0.911   5.084
 2111TIP3    H1 6297   1.963   0.864   5.130
 2111TIP3    H2 6298   1.939   0.984   5.041
 2112TIP3   OH2 6299   4.968   5.196   1.657
 2112TIP3    H1 6300   4.927   5.256   1.595
 2112TIP3    H2 6301   5.026   5.250   1.709
 2113TIP3   OH2 6302   3.719   4.581   1.152
 2113TIP3    H1 6303   3.812   4.561   1.159
 2113TIP3    H2 6304   3.676   4.496   1.141
 2114TIP3   OH2 6305   5.277   5.422   3.894
 2114TIP3    H1 6306   5.198   5.374   3.871
 2114TIP3    H2 6307   5.319   5.369   3.961
 2115TIP3   OH2 6308   2.372   3.427   4.380
 2115TIP3    H1 6309   2.353   3.366   4.452
 2115TIP3    H2 6310   2.327   3.508   4.405
 2116TIP3   OH2 6311   3.954   2.285   0.152
 2116TIP3    H1 6312   4.016   2.339   0.102
 2116TIP3    H2 6313   3.955   2.200   0.106
 2117TIP3   OH2 6314   2.437   2.060   0.931
 2117TIP3    H1 6315   2.438   2.061   0.836
 2117TIP3    H2 6316   2.527   2.080   0.957
 2118TIP3   OH2 6317   4.544   2.634   2.355
 2118TIP3    H1 6318   4.571   2.628   2.264
 2118TIP3    H2 6319   4.625   2.625   2.405
 2119TIP3   OH2 6320   0.883   5.137   5.777
 2119TIP3    H1 6321   0.884   5.226   5.813
 2119TIP3    H2 6322   0.804   5.134   5.723
 2120TIP3   OH2 6323   3.057   3.722   5.366
 2120TIP3    H1 6324   3.070   3.654   5.431
 2120TIP3    H2 6325   3.144   3.736   5.328
 2121TIP3   OH2 6326   2.594   6.197   2.171
 2121TIP3    H1 6327   2.596   6.203   2.267
 2121TIP3    H2 6328   2.589   6.103   2.153
 2122TIP3   OH2 6329   4.071   0.799   4.912
 2122TIP3    H1 6330   4.038   0.736   4.848
 2122TIP3    H2 6331   4.069   0.753   4.996
 2123TIP3   OH2 6332   2.643   0.584   4.800
 2123TIP3    H1 6333   2.609   0.620   4.718
 2123TIP3    H2 6334   2.736   0.567   4.781
 2124TIP3   OH2 6335   5.593   1.238   5.654
 2124TIP3    H1 6336   5.679   1.246   5.612
 2124TIP3    H2 6337   5.610   1.253   5.747
 2125TIP3   OH2 6338   2.854   6.714   4.049
 2125TIP3    H1 6339   2.852   6.633   3.998
 2125TIP3    H2 6340   2.947   6.732   4.061
 2126TIP3   OH2 6341   5.860   3.057   5.769
 2126TIP3    H1 6342   5.799   3.126   5.794
 2126TIP3    H2 6343   5.884   3.077   5.679
 2127TIP3   OH2 6344   5.614   2.488   5.631
 2127TIP3    H1 6345   5.697   2.536   5.635
 2127TIP3    H2 6346   5.581   2.502   5.543
 2128TIP3   OH2 6347   6.106   1.761   2.939
 2128TIP3    H1 6348   6.156   1.681   2.920
 2128TIP3    H2 6349   6.092   1.802   2.854
 2129TIP3   OH2 6350   2.236   1.108   0.039
 2129TIP3    H1 6351   2.304   1.174   0.056
 2129TIP3    H2 6352   2.164   1.158   0.000
 2130TIP3   OH2 6353   3.706   5.845   1.735
 2130TIP3    H1 6354   3.668   5.758   1.741
 2130TIP3    H2 6355   3.737   5.864   1.824
 2131TIP3   OH2 6356   0.254   6.356   2.830
 2131TIP3    H1 6357   0.328   6.389   2.880
 2131TIP3    H2 6358   0.289   6.283   2.779
 2132TIP3   OH2 6359   6.656   2.313   5.842
 2132TIP3    H1 6360   6.692   2.368   5.773
 2132TIP3    H2 6361   6.727   2.253   5.864
 2133TIP3   OH2 6362   2.887   6.261   0.518
 2133TIP3    H1 6363   2.937   6.339   0.542
 2133TIP3    H2 6364   2.854   6.227   0.601
 2134TIP3   OH2 6365   2.989   0.170   1.548
 2134TIP3    H1 6366   2.990   0.077   1.530
 2134TIP3    H2 6367   3.081   0.194   1.558
 2135TIP3   OH2 6368   0.827   5.917   4.826
 2135TIP3    H1 6369   0.783   5.974   4.763
 2135TIP3    H2 6370   0.837   5.834   4.779
 2136TIP3   OH2 6371   1.591   2.544   4.114
 2136TIP3    H1 6372   1.642   2.620   4.088
 2136TIP3    H2 6373   1.507   2.579   4.144
 2137TIP3   OH2 6374   2.769   5.121   3.854
 2137TIP3    H1 6375   2.812   5.113   3.769
 2137TIP3    H2 6376   2.825   5.074   3.915
 2138TIP3   OH2 6377   3.998   4.296   2.098
 2138TIP3    H1 6378   3.990   4.390   2.114
 2138TIP3    H2 6379   3.941   4.279   2.023
 2139TIP3   OH2 6380   4.915   5.017   4.954
 2139TIP3    H1 6381   4.977   5.018   4.881
 2139TIP3    H2 6382   4.875   4.930   4.951
 2140TIP3   OH2 6383   1.344   4.868   1.151
 2140TIP3    H1 6384   1.420   4.833   1.106
 2140TIP3    H2 6385   1.296   4.916   1.084
 2141TIP3   OH2 6386   4.868   6.097   0.548
 2141TIP3    H1 6387   4.824   6.082   0.464
 2141TIP3    H2 6388   4.960   6.108   0.524
 2142TIP3   OH2 6389   6.342   0.279   2.785
 2142TIP3    H1 6390   6.363   0.218   2.715
 2142TIP3    H2 6391   6.257   0.249   2.819
 2143TIP3   OH2 6392   5.155   6.605   5.241
 2143TIP3    H1 6393   5.076   6.657   5.256
 2143TIP3    H2 6394   5.124   6.526   5.197
 2144TIP3   OH2 6395   0.270   3.985   2.697
 2144TIP3    H1 6396   0.203   3.940   2.747
 2144TIP3    H2 6397   0.351   3.970   2.746
 2145TIP3   OH2 6398   2.536   0.993   1.223
 2145TIP3    H1 6399   2.518   1.052   1.297
 2145TIP3    H2 6400   2.498   0.910   1.248
 2146TIP3   OH2 6401   5.913   2.456   4.200
 2146TIP3    H1 6402   6.002   2.429   4.222
 2146TIP3    H2 6403   5.872   2.475   4.284
 2147TIP3   OH2 6404   3.974   6.612   5.499
 2147TIP3    H1 6405   3.944   6.525   5.473
 2147TIP3    H2 6406   3.943   6.622   5.589
 2148TIP3   OH2 6407   5.204   4.742   2.574
 2148TIP3    H1 6408   5.184   4.821   2.524
 2148TIP3    H2 6409   5.187   4.766   2.665
 2149TIP3   OH2 6410   0.656   6.300   5.358
 2149TIP3    H1 6411   0.586   6.346   5.404
 2149TIP3    H2 6412   0.611   6.231   5.310
 2150TIP3   OH2 6413   6.377   4.569   2.060
 2150TIP3    H1 6414   6.349   4.660   2.050
 2150TIP3    H2 6415   6.471   4.574   2.074
 2151TIP3   OH2 6416   4.126   6.710   4.637
 2151TIP3    H1 6417   4.047   6.740   4.593
 2151TIP3    H2 6418   4.148   6.781   4.698
 2152TIP3   OH2 6419   6.096   0.273   0.953
 2152TIP3    H1 6420   6.010   0.276   0.994
 2152TIP3    H2 6421   6.157   0.296   1.024
 2153TIP3   OH2 6422   5.111   4.723   2.267
 2153TIP3    H1 6423   5.026   4.680   2.260
 2153TIP3    H2 6424   5.094   4.814   2.242
 2154TIP3   OH2 6425   3.953   1.784   4.067
 2154TIP3    H1 6426   3.964   1.777   3.972
 2154TIP3    H2 6427   4.015   1.852   4.094
 2155TIP3   OH2 6428   3.615   0.579   3.878
 2155TIP3    H1 6429   3.677   0.578   3.806
 2155TIP3    H2 6430   3.653   0.521   3.944
 2156TIP3   OH2 6431   0.342   5.667   1.771
 2156TIP3    H1 6432   0.379   5.736   1.826
 2156TIP3    H2 6433   0.367   5.585   1.815
 2157TIP3   OH2 6434   1.479   1.400   4.558
 2157TIP3    H1 6435   1.434   1.414   4.475
 2157TIP3    H2 6436   1.433   1.455   4.621
 2158TIP3   OH2 6437   2.029   5.400   2.100
 2158TIP3    H1 6438   2.096   5.337   2.073
 2158TIP3    H2 6439   1.965   5.348   2.148
 2159TIP3   OH2 6440   4.144   3.076   2.109
 2159TIP3    H1 6441   4.072   3.140   2.104
 2159TIP3    H2 6442   4.220   3.123   2.075
 2160TIP3   OH2 6443   1.096   4.628   1.368
 2160TIP3    H1 6444   1.048   4.634   1.286
 2160TIP3    H2 6445   1.173   4.574   1.346
 2161TIP3   OH2 6446   4.841   4.265   5.356
 2161TIP3    H1 6447   4.860   4.208   5.281
 2161TIP3    H2 6448   4.786   4.334   5.320
 2162TIP3   OH2 6449   4.805   0.870   1.130
 2162TIP3    H1 6450   4.887   0.833   1.100
 2162TIP3    H2 6451   4.749   0.872   1.053
 2163TIP3   OH2 6452   1.245   3.121   4.216
 2163TIP3    H1 6453   1.272   3.092   4.129
 2163TIP3    H2 6454   1.314   3.091   4.275
 2164TIP3   OH2 6455   6.833   1.949   1.306
 2164TIP3    H1 6456   6.831   2.041   1.331
 2164TIP3    H2 6457   6.884   1.946   1.225
 2165TIP3   OH2 6458   2.515   6.421   1.231
 2165TIP3    H1 6459   2.517   6.397   1.138
 2165TIP3    H2 6460   2.527   6.339   1.278
 2166TIP3   OH2 6461   6.669   0.279   1.297
 2166TIP3    H1 6462   6.698   0.323   1.376
 2166TIP3    H2 6463   6.615   0.207   1.328
 2167TIP3   OH2 6464   0.907   3.821   1.893
 2167TIP3    H1 6465   0.897   3.735   1.851
 2167TIP3    H2 6466   0.889   3.805   1.985
 2168TIP3   OH2 6467   7.073   4.183   2.304
 2168TIP3    H1 6468   7.150   4.154   2.254
 2168TIP3    H2 6469   7.108   4.243   2.370
 2169TIP3   OH2 6470   5.907   0.381   1.998
 2169TIP3    H1 6471   5.943   0.383   1.910
 2169TIP3    H2 6472   5.820   0.419   1.989
 2170TIP3   OH2 6473   2.436   3.917   1.562
 2170TIP3    H1 6474   2.491   3.873   1.627
 2170TIP3    H2 6475   2.351   3.927   1.604
 2171TIP3   OH2 6476   3.490   3.460   4.180
 2171TIP3    H1 6477   3.519   3.547   4.207
 2171TIP3    H2 6478   3.402   3.473   4.145
 2172TIP3   OH2 6479   3.558   6.002   5.787
 2172TIP3    H1 6480   3.531   6.085   5.749
 2172TIP3    H2 6481   3.505   5.937   5.742
 2173TIP3   OH2 6482   6.421   5.833   1.160
 2173TIP3    H1 6483   6.376   5.753   1.187
 2173TIP3    H2 6484   6.406   5.894   1.232
 2174TIP3   OH2 6485   4.721   3.590   3.603
 2174TIP3    H1 6486   4.782   3.532   3.650
 2174TIP3    H2 6487   4.747   3.678   3.630
 2175TIP3   OH2 6488   6.390   5.300   0.456
 2175TIP3    H1 6489   6.349   5.333   0.376
 2175TIP3    H2 6490   6.371   5.367   0.522
 2176TIP3   OH2 6491   1.395   2.542   5.535
 2176TIP3    H1 6492   1.375   2.635   5.540
 2176TIP3    H2 6493   1.438   2.521   5.618
 2177TIP3   OH2 6494   2.836   5.639   4.339
 2177TIP3    H1 6495   2.911   5.610   4.286
 2177TIP3    H2 6496   2.760   5.621   4.284
 2178TIP3   OH2 6497   5.039   4.064   5.243
 2178TIP3    H1 6498   5.085   4.143   5.213
 2178TIP3    H2 6499   5.051   4.001   5.172
 2179TIP3   OH2 6500   4.107   2.029   2.343
 2179TIP3    H1 6501   4.022   2.009   2.380
 2179TIP3    H2 6502   4.098   2.012   2.250
 2180TIP3   OH2 6503   6.843   4.859   1.675
 2180TIP3    H1 6504   6.916   4.840   1.616
 2180TIP3    H2 6505   6.827   4.953   1.665
 2181TIP3   OH2 6506   6.796   3.715   1.983
 2181TIP3    H1 6507   6.709   3.676   1.976
 2181TIP3    H2 6508   6.789   3.798   1.935
 2182TIP3   OH2 6509   4.424   0.055   5.003
 2182TIP3    H1 6510   4.364  -0.014   4.974
 2182TIP3    H2 6511   4.507   0.010   5.017
 2183TIP3   OH2 6512   3.910   3.081   0.930
 2183TIP3    H1 6513   3.932   3.072   1.022
 2183TIP3    H2 6514   3.815   3.095   0.929
 2184TIP3   OH2 6515   6.013   1.439   1.250
 2184TIP3    H1 6516   5.930   1.445   1.202
 2184TIP3    H2 6517   6.079   1.425   1.182
 2185TIP3   OH2 6518   1.005   5.016   5.411
 2185TIP3    H1 6519   1.011   5.110   5.396
 2185TIP3    H2 6520   1.042   4.977   5.332
 2186TIP3   OH2 6521   1.684   0.814   3.346
 2186TIP3    H1 6522   1.695   0.773   3.261
 2186TIP3    H2 6523   1.615   0.764   3.389
 2187TIP3   OH2 6524   6.531   6.509   5.500
 2187TIP3    H1 6525   6.616   6.491   5.459
 2187TIP3    H2 6526   6.541   6.477   5.590
 2188TIP3   OH2 6527   0.921   5.669   5.280
 2188TIP3    H1 6528   0.875   5.740   5.236
 2188TIP3    H2 6529   0.931   5.601   5.214
 2189TIP3   OH2 6530   1.874   4.732   0.294
 2189TIP3    H1 6531   1.844   4.776   0.215
 2189TIP3    H2 6532   1.915   4.651   0.263
 2190TIP3   OH2 6533   7.042   4.097   2.763
 2190TIP3    H1 6534   6.985   4.116   2.688
 2190TIP3    H2 6535   7.087   4.180   2.780
 2191TIP3   OH2 6536   7.160   0.431   4.044
 2191TIP3    H1 6537   7.255   0.424   4.054
 2191TIP3    H2 6538   7.130   0.342   4.029
 2192TIP3   OH2 6539   6.267   4.469   2.399
 2192TIP3    H1 6540   6.314   4.539   2.445
 2192TIP3    H2 6541   6.192   4.513   2.360
 2193TIP3   OH2 6542   3.609   1.161   5.422
 2193TIP3    H1 6543   3.519   1.156   5.391
 2193TIP3    H2 6544   3.612   1.241   5.475
 2194TIP3   OH2 6545   6.553   6.182   2.835
 2194TIP3    H1 6546   6.565   6.245   2.906
 2194TIP3    H2 6547   6.552   6.097   2.878
 2195TIP3   OH2 6548   5.931   2.751   0.665
 2195TIP3    H1 6549   5.857   2.773   0.608
 2195TIP3    H2 6550   5.893   2.749   0.753
 2196TIP3   OH2 6551   5.863   5.790   1.524
 2196TIP3    H1 6552   5.775   5.826   1.537
 2196TIP3    H2 6553   5.899   5.840   1.450
 2197TIP3   OH2 6554   1.622   2.793   2.222
 2197TIP3    H1 6555   1.656   2.881   2.238
 2197TIP3    H2 6556   1.687   2.752   2.166
 2198TIP3   OH2 6557   2.422   5.633   1.518
 2198TIP3    H1 6558   2.368   5.599   1.590
 2198TIP3    H2 6559   2.511   5.610   1.542
 2199TIP3   OH2 6560   1.358   6.372   1.805
 2199TIP3    H1 6561   1.373   6.279   1.791
 2199TIP3    H2 6562   1.404   6.392   1.886
 2200TIP3   OH2 6563   1.297   5.957   0.486
 2200TIP3    H1 6564   1.380   6.003   0.489
 2200TIP3    H2 6565   1.253   5.992   0.408
 2201TIP3   OH2 6566   6.726   3.016   3.545
 2201TIP3    H1 6567   6.725   3.033   3.451
 2201TIP3    H2 6568   6.693   2.926   3.552
 2202TIP3   OH2 6569   4.335   5.817   0.747
 2202TIP3    H1 6570   4.394   5.891   0.741
 2202TIP3    H2 6571   4.356   5.776   0.831
 2203TIP3   OH2 6572   4.572   4.478   4.969
 2203TIP3    H1 6573   4.610   4.504   4.885
 2203TIP3    H2 6574   4.524   4.398   4.951
 2204TIP3   OH2 6575   3.172   1.773   1.215
 2204TIP3    H1 6576   3.175   1.716   1.292
 2204TIP3    H2 6577   3.217   1.723   1.147
 2205TIP3   OH2 6578  -0.039   4.223   0.608
 2205TIP3    H1 6579   0.025   4.237   0.539
 2205TIP3    H2 6580   0.001   4.261   0.686
 2206TIP3   OH2 6581   3.645   4.480   1.425
 2206TIP3    H1 6582   3.587   4.512   1.494
 2206TIP3    H2 6583   3.641   4.548   1.358
 2207TIP3   OH2 6584   2.907   5.566   1.434
 2207TIP3    H1 6585   2.926   5.660   1.422
 2207TIP3    H2 6586   2.908   5.530   1.346
 2208TIP3   OH2 6587   1.940   4.322   2.318
 2208TIP3    H1 6588   1.986   4.238   2.318
 2208TIP3    H2 6589   1.908   4.332   2.407
 2209TIP3   OH2 6590   6.380   2.290   5.586
 2209TIP3    H1 6591   6.471   2.315   5.567
 2209TIP3    H2 6592   6.388   2.221   5.652
 2210TIP3   OH2 6593   3.215   1.990   1.884
 2210TIP3    H1 6594   3.193   2.069   1.934
 2210TIP3    H2 6595   3.258   2.023   1.805
 2211TIP3   OH2 6596   0.441   2.848   4.967
 2211TIP3    H1 6597   0.521   2.796   4.974
 2211TIP3    H2 6598   0.370   2.787   4.988
 2212TIP3   OH2 6599   3.082   1.208   0.265
 2212TIP3    H1 6600   3.141   1.133   0.280
 2212TIP3    H2 6601   3.048   1.228   0.352
 2213TIP3   OH2 6602   6.730   1.187   0.418
 2213TIP3    H1 6603   6.681   1.224   0.491
 2213TIP3    H2 6604   6.792   1.126   0.459
 2214TIP3   OH2 6605   0.498   3.443   0.595
 2214TIP3    H1 6606   0.522   3.535   0.608
 2214TIP3    H2 6607   0.429   3.445   0.529
 2215TIP3   OH2 6608   6.069   2.442   2.633
 2215TIP3    H1 6609   6.022   2.496   2.569
 2215TIP3    H2 6610   6.013   2.444   2.711
 2216TIP3   OH2 6611   6.618   6.819   1.863
 2216TIP3    H1 6612   6.651   6.756   1.800
 2216TIP3    H2 6613   6.545   6.862   1.819
 2217TIP3   OH2 6614   6.411   6.246   0.785
 2217TIP3    H1 6615   6.331   6.251   0.836
 2217TIP3    H2 6616   6.469   6.191   0.837
 2218TIP3   OH2 6617   4.881   3.721   1.579
 2218TIP3    H1 6618   4.930   3.639   1.569
 2218TIP3    H2 6619   4.925   3.783   1.520
 2219TIP3   OH2 6620   2.821   0.835   2.946
 2219TIP3    H1 6621   2.770   0.886   3.008
 2219TIP3    H2 6622   2.763   0.763   2.920
 2220TIP3   OH2 6623   1.052   4.407   3.749
 2220TIP3    H1 6624   0.960   4.381   3.746
 2220TIP3    H2 6625   1.097   4.341   3.697
 2221TIP3   OH2 6626   6.355  -0.025   5.094
 2221TIP3    H1 6627   6.423  -0.024   5.026
 2221TIP3    H2 6628   6.299   0.050   5.074
 2222TIP3   OH2 6629   4.347   2.489   1.988
 2222TIP3    H1 6630   4.376   2.428   2.054
 2222TIP3    H2 6631   4.426   2.514   1.940
 2223TIP3   OH2 6632   3.636   4.539   0.017
 2223TIP3    H1 6633   3.657   4.520   0.109
 2223TIP3    H2 6634   3.720   4.559  -0.023
 2224TIP3   OH2 6635   5.709   4.498   4.646
 2224TIP3    H1 6636   5.698   4.426   4.708
 2224TIP3    H2 6637   5.803   4.509   4.637
 2225TIP3   OH2 6638   2.294   2.115   0.216
 2225TIP3    H1 6639   2.382   2.152   0.210
 2225TIP3    H2 6640   2.284   2.092   0.309
 2226TIP3   OH2 6641   6.016   6.197   2.709
 2226TIP3    H1 6642   6.056   6.204   2.622
 2226TIP3    H2 6643   6.071   6.135   2.756
 2227TIP3   OH2 6644   1.061   4.673   5.047
 2227TIP3    H1 6645   1.129   4.613   5.016
 2227TIP3    H2 6646   0.988   4.616   5.070
 2228TIP3   OH2 6647   6.318   0.620   4.091
 2228TIP3    H1 6648   6.226   0.625   4.115
 2228TIP3    H2 6649   6.326   0.679   4.016
 2229TIP3   OH2 6650   1.170   0.365   3.459
 2229TIP3    H1 6651   1.154   0.388   3.368
 2229TIP3    H2 6652   1.179   0.270   3.459
 2230TIP3   OH2 6653   4.010   5.715   4.226
 2230TIP3    H1 6654   3.949   5.711   4.152
 2230TIP3    H2 6655   3.960   5.760   4.294
 2231TIP3   OH2 6656   0.881   6.058   4.572
 2231TIP3    H1 6657   0.901   6.113   4.648
 2231TIP3    H2 6658   0.966   6.041   4.531
 2232TIP3   OH2 6659   0.599   4.198   3.634
 2232TIP3    H1 6660   0.631   4.189   3.544
 2232TIP3    H2 6661   0.581   4.108   3.662
 2233TIP3   OH2 6662   3.392   1.592   4.874
 2233TIP3    H1 6663   3.314   1.557   4.919
 2233TIP3    H2 6664   3.426   1.517   4.825
 2234TIP3   OH2 6665   0.199   0.996   4.160
 2234TIP3    H1 6666   0.120   0.983   4.213
 2234TIP3    H2 6667   0.259   1.043   4.217
 2235TIP3   OH2 6668   6.360   3.222   0.980
 2235TIP3    H1 6669   6.320   3.216   1.066
 2235TIP3    H2 6670   6.288   3.245   0.921
 2236TIP3   OH2 6671   0.755   0.811   5.653
 2236TIP3    H1 6672   0.782   0.876   5.589
 2236TIP3    H2 6673   0.768   0.853   5.738
 2237TIP3   OH2 6674   5.375   5.185   4.472
 2237TIP3    H1 6675   5.442   5.249   4.447
 2237TIP3    H2 6676   5.302   5.239   4.504
 2238TIP3   OH2 6677   0.498   4.544   3.480
 2238TIP3    H1 6678   0.412   4.561   3.518
 2238TIP3    H2 6679   0.558   4.544   3.554
 2239TIP3   OH2 6680   1.355   4.580   5.230
 2239TIP3    H1 6681   1.358   4.625   5.314
 2239TIP3    H2 6682   1.328   4.647   5.168
 2240TIP3   OH2 6683   4.523   0.608   5.445
 2240TIP3    H1 6684   4.497   0.552   5.519
 2240TIP3    H2 6685   4.523   0.696   5.481
 2241TIP3   OH2 6686   1.323   3.350   3.082
 2241TIP3    H1 6687   1.398   3.290   3.086
 2241TIP3    H2 6688   1.270   3.328   3.159
 2242TIP3   OH2 6689   4.543   2.557   3.793
 2242TIP3    H1 6690   4.606   2.553   3.721
 2242TIP3    H2 6691   4.571   2.631   3.846
 2243TIP3   OH2 6692   6.999   4.759   0.849
 2243TIP3    H1 6693   7.008   4.750   0.944
 2243TIP3    H2 6694   6.994   4.669   0.817
 2244TIP3   OH2 6695   3.634   5.521   0.600
 2244TIP3    H1 6696   3.728   5.503   0.605
 2244TIP3    H2 6697   3.626   5.612   0.627
 2245TIP3   OH2 6698   6.495   5.004   3.942
 2245TIP3    H1 6699   6.553   5.039   4.009
 2245TIP3    H2 6700   6.466   5.081   3.893
 2246TIP3   OH2 6701   4.461   4.673   4.308
 2246TIP3    H1 6702   4.504   4.756   4.287
 2246TIP3    H2 6703   4.490   4.652   4.396
 2247TIP3   OH2 6704   3.711   6.760   2.781
 2247TIP3    H1 6705   3.779   6.813   2.741
 2247TIP3    H2 6706   3.698   6.798   2.868
 2248TIP3   OH2 6707   1.137   3.144   2.412
 2248TIP3    H1 6708   1.197   3.095   2.355
 2248TIP3    H2 6709   1.101   3.213   2.356
 2249TIP3   OH2 6710   0.203   6.702   0.499
 2249TIP3    H1 6711   0.181   6.734   0.411
 2249TIP3    H2 6712   0.233   6.612   0.485
 2250TIP3   OH2 6713   1.269   2.427   3.169
 2250TIP3    H1 6714   1.234   2.419   3.080
 2250TIP3    H2 6715   1.208   2.486   3.213
 2251TIP3   OH2 6716   0.746   5.474   3.177
 2251TIP3    H1 6717   0.740   5.507   3.087
 2251TIP3    H2 6718   0.826   5.513   3.211
 2252TIP3   OH2 6719   5.912   0.023   4.496
 2252TIP3    H1 6720   5.924   0.117   4.485
 2252TIP3    H2 6721   5.992  -0.007   4.540
 2253TIP3   OH2 6722   7.131   2.110   3.177
 2253TIP3    H1 6723   7.166   2.021   3.177
 2253TIP3    H2 6724   7.209   2.166   3.174
 2254TIP3   OH2 6725   1.257   0.067   1.608
 2254TIP3    H1 6726   1.227   0.036   1.522
 2254TIP3    H2 6727   1.185   0.045   1.668
 2255TIP3   OH2 6728   6.250   2.411   4.733
 2255TIP3    H1 6729   6.254   2.506   4.744
 2255TIP3    H2 6730   6.165   2.395   4.692
 2256TIP3   OH2 6731   2.926   3.867   4.795
 2256TIP3    H1 6732   2.923   3.771   4.796
 2256TIP3    H2 6733   2.961   3.890   4.881
 2257TIP3   OH2 6734   4.736   0.094   3.114
 2257TIP3    H1 6735   4.767   0.013   3.073
 2257TIP3    H2 6736   4.786   0.102   3.195
 2258TIP3   OH2 6737   6.640   6.586   0.397
 2258TIP3    H1 6738   6.606   6.648   0.333
 2258TIP3    H2 6739   6.575   6.516   0.399
 2259TIP3   OH2 6740   6.261   5.791   4.942
 2259TIP3    H1 6741   6.229   5.867   4.894
 2259TIP3    H2 6742   6.295   5.827   5.024
 2260TIP3   OH2 6743   2.593   0.599   3.840
 2260TIP3    H1 6744   2.549   0.636   3.916
 2260TIP3    H2 6745   2.575   0.505   3.845
 2261TIP3   OH2 6746   3.013   2.797   1.779
 2261TIP3    H1 6747   2.950   2.836   1.720
 2261TIP3    H2 6748   2.969   2.718   1.813
 2262TIP3   OH2 6749   7.178   6.221   2.737
 2262TIP3    H1 6750   7.242   6.262   2.679
 2262TIP3    H2 6751   7.217   6.137   2.761
 2263TIP3   OH2 6752   2.000   1.990   2.544
 2263TIP3    H1 6753   2.026   1.958   2.631
 2263TIP3    H2 6754   2.008   1.913   2.488
 2264TIP3   OH2 6755   0.605   2.404   1.830
 2264TIP3    H1 6756   0.645   2.338   1.887
 2264TIP3    H2 6757   0.672   2.425   1.766
 2265TIP3   OH2 6758   4.483   2.564   0.514
 2265TIP3    H1 6759   4.485   2.606   0.429
 2265TIP3    H2 6760   4.457   2.474   0.496
 2266TIP3   OH2 6761   2.845   3.133   5.905
 2266TIP3    H1 6762   2.785   3.162   5.838
 2266TIP3    H2 6763   2.901   3.209   5.922
 2267TIP3   OH2 6764   5.792   5.168   4.618
 2267TIP3    H1 6765   5.877   5.207   4.600
 2267TIP3    H2 6766   5.741   5.239   4.656
 2268TIP3   OH2 6767   4.824   0.028   3.818
 2268TIP3    H1 6768   4.809   0.033   3.912
 2268TIP3    H2 6769   4.852  -0.063   3.803
 2269TIP3   OH2 6770   1.145   4.897   2.997
 2269TIP3    H1 6771   1.083   4.825   2.990
 2269TIP3    H2 6772   1.180   4.907   2.908
 2270TIP3   OH2 6773   5.525   3.791   1.210
 2270TIP3    H1 6774   5.478   3.750   1.283
 2270TIP3    H2 6775   5.464   3.855   1.174
 2271TIP3   OH2 6776   7.056   3.838   1.520
 2271TIP3    H1 6777   7.002   3.822   1.443
 2271TIP3    H2 6778   7.049   3.757   1.572
 2272TIP3   OH2 6779   6.920   3.065   0.082
 2272TIP3    H1 6780   6.990   3.063   0.017
 2272TIP3    H2 6781   6.964   3.088   0.164
 2273TIP3   OH2 6782   0.898   2.346   4.744
 2273TIP3    H1 6783   0.894   2.305   4.830
 2273TIP3    H2 6784   0.926   2.436   4.762
 2274TIP3   OH2 6785   6.284   3.724   5.065
 2274TIP3    H1 6786   6.253   3.697   5.151
 2274TIP3    H2 6787   6.206   3.759   5.022
 2275TIP3   OH2 6788   3.293   4.839   4.408
 2275TIP3    H1 6789   3.333   4.901   4.468
 2275TIP3    H2 6790   3.367   4.791   4.370
 2276TIP3   OH2 6791   4.900   2.961   5.328
 2276TIP3    H1 6792   4.953   3.040   5.345
 2276TIP3    H2 6793   4.918   2.903   5.402
 2277TIP3   OH2 6794  -0.009   5.478   1.862
 2277TIP3    H1 6795   0.066   5.427   1.832
 2277TIP3    H2 6796   0.021   5.520   1.942
 2278TIP3   OH2 6797   3.578   2.963   3.896
 2278TIP3    H1 6798   3.603   2.959   3.989
 2278TIP3    H2 6799   3.488   2.996   3.897
 2279TIP3   OH2 6800   6.956   2.596   1.805
 2279TIP3    H1 6801   6.970   2.579   1.898
 2279TIP3    H2 6802   6.984   2.516   1.761
 2280TIP3   OH2 6803   4.440   1.071   5.025
 2280TIP3    H1 6804   4.367   1.111   5.072
 2280TIP3    H2 6805   4.481   1.013   5.089
 2281TIP3   OH2 6806   1.119   3.958   1.079
 2281TIP3    H1 6807   1.174   3.898   1.029
 2281TIP3    H2 6808   1.167   4.041   1.077
 2282TIP3   OH2 6809   5.942   2.047   2.505
 2282TIP3    H1 6810   5.945   2.135   2.467
 2282TIP3    H2 6811   5.942   1.989   2.430
 2283TIP3   OH2 6812   1.893   2.712   0.702
 2283TIP3    H1 6813   1.885   2.651   0.776
 2283TIP3    H2 6814   1.841   2.671   0.632
 2284TIP3   OH2 6815   4.426   3.035   2.249
 2284TIP3    H1 6816   4.396   3.089   2.176
 2284TIP3    H2 6817   4.360   2.966   2.256
 2285TIP3   OH2 6818   1.572   5.722   0.673
 2285TIP3    H1 6819   1.633   5.761   0.735
 2285TIP3    H2 6820   1.489   5.717   0.721
 2286TIP3   OH2 6821   4.049   1.520   3.969
 2286TIP3    H1 6822   4.001   1.582   3.914
 2286TIP3    H2 6823   3.990   1.446   3.978
 2287TIP3   OH2 6824   3.438   0.599   2.416
 2287TIP3    H1 6825   3.484   0.617   2.498
 2287TIP3    H2 6826   3.431   0.504   2.413
 2288TIP3   OH2 6827   3.949   6.041   3.942
 2288TIP3    H1 6828   3.920   5.956   3.909
 2288TIP3    H2 6829   3.943   6.033   4.037
 2289TIP3   OH2 6830   0.279   6.217   3.652
 2289TIP3    H1 6831   0.299   6.128   3.623
 2289TIP3    H2 6832   0.298   6.272   3.576
 2290TIP3   OH2 6833   3.816   0.780   2.450
 2290TIP3    H1 6834   3.773   0.843   2.509
 2290TIP3    H2 6835   3.909   0.800   2.457
 2291TIP3   OH2 6836   5.069   1.940   3.164
 2291TIP3    H1 6837   5.154   1.985   3.170
 2291TIP3    H2 6838   5.028   1.956   3.249
 2292TIP3   OH2 6839   3.313   1.677   5.479
 2292TIP3    H1 6840   3.305   1.615   5.407
 2292TIP3    H2 6841   3.311   1.623   5.558
 2293TIP3   OH2 6842   5.776   5.423   1.232
 2293TIP3    H1 6843   5.783   5.328   1.224
 2293TIP3    H2 6844   5.760   5.453   1.142
 2294TIP3   OH2 6845   4.373   2.626   0.758
 2294TIP3    H1 6846   4.315   2.551   0.772
 2294TIP3    H2 6847   4.420   2.605   0.677
 2295TIP3   OH2 6848   7.001   0.992   5.262
 2295TIP3    H1 6849   7.042   1.032   5.185
 2295TIP3    H2 6850   7.032   1.045   5.335
 2296TIP3   OH2 6851   1.351   5.090   4.386
 2296TIP3    H1 6852   1.299   5.096   4.466
 2296TIP3    H2 6853   1.434   5.052   4.414
 2297TIP3   OH2 6854   6.419   4.841   3.533
 2297TIP3    H1 6855   6.365   4.897   3.589
 2297TIP3    H2 6856   6.415   4.882   3.446
 2298TIP3   OH2 6857   6.582   1.226   3.171
 2298TIP3    H1 6858   6.635   1.161   3.124
 2298TIP3    H2 6859   6.513   1.250   3.109
 2299TIP3   OH2 6860   0.563   4.218   1.711
 2299TIP3    H1 6861   0.596   4.179   1.791
 2299TIP3    H2 6862   0.544   4.309   1.734
 2300TIP3   OH2 6863   1.245   1.247   3.911
 2300TIP3    H1 6864   1.151   1.232   3.908
 2300TIP3    H2 6865   1.281   1.184   3.848
 2301TIP3   OH2 6866   6.912   3.617   4.817
 2301TIP3    H1 6867   6.899   3.536   4.768
 2301TIP3    H2 6868   6.983   3.597   4.879
 2302TIP3   OH2 6869   2.550   4.083   3.111
 2302TIP3    H1 6870   2.455   4.087   3.111
 2302TIP3    H2 6871   2.570   4.000   3.068
 2303TIP3   OH2 6872   2.482   4.443   0.724
 2303TIP3    H1 6873   2.439   4.411   0.645
 2303TIP3    H2 6874   2.561   4.487   0.692
 2304TIP3   OH2 6875   0.793   3.855   5.394
 2304TIP3    H1 6876   0.719   3.808   5.431
 2304TIP3    H2 6877   0.755   3.936   5.358
 2305TIP3   OH2 6878   4.439   2.189   5.165
 2305TIP3    H1 6879   4.350   2.222   5.152
 2305TIP3    H2 6880   4.495   2.267   5.163
 2306TIP3   OH2 6881   3.165   6.770   0.944
 2306TIP3    H1 6882   3.254   6.740   0.924
 2306TIP3    H2 6883   3.126   6.699   0.996
 2307TIP3   OH2 6884   5.559   0.652   5.142
 2307TIP3    H1 6885   5.546   0.679   5.051
 2307TIP3    H2 6886   5.653   0.659   5.156
 2308TIP3   OH2 6887   5.585   3.942   2.745
 2308TIP3    H1 6888   5.509   3.966   2.798
 2308TIP3    H2 6889   5.615   3.859   2.783
 2309TIP3   OH2 6890   6.797   4.320   5.331
 2309TIP3    H1 6891   6.765   4.271   5.407
 2309TIP3    H2 6892   6.892   4.321   5.341
 2310TIP3   OH2 6893   6.669   2.982   2.180
 2310TIP3    H1 6894   6.638   3.033   2.105
 2310TIP3    H2 6895   6.652   3.037   2.256
 2311TIP3   OH2 6896   7.114   4.575   5.435
 2311TIP3    H1 6897   7.167   4.514   5.486
 2311TIP3    H2 6898   7.026   4.567   5.472
 2312TIP3   OH2 6899   6.244   3.846   0.736
 2312TIP3    H1 6900   6.205   3.826   0.821
 2312TIP3    H2 6901   6.182   3.809   0.672
 2313TIP3   OH2 6902   0.653   6.354   5.807
 2313TIP3    H1 6903   0.699   6.438   5.809
 2313TIP3    H2 6904   0.712   6.295   5.761
 2314TIP3   OH2 6905   5.339   1.676   3.264
 2314TIP3    H1 6906   5.264   1.646   3.315
 2314TIP3    H2 6907   5.415   1.659   3.321
 2315TIP3   OH2 6908   5.412   5.832   1.708
 2315TIP3    H1 6909   5.459   5.824   1.625
 2315TIP3    H2 6910   5.377   5.745   1.725
 2316TIP3   OH2 6911   3.321   2.843   1.689
 2316TIP3    H1 6912   3.351   2.812   1.603
 2316TIP3    H2 6913   3.238   2.798   1.703
 2317TIP3   OH2 6914   3.174   2.757   0.639
 2317TIP3    H1 6915   3.118   2.835   0.639
 2317TIP3    H2 6916   3.112   2.684   0.637
 2318TIP3   OH2 6917   0.767   5.276   4.452
 2318TIP3    H1 6918   0.747   5.188   4.483
 2318TIP3    H2 6919   0.731   5.280   4.364
 2319TIP3   OH2 6920   4.226   5.201   1.357
 2319TIP3    H1 6921   4.248   5.111   1.334
 2319TIP3    H2 6922   4.195   5.241   1.276
 2320TIP3   OH2 6923   1.834   0.800   1.815
 2320TIP3    H1 6924   1.900   0.869   1.813
 2320TIP3    H2 6925   1.885   0.719   1.815
 2321TIP3   OH2 6926   3.047   2.017   3.712
 2321TIP3    H1 6927   2.993   2.075   3.765
 2321TIP3    H2 6928   3.025   1.929   3.741
 2322TIP3   OH2 6929   0.001   1.340   2.715
 2322TIP3    H1 6930   0.065   1.359   2.646
 2322TIP3    H2 6931   0.048   1.355   2.797
 2323TIP3   OH2 6932   5.229   2.966   2.651
 2323TIP3    H1 6933   5.255   2.963   2.559
 2323TIP3    H2 6934   5.299   3.014   2.694
 2324TIP3   OH2 6935   2.455   1.137   1.637
 2324TIP3    H1 6936   2.396   1.153   1.710
 2324TIP3    H2 6937   2.542   1.131   1.677
 2325TIP3   OH2 6938   4.819   2.785   1.088
 2325TIP3    H1 6939   4.876   2.709   1.098
 2325TIP3    H2 6940   4.756   2.778   1.159
 2326TIP3   OH2 6941   1.704   4.838   2.555
 2326TIP3    H1 6942   1.720   4.843   2.461
 2326TIP3    H2 6943   1.698   4.745   2.574
 2327TIP3   OH2 6944   0.526   3.890   0.767
 2327TIP3    H1 6945   0.439   3.928   0.780
 2327TIP3    H2 6946   0.509   3.801   0.736
 2328TIP3   OH2 6947   5.214   2.013   4.839
 2328TIP3    H1 6948   5.167   1.943   4.794
 2328TIP3    H2 6949   5.154   2.041   4.909
 2329TIP3   OH2 6950   1.783   0.864   1.120
 2329TIP3    H1 6951   1.729   0.942   1.129
 2329TIP3    H2 6952   1.765   0.832   1.031
 2330TIP3   OH2 6953   4.916   6.573   1.950
 2330TIP3    H1 6954   4.893   6.486   1.984
 2330TIP3    H2 6955   5.003   6.590   1.985
 2331TIP3   OH2 6956   4.002   0.599   5.100
 2331TIP3    H1 6957   3.955   0.624   5.180
 2331TIP3    H2 6958   3.952   0.526   5.065
 2332TIP3   OH2 6959   0.463   5.125   2.540
 2332TIP3    H1 6960   0.517   5.054   2.506
 2332TIP3    H2 6961   0.384   5.082   2.572
 2333TIP3   OH2 6962   1.428   5.357   1.905
 2333TIP3    H1 6963   1.358   5.422   1.903
 2333TIP3    H2 6964   1.476   5.375   1.986
 2334TIP3   OH2 6965   0.508   4.663   1.565
 2334TIP3    H1 6966   0.453   4.730   1.524
 2334TIP3    H2 6967   0.587   4.711   1.593
 2335TIP3   OH2 6968   0.555   1.953   2.015
 2335TIP3    H1 6969   0.512   2.023   2.064
 2335TIP3    H2 6970   0.528   1.873   2.059
 2336TIP3   OH2 6971   3.162   0.320   1.264
 2336TIP3    H1 6972   3.192   0.324   1.173
 2336TIP3    H2 6973   3.129   0.231   1.274
 2337TIP3   OH2 6974   3.462   1.850   0.341
 2337TIP3    H1 6975   3.549   1.829   0.308
 2337TIP3    H2 6976   3.410   1.771   0.325
 2338TIP3   OH2 6977   6.028   5.590   5.323
 2338TIP3    H1 6978   6.024   5.528   5.396
 2338TIP3    H2 6979   6.098   5.650   5.346
 2339TIP3   OH2 6980   3.215   3.003   0.843
 2339TIP3    H1 6981   3.227   3.030   0.752
 2339TIP3    H2 6982   3.233   3.082   0.894
 2340TIP3   OH2 6983   3.144   3.060   4.365
 2340TIP3    H1 6984   3.107   3.086   4.449
 2340TIP3    H2 6985   3.115   3.128   4.304
 2341TIP3   OH2 6986   5.832   2.316   3.534
 2341TIP3    H1 6987   5.903   2.380   3.541
 2341TIP3    H2 6988   5.862   2.255   3.467
 2342TIP3   OH2 6989   3.115   5.904   2.072
 2342TIP3    H1 6990   3.184   5.889   2.007
 2342TIP3    H2 6991   3.039   5.932   2.021
 2343TIP3   OH2 6992   0.566   5.664   5.090
 2343TIP3    H1 6993   0.621   5.590   5.063
 2343TIP3    H2 6994   0.491   5.624   5.134
 2344TIP3   OH2 6995   4.672   2.282   0.251
 2344TIP3    H1 6996   4.721   2.260   0.331
 2344TIP3    H2 6997   4.580   2.273   0.276
 2345TIP3   OH2 6998   2.890   2.399   4.279
 2345TIP3    H1 6999   2.893   2.408   4.184
 2345TIP3    H2 7000   2.863   2.485   4.310
 2346TIP3   OH2 7001   6.425   3.507   0.846
 2346TIP3    H1 7002   6.449   3.536   0.934
 2346TIP3    H2 7003   6.475   3.427   0.832
 2347TIP3   OH2 7004   1.978   6.466   2.974
 2347TIP3    H1 7005   1.997   6.374   2.996
 2347TIP3    H2 7006   2.059   6.512   2.992
 2348TIP3   OH2 7007   1.520   0.534   4.349
 2348TIP3    H1 7008   1.488   0.610   4.398
 2348TIP3    H2 7009   1.614   0.532   4.365
 2349TIP3   OH2 7010   5.564   5.513   3.801
 2349TIP3    H1 7011   5.576   5.600   3.840
 2349TIP3    H2 7012   5.469   5.501   3.799
 2350TIP3   OH2 7013   3.987   0.284   4.628
 2350TIP3    H1 7014   3.934   0.220   4.580
 2350TIP3    H2 7015   4.027   0.338   4.559
 2351TIP3   OH2 7016   5.860   4.459   5.231
 2351TIP3    H1 7017   5.910   4.378   5.239
 2351TIP3    H2 7018   5.861   4.497   5.319
 2352TIP3   OH2 7019   1.707   4.885   4.947
 2352TIP3    H1 7020   1.673   4.806   4.904
 2352TIP3    H2 7021   1.710   4.861   5.040
 2353TIP3   OH2 7022   0.738   6.743   4.409
 2353TIP3    H1 7023   0.681   6.774   4.339
 2353TIP3    H2 7024   0.826   6.752   4.373
 2354TIP3   OH2 7025   1.468   0.554   2.395
 2354TIP3    H1 7026   1.458   0.571   2.301
 2354TIP3    H2 7027   1.532   0.483   2.400
 2355TIP3   OH2 7028   6.729   3.424   2.286
 2355TIP3    H1 7029   6.673   3.449   2.360
 2355TIP3    H2 7030   6.722   3.329   2.282
 2356TIP3   OH2 7031   0.068   2.225   1.431
 2356TIP3    H1 7032   0.146   2.279   1.446
 2356TIP3    H2 7033   0.096   2.160   1.368
 2357TIP3   OH2 7034   5.499   1.563   0.083
 2357TIP3    H1 7035   5.573   1.592   0.030
 2357TIP3    H2 7036   5.533   1.557   0.172
 2358TIP3   OH2 7037   0.803   1.279   2.829
 2358TIP3    H1 7038   0.888   1.244   2.856
 2358TIP3    H2 7039   0.796   1.256   2.736
 2359TIP3   OH2 7040   5.072   5.907   1.284
 2359TIP3    H1 7041   5.040   5.880   1.198
 2359TIP3    H2 7042   4.995   5.904   1.340
 2360TIP3   OH2 7043   5.517   2.199   5.205
 2360TIP3    H1 7044   5.437   2.198   5.258
 2360TIP3    H2 7045   5.543   2.107   5.199
 2361TIP3   OH2 7046   3.010   0.894   4.264
 2361TIP3    H1 7047   2.983   0.954   4.195
 2361TIP3    H2 7048   3.074   0.943   4.316
 2362TIP3   OH2 7049   5.581   0.294   3.776
 2362TIP3    H1 7050   5.565   0.370   3.719
 2362TIP3    H2 7051   5.504   0.291   3.833
 2363TIP3   OH2 7052   0.715   6.836   3.590
 2363TIP3    H1 7053   0.689   6.749   3.622
 2363TIP3    H2 7054   0.656   6.897   3.634
 2364TIP3   OH2 7055   0.629   0.999   0.147
 2364TIP3    H1 7056   0.549   1.035   0.185
 2364TIP3    H2 7057   0.646   1.053   0.071
 2365TIP3   OH2 7058   3.973   5.407   4.383
 2365TIP3    H1 7059   4.001   5.470   4.316
 2365TIP3    H2 7060   3.948   5.329   4.332
 2366TIP3   OH2 7061   1.007   0.029   1.724
 2366TIP3    H1 7062   0.924   0.013   1.679
 2366TIP3    H2 7063   0.988   0.010   1.816
 2367TIP3   OH2 7064   2.103   6.524   3.239
 2367TIP3    H1 7065   2.104   6.599   3.298
 2367TIP3    H2 7066   2.041   6.463   3.279
 2368TIP3   OH2 7067   3.973   4.576   0.079
 2368TIP3    H1 7068   4.007   4.499   0.034
 2368TIP3    H2 7069   3.904   4.543   0.136
 2369TIP3   OH2 7070   0.877   1.468   4.335
 2369TIP3    H1 7071   0.961   1.455   4.379
 2369TIP3    H2 7072   0.895   1.445   4.243
 2370TIP3   OH2 7073   4.641   1.099   1.876
 2370TIP3    H1 7074   4.552   1.070   1.854
 2370TIP3    H2 7075   4.640   1.193   1.860
 2371TIP3   OH2 7076   3.498   5.395   1.998
 2371TIP3    H1 7077   3.498   5.306   2.034
 2371TIP3    H2 7078   3.415   5.402   1.952
 2372TIP3   OH2 7079   5.381   1.356   5.188
 2372TIP3    H1 7080   5.307   1.360   5.249
 2372TIP3    H2 7081   5.450   1.312   5.238
 2373TIP3   OH2 7082   5.294   1.788   2.468
 2373TIP3    H1 7083   5.200   1.808   2.475
 2373TIP3    H2 7084   5.324   1.784   2.559
 2374TIP3   OH2 7085   7.113   1.955   5.055
 2374TIP3    H1 7086   7.206   1.938   5.042
 2374TIP3    H2 7087   7.069   1.878   5.018
 2375TIP3   OH2 7088   3.202   0.250   0.123
 2375TIP3    H1 7089   3.116   0.216   0.147
 2375TIP3    H2 7090   3.220   0.212   0.038
 2376TIP3   OH2 7091   6.070   0.604   4.423
 2376TIP3    H1 7092   6.005   0.626   4.356
 2376TIP3    H2 7093   6.148   0.652   4.397
 2377TIP3   OH2 7094   3.624   4.261   3.999
 2377TIP3    H1 7095   3.664   4.339   3.960
 2377TIP3    H2 7096   3.622   4.280   4.093
 2378TIP3   OH2 7097   4.232   4.823   2.985
 2378TIP3    H1 7098   4.194   4.911   2.986
 2378TIP3    H2 7099   4.174   4.772   2.928
 2379TIP3   OH2 7100   3.580   1.910   5.725
 2379TIP3    H1 7101   3.487   1.903   5.747
 2379TIP3    H2 7102   3.585   1.892   5.631
 2380TIP3   OH2 7103   2.827   1.893   2.356
 2380TIP3    H1 7104   2.780   1.953   2.298
 2380TIP3    H2 7105   2.811   1.806   2.320
 2381TIP3   OH2 7106   6.484   0.414   3.657
 2381TIP3    H1 7107   6.562   0.358   3.650
 2381TIP3    H2 7108   6.519   0.502   3.668
 2382TIP3   OH2 7109   7.001   4.053   3.332
 2382TIP3    H1 7110   7.014   4.147   3.331
 2382TIP3    H2 7111   7.028   4.024   3.245
 2383TIP3   OH2 7112   6.848   2.772   4.624
 2383TIP3    H1 7113   6.762   2.731   4.633
 2383TIP3    H2 7114   6.831   2.866   4.630
 2384TIP3   OH2 7115   5.982   5.276   3.156
 2384TIP3    H1 7116   6.025   5.245   3.235
 2384TIP3    H2 7117   6.038   5.246   3.084
 2385TIP3   OH2 7118   3.289   0.807   1.623
 2385TIP3    H1 7119   3.377   0.824   1.588
 2385TIP3    H2 7120   3.298   0.724   1.670
 2386TIP3   OH2 7121   1.614   3.149   1.787
 2386TIP3    H1 7122   1.573   3.211   1.727
 2386TIP3    H2 7123   1.708   3.164   1.778
 2387TIP3   OH2 7124   6.988   3.468   3.321
 2387TIP3    H1 7125   7.043   3.420   3.259
 2387TIP3    H2 7126   6.898   3.448   3.294
 2388TIP3   OH2 7127   2.245   1.587   4.942
 2388TIP3    H1 7128   2.230   1.508   4.995
 2388TIP3    H2 7129   2.175   1.584   4.876
 2389TIP3   OH2 7130   1.356   5.441   5.624
 2389TIP3    H1 7131   1.400   5.357   5.630
 2389TIP3    H2 7132   1.278   5.432   5.678
 2390TIP3   OH2 7133   5.658   2.511   0.746
 2390TIP3    H1 7134   5.632   2.490   0.656
 2390TIP3    H2 7135   5.641   2.605   0.754
 2391TIP3   OH2 7136   2.493   6.158   4.396
 2391TIP3    H1 7137   2.568   6.204   4.358
 2391TIP3    H2 7138   2.424   6.166   4.331
 2392TIP3   OH2 7139   5.380   6.287   2.453
 2392TIP3    H1 7140   5.420   6.203   2.428
 2392TIP3    H2 7141   5.450   6.334   2.498
 2393TIP3   OH2 7142   3.459   5.962   3.836
 2393TIP3    H1 7143   3.384   6.012   3.870
 2393TIP3    H2 7144   3.429   5.872   3.833
 2394TIP3   OH2 7145   0.005   6.276   0.746
 2394TIP3    H1 7146  -0.052   6.339   0.791
 2394TIP3    H2 7147   0.086   6.275   0.797
 2395TIP3   OH2 7148   2.112   1.572   1.107
 2395TIP3    H1 7149   2.158   1.651   1.077
 2395TIP3    H2 7150   2.091   1.525   1.027
 2396TIP3   OH2 7151   3.271   3.347   4.357
 2396TIP3    H1 7152   3.250   3.292   4.432
 2396TIP3    H2 7153   3.243   3.434   4.382
 2397TIP3   OH2 7154   1.465   5.318   3.033
 2397TIP3    H1 7155   1.516   5.239   3.047
 2397TIP3    H2 7156   1.378   5.287   3.007
 2398TIP3   OH2 7157   3.600   6.538   4.462
 2398TIP3    H1 7158   3.642   6.588   4.392
 2398TIP3    H2 7159   3.673   6.512   4.520
 2399TIP3   OH2 7160   5.194   4.322   1.057
 2399TIP3    H1 7161   5.207   4.241   1.009
 2399TIP3    H2 7162   5.100   4.326   1.074
 2400TIP3   OH2 7163   5.146   5.393   5.729
 2400TIP3    H1 7164   5.100   5.476   5.744
 2400TIP3    H2 7165   5.238   5.413   5.750
 2401TIP3   OH2 7166   2.047   2.880   1.877
 2401TIP3    H1 7167   2.052   2.926   1.960
 2401TIP3    H2 7168   1.953   2.871   1.860
 2402TIP3   OH2 7169   0.649   4.113   0.880
 2402TIP3    H1 7170   0.741   4.127   0.859
 2402TIP3    H2 7171   0.615   4.062   0.807
 2403TIP3   OH2 7172   4.961   6.047   2.720
 2403TIP3    H1 7173   5.040   6.097   2.702
 2403TIP3    H2 7174   4.902   6.069   2.648
 2404TIP3   OH2 7175   0.892   4.064   5.573
 2404TIP3    H1 7176   0.896   4.034   5.483
 2404TIP3    H2 7177   0.807   4.107   5.580
 2405TIP3   OH2 7178   4.494   3.967   4.110
 2405TIP3    H1 7179   4.408   3.931   4.090
 2405TIP3    H2 7180   4.527   3.999   4.026
 2406TIP3   OH2 7181   1.241   1.320   2.004
 2406TIP3    H1 7182   1.168   1.294   2.060
 2406TIP3    H2 7183   1.226   1.273   1.922
 2407TIP3   OH2 7184   0.731   3.543   5.380
 2407TIP3    H1 7185   0.641   3.566   5.402
 2407TIP3    H2 7186   0.731   3.529   5.286
 2408TIP3   OH2 7187   6.436   5.443   4.359
 2408TIP3    H1 7188   6.528   5.460   4.337
 2408TIP3    H2 7189   6.386   5.475   4.284
 2409TIP3   OH2 7190   1.344   0.305   1.092
 2409TIP3    H1 7191   1.251   0.281   1.087
 2409TIP3    H2 7192   1.383   0.240   1.149
 2410TIP3   OH2 7193   6.163   1.796   4.716
 2410TIP3    H1 7194   6.127   1.849   4.786
 2410TIP3    H2 7195   6.233   1.745   4.757
 2411TIP3   OH2 7196   0.270   0.259   0.643
 2411TIP3    H1 7197   0.215   0.267   0.565
 2411TIP3    H2 7198   0.313   0.345   0.650
 2412TIP3   OH2 7199   6.170   4.286   3.360
 2412TIP3    H1 7200   6.206   4.282   3.448
 2412TIP3    H2 7201   6.110   4.212   3.355
 2413TIP3   OH2 7202   7.080   2.473   4.290
 2413TIP3    H1 7203   7.172   2.492   4.307
 2413TIP3    H2 7204   7.041   2.462   4.376
 2414TIP3   OH2 7205   2.914   1.811   3.829
 2414TIP3    H1 7206   2.941   1.822   3.920
 2414TIP3    H2 7207   2.834   1.759   3.834
 2415TIP3   OH2 7208   6.575   3.144   2.682
 2415TIP3    H1 7209   6.572   3.174   2.773
 2415TIP3    H2 7210   6.492   3.098   2.669
 2416TIP3   OH2 7211   0.261   6.263   5.780
 2416TIP3    H1 7212   0.320   6.203   5.735
 2416TIP3    H2 7213   0.196   6.206   5.822
 2417TIP3   OH2 7214   0.390   4.659   4.305
 2417TIP3    H1 7215   0.345   4.706   4.236
 2417TIP3    H2 7216   0.478   4.697   4.307
 2418TIP3   OH2 7217   4.889   5.883   0.706
 2418TIP3    H1 7218   4.880   5.973   0.674
 2418TIP3    H2 7219   4.938   5.838   0.638
 2419TIP3   OH2 7220   6.164   5.388   1.463
 2419TIP3    H1 7221   6.170   5.315   1.524
 2419TIP3    H2 7222   6.222   5.455   1.499
 2420TIP3   OH2 7223   3.816   6.025   0.973
 2420TIP3    H1 7224   3.783   6.093   1.032
 2420TIP3    H2 7225   3.747   5.959   0.972
 2421TIP3   OH2 7226   6.871   3.230   5.832
 2421TIP3    H1 7227   6.941   3.293   5.847
 2421TIP3    H2 7228   6.844   3.203   5.920
 2422TIP3   OH2 7229   0.962   5.657   3.280
 2422TIP3    H1 7230   1.012   5.674   3.360
 2422TIP3    H2 7231   1.016   5.594   3.232
 2423TIP3   OH2 7232   4.877   4.886   4.597
 2423TIP3    H1 7233   4.786   4.888   4.627
 2423TIP3    H2 7234   4.873   4.916   4.506
 2424TIP3   OH2 7235   3.948   6.181   3.700
 2424TIP3    H1 7236   3.978   6.147   3.784
 2424TIP3    H2 7237   3.957   6.276   3.709
 2425TIP3   OH2 7238   4.352   1.739   3.757
 2425TIP3    H1 7239   4.359   1.656   3.710
 2425TIP3    H2 7240   4.287   1.790   3.707
 2426TIP3   OH2 7241   0.658   1.065   3.462
 2426TIP3    H1 7242   0.614   1.145   3.491
 2426TIP3    H2 7243   0.724   1.048   3.529
 2427TIP3   OH2 7244   2.158   5.903   2.599
 2427TIP3    H1 7245   2.135   5.844   2.670
 2427TIP3    H2 7246   2.230   5.956   2.634
 2428TIP3   OH2 7247   0.532   5.077   1.703
 2428TIP3    H1 7248   0.584   5.122   1.770
 2428TIP3    H2 7249   0.462   5.035   1.753
 2429TIP3   OH2 7250   1.220   5.127   2.102
 2429TIP3    H1 7251   1.279   5.146   2.175
 2429TIP3    H2 7252   1.213   5.209   2.054
 2430TIP3   OH2 7253   3.428   1.044   1.847
 2430TIP3    H1 7254   3.475   0.999   1.917
 2430TIP3    H2 7255   3.381   1.115   1.891
 2431TIP3   OH2 7256   5.987   4.816   3.511
 2431TIP3    H1 7257   6.029   4.869   3.443
 2431TIP3    H2 7258   6.041   4.737   3.516
 2432TIP3   OH2 7259   2.487   2.791   3.139
 2432TIP3    H1 7260   2.444   2.707   3.157
 2432TIP3    H2 7261   2.548   2.802   3.212
 2433TIP3   OH2 7262   4.862   2.178   3.627
 2433TIP3    H1 7263   4.924   2.139   3.565
 2433TIP3    H2 7264   4.794   2.216   3.572
 2434TIP3   OH2 7265   3.001   5.381   2.551
 2434TIP3    H1 7266   3.093   5.394   2.526
 2434TIP3    H2 7267   2.983   5.290   2.528
 2435TIP3   OH2 7268   1.614   2.409   1.510
 2435TIP3    H1 7269   1.563   2.441   1.584
 2435TIP3    H2 7270   1.588   2.317   1.501
 2436TIP3   OH2 7271   5.768   2.120   4.537
 2436TIP3    H1 7272   5.815   2.039   4.516
 2436TIP3    H2 7273   5.787   2.135   4.630
 2437TIP3   OH2 7274   3.917   1.520   1.975
 2437TIP3    H1 7275   3.932   1.429   1.947
 2437TIP3    H2 7276   3.848   1.552   1.917
 2438TIP3   OH2 7277   2.049   5.132   2.482
 2438TIP3    H1 7278   2.137   5.142   2.446
 2438TIP3    H2 7279   2.006   5.216   2.465
 2439TIP3   OH2 7280   2.161   4.174   4.043
 2439TIP3    H1 7281   2.252   4.145   4.050
 2439TIP3    H2 7282   2.165   4.253   3.990
 2440TIP3   OH2 7283   7.104   2.879   4.168
 2440TIP3    H1 7284   7.082   2.931   4.246
 2440TIP3    H2 7285   7.063   2.927   4.096
 2441TIP3   OH2 7286   2.446   3.472   3.026
 2441TIP3    H1 7287   2.357   3.485   3.060
 2441TIP3    H2 7288   2.470   3.384   3.056
 2442TIP3   OH2 7289   4.050   5.609   1.106
 2442TIP3    H1 7290   4.034   5.700   1.131
 2442TIP3    H2 7291   3.989   5.558   1.160
 2443TIP3   OH2 7292   0.359   4.189   4.136
 2443TIP3    H1 7293   0.437   4.180   4.082
 2443TIP3    H2 7294   0.378   4.262   4.194
 2444TIP3   OH2 7295   6.718   0.450   4.145
 2444TIP3    H1 7296   6.684   0.403   4.069
 2444TIP3    H2 7297   6.740   0.380   4.207
 2445TIP3   OH2 7298   5.479   0.287   0.123
 2445TIP3    H1 7299   5.557   0.313   0.172
 2445TIP3    H2 7300   5.406   0.325   0.172
 2446TIP3   OH2 7301   2.928   5.352   4.010
 2446TIP3    H1 7302   3.004   5.301   3.983
 2446TIP3    H2 7303   2.899   5.396   3.930
 2447TIP3   OH2 7304   5.463   5.426   1.221
 2447TIP3    H1 7305   5.372   5.401   1.239
 2447TIP3    H2 7306   5.456   5.496   1.156
 2448TIP3   OH2 7307   0.530   3.580   4.360
 2448TIP3    H1 7308   0.458   3.575   4.423
 2448TIP3    H2 7309   0.515   3.506   4.302
 2449TIP3   OH2 7310   2.237   5.471   2.741
 2449TIP3    H1 7311   2.328   5.494   2.726
 2449TIP3    H2 7312   2.238   5.378   2.763
 2450TIP3   OH2 7313   2.343   5.009   3.116
 2450TIP3    H1 7314   2.387   4.959   3.184
 2450TIP3    H2 7315   2.407   5.075   3.089
 2451TIP3   OH2 7316   0.699   5.231   3.030
 2451TIP3    H1 7317   0.775   5.262   2.980
 2451TIP3    H2 7318   0.705   5.278   3.114
 2452TIP3   OH2 7319   5.411   2.900   3.194
 2452TIP3    H1 7320   5.335   2.944   3.232
 2452TIP3    H2 7321   5.414   2.932   3.103
 2453TIP3   OH2 7322   6.692   2.066   3.851
 2453TIP3    H1 7323   6.746   2.001   3.895
 2453TIP3    H2 7324   6.754   2.131   3.818
 2454TIP3   OH2 7325   1.202   5.700   5.052
 2454TIP3    H1 7326   1.197   5.789   5.015
 2454TIP3    H2 7327   1.117   5.661   5.034
 2455TIP3   OH2 7328   1.406   0.995   0.625
 2455TIP3    H1 7329   1.318   0.992   0.587
 2455TIP3    H2 7330   1.416   0.911   0.671
 2456TIP3   OH2 7331   6.948   4.464   2.806
 2456TIP3    H1 7332   6.952   4.555   2.775
 2456TIP3    H2 7333   6.899   4.418   2.738
 2457TIP3   OH2 7334   1.913   1.062   4.423
 2457TIP3    H1 7335   1.905   1.157   4.429
 2457TIP3    H2 7336   1.995   1.042   4.469
 2458TIP3   OH2 7337   6.871   4.043   0.138
 2458TIP3    H1 7338   6.847   4.133   0.113
 2458TIP3    H2 7339   6.851   4.038   0.231
 2459TIP3   OH2 7340   4.634   0.887   4.811
 2459TIP3    H1 7341   4.728   0.898   4.800
 2459TIP3    H2 7342   4.620   0.885   4.905
 2460TIP3   OH2 7343   3.752   3.017   4.997
 2460TIP3    H1 7344   3.812   3.054   4.931
 2460TIP3    H2 7345   3.757   2.923   4.983
 2461TIP3   OH2 7346   3.067   1.778   2.026
 2461TIP3    H1 7347   3.100   1.839   2.092
 2461TIP3    H2 7348   3.107   1.806   1.944
 2462TIP3   OH2 7349   1.634   2.896   3.030
 2462TIP3    H1 7350   1.639   2.991   3.015
 2462TIP3    H2 7351   1.576   2.864   2.961
 2463TIP3   OH2 7352   4.594   3.614   0.141
 2463TIP3    H1 7353   4.621   3.625   0.050
 2463TIP3    H2 7354   4.559   3.525   0.145
 2464TIP3   OH2 7355   1.814   2.402   0.240
 2464TIP3    H1 7356   1.788   2.323   0.192
 2464TIP3    H2 7357   1.906   2.388   0.263
 2465TIP3   OH2 7358   3.566   1.351   1.100
 2465TIP3    H1 7359   3.582   1.261   1.071
 2465TIP3    H2 7360   3.589   1.405   1.025
 2466TIP3   OH2 7361   1.217   3.139   2.789
 2466TIP3    H1 7362   1.165   3.208   2.746
 2466TIP3    H2 7363   1.195   3.147   2.882
 2467TIP3   OH2 7364   2.807   2.469   3.380
 2467TIP3    H1 7365   2.897   2.451   3.404
 2467TIP3    H2 7366   2.813   2.517   3.297
 2468TIP3   OH2 7367   3.245   3.257   0.925
 2468TIP3    H1 7368   3.271   3.328   0.984
 2468TIP3    H2 7369   3.281   3.282   0.840
 2469TIP3   OH2 7370   4.913   3.268   2.190
 2469TIP3    H1 7371   4.839   3.211   2.210
 2469TIP3    H2 7372   4.884   3.356   2.216
 2470TIP3   OH2 7373   6.674   4.394   1.044
 2470TIP3    H1 7374   6.632   4.371   1.127
 2470TIP3    H2 7375   6.638   4.480   1.022
 2471TIP3   OH2 7376   5.045   4.052   3.136
 2471TIP3    H1 7377   5.113   4.101   3.091
 2471TIP3    H2 7378   5.006   4.115   3.197
 2472TIP3   OH2 7379   2.231   3.342   0.791
 2472TIP3    H1 7380   2.236   3.305   0.703
 2472TIP3    H2 7381   2.157   3.298   0.831
 2473TIP3   OH2 7382   4.823   4.583   3.537
 2473TIP3    H1 7383   4.825   4.493   3.569
 2473TIP3    H2 7384   4.738   4.591   3.494
 2474TIP3   OH2 7385   2.313   1.775   5.362
 2474TIP3    H1 7386   2.362   1.701   5.325
 2474TIP3    H2 7387   2.223   1.742   5.370
 2475TIP3   OH2 7388   5.001   3.581   2.557
 2475TIP3    H1 7389   5.072   3.528   2.520
 2475TIP3    H2 7390   5.007   3.566   2.652
 2476TIP3   OH2 7391   2.007   1.877   5.055
 2476TIP3    H1 7392   1.973   1.812   4.995
 2476TIP3    H2 7393   1.949   1.953   5.044
 2477TIP3   OH2 7394   3.634   5.715   5.478
 2477TIP3    H1 7395   3.559   5.710   5.418
 2477TIP3    H2 7396   3.707   5.681   5.426
 2478TIP3   OH2 7397   5.402   2.861   5.748
 2478TIP3    H1 7398   5.414   2.910   5.829
 2478TIP3    H2 7399   5.426   2.922   5.679
 2479TIP3   OH2 7400   0.759   2.525   0.135
 2479TIP3    H1 7401   0.763   2.466   0.060
 2479TIP3    H2 7402   0.806   2.604   0.107
 2480TIP3   OH2 7403   1.714   2.155   0.114
 2480TIP3    H1 7404   1.756   2.075   0.082
 2480TIP3    H2 7405   1.681   2.198   0.035
 2481TIP3   OH2 7406   4.803   1.232   3.074
 2481TIP3    H1 7407   4.770   1.142   3.081
 2481TIP3    H2 7408   4.871   1.227   3.007
 2482TIP3   OH2 7409   6.254   0.828   3.025
 2482TIP3    H1 7410   6.253   0.923   3.020
 2482TIP3    H2 7411   6.298   0.808   3.107
 2483TIP3   OH2 7412   2.476   6.616   0.249
 2483TIP3    H1 7413   2.397   6.661   0.218
 2483TIP3    H2 7414   2.523   6.681   0.301
 2484TIP3   OH2 7415   2.450   5.463   2.923
 2484TIP3    H1 7416   2.510   5.508   2.864
 2484TIP3    H2 7417   2.505   5.436   2.997
 2485TIP3   OH2 7418   3.965   6.693   0.873
 2485TIP3    H1 7419   3.915   6.621   0.835
 2485TIP3    H2 7420   3.942   6.693   0.966
 2486TIP3   OH2 7421   4.507   0.284   3.979
 2486TIP3    H1 7422   4.451   0.207   3.985
 2486TIP3    H2 7423   4.563   0.279   4.057
 2487TIP3   OH2 7424   0.545   3.359   4.198
 2487TIP3    H1 7425   0.599   3.281   4.203
 2487TIP3    H2 7426   0.545   3.383   4.105
 2488TIP3   OH2 7427   5.896   5.088   3.641
 2488TIP3    H1 7428   5.928   5.001   3.665
 2488TIP3    H2 7429   5.941   5.147   3.701
 2489TIP3   OH2 7430   3.949   6.703   1.940
 2489TIP3    H1 7431   3.942   6.796   1.920
 2489TIP3    H2 7432   3.862   6.667   1.918
 2490TIP3   OH2 7433   6.991   5.568   4.647
 2490TIP3    H1 7434   6.998   5.483   4.691
 2490TIP3    H2 7435   6.901   5.596   4.664
 2491TIP3   OH2 7436   5.904   5.328   0.180
 2491TIP3    H1 7437   5.940   5.241   0.163
 2491TIP3    H2 7438   5.971   5.389   0.147
 2492TIP3   OH2 7439   1.506   0.422   0.766
 2492TIP3    H1 7440   1.540   0.461   0.847
 2492TIP3    H2 7441   1.483   0.497   0.711
 2493TIP3   OH2 7442   1.644   3.629   5.801
 2493TIP3    H1 7443   1.649   3.724   5.808
 2493TIP3    H2 7444   1.725   3.604   5.755
 2494TIP3   OH2 7445   4.639   1.250   1.362
 2494TIP3    H1 7446   4.719   1.198   1.369
 2494TIP3    H2 7447   4.614   1.267   1.453
 2495TIP3   OH2 7448   1.970   2.901   1.306
 2495TIP3    H1 7449   1.987   2.964   1.377
 2495TIP3    H2 7450   2.046   2.910   1.248
 2496TIP3   OH2 7451   5.607   3.325   1.092
 2496TIP3    H1 7452   5.621   3.415   1.122
 2496TIP3    H2 7453   5.657   3.271   1.154
 2497TIP3   OH2 7454   5.075   5.903   3.710
 2497TIP3    H1 7455   5.059   5.965   3.782
 2497TIP3    H2 7456   5.030   5.942   3.635
 2498TIP3   OH2 7457   6.580   4.064   5.013
 2498TIP3    H1 7458   6.489   4.056   5.040
 2498TIP3    H2 7459   6.580   4.040   4.920
 2499TIP3   OH2 7460   0.229   1.247   2.862
 2499TIP3    H1 7461   0.316   1.283   2.878
 2499TIP3    H2 7462   0.245   1.168   2.810
 2500TIP3   OH2 7463   5.640   1.149   2.937
 2500TIP3    H1 7464   5.664   1.175   2.848
 2500TIP3    H2 7465   5.718   1.166   2.989
 2501TIP3   OH2 7466   3.955   0.666   0.143
 2501TIP3    H1 7467   3.936   0.572   0.149
 2501TIP3    H2 7468   3.907   0.705   0.215
 2502TIP3   OH2 7469   3.773   5.817   1.314
 2502TIP3    H1 7470   3.682   5.806   1.343
 2502TIP3    H2 7471   3.814   5.867   1.384
 2503TIP3   OH2 7472   4.678   3.099   0.967
 2503TIP3    H1 7473   4.604   3.038   0.962
 2503TIP3    H2 7474   4.689   3.114   1.061
 2504TIP3   OH2 7475   1.984   0.234   5.248
 2504TIP3    H1 7476   1.922   0.301   5.221
 2504TIP3    H2 7477   2.069   0.277   5.244
 2505TIP3   OH2 7478   6.686   3.905   4.006
 2505TIP3    H1 7479   6.650   3.964   3.939
 2505TIP3    H2 7480   6.781   3.911   3.994
 2506TIP3   OH2 7481   6.166   3.292   1.493
 2506TIP3    H1 7482   6.226   3.357   1.529
 2506TIP3    H2 7483   6.185   3.212   1.543
 2507TIP3   OH2 7484   0.798   5.017   4.794
 2507TIP3    H1 7485   0.792   5.109   4.770
 2507TIP3    H2 7486   0.868   5.013   4.859
 2508TIP3   OH2 7487   6.442   4.247   1.282
 2508TIP3    H1 7488   6.408   4.240   1.371
 2508TIP3    H2 7489   6.537   4.251   1.292
 2509TIP3   OH2 7490   5.246   6.273   5.235
 2509TIP3    H1 7491   5.322   6.281   5.177
 2509TIP3    H2 7492   5.173   6.308   5.184
 2510TIP3   OH2 7493   1.776   1.244   3.595
 2510TIP3    H1 7494   1.798   1.152   3.579
 2510TIP3    H2 7495   1.832   1.270   3.668
 2511TIP3   OH2 7496   2.715   6.070   2.586
 2511TIP3    H1 7497   2.664   6.003   2.632
 2511TIP3    H2 7498   2.773   6.020   2.528
 2512TIP3   OH2 7499   4.131   1.877   0.869
 2512TIP3    H1 7500   4.179   1.915   0.795
 2512TIP3    H2 7501   4.107   1.952   0.923
 2513TIP3   OH2 7502   3.584   1.336   5.633
 2513TIP3    H1 7503   3.571   1.429   5.613
 2513TIP3    H2 7504   3.517   1.316   5.699
 2514TIP3   OH2 7505   5.629   0.541   0.504
 2514TIP3    H1 7506   5.626   0.445   0.501
 2514TIP3    H2 7507   5.558   0.565   0.564
 2515TIP3   OH2 7508   5.886   6.731   2.804
 2515TIP3    H1 7509   5.924   6.655   2.847
 2515TIP3    H2 7510   5.942   6.804   2.830
 2516TIP3   OH2 7511   2.711   4.527   4.004
 2516TIP3    H1 7512   2.754   4.458   3.953
 2516TIP3    H2 7513   2.719   4.605   3.949
 2517TIP3   OH2 7514   5.424   1.321   3.110
 2517TIP3    H1 7515   5.508   1.315   3.065
 2517TIP3    H2 7516   5.443   1.297   3.200
 2518TIP3   OH2 7517   4.497   0.385   0.213
 2518TIP3    H1 7518   4.517   0.468   0.255
 2518TIP3    H2 7519   4.409   0.397   0.176
 2519TIP3   OH2 7520   0.044   3.796   2.118
 2519TIP3    H1 7521  -0.044   3.805   2.156
 2519TIP3    H2 7522   0.102   3.831   2.185
 2520TIP3   OH2 7523   0.340   1.068   0.832
 2520TIP3    H1 7524   0.272   1.048   0.896
 2520TIP3    H2 7525   0.299   1.054   0.747
 2521TIP3   OH2 7526   3.505   4.553   3.647
 2521TIP3    H1 7527   3.450   4.541   3.569
 2521TIP3    H2 7528   3.466   4.495   3.713
 2522TIP3   OH2 7529   5.469   5.624   4.970
 2522TIP3    H1 7530   5.407   5.661   5.033
 2522TIP3    H2 7531   5.536   5.692   4.960
 2523TIP3   OH2 7532   3.201   5.683   4.686
 2523TIP3    H1 7533   3.248   5.690   4.770
 2523TIP3    H2 7534   3.118   5.728   4.701
 2524TIP3   OH2 7535   5.303   2.470   1.564
 2524TIP3    H1 7536   5.347   2.444   1.645
 2524TIP3    H2 7537   5.305   2.391   1.509
 2525TIP3   OH2 7538   1.955   3.765   4.879
 2525TIP3    H1 7539   1.883   3.723   4.830
 2525TIP3    H2 7540   1.945   3.733   4.968
 2526TIP3   OH2 7541   3.274   3.851   3.621
 2526TIP3    H1 7542   3.366   3.856   3.596
 2526TIP3    H2 7543   3.259   3.931   3.671
 2527TIP3   OH2 7544   2.272   4.026   5.316
 2527TIP3    H1 7545   2.235   4.115   5.313
 2527TIP3    H2 7546   2.280   4.007   5.409
 2528TIP3   OH2 7547   1.055   4.842   2.482
 2528TIP3    H1 7548   1.027   4.789   2.557
 2528TIP3    H2 7549   1.091   4.779   2.420
 2529TIP3   OH2 7550   3.164   6.519   3.328
 2529TIP3    H1 7551   3.221   6.442   3.332
 2529TIP3    H2 7552   3.120   6.510   3.243
 2530TIP3   OH2 7553   6.478   2.861   3.916
 2530TIP3    H1 7554   6.467   2.787   3.976
 2530TIP3    H2 7555   6.545   2.916   3.958
 2531TIP3   OH2 7556   6.975   6.009   5.675
 2531TIP3    H1 7557   7.055   6.060   5.671
 2531TIP3    H2 7558   6.966   5.985   5.768
 2532TIP3   OH2 7559   6.018   4.905   4.366
 2532TIP3    H1 7560   5.938   4.957   4.356
 2532TIP3    H2 7561   6.081   4.947   4.308
 2533TIP3   OH2 7562   5.944   6.092   3.934
 2533TIP3    H1 7563   6.038   6.086   3.949
 2533TIP3    H2 7564   5.934   6.074   3.840
 2534TIP3   OH2 7565   5.656   4.047   1.870
 2534TIP3    H1 7566   5.695   4.123   1.826
 2534TIP3    H2 7567   5.579   4.026   1.817
 2535TIP3   OH2 7568   4.148   5.232   3.178
 2535TIP3    H1 7569   4.212   5.161   3.173
 2535TIP3    H2 7570   4.150   5.261   3.269
 2536TIP3   OH2 7571   6.867   4.872   3.838
 2536TIP3    H1 7572   6.848   4.788   3.797
 2536TIP3    H2 7573   6.945   4.857   3.891
 2537TIP3   OH2 7574   2.935   3.137   2.656
 2537TIP3    H1 7575   2.944   3.042   2.657
 2537TIP3    H2 7576   3.013   3.168   2.611
 2538TIP3   OH2 7577   0.659   1.427   0.778
 2538TIP3    H1 7578   0.643   1.336   0.754
 2538TIP3    H2 7579   0.643   1.430   0.872
 2539TIP3   OH2 7580   2.105   3.925   4.138
 2539TIP3    H1 7581   2.133   4.015   4.120
 2539TIP3    H2 7582   2.095   3.922   4.233
 2540TIP3   OH2 7583   0.749   3.958   3.462
 2540TIP3    H1 7584   0.758   4.039   3.412
 2540TIP3    H2 7585   0.658   3.933   3.452
 2541TIP3   OH2 7586   2.459   2.668   2.730
 2541TIP3    H1 7587   2.507   2.717   2.797
 2541TIP3    H2 7588   2.527   2.616   2.686
 2542TIP3   OH2 7589   1.504   1.827   3.053
 2542TIP3    H1 7590   1.544   1.800   2.971
 2542TIP3    H2 7591   1.482   1.745   3.097
 2543TIP3   OH2 7592   2.014   4.183   3.043
 2543TIP3    H1 7593   1.974   4.145   2.965
 2543TIP3    H2 7594   1.950   4.166   3.113
 2544TIP3   OH2 7595   3.584   1.835   3.281
 2544TIP3    H1 7596   3.591   1.816   3.187
 2544TIP3    H2 7597   3.490   1.831   3.299
 2545TIP3   OH2 7598   4.139   1.924   5.517
 2545TIP3    H1 7599   4.215   1.978   5.542
 2545TIP3    H2 7600   4.102   1.969   5.441
 2546TIP3   OH2 7601   0.933   0.833   3.877
 2546TIP3    H1 7602   0.869   0.777   3.832
 2546TIP3    H2 7603   0.882   0.906   3.910
 2547TIP3   OH2 7604   2.665   5.041   1.790
 2547TIP3    H1 7605   2.757   5.068   1.799
 2547TIP3    H2 7606   2.659   5.007   1.700
 2548TIP3   OH2 7607   2.738   3.411   5.920
 2548TIP3    H1 7608   2.720   3.434   5.828
 2548TIP3    H2 7609   2.834   3.412   5.926
 2549TIP3   OH2 7610   2.814   3.426   5.251
 2549TIP3    H1 7611   2.718   3.415   5.249
 2549TIP3    H2 7612   2.833   3.483   5.177
 2550TIP3   OH2 7613   0.007   5.231   3.171
 2550TIP3    H1 7614  -0.040   5.285   3.234
 2550TIP3    H2 7615   0.073   5.289   3.134
 2551TIP3   OH2 7616   3.315   2.862   4.097
 2551TIP3    H1 7617   3.317   2.950   4.059
 2551TIP3    H2 7618   3.288   2.806   4.024
 2552TIP3   OH2 7619   2.625   0.650   5.245
 2552TIP3    H1 7620   2.577   0.630   5.326
 2552TIP3    H2 7621   2.697   0.587   5.245
 2553TIP3   OH2 7622   4.677   1.363   2.425
 2553TIP3    H1 7623   4.696   1.291   2.486
 2553TIP3    H2 7624   4.705   1.442   2.472
 2554TIP3   OH2 7625   4.446   4.388  -0.015
 2554TIP3    H1 7626   4.463   4.450   0.056
 2554TIP3    H2 7627   4.351   4.378  -0.016
 2555TIP3   OH2 7628   3.410   1.543   4.485
 2555TIP3    H1 7629   3.452   1.481   4.546
 2555TIP3    H2 7630   3.424   1.629   4.525
 2556TIP3   OH2 7631   3.061   6.709   4.391
 2556TIP3    H1 7632   2.996   6.750   4.449
 2556TIP3    H2 7633   3.118   6.781   4.365
 2557TIP3   OH2 7634   0.536   0.856   0.673
 2557TIP3    H1 7635   0.586   0.779   0.648
 2557TIP3    H2 7636   0.594   0.905   0.731
 2558TIP3   OH2 7637   6.309   1.338   5.886
 2558TIP3    H1 7638   6.367   1.294   5.948
 2558TIP3    H2 7639   6.269   1.409   5.937
 2559TIP3   OH2 7640   1.309   0.398   3.718
 2559TIP3    H1 7641   1.231   0.386   3.665
 2559TIP3    H2 7642   1.369   0.448   3.661
 2560TIP3   OH2 7643   4.459   0.219   0.685
 2560TIP3    H1 7644   4.550   0.248   0.696
 2560TIP3    H2 7645   4.432   0.257   0.602
 2561TIP3   OH2 7646   0.250   2.824   5.680
 2561TIP3    H1 7647   0.319   2.871   5.634
 2561TIP3    H2 7648   0.248   2.738   5.638
 2562TIP3   OH2 7649   0.747   2.682   4.667
 2562TIP3    H1 7650   0.817   2.635   4.712
 2562TIP3    H2 7651   0.789   2.717   4.588
 2563TIP3   OH2 7652   2.396   1.891   1.268
 2563TIP3    H1 7653   2.404   1.804   1.308
 2563TIP3    H2 7654   2.485   1.913   1.240
 2564TIP3   OH2 7655   4.196   0.997   1.363
 2564TIP3    H1 7656   4.235   1.023   1.446
 2564TIP3    H2 7657   4.114   1.046   1.358
 2565TIP3   OH2 7658   2.589   5.895   1.413
 2565TIP3    H1 7659   2.533   5.855   1.480
 2565TIP3    H2 7660   2.530   5.955   1.366
 2566TIP3   OH2 7661   7.020   1.553   0.554
 2566TIP3    H1 7662   7.056   1.467   0.530
 2566TIP3    H2 7663   6.939   1.561   0.504
 2567TIP3   OH2 7664   0.149   2.429   3.373
 2567TIP3    H1 7665   0.094   2.504   3.391
 2567TIP3    H2 7666   0.121   2.362   3.435
 2568TIP3   OH2 7667   6.855   1.117   1.374
 2568TIP3    H1 7668   6.860   1.150   1.285
 2568TIP3    H2 7669   6.854   1.022   1.365
 2569TIP3   OH2 7670   1.311   3.059   0.332
 2569TIP3    H1 7671   1.366   3.015   0.267
 2569TIP3    H2 7672   1.222   3.050   0.297
 2570TIP3   OH2 7673   4.705   2.243   2.794
 2570TIP3    H1 7674   4.610   2.250   2.786
 2570TIP3    H2 7675   4.737   2.241   2.704
 2571TIP3   OH2 7676   3.140   1.186   5.186
 2571TIP3    H1 7677   3.079   1.113   5.183
 2571TIP3    H2 7678   3.122   1.236   5.106
 2572TIP3   OH2 7679   5.685   4.524   2.563
 2572TIP3    H1 7680   5.624   4.544   2.492
 2572TIP3    H2 7681   5.636   4.465   2.620
 2573TIP3   OH2 7682   7.147   0.797   3.538
 2573TIP3    H1 7683   7.156   0.892   3.529
 2573TIP3    H2 7684   7.233   0.763   3.512
 2574TIP3   OH2 7685   0.708   1.904   4.090
 2574TIP3    H1 7686   0.803   1.906   4.079
 2574TIP3    H2 7687   0.689   1.981   4.144
 2575TIP3   OH2 7688   5.823   2.931  -0.017
 2575TIP3    H1 7689   5.741   2.883  -0.034
 2575TIP3    H2 7690   5.802   2.989   0.056
 2576TIP3   OH2 7691   6.397   1.205   5.480
 2576TIP3    H1 7692   6.449   1.242   5.551
 2576TIP3    H2 7693   6.365   1.121   5.514
 2577TIP3   OH2 7694   0.818   5.875   3.158
 2577TIP3    H1 7695   0.818   5.847   3.067
 2577TIP3    H2 7696   0.845   5.798   3.207
 2578TIP3   OH2 7697   2.590   6.129   5.469
 2578TIP3    H1 7698   2.529   6.083   5.526
 2578TIP3    H2 7699   2.640   6.060   5.426
 2579TIP3   OH2 7700   2.146   4.959   3.341
 2579TIP3    H1 7701   2.077   4.893   3.334
 2579TIP3    H2 7702   2.225   4.916   3.309
 2580TIP3   OH2 7703   6.213   3.170   1.241
 2580TIP3    H1 7704   6.224   3.240   1.305
 2580TIP3    H2 7705   6.124   3.138   1.254
 2581TIP3   OH2 7706   1.990   0.158   4.286
 2581TIP3    H1 7707   1.987   0.225   4.218
 2581TIP3    H2 7708   2.068   0.179   4.338
 2582TIP3   OH2 7709   4.776   5.674   4.379
 2582TIP3    H1 7710   4.798   5.614   4.309
 2582TIP3    H2 7711   4.688   5.649   4.406
 2583TIP3   OH2 7712   1.426   5.401   0.432
 2583TIP3    H1 7713   1.420   5.322   0.379
 2583TIP3    H2 7714   1.350   5.454   0.407
 2584TIP3   OH2 7715   3.485   6.543   2.353
 2584TIP3    H1 7716   3.479   6.628   2.398
 2584TIP3    H2 7717   3.517   6.565   2.265
 2585TIP3   OH2 7718   4.170   0.604   4.388
 2585TIP3    H1 7719   4.265   0.616   4.398
 2585TIP3    H2 7720   4.162   0.549   4.310
 2586TIP3   OH2 7721   5.717   5.054   1.839
 2586TIP3    H1 7722   5.663   5.129   1.815
 2586TIP3    H2 7723   5.788   5.054   1.776
 2587TIP3   OH2 7724   4.467   3.183   3.345
 2587TIP3    H1 7725   4.388   3.203   3.396
 2587TIP3    H2 7726   4.511   3.115   3.395
 2588TIP3   OH2 7727   1.710   0.963   4.237
 2588TIP3    H1 7728   1.758   1.016   4.301
 2588TIP3    H2 7729   1.741   0.993   4.152
 2589TIP3   OH2 7730   5.536   3.030   2.888
 2589TIP3    H1 7731   5.619   3.075   2.906
 2589TIP3    H2 7732   5.510   3.062   2.802
 2590TIP3   OH2 7733   5.911   0.796   3.361
 2590TIP3    H1 7734   5.904   0.725   3.424
 2590TIP3    H2 7735   5.900   0.754   3.276
 2591TIP3   OH2 7736   6.283   6.358   3.817
 2591TIP3    H1 7737   6.289   6.432   3.756
 2591TIP3    H2 7738   6.369   6.352   3.858
 2592TIP3   OH2 7739   6.247   4.070   3.960
 2592TIP3    H1 7740   6.286   4.058   4.046
 2592TIP3    H2 7741   6.269   4.159   3.935
 2593TIP3   OH2 7742   2.463   6.699   5.335
 2593TIP3    H1 7743   2.459   6.791   5.307
 2593TIP3    H2 7744   2.473   6.649   5.254
 2594TIP3   OH2 7745   6.656   3.751   0.237
 2594TIP3    H1 7746   6.729   3.778   0.294
 2594TIP3    H2 7747   6.619   3.674   0.281
 2595TIP3   OH2 7748   1.772   6.075   3.937
 2595TIP3    H1 7749   1.690   6.119   3.962
 2595TIP3    H2 7750   1.836   6.106   4.001
 2596TIP3   OH2 7751   2.210   2.011   4.396
 2596TIP3    H1 7752   2.235   2.026   4.305
 2596TIP3    H2 7753   2.274   1.947   4.428
 2597TIP3   OH2 7754   4.564   2.371   3.197
 2597TIP3    H1 7755   4.469   2.383   3.194
 2597TIP3    H2 7756   4.596   2.418   3.120
 2598TIP3   OH2 7757   3.918   2.965   5.224
 2598TIP3    H1 7758   3.877   2.882   5.250
 2598TIP3    H2 7759   3.863   2.998   5.154
 2599TIP3   OH2 7760   0.081   3.166   0.115
 2599TIP3    H1 7761   0.158   3.184   0.170
 2599TIP3    H2 7762   0.104   3.086   0.068
 2600TIP3   OH2 7763   4.716   1.995   2.300
 2600TIP3    H1 7764   4.682   2.083   2.281
 2600TIP3    H2 7765   4.806   1.997   2.268
 2601TIP3   OH2 7766   5.113   0.447   0.436
 2601TIP3    H1 7767   5.098   0.535   0.401
 2601TIP3    H2 7768   5.199   0.452   0.478
 2602TIP3   OH2 7769   2.511   1.172   2.697
 2602TIP3    H1 7770   2.595   1.126   2.697
 2602TIP3    H2 7771   2.447   1.106   2.668
 2603TIP3   OH2 7772   1.036   0.702   4.758
 2603TIP3    H1 7773   0.993   0.619   4.739
 2603TIP3    H2 7774   0.977   0.768   4.721
 2604TIP3   OH2 7775   4.708   3.745   2.696
 2604TIP3    H1 7776   4.782   3.790   2.737
 2604TIP3    H2 7777   4.630   3.784   2.736
 2605TIP3   OH2 7778   6.465   5.353   4.789
 2605TIP3    H1 7779   6.391   5.294   4.803
 2605TIP3    H2 7780   6.437   5.409   4.717
 2606TIP3   OH2 7781   2.991   1.879   5.351
 2606TIP3    H1 7782   3.063   1.858   5.292
 2606TIP3    H2 7783   3.031   1.882   5.438
 2607TIP3   OH2 7784   7.067   2.529   0.242
 2607TIP3    H1 7785   6.995   2.469   0.220
 2607TIP3    H2 7786   7.043   2.564   0.327
 2608TIP3   OH2 7787   2.893   2.525   1.849
 2608TIP3    H1 7788   2.840   2.493   1.776
 2608TIP3    H2 7789   2.832   2.573   1.904
 2609TIP3   OH2 7790   1.772   5.677   4.998
 2609TIP3    H1 7791   1.768   5.631   5.081
 2609TIP3    H2 7792   1.714   5.627   4.940
 2610TIP3   OH2 7793   4.741   2.148   5.016
 2610TIP3    H1 7794   4.730   2.115   5.105
 2610TIP3    H2 7795   4.666   2.114   4.967
 2611TIP3   OH2 7796   3.993   1.346   0.133
 2611TIP3    H1 7797   4.056   1.320   0.199
 2611TIP3    H2 7798   4.036   1.327   0.049
 2612TIP3   OH2 7799   0.811   3.192   1.911
 2612TIP3    H1 7800   0.728   3.232   1.940
 2612TIP3    H2 7801   0.848   3.257   1.851
 2613TIP3   OH2 7802  -0.031   2.969   5.873
 2613TIP3    H1 7803  -0.055   2.879   5.897
 2613TIP3    H2 7804   0.055   2.982   5.913
 2614TIP3   OH2 7805   0.220   0.881   2.819
 2614TIP3    H1 7806   0.217   0.945   2.749
 2614TIP3    H2 7807   0.191   0.799   2.779
 2615TIP3   OH2 7808   5.446   1.593   0.572
 2615TIP3    H1 7809   5.504   1.539   0.626
 2615TIP3    H2 7810   5.495   1.673   0.557
 2616TIP3   OH2 7811   0.190   4.628   4.503
 2616TIP3    H1 7812   0.167   4.703   4.558
 2616TIP3    H2 7813   0.254   4.663   4.441
 2617TIP3   OH2 7814   0.831   0.730   2.461
 2617TIP3    H1 7815   0.764   0.756   2.397
 2617TIP3    H2 7816   0.792   0.656   2.507
 2618TIP3   OH2 7817   4.735   1.848   0.066
 2618TIP3    H1 7818   4.700   1.853   0.154
 2618TIP3    H2 7819   4.822   1.809   0.076
 2619TIP3   OH2 7820   4.812   1.824   3.654
 2619TIP3    H1 7821   4.882   1.802   3.716
 2619TIP3    H2 7822   4.774   1.740   3.630
 2620TIP3   OH2 7823   7.014   1.888   0.813
 2620TIP3    H1 7824   7.094   1.897   0.761
 2620TIP3    H2 7825   7.041   1.914   0.901
 2621TIP3   OH2 7826   1.032   5.448   5.528
 2621TIP3    H1 7827   0.942   5.479   5.526
 2621TIP3    H2 7828   1.050   5.431   5.621
 2622TIP3   OH2 7829   6.986   2.846   1.699
 2622TIP3    H1 7830   6.979   2.769   1.756
 2622TIP3    H2 7831   7.077   2.875   1.709
 2623TIP3   OH2 7832   6.579   1.641   1.604
 2623TIP3    H1 7833   6.607   1.551   1.589
 2623TIP3    H2 7834   6.613   1.690   1.530
 2624TIP3   OH2 7835   2.412   6.029   2.748
 2624TIP3    H1 7836   2.352   6.048   2.819
 2624TIP3    H2 7837   2.432   6.115   2.709
 2625TIP3   OH2 7838   0.417   2.785   2.965
 2625TIP3    H1 7839   0.403   2.789   3.060
 2625TIP3    H2 7840   0.344   2.835   2.928
 2626TIP3   OH2 7841   2.385   0.831   3.399
 2626TIP3    H1 7842   2.436   0.885   3.460
 2626TIP3    H2 7843   2.298   0.869   3.401
 2627TIP3   OH2 7844   0.955   6.183   3.622
 2627TIP3    H1 7845   0.961   6.116   3.555
 2627TIP3    H2 7846   0.862   6.208   3.623
 2628TIP3   OH2 7847   1.887   0.167   5.522
 2628TIP3    H1 7848   1.934   0.164   5.438
 2628TIP3    H2 7849   1.887   0.260   5.545
 2629TIP3   OH2 7850   2.423   4.233   2.065
 2629TIP3    H1 7851   2.371   4.282   2.128
 2629TIP3    H2 7852   2.441   4.295   1.994
 2630TIP3   OH2 7853   1.559   6.417   0.084
 2630TIP3    H1 7854   1.551   6.322   0.088
 2630TIP3    H2 7855   1.483   6.445   0.033
 2631TIP3   OH2 7856   1.212   1.088   4.850
 2631TIP3    H1 7857   1.125   1.105   4.888
 2631TIP3    H2 7858   1.254   1.030   4.914
 2632TIP3   OH2 7859   3.454   1.505   4.151
 2632TIP3    H1 7860   3.431   1.556   4.228
 2632TIP3    H2 7861   3.372   1.467   4.121
 2633TIP3   OH2 7862   0.800   0.274   3.872
 2633TIP3    H1 7863   0.852   0.347   3.905
 2633TIP3    H2 7864   0.735   0.258   3.940
 2634TIP3   OH2 7865   6.760   6.181   1.625
 2634TIP3    H1 7866   6.844   6.222   1.606
 2634TIP3    H2 7867   6.723   6.162   1.538
 2635TIP3   OH2 7868   5.682   6.323   5.692
 2635TIP3    H1 7869   5.643   6.241   5.662
 2635TIP3    H2 7870   5.634   6.343   5.772
 2636TIP3   OH2 7871   0.671   2.953   3.642
 2636TIP3    H1 7872   0.666   2.923   3.551
 2636TIP3    H2 7873   0.626   2.885   3.692
 2637TIP3   OH2 7874   0.097   5.519   3.918
 2637TIP3    H1 7875   0.090   5.600   3.968
 2637TIP3    H2 7876   0.184   5.485   3.940
 2638TIP3   OH2 7877   5.517   2.995   2.051
 2638TIP3    H1 7878   5.595   3.045   2.073
 2638TIP3    H2 7879   5.530   2.968   1.960
 2639TIP3   OH2 7880   2.497   2.958   2.904
 2639TIP3    H1 7881   2.477   2.942   2.996
 2639TIP3    H2 7882   2.582   2.916   2.890
 2640TIP3   OH2 7883   6.935   4.972   0.337
 2640TIP3    H1 7884   6.953   5.043   0.398
 2640TIP3    H2 7885   7.015   4.965   0.285
 2641TIP3   OH2 7886   5.449   4.676   0.349
 2641TIP3    H1 7887   5.491   4.731   0.415
 2641TIP3    H2 7888   5.491   4.702   0.267
 2642TIP3   OH2 7889   2.103   4.093   0.555
 2642TIP3    H1 7890   2.017   4.115   0.519
 2642TIP3    H2 7891   2.088   4.076   0.647
 2643TIP3   OH2 7892   4.775   0.371   1.614
 2643TIP3    H1 7893   4.787   0.298   1.675
 2643TIP3    H2 7894   4.697   0.348   1.563
 2644TIP3   OH2 7895   6.323   0.742   5.449
 2644TIP3    H1 7896   6.302   0.830   5.480
 2644TIP3    H2 7897   6.323   0.688   5.529
 2645TIP3   OH2 7898   4.958   4.254   3.299
 2645TIP3    H1 7899   4.901   4.284   3.228
 2645TIP3    H2 7900   5.017   4.328   3.314
 2646TIP3   OH2 7901   3.778   2.053   2.815
 2646TIP3    H1 7902   3.692   2.035   2.777
 2646TIP3    H2 7903   3.764   2.051   2.909
 2647TIP3   OH2 7904   3.805   3.135   1.210
 2647TIP3    H1 7905   3.762   3.142   1.295
 2647TIP3    H2 7906   3.782   3.047   1.179
 2648TIP3   OH2 7907   4.363   1.181   5.630
 2648TIP3    H1 7908   4.384   1.274   5.636
 2648TIP3    H2 7909   4.339   1.156   5.719
 2649TIP3   OH2 7910   4.489   6.319   1.368
 2649TIP3    H1 7911   4.555   6.388   1.373
 2649TIP3    H2 7912   4.428   6.339   1.439
 2650TIP3   OH2 7913   4.503   4.283   0.304
 2650TIP3    H1 7914   4.454   4.201   0.299
 2650TIP3    H2 7915   4.472   4.323   0.386
 2651TIP3   OH2 7916   5.880   1.384   3.343
 2651TIP3    H1 7917   5.971   1.360   3.326
 2651TIP3    H2 7918   5.880   1.479   3.351
 2652TIP3   OH2 7919   5.688   2.471   2.363
 2652TIP3    H1 7920   5.629   2.445   2.433
 2652TIP3    H2 7921   5.630   2.497   2.291
 2653TIP3   OH2 7922   4.333   3.211   5.888
 2653TIP3    H1 7923   4.365   3.255   5.810
 2653TIP3    H2 7924   4.249   3.172   5.861
 2654TIP3   OH2 7925   2.743   4.200   2.256
 2654TIP3    H1 7926   2.713   4.205   2.347
 2654TIP3    H2 7927   2.680   4.143   2.213
 2655TIP3   OH2 7928   6.724   4.095   1.885
 2655TIP3    H1 7929   6.806   4.048   1.868
 2655TIP3    H2 7930   6.752   4.185   1.905
 2656TIP3   OH2 7931   1.144   4.159   2.876
 2656TIP3    H1 7932   1.235   4.186   2.886
 2656TIP3    H2 7933   1.093   4.233   2.908
 2657TIP3   OH2 7934   0.913   5.960   4.137
 2657TIP3    H1 7935   0.873   6.039   4.173
 2657TIP3    H2 7936   0.873   5.949   4.051
 2658TIP3   OH2 7937   2.506   0.577   5.466
 2658TIP3    H1 7938   2.546   0.579   5.553
 2658TIP3    H2 7939   2.414   0.601   5.481
 2659TIP3   OH2 7940   1.913   3.374   0.845
 2659TIP3    H1 7941   1.863   3.298   0.874
 2659TIP3    H2 7942   1.963   3.401   0.923
 2660TIP3   OH2 7943   5.957   2.251   0.184
 2660TIP3    H1 7944   5.875   2.264   0.137
 2660TIP3    H2 7945   6.001   2.336   0.179
 2661TIP3   OH2 7946   1.567   4.533   0.197
 2661TIP3    H1 7947   1.540   4.489   0.278
 2661TIP3    H2 7948   1.643   4.483   0.168
 2662TIP3   OH2 7949   4.739   3.363   4.196
 2662TIP3    H1 7950   4.822   3.334   4.158
 2662TIP3    H2 7951   4.756   3.365   4.290
 2663TIP3   OH2 7952   2.935   5.751   4.002
 2663TIP3    H1 7953   2.845   5.728   3.977
 2663TIP3    H2 7954   2.959   5.685   4.068
 2664TIP3   OH2 7955   5.802   0.821   0.229
 2664TIP3    H1 7956   5.863   0.779   0.289
 2664TIP3    H2 7957   5.748   0.749   0.196
 2665TIP3   OH2 7958   1.744   6.683   5.257
 2665TIP3    H1 7959   1.695   6.660   5.335
 2665TIP3    H2 7960   1.696   6.642   5.185
 2666TIP3   OH2 7961   0.097   3.914   0.398
 2666TIP3    H1 7962   0.137   3.997   0.371
 2666TIP3    H2 7963   0.006   3.937   0.417
 2667TIP3   OH2 7964   5.092   1.249   3.533
 2667TIP3    H1 7965   5.030   1.323   3.529
 2667TIP3    H2 7966   5.146   1.268   3.609
 2668TIP3   OH2 7967   6.864   2.289   4.264
 2668TIP3    H1 7968   6.886   2.234   4.339
 2668TIP3    H2 7969   6.944   2.338   4.245
 2669TIP3   OH2 7970   3.222   2.350   5.246
 2669TIP3    H1 7971   3.222   2.435   5.290
 2669TIP3    H2 7972   3.192   2.289   5.314
 2670TIP3   OH2 7973   2.431   0.503   1.881
 2670TIP3    H1 7974   2.395   0.566   1.944
 2670TIP3    H2 7975   2.525   0.505   1.897
 2671TIP3   OH2 7976   1.883   3.850   0.526
 2671TIP3    H1 7977   1.957   3.811   0.479
 2671TIP3    H2 7978   1.874   3.796   0.605
 2672TIP3   OH2 7979   0.733   6.312   3.373
 2672TIP3    H1 7980   0.713   6.271   3.289
 2672TIP3    H2 7981   0.709   6.246   3.438
 2673TIP3   OH2 7982   4.944   4.698   3.332
 2673TIP3    H1 7983   4.897   4.672   3.411
 2673TIP3    H2 7984   4.890   4.768   3.295
 2674TIP3   OH2 7985   3.030   0.327   3.368
 2674TIP3    H1 7986   3.101   0.300   3.309
 2674TIP3    H2 7987   3.070   0.393   3.425
 2675TIP3   OH2 7988   0.549   2.323   5.398
 2675TIP3    H1 7989   0.602   2.244   5.412
 2675TIP3    H2 7990   0.477   2.315   5.460
 2676TIP3   OH2 7991   1.832   0.385   3.805
 2676TIP3    H1 7992   1.815   0.380   3.899
 2676TIP3    H2 7993   1.811   0.297   3.772
 2677TIP3   OH2 7994   6.388   3.211   4.121
 2677TIP3    H1 7995   6.346   3.165   4.048
 2677TIP3    H2 7996   6.316   3.250   4.170
 2678TIP3   OH2 7997   2.092   5.047   5.806
 2678TIP3    H1 7998   2.099   5.021   5.898
 2678TIP3    H2 7999   2.037   4.979   5.766
 2679TIP3   OH2 8000   4.144   6.219   5.385
 2679TIP3    H1 8001   4.101   6.165   5.319
 2679TIP3    H2 8002   4.226   6.173   5.404
 2680TIP3   OH2 8003   6.298   2.862   1.808
 2680TIP3    H1 8004   6.228   2.804   1.778
 2680TIP3    H2 8005   6.357   2.806   1.857
 2681TIP3   OH2 8006   3.220   4.771   0.676
 2681TIP3    H1 8007   3.179   4.742   0.594
 2681TIP3    H2 8008   3.277   4.700   0.701
 2682TIP3   OH2 8009   2.311   3.168   1.854
 2682TIP3    H1 8010   2.238   3.177   1.915
 2682TIP3    H2 8011   2.346   3.080   1.872
 2683TIP3   OH2 8012   0.839   0.555   1.509
 2683TIP3    H1 8013   0.901   0.484   1.494
 2683TIP3    H2 8014   0.887   0.634   1.485
 2684TIP3   OH2 8015   6.324   0.234   5.616
 2684TIP3    H1 8016   6.364   0.279   5.541
 2684TIP3    H2 8017   6.399   0.197   5.664
 2685TIP3   OH2 8018   6.543   0.017   3.590
 2685TIP3    H1 8019   6.477   0.063   3.538
 2685TIP3    H2 8020   6.608   0.084   3.611
 2686TIP3   OH2 8021   1.258   2.075   0.026
 2686TIP3    H1 8022   1.209   1.994   0.036
 2686TIP3    H2 8023   1.308   2.083   0.107
 2687TIP3   OH2 8024   2.613   0.969   3.109
 2687TIP3    H1 8025   2.551   1.040   3.095
 2687TIP3    H2 8026   2.559   0.893   3.130
 2688TIP3   OH2 8027   5.847   2.812   3.886
 2688TIP3    H1 8028   5.835   2.718   3.902
 2688TIP3    H2 8029   5.765   2.839   3.844
 2689TIP3   OH2 8030   3.130   5.881   3.750
 2689TIP3    H1 8031   3.039   5.897   3.774
 2689TIP3    H2 8032   3.165   5.968   3.731
 2690TIP3   OH2 8033   3.286   5.685   4.940
 2690TIP3    H1 8034   3.354   5.672   5.007
 2690TIP3    H2 8035   3.223   5.744   4.981
 2691TIP3   OH2 8036   6.438   1.495   5.013
 2691TIP3    H1 8037   6.436   1.508   4.919
 2691TIP3    H2 8038   6.432   1.583   5.050
 2692TIP3   OH2 8039   0.648   5.101   5.631
 2692TIP3    H1 8040   0.695   5.028   5.590
 2692TIP3    H2 8041   0.578   5.122   5.569
 2693TIP3   OH2 8042   3.307   1.999   3.878
 2693TIP3    H1 8043   3.235   2.049   3.840
 2693TIP3    H2 8044   3.386   2.048   3.853
 2694TIP3   OH2 8045   5.113   6.393   5.540
 2694TIP3    H1 8046   5.084   6.434   5.459
 2694TIP3    H2 8047   5.181   6.332   5.512
 2695TIP3   OH2 8048   2.453   1.123   4.194
 2695TIP3    H1 8049   2.385   1.191   4.199
 2695TIP3    H2 8050   2.531   1.165   4.230
 2696TIP3   OH2 8051   4.268   5.884   4.569
 2696TIP3    H1 8052   4.189   5.841   4.602
 2696TIP3    H2 8053   4.329   5.812   4.552
 2697TIP3   OH2 8054   3.972   3.586   1.318
 2697TIP3    H1 8055   4.004   3.555   1.233
 2697TIP3    H2 8056   3.946   3.506   1.364
 2698TIP3   OH2 8057   5.538   4.761   0.078
 2698TIP3    H1 8058   5.503   4.674   0.059
 2698TIP3    H2 8059   5.500   4.817   0.011
 2699TIP3   OH2 8060   4.745   0.477   1.013
 2699TIP3    H1 8061   4.736   0.493   1.107
 2699TIP3    H2 8062   4.829   0.517   0.991
 2700TIP3   OH2 8063   6.942   6.185   2.465
 2700TIP3    H1 8064   6.991   6.109   2.496
 2700TIP3    H2 8065   6.859   6.181   2.513
 2701TIP3   OH2 8066   0.848   3.457   2.807
 2701TIP3    H1 8067   0.928   3.447   2.859
 2701TIP3    H2 8068   0.880   3.464   2.717
 2702TIP3   OH2 8069   0.267   2.536   0.469
 2702TIP3    H1 8070   0.330   2.543   0.397
 2702TIP3    H2 8071   0.182   2.533   0.426
 2703TIP3   OH2 8072   1.867   2.077   1.679
 2703TIP3    H1 8073   1.912   2.151   1.637
 2703TIP3    H2 8074   1.880   2.004   1.619
 2704TIP3   OH2 8075   5.278   1.123   1.369
 2704TIP3    H1 8076   5.295   1.032   1.394
 2704TIP3    H2 8077   5.265   1.169   1.452
 2705TIP3   OH2 8078   7.055   3.500   3.581
 2705TIP3    H1 8079   7.027   3.591   3.595
 2705TIP3    H2 8080   7.017   3.475   3.497
 2706TIP3   OH2 8081   6.488   3.641   1.965
 2706TIP3    H1 8082   6.411   3.692   1.990
 2706TIP3    H2 8083   6.486   3.640   1.869
 2707TIP3   OH2 8084   6.737   4.251   2.983
 2707TIP3    H1 8085   6.696   4.169   2.956
 2707TIP3    H2 8086   6.811   4.262   2.923
 2708TIP3   OH2 8087   6.316   0.728   2.598
 2708TIP3    H1 8088   6.227   0.707   2.568
 2708TIP3    H2 8089   6.307   0.813   2.640
 2709TIP3   OH2 8090   4.304   5.716   3.215
 2709TIP3    H1 8091   4.369   5.686   3.279
 2709TIP3    H2 8092   4.269   5.636   3.177
 2710TIP3   OH2 8093   3.547   4.629   5.498
 2710TIP3    H1 8094   3.454   4.642   5.483
 2710TIP3    H2 8095   3.584   4.717   5.496
 2711TIP3   OH2 8096   4.804   1.517   4.017
 2711TIP3    H1 8097   4.783   1.473   4.099
 2711TIP3    H2 8098   4.809   1.609   4.040
 2712TIP3   OH2 8099   5.278   3.057   3.357
 2712TIP3    H1 8100   5.313   3.036   3.443
 2712TIP3    H2 8101   5.287   3.152   3.350
 2713TIP3   OH2 8102   0.372   5.625   1.251
 2713TIP3    H1 8103   0.354   5.681   1.327
 2713TIP3    H2 8104   0.392   5.687   1.181
 2714TIP3   OH2 8105   1.228   5.141   1.285
 2714TIP3    H1 8106   1.231   5.077   1.357
 2714TIP3    H2 8107   1.317   5.141   1.249
 2715TIP3   OH2 8108   6.008   5.193   2.756
 2715TIP3    H1 8109   5.916   5.217   2.759
 2715TIP3    H2 8110   6.034   5.208   2.665
 2716TIP3   OH2 8111   2.196   5.264   0.220
 2716TIP3    H1 8112   2.156   5.184   0.255
 2716TIP3    H2 8113   2.256   5.232   0.152
 2717TIP3   OH2 8114   3.739   6.491   2.451
 2717TIP3    H1 8115   3.791   6.438   2.390
 2717TIP3    H2 8116   3.650   6.487   2.416
 2718TIP3   OH2 8117   5.510   0.052   2.868
 2718TIP3    H1 8118   5.547  -0.036   2.864
 2718TIP3    H2 8119   5.467   0.064   2.783
 2719TIP3   OH2 8120   2.895   0.324   4.306
 2719TIP3    H1 8121   2.960   0.263   4.271
 2719TIP3    H2 8122   2.946   0.399   4.337
 2720TIP3   OH2 8123   4.780   6.218   5.600
 2720TIP3    H1 8124   4.818   6.255   5.520
 2720TIP3    H2 8125   4.840   6.149   5.625
 2721TIP3   OH2 8126   4.303   1.060   2.744
 2721TIP3    H1 8127   4.314   1.016   2.828
 2721TIP3    H2 8128   4.340   1.148   2.757
 2722TIP3   OH2 8129   1.795   3.427   2.905
 2722TIP3    H1 8130   1.874   3.478   2.925
 2722TIP3    H2 8131   1.802   3.409   2.811
 2723TIP3   OH2 8132   0.586   1.445   1.070
 2723TIP3    H1 8133   0.675   1.415   1.089
 2723TIP3    H2 8134   0.560   1.493   1.149
 2724TIP3   OH2 8135   6.278   6.201   3.456
 2724TIP3    H1 8136   6.345   6.150   3.501
 2724TIP3    H2 8137   6.196   6.178   3.500
 2725TIP3   OH2 8138   0.056   1.642   3.177
 2725TIP3    H1 8139  -0.028   1.611   3.211
 2725TIP3    H2 8140   0.069   1.592   3.096
 2726TIP3   OH2 8141   5.147   2.943   3.623
 2726TIP3    H1 8142   5.176   2.941   3.714
 2726TIP3    H2 8143   5.134   2.850   3.601
 2727TIP3   OH2 8144   3.846   4.752   5.501
 2727TIP3    H1 8145   3.820   4.757   5.593
 2727TIP3    H2 8146   3.884   4.665   5.491
 2728TIP3   OH2 8147   6.027   3.392   3.554
 2728TIP3    H1 8148   6.047   3.473   3.507
 2728TIP3    H2 8149   6.080   3.396   3.634
 2729TIP3   OH2 8150   5.006   4.321   2.888
 2729TIP3    H1 8151   4.962   4.363   2.961
 2729TIP3    H2 8152   4.968   4.362   2.810
 2730TIP3   OH2 8153   4.301   4.432   3.185
 2730TIP3    H1 8154   4.241   4.369   3.145
 2730TIP3    H2 8155   4.332   4.485   3.111
 2731TIP3   OH2 8156   0.973   0.479   2.951
 2731TIP3    H1 8157   1.017   0.429   3.019
 2731TIP3    H2 8158   0.941   0.557   2.996
 2732TIP3   OH2 8159   5.802   6.559   2.268
 2732TIP3    H1 8160   5.819   6.593   2.355
 2732TIP3    H2 8161   5.714   6.520   2.274
 2733TIP3   OH2 8162   1.540   0.483   2.775
 2733TIP3    H1 8163   1.569   0.572   2.757
 2733TIP3    H2 8164   1.612   0.444   2.825
 2734TIP3   OH2 8165   0.344   3.839   3.916
 2734TIP3    H1 8166   0.391   3.762   3.884
 2734TIP3    H2 8167   0.413   3.898   3.945
 2735TIP3   OH2 8168   3.356   2.919   1.946
 2735TIP3    H1 8169   3.330   2.878   1.863
 2735TIP3    H2 8170   3.273   2.939   1.989
 2736TIP3   OH2 8171   3.824   4.277   2.507
 2736TIP3    H1 8172   3.810   4.337   2.580
 2736TIP3    H2 8173   3.919   4.267   2.502
 2737TIP3   OH2 8174   6.196   5.640   0.646
 2737TIP3    H1 8175   6.225   5.656   0.735
 2737TIP3    H2 8176   6.236   5.710   0.594
 2738TIP3   OH2 8177   3.715   5.735   0.795
 2738TIP3    H1 8178   3.637   5.775   0.755
 2738TIP3    H2 8179   3.730   5.786   0.875
 2739TIP3   OH2 8180   6.290   1.414   2.608
 2739TIP3    H1 8181   6.323   1.493   2.565
 2739TIP3    H2 8182   6.231   1.374   2.544
 2740TIP3   OH2 8183   1.125   4.891   3.962
 2740TIP3    H1 8184   1.168   4.975   3.976
 2740TIP3    H2 8185   1.123   4.850   4.048
 2741TIP3   OH2 8186   4.449   5.746   2.988
 2741TIP3    H1 8187   4.385   5.766   3.056
 2741TIP3    H2 8188   4.398   5.733   2.909
 2742TIP3   OH2 8189   1.651   5.607   1.958
 2742TIP3    H1 8190   1.704   5.612   1.878
 2742TIP3    H2 8191   1.658   5.515   1.985
 2743TIP3   OH2 8192   0.642   4.980   2.410
 2743TIP3    H1 8193   0.633   4.965   2.316
 2743TIP3    H2 8194   0.676   4.897   2.443
 2744TIP3   OH2 8195   1.502   6.114   2.718
 2744TIP3    H1 8196   1.570   6.158   2.666
 2744TIP3    H2 8197   1.450   6.186   2.755
 2745TIP3   OH2 8198   0.633   4.462   4.112
 2745TIP3    H1 8199   0.617   4.544   4.067
 2745TIP3    H2 8200   0.722   4.470   4.148
 2746TIP3   OH2 8201   0.375   0.302   4.251
 2746TIP3    H1 8202   0.352   0.393   4.231
 2746TIP3    H2 8203   0.446   0.282   4.190
 2747TIP3   OH2 8204   4.267   5.675   2.517
 2747TIP3    H1 8205   4.274   5.583   2.544
 2747TIP3    H2 8206   4.357   5.708   2.524
 2748TIP3   OH2 8207   0.659   2.549   1.283
 2748TIP3    H1 8208   0.722   2.486   1.317
 2748TIP3    H2 8209   0.580   2.498   1.266
 2749TIP3   OH2 8210   3.410   3.278   5.320
 2749TIP3    H1 8211   3.470   3.228   5.264
 2749TIP3    H2 8212   3.464   3.305   5.394
 2750TIP3   OH2 8213   0.859   6.164   5.467
 2750TIP3    H1 8214   0.835   6.077   5.434
 2750TIP3    H2 8215   0.802   6.224   5.419
 2751TIP3   OH2 8216   0.363   1.120   2.350
 2751TIP3    H1 8217   0.386   1.032   2.382
 2751TIP3    H2 8218   0.411   1.179   2.407
 2752TIP3   OH2 8219   4.932   2.587   4.585
 2752TIP3    H1 8220   4.850   2.556   4.547
 2752TIP3    H2 8221   4.907   2.665   4.634
 2753TIP3   OH2 8222   6.794   1.362   2.180
 2753TIP3    H1 8223   6.778   1.454   2.157
 2753TIP3    H2 8224   6.779   1.314   2.099
 2754TIP3   OH2 8225   0.753   6.492   0.681
 2754TIP3    H1 8226   0.807   6.567   0.657
 2754TIP3    H2 8227   0.687   6.487   0.611
 2755TIP3   OH2 8228   4.013   5.006   3.043
 2755TIP3    H1 8229   3.935   4.970   3.001
 2755TIP3    H2 8230   4.016   4.964   3.129
 2756TIP3   OH2 8231   4.720   2.591   3.585
 2756TIP3    H1 8232   4.721   2.505   3.544
 2756TIP3    H2 8233   4.664   2.644   3.528
 2757TIP3   OH2 8234   0.458   5.494   3.450
 2757TIP3    H1 8235   0.469   5.445   3.532
 2757TIP3    H2 8236   0.487   5.583   3.472
 2758TIP3   OH2 8237   6.493   1.895   3.796
 2758TIP3    H1 8238   6.444   1.898   3.878
 2758TIP3    H2 8239   6.542   1.978   3.795
 2759TIP3   OH2 8240   4.498   1.798   0.770
 2759TIP3    H1 8241   4.534   1.718   0.808
 2759TIP3    H2 8242   4.429   1.824   0.830
 2760TIP3   OH2 8243   1.617   0.735   2.021
 2760TIP3    H1 8244   1.697   0.755   1.972
 2760TIP3    H2 8245   1.648   0.689   2.099
 2761TIP3   OH2 8246   0.116   0.990   1.025
 2761TIP3    H1 8247   0.110   1.051   1.099
 2761TIP3    H2 8248   0.081   0.908   1.059
 2762TIP3   OH2 8249   2.422   0.372   3.940
 2762TIP3    H1 8250   2.471   0.322   3.875
 2762TIP3    H2 8251   2.358   0.310   3.975
 2763TIP3   OH2 8252   6.204   1.339   5.147
 2763TIP3    H1 8253   6.251   1.422   5.148
 2763TIP3    H2 8254   6.273   1.273   5.134
 2764TIP3   OH2 8255   0.582   4.707   2.002
 2764TIP3    H1 8256   0.611   4.793   2.031
 2764TIP3    H2 8257   0.579   4.654   2.082
 2765TIP3   OH2 8258   2.040   2.628   2.848
 2765TIP3    H1 8259   2.067   2.553   2.796
 2765TIP3    H2 8260   2.032   2.700   2.785
 2766TIP3   OH2 8261   3.024   0.760   3.530
 2766TIP3    H1 8262   2.955   0.815   3.492
 2766TIP3    H2 8263   3.090   0.822   3.559
 2767TIP3   OH2 8264   2.657   3.764   1.669
 2767TIP3    H1 8265   2.622   3.771   1.758
 2767TIP3    H2 8266   2.732   3.824   1.668
 2768TIP3   OH2 8267   1.731   2.381   4.300
 2768TIP3    H1 8268   1.674   2.407   4.227
 2768TIP3    H2 8269   1.803   2.333   4.258
 2769TIP3   OH2 8270   2.383   0.781   0.913
 2769TIP3    H1 8271   2.421   0.755   0.997
 2769TIP3    H2 8272   2.313   0.842   0.937
 2770TIP3   OH2 8273   6.575   4.487   4.241
 2770TIP3    H1 8274   6.532   4.570   4.261
 2770TIP3    H2 8275   6.631   4.505   4.166
 2771TIP3   OH2 8276   4.442   0.714   1.697
 2771TIP3    H1 8277   4.440   0.627   1.735
 2771TIP3    H2 8278   4.398   0.705   1.612
 2772TIP3   OH2 8279   4.487   5.061   2.471
 2772TIP3    H1 8280   4.535   5.105   2.540
 2772TIP3    H2 8281   4.401   5.042   2.509
 2773TIP3   OH2 8282   0.984   4.339   4.592
 2773TIP3    H1 8283   0.944   4.263   4.634
 2773TIP3    H2 8284   0.917   4.372   4.532
 2774TIP3   OH2 8285   0.894   3.066   5.142
 2774TIP3    H1 8286   0.913   3.142   5.088
 2774TIP3    H2 8287   0.844   3.100   5.216
 2775TIP3   OH2 8288   3.897   4.378   1.566
 2775TIP3    H1 8289   3.901   4.473   1.566
 2775TIP3    H2 8290   3.828   4.356   1.503
 2776TIP3   OH2 8291   7.112   3.685   0.151
 2776TIP3    H1 8292   7.077   3.639   0.075
 2776TIP3    H2 8293   7.118   3.777   0.123
 2777TIP3   OH2 8294   6.900   4.904   2.555
 2777TIP3    H1 8295   6.913   4.924   2.463
 2777TIP3    H2 8296   6.949   4.971   2.602
 2778TIP3   OH2 8297   6.402   2.733   3.249
 2778TIP3    H1 8298   6.467   2.667   3.274
 2778TIP3    H2 8299   6.321   2.683   3.237
 2779TIP3   OH2 8300   6.557   0.308   2.944
 2779TIP3    H1 8301   6.482   0.298   2.886
 2779TIP3    H2 8302   6.542   0.391   2.989
 2780TIP3   OH2 8303   5.976   6.672   2.059
 2780TIP3    H1 8304   6.043   6.733   2.089
 2780TIP3    H2 8305   5.949   6.626   2.139
 2781TIP3   OH2 8306   2.405   0.912   5.669
 2781TIP3    H1 8307   2.484   0.952   5.633
 2781TIP3    H2 8308   2.433   0.823   5.693
 2782TIP3   OH2 8309   6.590   3.689   4.171
 2782TIP3    H1 8310   6.589   3.762   4.110
 2782TIP3    H2 8311   6.671   3.701   4.221
 2783TIP3   OH2 8312   0.106   5.506   1.186
 2783TIP3    H1 8313   0.201   5.498   1.177
 2783TIP3    H2 8314   0.091   5.600   1.198
 2784TIP3   OH2 8315   4.615   2.513   1.280
 2784TIP3    H1 8316   4.691   2.503   1.338
 2784TIP3    H2 8317   4.594   2.423   1.254
 2785TIP3   OH2 8318   1.778   2.533   2.612
 2785TIP3    H1 8319   1.852   2.502   2.560
 2785TIP3    H2 8320   1.759   2.461   2.672
 2786TIP3   OH2 8321   2.076   2.207   1.503
 2786TIP3    H1 8322   2.155   2.249   1.537
 2786TIP3    H2 8323   2.108   2.145   1.437
 2787TIP3   OH2 8324   4.220   1.619   2.654
 2787TIP3    H1 8325   4.191   1.602   2.743
 2787TIP3    H2 8326   4.176   1.551   2.602
 2788TIP3   OH2 8327   6.958   1.921   0.212
 2788TIP3    H1 8328   6.985   1.898   0.301
 2788TIP3    H2 8329   6.964   1.838   0.163
 2789TIP3   OH2 8330   0.941   4.681   2.658
 2789TIP3    H1 8331   0.907   4.743   2.722
 2789TIP3    H2 8332   0.981   4.612   2.711
 2790TIP3   OH2 8333   2.719   6.769   4.623
 2790TIP3    H1 8334   2.746   6.677   4.620
 2790TIP3    H2 8335   2.624   6.766   4.612
 2791TIP3   OH2 8336   2.736   6.072   3.979
 2791TIP3    H1 8337   2.665   6.131   4.003
 2791TIP3    H2 8338   2.797   6.127   3.930
 2792TIP3   OH2 8339   4.562  -0.035   0.740
 2792TIP3    H1 8340   4.512   0.046   0.752
 2792TIP3    H2 8341   4.597  -0.028   0.651
 2793TIP3   OH2 8342   4.589   2.818   4.540
 2793TIP3    H1 8343   4.591   2.760   4.616
 2793TIP3    H2 8344   4.609   2.904   4.576
 2794TIP3   OH2 8345   1.757   0.679   3.112
 2794TIP3    H1 8346   1.801   0.695   3.029
 2794TIP3    H2 8347   1.705   0.599   3.097
 2795TIP3   OH2 8348   2.674   5.368   0.656
 2795TIP3    H1 8349   2.684   5.462   0.667
 2795TIP3    H2 8350   2.717   5.330   0.732
 2796TIP3   OH2 8351   0.316   2.287   5.550
 2796TIP3    H1 8352   0.255   2.338   5.497
 2796TIP3    H2 8353   0.282   2.295   5.640
 2797TIP3   OH2 8354   4.154   0.192   5.429
 2797TIP3    H1 8355   4.169   0.264   5.491
 2797TIP3    H2 8356   4.205   0.119   5.464
 2798TIP3   OH2 8357   1.393   4.903   3.559
 2798TIP3    H1 8358   1.387   4.922   3.466
 2798TIP3    H2 8359   1.455   4.830   3.565
 2799TIP3   OH2 8360   6.222   5.231   4.789
 2799TIP3    H1 8361   6.179   5.267   4.711
 2799TIP3    H2 8362   6.176   5.150   4.807
 2800TIP3   OH2 8363   3.875   4.557   4.503
 2800TIP3    H1 8364   3.842   4.641   4.472
 2800TIP3    H2 8365   3.833   4.544   4.588
 2801TIP3   OH2 8366   0.089   3.977   4.700
 2801TIP3    H1 8367   0.078   3.883   4.707
 2801TIP3    H2 8368   0.024   4.005   4.635
 2802TIP3   OH2 8369   5.975   0.697   0.418
 2802TIP3    H1 8370   5.969   0.620   0.474
 2802TIP3    H2 8371   6.069   0.711   0.406
 2803TIP3   OH2 8372   0.965   4.866   1.563
 2803TIP3    H1 8373   1.035   4.801   1.556
 2803TIP3    H2 8374   0.938   4.883   1.473
 2804TIP3   OH2 8375   4.499   3.733   4.665
 2804TIP3    H1 8376   4.534   3.650   4.696
 2804TIP3    H2 8377   4.523   3.738   4.573
 2805TIP3   OH2 8378   4.858   3.079   4.925
 2805TIP3    H1 8379   4.892   3.006   4.977
 2805TIP3    H2 8380   4.772   3.050   4.895
 2806TIP3   OH2 8381   5.255   5.651   0.697
 2806TIP3    H1 8382   5.228   5.682   0.783
 2806TIP3    H2 8383   5.209   5.708   0.635
 2807TIP3   OH2 8384   2.297   2.900   1.757
 2807TIP3    H1 8385   2.208   2.900   1.792
 2807TIP3    H2 8386   2.297   2.830   1.692
 2808TIP3   OH2 8387   3.182   6.134   2.213
 2808TIP3    H1 8388   3.239   6.125   2.289
 2808TIP3    H2 8389   3.166   6.044   2.184
 2809TIP3   OH2 8390   2.296   6.317   0.634
 2809TIP3    H1 8391   2.292   6.232   0.677
 2809TIP3    H2 8392   2.347   6.302   0.555
 2810TIP3   OH2 8393   2.856   4.378   3.470
 2810TIP3    H1 8394   2.905   4.311   3.518
 2810TIP3    H2 8395   2.774   4.336   3.446
 2811TIP3   OH2 8396   0.651   5.748   1.406
 2811TIP3    H1 8397   0.710   5.721   1.476
 2811TIP3    H2 8398   0.591   5.809   1.447
 2812TIP3   OH2 8399   3.285   4.607   5.487
 2812TIP3    H1 8400   3.223   4.663   5.441
 2812TIP3    H2 8401   3.282   4.523   5.440
 2813TIP3   OH2 8402   1.931   3.637   5.143
 2813TIP3    H1 8403   1.921   3.550   5.180
 2813TIP3    H2 8404   1.905   3.696   5.214
 2814TIP3   OH2 8405   2.475   1.359   3.612
 2814TIP3    H1 8406   2.412   1.287   3.612
 2814TIP3    H2 8407   2.558   1.318   3.588
 2815TIP3   OH2 8408   3.683   1.047   3.158
 2815TIP3    H1 8409   3.745   1.115   3.185
 2815TIP3    H2 8410   3.626   1.035   3.234
 2816TIP3   OH2 8411   1.985   2.111   3.721
 2816TIP3    H1 8412   1.911   2.163   3.749
 2816TIP3    H2 8413   2.004   2.141   3.632
 2817TIP3   OH2 8414   6.360   2.992   2.675
 2817TIP3    H1 8415   6.281   3.043   2.657
 2817TIP3    H2 8416   6.333   2.901   2.667
 2818TIP3   OH2 8417   6.303   5.315   5.094
 2818TIP3    H1 8418   6.252   5.293   5.016
 2818TIP3    H2 8419   6.378   5.364   5.061
 2819TIP3   OH2 8420   3.216   4.976   2.003
 2819TIP3    H1 8421   3.126   4.983   1.971
 2819TIP3    H2 8422   3.222   4.888   2.040
 2820TIP3   OH2 8423   1.857   0.439   1.977
 2820TIP3    H1 8424   1.793   0.441   1.906
 2820TIP3    H2 8425   1.904   0.357   1.965
 2821TIP3   OH2 8426   3.350   0.930   0.092
 2821TIP3    H1 8427   3.400   0.907   0.171
 2821TIP3    H2 8428   3.277   0.868   0.090
 2822TIP3   OH2 8429   6.030   0.920   2.671
 2822TIP3    H1 8430   6.008   0.912   2.578
 2822TIP3    H2 8431   6.103   0.982   2.673
 2823TIP3   OH2 8432   3.782   2.668   0.854
 2823TIP3    H1 8433   3.840   2.740   0.878
 2823TIP3    H2 8434   3.796   2.602   0.922
 2824TIP3   OH2 8435   5.171   1.291   5.351
 2824TIP3    H1 8436   5.128   1.361   5.400
 2824TIP3    H2 8437   5.171   1.217   5.411
 2825TIP3   OH2 8438   5.797   5.189   1.027
 2825TIP3    H1 8439   5.777   5.247   0.953
 2825TIP3    H2 8440   5.887   5.162   1.012
 2826TIP3   OH2 8441   5.115   0.942   3.211
 2826TIP3    H1 8442   5.060   0.946   3.289
 2826TIP3    H2 8443   5.152   1.029   3.203
 2827TIP3   OH2 8444   3.795   4.233   1.324
 2827TIP3    H1 8445   3.713   4.267   1.287
 2827TIP3    H2 8446   3.858   4.241   1.252
 2828TIP3   OH2 8447   0.806   5.290   5.386
 2828TIP3    H1 8448   0.780   5.378   5.415
 2828TIP3    H2 8449   0.899   5.299   5.363
 2829TIP3   OH2 8450   0.484   1.556   4.717
 2829TIP3    H1 8451   0.404   1.503   4.722
 2829TIP3    H2 8452   0.552   1.495   4.691
 2830TIP3   OH2 8453   5.538   5.658   0.270
 2830TIP3    H1 8454   5.594   5.582   0.278
 2830TIP3    H2 8455   5.480   5.638   0.196
 2831TIP3   OH2 8456   4.643   1.084   4.349
 2831TIP3    H1 8457   4.583   1.039   4.408
 2831TIP3    H2 8458   4.730   1.055   4.376
 2832TIP3   OH2 8459   2.631   2.346   0.637
 2832TIP3    H1 8460   2.674   2.362   0.722
 2832TIP3    H2 8461   2.694   2.293   0.588
 2833TIP3   OH2 8462   4.374   3.972   2.595
 2833TIP3    H1 8463   4.454   3.975   2.543
 2833TIP3    H2 8464   4.395   3.914   2.668
 2834TIP3   OH2 8465   3.434   4.305   2.520
 2834TIP3    H1 8466   3.477   4.220   2.527
 2834TIP3    H2 8467   3.340   4.286   2.527
 2835TIP3   OH2 8468   6.748   2.761   2.345
 2835TIP3    H1 8469   6.664   2.731   2.380
 2835TIP3    H2 8470   6.726   2.833   2.286
 2836TIP3   OH2 8471   6.669   4.718   4.987
 2836TIP3    H1 8472   6.709   4.701   5.072
 2836TIP3    H2 8473   6.664   4.632   4.945
 2837TIP3   OH2 8474   0.782   3.689   4.290
 2837TIP3    H1 8475   0.861   3.640   4.265
 2837TIP3    H2 8476   0.716   3.622   4.306
 2838TIP3   OH2 8477   2.366   6.395   2.271
 2838TIP3    H1 8478   2.446   6.448   2.274
 2838TIP3    H2 8479   2.394   6.312   2.233
 2839TIP3   OH2 8480   0.772   6.570   4.868
 2839TIP3    H1 8481   0.729   6.621   4.800
 2839TIP3    H2 8482   0.728   6.485   4.865
 2840TIP3   OH2 8483   3.475   6.664   1.182
 2840TIP3    H1 8484   3.390   6.625   1.160
 2840TIP3    H2 8485   3.507   6.699   1.099
 2841TIP3   OH2 8486   5.102   4.727   4.701
 2841TIP3    H1 8487   5.027   4.766   4.657
 2841TIP3    H2 8488   5.095   4.633   4.683
 2842TIP3   OH2 8489   3.972   1.720   3.784
 2842TIP3    H1 8490   3.996   1.639   3.739
 2842TIP3    H2 8491   4.036   1.784   3.755
 2843TIP3   OH2 8492   1.407   4.107   4.536
 2843TIP3    H1 8493   1.447   4.175   4.482
 2843TIP3    H2 8494   1.481   4.054   4.567
 2844TIP3   OH2 8495   6.728   5.097   5.720
 2844TIP3    H1 8496   6.723   5.028   5.787
 2844TIP3    H2 8497   6.815   5.136   5.733
 2845TIP3   OH2 8498   1.590   6.689   2.468
 2845TIP3    H1 8499   1.638   6.665   2.389
 2845TIP3    H2 8500   1.541   6.767   2.443
 2846TIP3   OH2 8501   5.620   5.641   5.286
 2846TIP3    H1 8502   5.691   5.703   5.303
 2846TIP3    H2 8503   5.654   5.584   5.217
 2847TIP3   OH2 8504   3.912   3.038   5.546
 2847TIP3    H1 8505   3.999   3.040   5.586
 2847TIP3    H2 8506   3.916   3.105   5.477
 2848TIP3   OH2 8507   2.172   0.808   2.085
 2848TIP3    H1 8508   2.156   0.713   2.088
 2848TIP3    H2 8509   2.086   0.848   2.096
 2849TIP3   OH2 8510   2.461   1.767   3.111
 2849TIP3    H1 8511   2.473   1.862   3.110
 2849TIP3    H2 8512   2.509   1.738   3.188
 2850TIP3   OH2 8513   1.575   3.111   2.854
 2850TIP3    H1 8514   1.521   3.187   2.877
 2850TIP3    H2 8515   1.533   3.075   2.776
 2851TIP3   OH2 8516   4.550   0.304   1.460
 2851TIP3    H1 8517   4.533   0.229   1.404
 2851TIP3    H2 8518   4.464   0.342   1.479
 2852TIP3   OH2 8519   0.049   5.748   1.702
 2852TIP3    H1 8520   0.117   5.774   1.763
 2852TIP3    H2 8521   0.075   5.787   1.618
 2853TIP3   OH2 8522   0.132   0.192   5.636
 2853TIP3    H1 8523   0.200   0.255   5.659
 2853TIP3    H2 8524   0.170   0.140   5.565
 2854TIP3   OH2 8525   6.326   5.721   2.467
 2854TIP3    H1 8526   6.270   5.707   2.390
 2854TIP3    H2 8527   6.411   5.685   2.442
 2855TIP3   OH2 8528   2.316   3.518   0.566
 2855TIP3    H1 8529   2.250   3.535   0.633
 2855TIP3    H2 8530   2.382   3.464   0.611
 2856TIP3   OH2 8531   4.638   2.930   5.311
 2856TIP3    H1 8532   4.610   2.856   5.365
 2856TIP3    H2 8533   4.732   2.939   5.330
 2857TIP3   OH2 8534   1.326   3.552   2.359
 2857TIP3    H1 8535   1.342   3.536   2.452
 2857TIP3    H2 8536   1.373   3.633   2.341
 2858TIP3   OH2 8537   1.147   1.713   2.345
 2858TIP3    H1 8538   1.099   1.784   2.304
 2858TIP3    H2 8539   1.212   1.757   2.401
 2859TIP3   OH2 8540   2.576   1.581   2.954
 2859TIP3    H1 8541   2.517   1.646   2.992
 2859TIP3    H2 8542   2.664   1.614   2.974
 2860TIP3   OH2 8543   2.929   4.327   2.734
 2860TIP3    H1 8544   2.834   4.334   2.732
 2860TIP3    H2 8545   2.950   4.319   2.827
 2861TIP3   OH2 8546   1.983   1.219   3.141
 2861TIP3    H1 8547   1.914   1.165   3.180
 2861TIP3    H2 8548   1.936   1.291   3.098
 2862TIP3   OH2 8549   6.664   1.377   3.959
 2862TIP3    H1 8550   6.593   1.325   3.997
 2862TIP3    H2 8551   6.636   1.468   3.971
 2863TIP3   OH2 8552   4.483   6.261   3.334
 2863TIP3    H1 8553   4.524   6.262   3.420
 2863TIP3    H2 8554   4.475   6.168   3.312
 2864TIP3   OH2 8555   0.065   2.160   5.221
 2864TIP3    H1 8556   0.100   2.172   5.309
 2864TIP3    H2 8557   0.140   2.175   5.163
 2865TIP3   OH2 8558   1.320   1.585   0.217
 2865TIP3    H1 8559   1.374   1.634   0.154
 2865TIP3    H2 8560   1.260   1.650   0.253
 2866TIP3   OH2 8561   0.322   2.612   4.750
 2866TIP3    H1 8562   0.344   2.698   4.715
 2866TIP3    H2 8563   0.235   2.593   4.714
 2867TIP3   OH2 8564   2.897   2.437   4.993
 2867TIP3    H1 8565   2.924   2.383   4.919
 2867TIP3    H2 8566   2.953   2.515   4.988
 2868TIP3   OH2 8567   3.302   3.478   5.796
 2868TIP3    H1 8568   3.336   3.511   5.879
 2868TIP3    H2 8569   3.369   3.501   5.732
 2869TIP3   OH2 8570   1.398   1.771   1.644
 2869TIP3    H1 8571   1.394   1.777   1.548
 2869TIP3    H2 8572   1.455   1.843   1.670
 2870TIP3   OH2 8573   5.498   3.268   4.315
 2870TIP3    H1 8574   5.538   3.349   4.283
 2870TIP3    H2 8575   5.571   3.208   4.330
 2871TIP3   OH2 8576   6.308   2.100   4.708
 2871TIP3    H1 8577   6.300   2.190   4.738
 2871TIP3    H2 8578   6.290   2.047   4.786
 2872TIP3   OH2 8579   3.744   2.616   3.160
 2872TIP3    H1 8580   3.804   2.586   3.092
 2872TIP3    H2 8581   3.778   2.702   3.185
 2873TIP3   OH2 8582   2.585   5.769   2.457
 2873TIP3    H1 8583   2.556   5.722   2.536
 2873TIP3    H2 8584   2.678   5.786   2.472
 2874TIP3   OH2 8585   7.016   2.738   0.563
 2874TIP3    H1 8586   7.028   2.663   0.621
 2874TIP3    H2 8587   7.089   2.796   0.584
 2875TIP3   OH2 8588   3.206   1.722   1.739
 2875TIP3    H1 8589   3.228   1.793   1.799
 2875TIP3    H2 8590   3.285   1.710   1.686
 2876TIP3   OH2 8591   3.370   4.673   5.743
 2876TIP3    H1 8592   3.318   4.624   5.681
 2876TIP3    H2 8593   3.460   4.663   5.712
 2877TIP3   OH2 8594   2.273   4.152   3.173
 2877TIP3    H1 8595   2.201   4.106   3.130
 2877TIP3    H2 8596   2.234   4.232   3.208
 2878TIP3   OH2 8597   3.877   0.672   0.812
 2878TIP3    H1 8598   3.957   0.654   0.862
 2878TIP3    H2 8599   3.811   0.691   0.878
 2879TIP3   OH2 8600   2.815   4.293   3.832
 2879TIP3    H1 8601   2.827   4.247   3.915
 2879TIP3    H2 8602   2.894   4.346   3.822
 2880TIP3   OH2 8603   5.187   1.880   3.614
 2880TIP3    H1 8604   5.179   1.974   3.627
 2880TIP3    H2 8605   5.230   1.871   3.529
 2881TIP3   OH2 8606   0.068   2.540   4.002
 2881TIP3    H1 8607   0.086   2.552   4.095
 2881TIP3    H2 8608   0.119   2.462   3.977
 2882TIP3   OH2 8609   0.029   0.450   4.489
 2882TIP3    H1 8610   0.085   0.439   4.412
 2882TIP3    H2 8611  -0.054   0.483   4.455
 2883TIP3   OH2 8612   3.795   3.913   3.732
 2883TIP3    H1 8613   3.825   3.823   3.745
 2883TIP3    H2 8614   3.864   3.954   3.680
 2884TIP3   OH2 8615   1.561   2.393   5.235
 2884TIP3    H1 8616   1.640   2.433   5.271
 2884TIP3    H2 8617   1.532   2.332   5.304
 2885TIP3   OH2 8618   5.153   5.655   3.612
 2885TIP3    H1 8619   5.248   5.669   3.604
 2885TIP3    H2 8620   5.119   5.740   3.641
 2886TIP3   OH2 8621   3.084   4.462   3.833
 2886TIP3    H1 8622   3.059   4.514   3.757
 2886TIP3    H2 8623   3.164   4.417   3.807
 2887TIP3   OH2 8624   4.120   1.038   0.762
 2887TIP3    H1 8625   4.113   1.130   0.788
 2887TIP3    H2 8626   4.185   1.001   0.822
 2888TIP3   OH2 8627   5.376   1.497   0.856
 2888TIP3    H1 8628   5.451   1.556   0.865
 2888TIP3    H2 8629   5.301   1.554   0.843
 2889TIP3   OH2 8630   3.304   0.183   0.368
 2889TIP3    H1 8631   3.273   0.180   0.278
 2889TIP3    H2 8632   3.375   0.119   0.372
 2890TIP3   OH2 8633   3.558   1.572   5.497
 2890TIP3    H1 8634   3.624   1.624   5.451
 2890TIP3    H2 8635   3.477   1.623   5.489
 2891TIP3   OH2 8636   0.894   2.541   5.514
 2891TIP3    H1 8637   0.937   2.578   5.436
 2891TIP3    H2 8638   0.801   2.551   5.497
 2892TIP3   OH2 8639   6.342   2.202   1.000
 2892TIP3    H1 8640   6.253   2.225   1.025
 2892TIP3    H2 8641   6.397   2.271   1.037
 2893TIP3   OH2 8642   1.315   3.986   3.344
 2893TIP3    H1 8643   1.373   3.938   3.403
 2893TIP3    H2 8644   1.364   3.991   3.262
 2894TIP3   OH2 8645   3.849   6.056   4.220
 2894TIP3    H1 8646   3.765   6.019   4.193
 2894TIP3    H2 8647   3.861   6.025   4.310
 2895TIP3   OH2 8648   4.915   5.473   2.141
 2895TIP3    H1 8649   4.996   5.423   2.130
 2895TIP3    H2 8650   4.898   5.512   2.055
 2896TIP3   OH2 8651   3.012   6.355   4.727
 2896TIP3    H1 8652   3.012   6.338   4.821
 2896TIP3    H2 8653   3.105   6.357   4.703
 2897TIP3   OH2 8654   2.338   0.179   0.320
 2897TIP3    H1 8655   2.274   0.216   0.380
 2897TIP3    H2 8656   2.423   0.202   0.358
 2898TIP3   OH2 8657   1.981   4.141   3.336
 2898TIP3    H1 8658   1.901   4.181   3.369
 2898TIP3    H2 8659   2.046   4.211   3.341
 2899TIP3   OH2 8660   1.195   6.113   0.041
 2899TIP3    H1 8661   1.227   6.074  -0.040
 2899TIP3    H2 8662   1.211   6.047   0.108
 2900TIP3   OH2 8663   3.447   3.573   3.384
 2900TIP3    H1 8664   3.446   3.538   3.295
 2900TIP3    H2 8665   3.356   3.572   3.412
 2901TIP3   OH2 8666   5.684   6.449   1.906
 2901TIP3    H1 8667   5.659   6.357   1.919
 2901TIP3    H2 8668   5.657   6.492   1.987
 2902TIP3   OH2 8669   5.557   3.894   3.710
 2902TIP3    H1 8670   5.606   3.971   3.681
 2902TIP3    H2 8671   5.623   3.825   3.715
 2903TIP3   OH2 8672   6.186   4.200   4.756
 2903TIP3    H1 8673   6.226   4.114   4.745
 2903TIP3    H2 8674   6.256   4.255   4.789
 2904TIP3   OH2 8675   1.028   3.486   1.212
 2904TIP3    H1 8676   1.071   3.565   1.245
 2904TIP3    H2 8677   1.099   3.433   1.177
 2905TIP3   OH2 8678   6.701   4.100   0.653
 2905TIP3    H1 8679   6.736   4.183   0.684
 2905TIP3    H2 8680   6.755   4.033   0.695
 2906TIP3   OH2 8681   1.413   3.776   1.252
 2906TIP3    H1 8682   1.465   3.703   1.219
 2906TIP3    H2 8683   1.468   3.853   1.239
 2907TIP3   OH2 8684   3.875   1.877   5.624
 2907TIP3    H1 8685   3.856   1.963   5.662
 2907TIP3    H2 8686   3.967   1.881   5.601
 2908TIP3   OH2 8687   1.537   3.031   4.361
 2908TIP3    H1 8688   1.563   3.025   4.269
 2908TIP3    H2 8689   1.603   3.087   4.402
 2909TIP3   OH2 8690   3.443   1.002   1.230
 2909TIP3    H1 8691   3.526   0.955   1.241
 2909TIP3    H2 8692   3.389   0.943   1.178
 2910TIP3   OH2 8693   5.690   6.461   1.630
 2910TIP3    H1 8694   5.723   6.452   1.719
 2910TIP3    H2 8695   5.617   6.399   1.625
 2911TIP3   OH2 8696   2.628   2.073   2.262
 2911TIP3    H1 8697   2.658   2.105   2.177
 2911TIP3    H2 8698   2.553   2.129   2.284
 2912TIP3   OH2 8699   1.041   0.899   2.476
 2912TIP3    H1 8700   0.957   0.862   2.502
 2912TIP3    H2 8701   1.058   0.862   2.390
 2913TIP3   OH2 8702   4.302   1.545   5.179
 2913TIP3    H1 8703   4.304   1.612   5.248
 2913TIP3    H2 8704   4.212   1.514   5.178
 2914TIP3   OH2 8705   7.058   1.807   5.836
 2914TIP3    H1 8706   7.143   1.772   5.810
 2914TIP3    H2 8707   6.999   1.732   5.834
 2915TIP3   OH2 8708   2.941   5.478   1.960
 2915TIP3    H1 8709   2.865   5.434   1.923
 2915TIP3    H2 8710   2.918   5.491   2.052
 2916TIP3   OH2 8711   2.275   2.118   4.127
 2916TIP3    H1 8712   2.286   2.090   4.036
 2916TIP3    H2 8713   2.245   2.209   4.120
 2917TIP3   OH2 8714   2.582   0.080   2.186
 2917TIP3    H1 8715   2.615   0.108   2.100
 2917TIP3    H2 8716   2.518   0.012   2.165
 2918TIP3   OH2 8717   2.538   5.721   3.692
 2918TIP3    H1 8718   2.444   5.741   3.696
 2918TIP3    H2 8719   2.571   5.776   3.621
 2919TIP3   OH2 8720   3.370   1.626   3.095
 2919TIP3    H1 8721   3.338   1.698   3.042
 2919TIP3    H2 8722   3.291   1.590   3.137
 2920TIP3   OH2 8723   3.073   1.438   0.113
 2920TIP3    H1 8724   3.073   1.345   0.138
 2920TIP3    H2 8725   3.136   1.443   0.041
 2921TIP3   OH2 8726   0.599   3.431   3.920
 2921TIP3    H1 8727   0.656   3.505   3.897
 2921TIP3    H2 8728   0.607   3.370   3.847
 2922TIP3   OH2 8729   0.628   6.133   0.528
 2922TIP3    H1 8730   0.608   6.145   0.621
 2922TIP3    H2 8731   0.673   6.049   0.523
 2923TIP3   OH2 8732   2.105   4.709   4.367
 2923TIP3    H1 8733   2.176   4.757   4.408
 2923TIP3    H2 8734   2.144   4.626   4.338
 2924TIP3   OH2 8735   5.555   6.332   3.331
 2924TIP3    H1 8736   5.495   6.266   3.296
 2924TIP3    H2 8737   5.506   6.374   3.402
 2925TIP3   OH2 8738   2.841   0.070   2.309
 2925TIP3    H1 8739   2.755   0.112   2.301
 2925TIP3    H2 8740   2.843   0.037   2.399
 2926TIP3   OH2 8741   5.799   5.929   5.538
 2926TIP3    H1 8742   5.802   5.849   5.591
 2926TIP3    H2 8743   5.814   5.898   5.448
 2927TIP3   OH2 8744   2.886   4.788   3.685
 2927TIP3    H1 8745   2.913   4.725   3.618
 2927TIP3    H2 8746   2.957   4.786   3.749
 2928TIP3   OH2 8747   6.601   5.548   4.002
 2928TIP3    H1 8748   6.660   5.585   3.937
 2928TIP3    H2 8749   6.524   5.521   3.951
 2929TIP3   OH2 8750   4.439   6.666   4.566
 2929TIP3    H1 8751   4.373   6.629   4.508
 2929TIP3    H2 8752   4.478   6.737   4.515
 2930TIP3   OH2 8753   2.626   2.401   4.832
 2930TIP3    H1 8754   2.691   2.430   4.896
 2930TIP3    H2 8755   2.677   2.361   4.762
 2931TIP3   OH2 8756   1.272   1.908   2.834
 2931TIP3    H1 8757   1.333   1.956   2.890
 2931TIP3    H2 8758   1.190   1.908   2.883
 2932TIP3   OH2 8759   0.857   4.307   1.862
 2932TIP3    H1 8760   0.876   4.258   1.782
 2932TIP3    H2 8761   0.854   4.399   1.835
 2933TIP3   OH2 8762   1.990   4.149   5.710
 2933TIP3    H1 8763   2.074   4.183   5.741
 2933TIP3    H2 8764   1.927   4.177   5.776
 2934TIP3   OH2 8765   1.175   6.323   4.295
 2934TIP3    H1 8766   1.175   6.386   4.224
 2934TIP3    H2 8767   1.206   6.372   4.371
 2935TIP3   OH2 8768   0.267   2.582   2.034
 2935TIP3    H1 8769   0.309   2.616   1.955
 2935TIP3    H2 8770   0.278   2.652   2.099
 2936TIP3   OH2 8771   2.195   6.649   2.643
 2936TIP3    H1 8772   2.198   6.568   2.591
 2936TIP3    H2 8773   2.281   6.689   2.629
 2937TIP3   OH2 8774   6.316   1.067   0.834
 2937TIP3    H1 8775   6.321   0.974   0.812
 2937TIP3    H2 8776   6.244   1.074   0.896
 2938TIP3   OH2 8777   2.175   5.688   0.716
 2938TIP3    H1 8778   2.242   5.626   0.744
 2938TIP3    H2 8779   2.134   5.644   0.641
 2939TIP3   OH2 8780   2.194   0.903   0.269
 2939TIP3    H1 8781   2.148   0.829   0.230
 2939TIP3    H2 8782   2.241   0.943   0.196
 2940TIP3   OH2 8783   0.519   2.025   1.076
 2940TIP3    H1 8784   0.552   2.080   1.147
 2940TIP3    H2 8785   0.558   1.939   1.092
 2941TIP3   OH2 8786   2.212   0.541   0.371
 2941TIP3    H1 8787   2.196   0.452   0.402
 2941TIP3    H2 8788   2.251   0.586   0.446
 2942TIP3   OH2 8789   3.496   2.891   2.236
 2942TIP3    H1 8790   3.573   2.847   2.272
 2942TIP3    H2 8791   3.476   2.841   2.156
 2943TIP3   OH2 8792   2.369   0.793   1.300
 2943TIP3    H1 8793   2.321   0.853   1.357
 2943TIP3    H2 8794   2.306   0.725   1.278
 2944TIP3   OH2 8795   3.238   1.489   0.775
 2944TIP3    H1 8796   3.271   1.409   0.732
 2944TIP3    H2 8797   3.230   1.553   0.704
 2945TIP3   OH2 8798   5.835   1.324   5.575
 2945TIP3    H1 8799   5.914   1.299   5.622
 2945TIP3    H2 8800   5.866   1.376   5.501
 2946TIP3   OH2 8801   6.235   1.624   5.570
 2946TIP3    H1 8802   6.271   1.578   5.494
 2946TIP3    H2 8803   6.303   1.688   5.593
 2947TIP3   OH2 8804   1.458   3.614   4.114
 2947TIP3    H1 8805   1.421   3.700   4.135
 2947TIP3    H2 8806   1.417   3.590   4.031
 2948TIP3   OH2 8807   1.556   5.557   2.410
 2948TIP3    H1 8808   1.613   5.600   2.346
 2948TIP3    H2 8809   1.609   5.554   2.490
 2949TIP3   OH2 8810   6.779   6.860   0.452
 2949TIP3    H1 8811   6.830   6.882   0.375
 2949TIP3    H2 8812   6.716   6.795   0.422
 2950TIP3   OH2 8813   0.671   0.064   2.324
 2950TIP3    H1 8814   0.587   0.097   2.292
 2950TIP3    H2 8815   0.650  -0.020   2.364
 2951TIP3   OH2 8816   1.740   5.802   0.868
 2951TIP3    H1 8817   1.777   5.889   0.881
 2951TIP3    H2 8818   1.733   5.765   0.956
 2952TIP3   OH2 8819   5.603   1.256   0.339
 2952TIP3    H1 8820   5.664   1.188   0.366
 2952TIP3    H2 8821   5.518   1.225   0.371
 2953TIP3   OH2 8822   0.690   0.123   3.260
 2953TIP3    H1 8823   0.673   0.208   3.300
 2953TIP3    H2 8824   0.752   0.081   3.319
 2954TIP3   OH2 8825   4.566   4.043   3.803
 2954TIP3    H1 8826   4.550   3.950   3.787
 2954TIP3    H2 8827   4.516   4.088   3.736
 2955TIP3   OH2 8828   2.259   3.985   5.898
 2955TIP3    H1 8829   2.172   3.956   5.872
 2955TIP3    H2 8830   2.302   4.009   5.816
 2956TIP3   OH2 8831   3.478   5.131   2.071
 2956TIP3    H1 8832   3.383   5.125   2.081
 2956TIP3    H2 8833   3.513   5.088   2.149
 2957TIP3   OH2 8834   2.811   0.123   0.128
 2957TIP3    H1 8835   2.823   0.214   0.155
 2957TIP3    H2 8836   2.804   0.127   0.033
 2958TIP3   OH2 8837   3.087   2.287   3.347
 2958TIP3    H1 8838   3.156   2.254   3.289
 2958TIP3    H2 8839   3.133   2.318   3.424
 2959TIP3   OH2 8840   5.710   0.495   2.739
 2959TIP3    H1 8841   5.802   0.495   2.765
 2959TIP3    H2 8842   5.702   0.420   2.680
 2960TIP3   OH2 8843   3.828   0.026   1.506
 2960TIP3    H1 8844   3.795   0.006   1.594
 2960TIP3    H2 8845   3.875  -0.054   1.481
 2961TIP3   OH2 8846   2.340   1.154   5.795
 2961TIP3    H1 8847   2.374   1.069   5.767
 2961TIP3    H2 8848   2.311   1.140   5.885
 2962TIP3   OH2 8849   1.717   0.731   2.808
 2962TIP3    H1 8850   1.751   0.813   2.774
 2962TIP3    H2 8851   1.765   0.663   2.761
 2963TIP3   OH2 8852   4.156   2.534   1.441
 2963TIP3    H1 8853   4.236   2.495   1.476
 2963TIP3    H2 8854   4.089   2.515   1.508
 2964TIP3   OH2 8855   6.714   0.603   3.656
 2964TIP3    H1 8856   6.755   0.541   3.716
 2964TIP3    H2 8857   6.778   0.615   3.586
 2965TIP3   OH2 8858   2.818   0.197   3.094
 2965TIP3    H1 8859   2.848   0.249   3.019
 2965TIP3    H2 8860   2.726   0.219   3.102
 2966TIP3   OH2 8861   1.999   1.469   0.036
 2966TIP3    H1 8862   2.024   1.555   0.002
 2966TIP3    H2 8863   1.926   1.488   0.096
 2967TIP3   OH2 8864   7.075   5.340   5.388
 2967TIP3    H1 8865   7.087   5.384   5.472
 2967TIP3    H2 8866   7.074   5.247   5.410
 2968TIP3   OH2 8867   5.142   4.562   5.135
 2968TIP3    H1 8868   5.191   4.610   5.202
 2968TIP3    H2 8869   5.059   4.610   5.129
 2969TIP3   OH2 8870   0.071   2.794   4.835
 2969TIP3    H1 8871   0.102   2.832   4.753
 2969TIP3    H2 8872  -0.024   2.785   4.824
 2970TIP3   OH2 8873   2.621   5.844   4.834
 2970TIP3    H1 8874   2.600   5.783   4.763
 2970TIP3    H2 8875   2.684   5.797   4.888
 2971TIP3   OH2 8876   4.383   6.122   5.473
 2971TIP3    H1 8877   4.448   6.191   5.478
 2971TIP3    H2 8878   4.414   6.055   5.535
 2972TIP3   OH2 8879   6.310   4.198   2.955
 2972TIP3    H1 8880   6.389   4.190   3.009
 2972TIP3    H2 8881   6.285   4.290   2.963
 2973TIP3   OH2 8882   3.696   3.820   1.898
 2973TIP3    H1 8883   3.763   3.752   1.906
 2973TIP3    H2 8884   3.743   3.896   1.864
 2974TIP3   OH2 8885   3.961   1.247   2.727
 2974TIP3    H1 8886   3.878   1.295   2.723
 2974TIP3    H2 8887   3.967   1.216   2.817
 2975TIP3   OH2 8888   3.750   1.681   1.813
 2975TIP3    H1 8889   3.687   1.643   1.752
 2975TIP3    H2 8890   3.702   1.753   1.854
 2976TIP3   OH2 8891   1.090   2.109   4.523
 2976TIP3    H1 8892   1.074   2.105   4.618
 2976TIP3    H2 8893   1.042   2.035   4.488
 2977TIP3   OH2 8894   2.331   4.785   2.903
 2977TIP3    H1 8895   2.420   4.768   2.933
 2977TIP3    H2 8896   2.298   4.852   2.962
 2978TIP3   OH2 8897   6.067   2.183   4.403
 2978TIP3    H1 8898   5.985   2.150   4.367
 2978TIP3    H2 8899   6.119   2.209   4.326
 2979TIP3   OH2 8900   1.974   3.314   5.006
 2979TIP3    H1 8901   1.897   3.370   5.007
 2979TIP3    H2 8902   2.047   3.373   4.986
 2980TIP3   OH2 8903   0.897   3.576   4.949
 2980TIP3    H1 8904   0.897   3.482   4.935
 2980TIP3    H2 8905   0.981   3.595   4.989
 2981TIP3   OH2 8906   1.546   0.493   1.028
 2981TIP3    H1 8907   1.478   0.434   1.060
 2981TIP3    H2 8908   1.609   0.498   1.100
 2982TIP3   OH2 8909   0.617   3.580   2.022
 2982TIP3    H1 8910   0.619   3.590   1.927
 2982TIP3    H2 8911   0.709   3.576   2.048
 2983TIP3   OH2 8912   6.279   2.288   2.564
 2983TIP3    H1 8913   6.252   2.316   2.477
 2983TIP3    H2 8914   6.214   2.327   2.623
 2984TIP3   OH2 8915   5.319   5.185   2.225
 2984TIP3    H1 8916   5.414   5.180   2.212
 2984TIP3    H2 8917   5.308   5.191   2.319
 2985TIP3   OH2 8918   0.739   6.143   2.302
 2985TIP3    H1 8919   0.773   6.169   2.388
 2985TIP3    H2 8920   0.656   6.098   2.322
 2986TIP3   OH2 8921   4.392   6.013   4.798
 2986TIP3    H1 8922   4.326   5.982   4.736
 2986TIP3    H2 8923   4.409   6.103   4.771
 2987TIP3   OH2 8924   6.832   1.387   3.186
 2987TIP3    H1 8925   6.760   1.360   3.242
 2987TIP3    H2 8926   6.855   1.309   3.135
 2988TIP3   OH2 8927   0.858   0.389   3.551
 2988TIP3    H1 8928   0.822   0.304   3.576
 2988TIP3    H2 8929   0.826   0.449   3.617
 2989TIP3   OH2 8930   5.219   2.598   1.341
 2989TIP3    H1 8931   5.257   2.546   1.412
 2989TIP3    H2 8932   5.293   2.621   1.286
 2990TIP3   OH2 8933   3.860   5.917   4.463
 2990TIP3    H1 8934   3.889   5.957   4.546
 2990TIP3    H2 8935   3.818   5.835   4.489
 2991TIP3   OH2 8936   1.424   2.944   2.681
 2991TIP3    H1 8937   1.427   3.014   2.616
 2991TIP3    H2 8938   1.334   2.944   2.713
 2992TIP3   OH2 8939   4.493   0.438   5.638
 2992TIP3    H1 8940   4.559   0.435   5.707
 2992TIP3    H2 8941   4.412   0.409   5.679
 2993TIP3   OH2 8942   2.512   4.442   1.859
 2993TIP3    H1 8943   2.495   4.523   1.907
 2993TIP3    H2 8944   2.456   4.448   1.781
 2994TIP3   OH2 8945   5.238   0.092   3.749
 2994TIP3    H1 8946   5.209   0.004   3.722
 2994TIP3    H2 8947   5.291   0.123   3.675
 2995TIP3   OH2 8948   0.098   6.727   2.470
 2995TIP3    H1 8949   0.111   6.772   2.386
 2995TIP3    H2 8950   0.115   6.795   2.535
 2996TIP3   OH2 8951   4.808   5.975   2.967
 2996TIP3    H1 8952   4.809   5.994   3.060
 2996TIP3    H2 8953   4.877   6.030   2.930
 2997TIP3   OH2 8954   1.178   0.379   5.435
 2997TIP3    H1 8955   1.140   0.452   5.484
 2997TIP3    H2 8956   1.111   0.354   5.373
 2998TIP3   OH2 8957   1.258   5.480   0.150
 2998TIP3    H1 8958   1.163   5.492   0.140
 2998TIP3    H2 8959   1.289   5.562   0.187
 2999TIP3   OH2 8960   3.492   2.269   2.571
 2999TIP3    H1 8961   3.454   2.275   2.659
 2999TIP3    H2 8962   3.456   2.188   2.535
 3000TIP3   OH2 8963   5.632   2.467   0.449
 3000TIP3    H1 8964   5.647   2.557   0.421
 3000TIP3    H2 8965   5.563   2.435   0.390
 3001TIP3   OH2 8966   7.093   2.170   2.146
 3001TIP3    H1 8967   7.008   2.164   2.189
 3001TIP3    H2 8968   7.076   2.140   2.056
 3002TIP3   OH2 8969   0.664   5.016   1.446
 3002TIP3    H1 8970   0.569   5.011   1.436
 3002TIP3    H2 8971   0.676   5.037   1.538
 3003TIP3   OH2 8972   2.809   2.237   4.638
 3003TIP3    H1 8973   2.794   2.146   4.664
 3003TIP3    H2 8974   2.893   2.259   4.680
 3004TIP3   OH2 8975   1.389   3.561   1.492
 3004TIP3    H1 8976   1.419   3.519   1.411
 3004TIP3    H2 8977   1.399   3.655   1.475
 3005TIP3   OH2 8978   2.565   5.258   1.133
 3005TIP3    H1 8979   2.484   5.208   1.125
 3005TIP3    H2 8980   2.632   5.192   1.151
 3006TIP3   OH2 8981   6.172   4.888   5.292
 3006TIP3    H1 8982   6.128   4.950   5.350
 3006TIP3    H2 8983   6.256   4.929   5.272
 3007TIP3   OH2 8984   3.005   1.210   3.334
 3007TIP3    H1 8985   3.016   1.223   3.428
 3007TIP3    H2 8986   3.093   1.188   3.302
 3008TIP3   OH2 8987   0.343   0.205   2.408
 3008TIP3    H1 8988   0.397   0.151   2.466
 3008TIP3    H2 8989   0.314   0.145   2.339
 3009TIP3   OH2 8990   1.186   0.464   2.540
 3009TIP3    H1 8991   1.145   0.502   2.463
 3009TIP3    H2 8992   1.280   0.475   2.525
 3010TIP3   OH2 8993   5.746   6.227   5.286
 3010TIP3    H1 8994   5.741   6.184   5.371
 3010TIP3    H2 8995   5.810   6.297   5.298
 3011TIP3   OH2 8996   1.913   2.779   4.580
 3011TIP3    H1 8997   1.880   2.725   4.507
 3011TIP3    H2 8998   2.008   2.769   4.576
 3012TIP3   OH2 8999   2.571   4.275   2.678
 3012TIP3    H1 9000   2.604   4.208   2.619
 3012TIP3    H2 9001   2.513   4.228   2.738
 3013TIP3   OH2 9002   6.510   4.779   5.523
 3013TIP3    H1 9003   6.537   4.869   5.505
 3013TIP3    H2 9004   6.565   4.725   5.465
 3014TIP3   OH2 9005   1.586   5.775   1.274
 3014TIP3    H1 9006   1.665   5.749   1.227
 3014TIP3    H2 9007   1.541   5.693   1.293
 3015TIP3   OH2 9008   2.732   2.125   1.083
 3015TIP3    H1 9009   2.737   2.112   1.178
 3015TIP3    H2 9010   2.753   2.039   1.046
 3016TIP3   OH2 9011   1.835   5.809   0.547
 3016TIP3    H1 9012   1.848   5.767   0.632
 3016TIP3    H2 9013   1.741   5.800   0.530
 3017TIP3   OH2 9014   1.990   3.211   5.417
 3017TIP3    H1 9015   1.906   3.220   5.372
 3017TIP3    H2 9016   1.974   3.146   5.485
 3018TIP3   OH2 9017   4.004   0.831   5.403
 3018TIP3    H1 9018   3.939   0.766   5.427
 3018TIP3    H2 9019   3.953   0.908   5.379
 3019TIP3   OH2 9020   2.741   3.461   2.858
 3019TIP3    H1 9021   2.795   3.539   2.867
 3019TIP3    H2 9022   2.670   3.474   2.920
 3020TIP3   OH2 9023   6.631   0.538   0.728
 3020TIP3    H1 9024   6.663   0.604   0.666
 3020TIP3    H2 9025   6.542   0.565   0.748
 3021TIP3   OH2 9026   5.703   2.174   0.354
 3021TIP3    H1 9027   5.682   2.232   0.427
 3021TIP3    H2 9028   5.791   2.141   0.374
 3022TIP3   OH2 9029   5.048   2.810   2.313
 3022TIP3    H1 9030   5.113   2.740   2.312
 3022TIP3    H2 9031   5.096   2.889   2.290
 3023TIP3   OH2 9032   3.477   2.962   3.154
 3023TIP3    H1 9033   3.406   2.927   3.207
 3023TIP3    H2 9034   3.548   2.978   3.215
 3024TIP3   OH2 9035   0.454   5.321   5.007
 3024TIP3    H1 9036   0.541   5.362   5.008
 3024TIP3    H2 9037   0.472   5.227   5.002
 3025TIP3   OH2 9038   0.097   1.900   2.621
 3025TIP3    H1 9039   0.021   1.955   2.640
 3025TIP3    H2 9040   0.061   1.813   2.607
 3026TIP3   OH2 9041   1.751   0.538   1.575
 3026TIP3    H1 9042   1.749   0.472   1.644
 3026TIP3    H2 9043   1.661   0.540   1.541
 3027TIP3   OH2 9044   5.298   1.959   0.048
 3027TIP3    H1 9045   5.393   1.959   0.039
 3027TIP3    H2 9046   5.268   2.033  -0.006
 3028TIP3   OH2 9047   0.427   5.480   0.522
 3028TIP3    H1 9048   0.409   5.558   0.469
 3028TIP3    H2 9049   0.342   5.437   0.530
 3029TIP3   OH2 9050   4.101   3.616   2.405
 3029TIP3    H1 9051   4.159   3.552   2.362
 3029TIP3    H2 9052   4.018   3.608   2.358
 3030TIP3   OH2 9053   6.943   3.613   3.091
 3030TIP3    H1 9054   6.936   3.551   3.163
 3030TIP3    H2 9055   6.857   3.611   3.049
 3031TIP3   OH2 9056   4.989   4.980   2.805
 3031TIP3    H1 9057   5.035   5.030   2.737
 3031TIP3    H2 9058   5.057   4.925   2.844
 3032TIP3   OH2 9059   6.875   3.542   5.551
 3032TIP3    H1 9060   6.824   3.623   5.560
 3032TIP3    H2 9061   6.922   3.535   5.634
 3033TIP3   OH2 9062   4.520   0.890   0.822
 3033TIP3    H1 9063   4.504   0.974   0.780
 3033TIP3    H2 9064   4.615   0.879   0.819
 3034TIP3   OH2 9065   6.716   1.125   4.193
 3034TIP3    H1 9066   6.775   1.059   4.230
 3034TIP3    H2 9067   6.708   1.101   4.101
 3035TIP3   OH2 9068   1.534   4.894   4.482
 3035TIP3    H1 9069   1.521   4.839   4.405
 3035TIP3    H2 9070   1.627   4.915   4.481
 3036TIP3   OH2 9071   7.209   1.235   3.979
 3036TIP3    H1 9072   7.132   1.203   3.932
 3036TIP3    H2 9073   7.205   1.192   4.064
 3037TIP3   OH2 9074   4.018   3.233   5.352
 3037TIP3    H1 9075   3.972   3.277   5.281
 3037TIP3    H2 9076   4.082   3.177   5.307
 3038TIP3   OH2 9077   4.931   5.591   1.613
 3038TIP3    H1 9078   4.923   5.524   1.546
 3038TIP3    H2 9079   5.016   5.633   1.596
 3039TIP3   OH2 9080   4.792   5.258   4.808
 3039TIP3    H1 9081   4.849   5.182   4.809
 3039TIP3    H2 9082   4.760   5.264   4.718
 3040TIP3   OH2 9083   5.952   2.118   5.779
 3040TIP3    H1 9084   5.990   2.138   5.694
 3040TIP3    H2 9085   6.011   2.052   5.817
 3041TIP3   OH2 9086   1.377   4.269   4.832
 3041TIP3    H1 9087   1.411   4.237   4.748
 3041TIP3    H2 9088   1.435   4.341   4.856
 3042TIP3   OH2 9089   1.843   3.130   2.890
 3042TIP3    H1 9090   1.754   3.117   2.856
 3042TIP3    H2 9091   1.851   3.224   2.903
 3043TIP3   OH2 9092   6.794   0.043   0.920
 3043TIP3    H1 9093   6.721   0.014   0.974
 3043TIP3    H2 9094   6.773   0.133   0.897
 3044TIP3   OH2 9095   3.775   2.981   0.100
 3044TIP3    H1 9096   3.842   3.027   0.150
 3044TIP3    H2 9097   3.700   2.977   0.160
 3045TIP3   OH2 9098   2.174   6.296   5.623
 3045TIP3    H1 9099   2.194   6.322   5.533
 3045TIP3    H2 9100   2.190   6.374   5.675
 3046TIP3   OH2 9101   2.123   4.662   1.484
 3046TIP3    H1 9102   2.184   4.697   1.549
 3046TIP3    H2 9103   2.163   4.684   1.400
 3047TIP3   OH2 9104   5.169   1.102   5.524
 3047TIP3    H1 9105   5.100   1.038   5.511
 3047TIP3    H2 9106   5.173   1.114   5.619
 3048TIP3   OH2 9107   4.151   3.077   0.117
 3048TIP3    H1 9108   4.088   3.086   0.189
 3048TIP3    H2 9109   4.197   2.995   0.136
 3049TIP3   OH2 9110   0.648   3.093   0.073
 3049TIP3    H1 9111   0.563   3.051   0.061
 3049TIP3    H2 9112   0.640   3.139   0.156
 3050TIP3   OH2 9113   5.789   1.899   4.964
 3050TIP3    H1 9114   5.773   1.828   4.902
 3050TIP3    H2 9115   5.711   1.901   5.019
 3051TIP3   OH2 9116   0.628   5.835   0.453
 3051TIP3    H1 9117   0.632   5.808   0.361
 3051TIP3    H2 9118   0.637   5.753   0.502
 3052TIP3   OH2 9119   3.864   3.338   3.271
 3052TIP3    H1 9120   3.827   3.374   3.189
 3052TIP3    H2 9121   3.946   3.297   3.244
 3053TIP3   OH2 9122   5.517   0.640   5.717
 3053TIP3    H1 9123   5.558   0.664   5.633
 3053TIP3    H2 9124   5.511   0.723   5.764
 3054TIP3   OH2 9125   2.853   0.168   1.123
 3054TIP3    H1 9126   2.811   0.087   1.094
 3054TIP3    H2 9127   2.932   0.175   1.068
 3055TIP3   OH2 9128   0.919   0.442   0.431
 3055TIP3    H1 9129   0.979   0.457   0.504
 3055TIP3    H2 9130   0.956   0.491   0.358
 3056TIP3   OH2 9131   0.569   1.045   0.474
 3056TIP3    H1 9132   0.513   1.044   0.397
 3056TIP3    H2 9133   0.534   0.977   0.531
 3057TIP3   OH2 9134   0.900   2.027   3.606
 3057TIP3    H1 9135   0.874   1.950   3.555
 3057TIP3    H2 9136   0.965   1.993   3.667
 3058TIP3   OH2 9137   3.798   4.403   2.745
 3058TIP3    H1 9138   3.890   4.380   2.759
 3058TIP3    H2 9139   3.769   4.441   2.828
 3059TIP3   OH2 9140   2.946   1.025   3.691
 3059TIP3    H1 9141   2.992   1.101   3.657
 3059TIP3    H2 9142   2.958   1.031   3.786
 3060TIP3   OH2 9143   4.892   0.614   3.100
 3060TIP3    H1 9144   4.956   0.618   3.171
 3060TIP3    H2 9145   4.909   0.692   3.047
 3061TIP3   OH2 9146   6.743   1.197   2.577
 3061TIP3    H1 9147   6.806   1.220   2.645
 3061TIP3    H2 9148   6.658   1.224   2.612
 3062TIP3   OH2 9149   5.567   2.939   1.774
 3062TIP3    H1 9150   5.548   2.861   1.721
 3062TIP3    H2 9151   5.616   2.997   1.715
 3063TIP3   OH2 9152   4.407   1.544   3.321
 3063TIP3    H1 9153   4.438   1.457   3.293
 3063TIP3    H2 9154   4.325   1.526   3.367
 3064TIP3   OH2 9155   3.369   3.218   1.365
 3064TIP3    H1 9156   3.392   3.279   1.436
 3064TIP3    H2 9157   3.451   3.205   1.318
 3065TIP3   OH2 9158   0.603   4.155   2.139
 3065TIP3    H1 9159   0.628   4.151   2.231
 3065TIP3    H2 9160   0.538   4.086   2.128
 3066TIP3   OH2 9161   6.478   0.469   0.114
 3066TIP3    H1 9162   6.561   0.516   0.112
 3066TIP3    H2 9163   6.418   0.523   0.064
 3067TIP3   OH2 9164   6.007   2.288   2.073
 3067TIP3    H1 9165   6.044   2.201   2.057
 3067TIP3    H2 9166   5.987   2.289   2.167
 3068TIP3   OH2 9167   1.963   1.263   2.118
 3068TIP3    H1 9168   1.951   1.350   2.081
 3068TIP3    H2 9169   1.923   1.269   2.205
 3069TIP3   OH2 9170   4.791   3.732   5.691
 3069TIP3    H1 9171   4.723   3.800   5.685
 3069TIP3    H2 9172   4.863   3.775   5.737
 3070TIP3   OH2 9173   7.152   6.702   5.891
 3070TIP3    H1 9174   7.067   6.712   5.933
 3070TIP3    H2 9175   7.177   6.791   5.865
 3071TIP3   OH2 9176   2.821   4.875   2.506
 3071TIP3    H1 9177   2.890   4.814   2.532
 3071TIP3    H2 9178   2.754   4.864   2.573
 3072TIP3   OH2 9179   5.312   6.765   5.385
 3072TIP3    H1 9180   5.400   6.728   5.371
 3072TIP3    H2 9181   5.257   6.722   5.320
 3073TIP3   OH2 9182   4.980   2.563   5.844
 3073TIP3    H1 9183   4.931   2.506   5.785
 3073TIP3    H2 9184   5.026   2.624   5.787
 3074TIP3   OH2 9185   3.827   3.313   5.174
 3074TIP3    H1 9186   3.786   3.284   5.255
 3074TIP3    H2 9187   3.768   3.284   5.105
 3075TIP3   OH2 9188   2.891   3.863   1.132
 3075TIP3    H1 9189   2.951   3.878   1.205
 3075TIP3    H2 9190   2.924   3.919   1.062
 3076TIP3   OH2 9191   4.268   5.656   4.177
 3076TIP3    H1 9192   4.182   5.674   4.214
 3076TIP3    H2 9193   4.274   5.715   4.101
 3077TIP3   OH2 9194   6.891   1.436   1.653
 3077TIP3    H1 9195   6.905   1.476   1.567
 3077TIP3    H2 9196   6.802   1.400   1.648
 3078TIP3   OH2 9197   2.469   2.050   4.612
 3078TIP3    H1 9198   2.455   2.082   4.522
 3078TIP3    H2 9199   2.392   2.081   4.660
 3079TIP3   OH2 9200   6.513   3.845   0.723
 3079TIP3    H1 9201   6.550   3.791   0.654
 3079TIP3    H2 9202   6.419   3.827   0.719
 3080TIP3   OH2 9203   0.074   2.490   4.609
 3080TIP3    H1 9204   0.081   2.421   4.542
 3080TIP3    H2 9205   0.050   2.568   4.560
 3081TIP3   OH2 9206   3.003   6.438   3.673
 3081TIP3    H1 9207   2.983   6.509   3.612
 3081TIP3    H2 9208   3.094   6.452   3.699
 3082TIP3   OH2 9209   4.302   1.584   4.546
 3082TIP3    H1 9210   4.225   1.527   4.544
 3082TIP3    H2 9211   4.367   1.535   4.596
 3083TIP3   OH2 9212   3.499   4.778   2.793
 3083TIP3    H1 9213   3.410   4.762   2.825
 3083TIP3    H2 9214   3.488   4.802   2.702
 3084TIP3   OH2 9215   6.244   5.253   4.397
 3084TIP3    H1 9216   6.326   5.270   4.444
 3084TIP3    H2 9217   6.268   5.255   4.305
 3085TIP3   OH2 9218   4.863   2.609   1.871
 3085TIP3    H1 9219   4.899   2.610   1.959
 3085TIP3    H2 9220   4.939   2.596   1.814
 3086TIP3   OH2 9221   6.831   3.050   4.696
 3086TIP3    H1 9222   6.794   3.055   4.784
 3086TIP3    H2 9223   6.925   3.040   4.710
 3087TIP3   OH2 9224   5.087   6.023   4.945
 3087TIP3    H1 9225   5.060   6.015   5.037
 3087TIP3    H2 9226   5.019   5.975   4.897
 3088TIP3   OH2 9227   2.731   3.215   5.666
 3088TIP3    H1 9228   2.651   3.184   5.624
 3088TIP3    H2 9229   2.781   3.256   5.595
 3089TIP3   OH2 9230   6.786   3.336   4.444
 3089TIP3    H1 9231   6.870   3.342   4.397
 3089TIP3    H2 9232   6.720   3.350   4.376
 3090TIP3   OH2 9233   6.026   4.259   2.046
 3090TIP3    H1 9234   6.069   4.336   2.009
 3090TIP3    H2 9235   6.042   4.265   2.141
 3091TIP3   OH2 9236   4.727   4.074   1.722
 3091TIP3    H1 9237   4.654   4.013   1.711
 3091TIP3    H2 9238   4.794   4.022   1.768
 3092TIP3   OH2 9239   4.074   3.956   5.656
 3092TIP3    H1 9240   4.009   3.891   5.630
 3092TIP3    H2 9241   4.025   4.023   5.703
 3093TIP3   OH2 9242   0.967   4.532   5.688
 3093TIP3    H1 9243   1.029   4.508   5.619
 3093TIP3    H2 9244   0.991   4.621   5.712
 3094TIP3   OH2 9245   6.640   2.382   4.101
 3094TIP3    H1 9246   6.716   2.363   4.156
 3094TIP3    H2 9247   6.586   2.303   4.108
 3095TIP3   OH2 9248   3.105   5.821   0.769
 3095TIP3    H1 9249   3.012   5.815   0.747
 3095TIP3    H2 9250   3.125   5.915   0.762
 3096TIP3   OH2 9251   4.869   6.859   3.009
 3096TIP3    H1 9252   4.933   6.788   3.012
 3096TIP3    H2 9253   4.790   6.819   2.972
 3097TIP3   OH2 9254   4.408   6.214   0.952
 3097TIP3    H1 9255   4.469   6.189   0.882
 3097TIP3    H2 9256   4.335   6.153   0.943
 3098TIP3   OH2 9257   3.661   3.195   2.745
 3098TIP3    H1 9258   3.721   3.260   2.708
 3098TIP3    H2 9259   3.594   3.247   2.789
 3099TIP3   OH2 9260   2.162   3.821   0.480
 3099TIP3    H1 9261   2.257   3.830   0.468
 3099TIP3    H2 9262   2.135   3.905   0.518
 3100TIP3   OH2 9263   7.073   2.308   2.602
 3100TIP3    H1 9264   7.119   2.299   2.519
 3100TIP3    H2 9265   6.987   2.343   2.578
 3101TIP3   OH2 9266   5.460   2.128   1.175
 3101TIP3    H1 9267   5.461   2.033   1.164
 3101TIP3    H2 9268   5.394   2.159   1.113
 3102TIP3   OH2 9269   6.453   2.710   0.805
 3102TIP3    H1 9270   6.529   2.671   0.849
 3102TIP3    H2 9271   6.432   2.787   0.858
 3103TIP3   OH2 9272   3.644   4.790   3.538
 3103TIP3    H1 9273   3.624   4.712   3.589
 3103TIP3    H2 9274   3.585   4.785   3.463
 3104TIP3   OH2 9275   5.043   0.127   2.443
 3104TIP3    H1 9276   5.023   0.158   2.531
 3104TIP3    H2 9277   5.081   0.203   2.399
 3105TIP3   OH2 9278   0.679   0.337   3.018
 3105TIP3    H1 9279   0.645   0.416   2.975
 3105TIP3    H2 9280   0.774   0.350   3.020
 3106TIP3   OH2 9281   4.568   6.179   1.910
 3106TIP3    H1 9282   4.661   6.198   1.926
 3106TIP3    H2 9283   4.541   6.241   1.843
 3107TIP3   OH2 9284   2.188   1.166   1.787
 3107TIP3    H1 9285   2.176   1.140   1.879
 3107TIP3    H2 9286   2.166   1.087   1.737
 3108TIP3   OH2 9287   2.306   4.518   0.961
 3108TIP3    H1 9288   2.386   4.478   0.995
 3108TIP3    H2 9289   2.289   4.474   0.878
 3109TIP3   OH2 9290   6.794   6.603   1.191
 3109TIP3    H1 9291   6.878   6.648   1.178
 3109TIP3    H2 9292   6.734   6.672   1.221
 3110TIP3   OH2 9293   4.822   3.901   3.219
 3110TIP3    H1 9294   4.851   3.816   3.250
 3110TIP3    H2 9295   4.901   3.944   3.188
 3111TIP3   OH2 9296   4.555   0.514   4.919
 3111TIP3    H1 9297   4.493   0.505   4.991
 3111TIP3    H2 9298   4.596   0.600   4.933
 3112TIP3   OH2 9299   5.507   0.184   4.358
 3112TIP3    H1 9300   5.524   0.226   4.442
 3112TIP3    H2 9301   5.426   0.225   4.326
 3113TIP3   OH2 9302   2.496   1.860   2.003
 3113TIP3    H1 9303   2.456   1.932   1.953
 3113TIP3    H2 9304   2.567   1.829   1.948
 3114TIP3   OH2 9305   2.476   6.522   5.117
 3114TIP3    H1 9306   2.449   6.434   5.143
 3114TIP3    H2 9307   2.553   6.507   5.061
 3115TIP3   OH2 9308   6.939   5.363   2.339
 3115TIP3    H1 9309   7.009   5.385   2.278
 3115TIP3    H2 9310   6.863   5.412   2.307
 3116TIP3   OH2 9311   6.784   2.195   2.876
 3116TIP3    H1 9312   6.784   2.261   2.945
 3116TIP3    H2 9313   6.855   2.136   2.899
 3117TIP3   OH2 9314   1.556   5.067   1.420
 3117TIP3    H1 9315   1.536   5.154   1.453
 3117TIP3    H2 9316   1.632   5.080   1.363
 3118TIP3   OH2 9317   6.129   3.346   0.919
 3118TIP3    H1 9318   6.115   3.376   1.009
 3118TIP3    H2 9319   6.162   3.424   0.874
 3119TIP3   OH2 9320   2.671   1.865   4.425
 3119TIP3    H1 9321   2.665   1.942   4.482
 3119TIP3    H2 9322   2.712   1.898   4.345
 3120TIP3   OH2 9323   2.960   3.911   3.343
 3120TIP3    H1 9324   2.950   3.816   3.340
 3120TIP3    H2 9325   2.892   3.941   3.404
 3121TIP3   OH2 9326   4.204   4.322   4.740
 3121TIP3    H1 9327   4.183   4.285   4.654
 3121TIP3    H2 9328   4.299   4.325   4.742
 3122TIP3   OH2 9329   2.644   2.202   2.979
 3122TIP3    H1 9330   2.701   2.208   3.055
 3122TIP3    H2 9331   2.609   2.291   2.968
 3123TIP3   OH2 9332   3.094   6.089   0.737
 3123TIP3    H1 9333   3.010   6.133   0.749
 3123TIP3    H2 9334   3.155   6.158   0.713
 3124TIP3   OH2 9335   4.011   4.923   3.297
 3124TIP3    H1 9336   3.994   4.833   3.270
 3124TIP3    H2 9337   4.004   4.920   3.393
 3125TIP3   OH2 9338   3.027   6.681   3.498
 3125TIP3    H1 9339   3.082   6.758   3.511
 3125TIP3    H2 9340   3.066   6.636   3.423
 3126TIP3   OH2 9341   1.349   6.149   4.973
 3126TIP3    H1 9342   1.277   6.197   5.014
 3126TIP3    H2 9343   1.310   6.066   4.946
 3127TIP3   OH2 9344   0.345   1.764   5.354
 3127TIP3    H1 9345   0.304   1.850   5.354
 3127TIP3    H2 9346   0.438   1.781   5.363
 3128TIP3   OH2 9347   1.426   4.715   5.482
 3128TIP3    H1 9348   1.354   4.776   5.463
 3128TIP3    H2 9349   1.413   4.691   5.574
 3129TIP3   OH2 9350   2.641   6.097   1.154
 3129TIP3    H1 9351   2.633   6.123   1.246
 3129TIP3    H2 9352   2.632   6.179   1.105
 3130TIP3   OH2 9353   6.577   0.663   5.342
 3130TIP3    H1 9354   6.623   0.687   5.262
 3130TIP3    H2 9355   6.492   0.707   5.335
 3131TIP3   OH2 9356   1.021   1.668   5.788
 3131TIP3    H1 9357   0.982   1.606   5.849
 3131TIP3    H2 9358   0.999   1.754   5.824
 3132TIP3   OH2 9359   5.652   1.818   2.397
 3132TIP3    H1 9360   5.599   1.883   2.350
 3132TIP3    H2 9361   5.650   1.741   2.340
 3133TIP3   OH2 9362   2.298   1.432   5.798
 3133TIP3    H1 9363   2.387   1.452   5.827
 3133TIP3    H2 9364   2.304   1.345   5.760
 3134TIP3   OH2 9365   4.591   5.076   5.251
 3134TIP3    H1 9366   4.686   5.074   5.260
 3134TIP3    H2 9367   4.577   5.102   5.159
 3135TIP3   OH2 9368   6.796   3.670   1.546
 3135TIP3    H1 9369   6.796   3.605   1.475
 3135TIP3    H2 9370   6.863   3.640   1.607
 3136TIP3   OH2 9371   4.740   0.510   2.730
 3136TIP3    H1 9372   4.826   0.548   2.712
 3136TIP3    H2 9373   4.678   0.574   2.698
 3137TIP3   OH2 9374   7.130   4.502   1.220
 3137TIP3    H1 9375   7.144   4.468   1.308
 3137TIP3    H2 9376   7.111   4.425   1.167
 3138TIP3   OH2 9377   4.115   6.467   2.418
 3138TIP3    H1 9378   4.097   6.394   2.477
 3138TIP3    H2 9379   4.051   6.457   2.348
 3139TIP3   OH2 9380   6.815   5.497   5.395
 3139TIP3    H1 9381   6.855   5.571   5.350
 3139TIP3    H2 9382   6.861   5.420   5.360
 3140TIP3   OH2 9383   1.990   3.661   3.639
 3140TIP3    H1 9384   1.942   3.741   3.615
 3140TIP3    H2 9385   1.924   3.605   3.679
 3141TIP3   OH2 9386   2.258   3.146   1.550
 3141TIP3    H1 9387   2.301   3.069   1.513
 3141TIP3    H2 9388   2.310   3.166   1.628
 3142TIP3   OH2 9389   0.022   5.900   5.800
 3142TIP3    H1 9390   0.111   5.879   5.773
 3142TIP3    H2 9391  -0.004   5.826   5.854
 3143TIP3   OH2 9392   5.115   3.206   2.011
 3143TIP3    H1 9393   5.126   3.119   2.048
 3143TIP3    H2 9394   5.049   3.248   2.066
 3144TIP3   OH2 9395   7.142   2.632   2.886
 3144TIP3    H1 9396   7.233   2.605   2.879
 3144TIP3    H2 9397   7.097   2.555   2.920
 3145TIP3   OH2 9398   7.123   1.059   2.773
 3145TIP3    H1 9399   7.145   1.151   2.760
 3145TIP3    H2 9400   7.101   1.027   2.685
 3146TIP3   OH2 9401   1.448   2.372   0.377
 3146TIP3    H1 9402   1.495   2.289   0.375
 3146TIP3    H2 9403   1.485   2.419   0.451
 3147TIP3   OH2 9404   0.056   5.161   2.439
 3147TIP3    H1 9405   0.084   5.097   2.505
 3147TIP3    H2 9406   0.066   5.115   2.356
 3148TIP3   OH2 9407   1.994   6.202   1.875
 3148TIP3    H1 9408   2.028   6.149   1.804
 3148TIP3    H2 9409   2.042   6.172   1.953
 3149TIP3   OH2 9410   5.283   3.888   4.984
 3149TIP3    H1 9411   5.221   3.902   5.055
 3149TIP3    H2 9412   5.238   3.921   4.906
 3150TIP3   OH2 9413   0.132   3.117   4.614
 3150TIP3    H1 9414   0.195   3.133   4.544
 3150TIP3    H2 9415   0.157   3.032   4.650
 3151TIP3   OH2 9416   5.740   5.064   0.242
 3151TIP3    H1 9417   5.742   5.010   0.163
 3151TIP3    H2 9418   5.831   5.069   0.271
 3152TIP3   OH2 9419   4.051   0.374   1.317
 3152TIP3    H1 9420   3.970   0.326   1.335
 3152TIP3    H2 9421   4.087   0.333   1.238
 3153TIP3   OH2 9422   1.603   6.545   0.618
 3153TIP3    H1 9423   1.695   6.568   0.632
 3153TIP3    H2 9424   1.597   6.528   0.524
 3154TIP3   OH2 9425   2.635   2.508   2.541
 3154TIP3    H1 9426   2.598   2.420   2.539
 3154TIP3    H2 9427   2.718   2.501   2.494
 3155TIP3   OH2 9428   3.126   0.217   4.522
 3155TIP3    H1 9429   3.090   0.306   4.525
 3155TIP3    H2 9430   3.163   0.209   4.434
 3156TIP3   OH2 9431   3.598   4.614   4.332
 3156TIP3    H1 9432   3.574   4.627   4.241
 3156TIP3    H2 9433   3.654   4.689   4.354
 3157TIP3   OH2 9434   2.067   1.762   0.011
 3157TIP3    H1 9435   2.079   1.734   0.102
 3157TIP3    H2 9436   2.116   1.843   0.004
 3158TIP3   OH2 9437   0.111   3.252   3.571
 3158TIP3    H1 9438   0.059   3.248   3.491
 3158TIP3    H2 9439   0.098   3.168   3.614
 3159TIP3   OH2 9440   2.367   5.025   4.289
 3159TIP3    H1 9441   2.276   5.054   4.277
 3159TIP3    H2 9442   2.415   5.066   4.217
 3160TIP3   OH2 9443   6.534   0.822   1.838
 3160TIP3    H1 9444   6.531   0.727   1.830
 3160TIP3    H2 9445   6.578   0.838   1.922
 3161TIP3   OH2 9446   2.878   1.911   0.417
 3161TIP3    H1 9447   2.840   1.928   0.331
 3161TIP3    H2 9448   2.848   1.824   0.440
 3162TIP3   OH2 9449   4.326   4.130   2.846
 3162TIP3    H1 9450   4.264   4.060   2.871
 3162TIP3    H2 9451   4.347   4.110   2.754
 3163TIP3   OH2 9452   3.912   6.773   0.125
 3163TIP3    H1 9453   3.892   6.797   0.035
 3163TIP3    H2 9454   3.959   6.690   0.118
 3164TIP3   OH2 9455   4.819   2.316   2.276
 3164TIP3    H1 9456   4.874   2.239   2.290
 3164TIP3    H2 9457   4.876   2.379   2.232
 3165TIP3   OH2 9458   7.109   1.775   5.387
 3165TIP3    H1 9459   7.155   1.717   5.327
 3165TIP3    H2 9460   7.019   1.777   5.353
 3166TIP3   OH2 9461   5.865   4.412   1.020
 3166TIP3    H1 9462   5.810   4.434   0.945
 3166TIP3    H2 9463   5.955   4.422   0.988
 3167TIP3   OH2 9464   2.495   1.717   0.665
 3167TIP3    H1 9465   2.433   1.655   0.703
 3167TIP3    H2 9466   2.484   1.707   0.570
 3168TIP3   OH2 9467   3.114   2.052   2.611
 3168TIP3    H1 9468   3.034   2.082   2.568
 3168TIP3    H2 9469   3.095   1.963   2.640
 3169TIP3   OH2 9470   3.564   3.044   0.544
 3169TIP3    H1 9471   3.518   3.028   0.462
 3169TIP3    H2 9472   3.592   3.135   0.539
 3170TIP3   OH2 9473   5.395   5.345   2.733
 3170TIP3    H1 9474   5.426   5.427   2.771
 3170TIP3    H2 9475   5.412   5.279   2.800
 3171TIP3   OH2 9476   0.909   2.304   2.336
 3171TIP3    H1 9477   0.993   2.287   2.378
 3171TIP3    H2 9478   0.890   2.396   2.354
 3172TIP3   OH2 9479   3.679   2.810   4.430
 3172TIP3    H1 9480   3.726   2.743   4.381
 3172TIP3    H2 9481   3.587   2.790   4.415
 3173TIP3   OH2 9482   4.360   2.161   0.667
 3173TIP3    H1 9483   4.267   2.184   0.664
 3173TIP3    H2 9484   4.376   2.136   0.758
 3174TIP3   OH2 9485   2.168   1.568   4.168
 3174TIP3    H1 9486   2.106   1.614   4.112
 3174TIP3    H2 9487   2.192   1.490   4.118
 3175TIP3   OH2 9488  -0.020   6.262   2.244
 3175TIP3    H1 9489  -0.097   6.211   2.219
 3175TIP3    H2 9490   0.051   6.223   2.193
 3176TIP3   OH2 9491   5.467   5.003   4.046
 3176TIP3    H1 9492   5.461   4.990   4.141
 3176TIP3    H2 9493   5.498   4.919   4.012
 3177TIP3   OH2 9494   4.261   0.423   1.498
 3177TIP3    H1 9495   4.180   0.405   1.450
 3177TIP3    H2 9496   4.247   0.381   1.584
 3178TIP3   OH2 9497   5.464   2.072   1.513
 3178TIP3    H1 9498   5.541   2.051   1.565
 3178TIP3    H2 9499   5.443   1.990   1.468
 3179TIP3   OH2 9500   7.201   4.297   2.829
 3179TIP3    H1 9501   7.209   4.287   2.924
 3179TIP3    H2 9502   7.171   4.386   2.816
 3180TIP3   OH2 9503   5.172   6.165   5.791
 3180TIP3    H1 9504   5.224   6.241   5.764
 3180TIP3    H2 9505   5.117   6.145   5.716
 3181TIP3   OH2 9506   3.173   1.474   3.276
 3181TIP3    H1 9507   3.127   1.510   3.352
 3181TIP3    H2 9508   3.104   1.458   3.212
 3182TIP3   OH2 9509   0.025   4.194   4.859
 3182TIP3    H1 9510   0.055   4.114   4.815
 3182TIP3    H2 9511  -0.005   4.164   4.945
 3183TIP3   OH2 9512   6.070   5.119   0.992
 3183TIP3    H1 9513   6.100   5.194   0.943
 3183TIP3    H2 9514   6.143   5.095   1.049
 3184TIP3   OH2 9515   5.397   6.590   3.362
 3184TIP3    H1 9516   5.370   6.500   3.380
 3184TIP3    H2 9517   5.449   6.585   3.282
 3185TIP3   OH2 9518   3.931   3.114   0.300
 3185TIP3    H1 9519   3.910   3.083   0.388
 3185TIP3    H2 9520   3.884   3.197   0.291
 3186TIP3   OH2 9521   4.204   3.873   4.077
 3186TIP3    H1 9522   4.164   3.787   4.089
 3186TIP3    H2 9523   4.129   3.933   4.072
 3187TIP3   OH2 9524   3.098   0.052   0.964
 3187TIP3    H1 9525   3.177   0.056   1.018
 3187TIP3    H2 9526   3.121   0.103   0.886
 3188TIP3   OH2 9527   6.612   2.150   4.899
 3188TIP3    H1 9528   6.609   2.244   4.879
 3188TIP3    H2 9529   6.527   2.132   4.940
 3189TIP3   OH2 9530   5.721   5.520   3.040
 3189TIP3    H1 9531   5.760   5.437   3.065
 3189TIP3    H2 9532   5.790   5.585   3.054
 3190TIP3   OH2 9533   4.930   5.880   4.785
 3190TIP3    H1 9534   5.002   5.865   4.724
 3190TIP3    H2 9535   4.855   5.835   4.746
 3191TIP3   OH2 9536   6.516   6.242   1.218
 3191TIP3    H1 9537   6.567   6.231   1.298
 3191TIP3    H2 9538   6.433   6.279   1.248
 3192TIP3   OH2 9539   4.202   0.987   5.305
 3192TIP3    H1 9540   4.140   0.929   5.349
 3192TIP3    H2 9541   4.242   0.933   5.237
 3193TIP3   OH2 9542   2.586   0.005   0.250
 3193TIP3    H1 9543   2.591   0.092   0.288
 3193TIP3    H2 9544   2.653   0.005   0.181
 3194TIP3   OH2 9545   0.567   0.153   4.908
 3194TIP3    H1 9546   0.600   0.243   4.910
 3194TIP3    H2 9547   0.572   0.123   4.998
 3195TIP3   OH2 9548   5.183   4.815   3.196
 3195TIP3    H1 9549   5.231   4.737   3.167
 3195TIP3    H2 9550   5.111   4.780   3.249
 3196TIP3   OH2 9551   1.874   5.678   4.471
 3196TIP3    H1 9552   1.826   5.714   4.396
 3196TIP3    H2 9553   1.825   5.709   4.547
 3197TIP3   OH2 9554   1.632   3.715   0.812
 3197TIP3    H1 9555   1.668   3.755   0.891
 3197TIP3    H2 9556   1.707   3.674   0.769
 3198TIP3   OH2 9557   6.292   3.221   5.367
 3198TIP3    H1 9558   6.328   3.304   5.336
 3198TIP3    H2 9559   6.312   3.219   5.460
 3199TIP3   OH2 9560   6.134   1.728   4.435
 3199TIP3    H1 9561   6.169   1.752   4.521
 3199TIP3    H2 9562   6.062   1.668   4.454
 3200TIP3   OH2 9563   4.488   1.714   2.678
 3200TIP3    H1 9564   4.524   1.701   2.590
 3200TIP3    H2 9565   4.402   1.672   2.675
 3201TIP3   OH2 9566   1.010   1.500   2.572
 3201TIP3    H1 9567   1.080   1.515   2.635
 3201TIP3    H2 9568   0.966   1.585   2.564
 3202TIP3   OH2 9569   1.910   0.794  -0.019
 3202TIP3    H1 9570   1.969   0.740   0.034
 3202TIP3    H2 9571   1.906   0.878   0.027
 3203TIP3   OH2 9572   1.992   2.546   4.252
 3203TIP3    H1 9573   1.989   2.611   4.182
 3203TIP3    H2 9574   1.926   2.576   4.315
 3204TIP3   OH2 9575   1.388   4.993   5.309
 3204TIP3    H1 9576   1.483   4.995   5.315
 3204TIP3    H2 9577   1.361   5.084   5.312
 3205TIP3   OH2 9578   1.067   1.240   2.970
 3205TIP3    H1 9579   1.143   1.247   3.027
 3205TIP3    H2 9580   1.103   1.249   2.881
 3206TIP3   OH2 9581   3.609   2.052   4.648
 3206TIP3    H1 9582   3.622   1.978   4.589
 3206TIP3    H2 9583   3.519   2.080   4.632
 3207TIP3   OH2 9584   2.416   6.257   5.180
 3207TIP3    H1 9585   2.339   6.202   5.174
 3207TIP3    H2 9586   2.464   6.224   5.256
 3208TIP3   OH2 9587   1.997   1.752   0.529
 3208TIP3    H1 9588   1.942   1.814   0.480
 3208TIP3    H2 9589   2.061   1.807   0.574
 3209TIP3   OH2 9590   3.167   1.089   5.867
 3209TIP3    H1 9591   3.204   1.001   5.879
 3209TIP3    H2 9592   3.074   1.078   5.883
 3210TIP3   OH2 9593   6.401   3.973   5.565
 3210TIP3    H1 9594   6.319   3.933   5.536
 3210TIP3    H2 9595   6.455   3.978   5.486
 3211TIP3   OH2 9596   6.449   4.447   0.550
 3211TIP3    H1 9597   6.497   4.497   0.484
 3211TIP3    H2 9598   6.469   4.355   0.530
 3212TIP3   OH2 9599   4.478   6.596   3.595
 3212TIP3    H1 9600   4.523   6.627   3.674
 3212TIP3    H2 9601   4.548   6.573   3.534
 3213TIP3   OH2 9602   3.279   5.435   1.507
 3213TIP3    H1 9603   3.260   5.471   1.421
 3213TIP3    H2 9604   3.362   5.477   1.533
 3214TIP3   OH2 9605   6.926   0.264   3.216
 3214TIP3    H1 9606   6.835   0.292   3.225
 3214TIP3    H2 9607   6.941   0.262   3.122
 3215TIP3   OH2 9608   4.303   2.051   5.861
 3215TIP3    H1 9609   4.262   2.133   5.835
 3215TIP3    H2 9610   4.267   2.032   5.947
 3216TIP3   OH2 9611   1.303   2.828   3.516
 3216TIP3    H1 9612   1.330   2.765   3.450
 3216TIP3    H2 9613   1.362   2.902   3.504
 3217TIP3   OH2 9614   3.557   3.760   0.794
 3217TIP3    H1 9615   3.570   3.684   0.852
 3217TIP3    H2 9616   3.588   3.834   0.846
 3218TIP3   OH2 9617   3.715   3.862   0.154
 3218TIP3    H1 9618   3.639   3.918   0.171
 3218TIP3    H2 9619   3.700   3.785   0.209
 3219TIP3   OH2 9620   3.132   6.489   2.294
 3219TIP3    H1 9621   3.138   6.580   2.323
 3219TIP3    H2 9622   3.180   6.440   2.361
 3220TIP3   OH2 9623   4.131   4.175   4.255
 3220TIP3    H1 9624   4.161   4.265   4.242
 3220TIP3    H2 9625   4.082   4.154   4.176
 3221TIP3   OH2 9626   3.799   5.656   4.049
 3221TIP3    H1 9627   3.795   5.717   3.975
 3221TIP3    H2 9628   3.707   5.637   4.069
 3222TIP3   OH2 9629   3.488   2.094   5.224
 3222TIP3    H1 9630   3.446   2.099   5.138
 3222TIP3    H2 9631   3.433   2.034   5.274
 3223TIP3   OH2 9632   2.919   3.656   1.509
 3223TIP3    H1 9633   2.906   3.693   1.596
 3223TIP3    H2 9634   3.014   3.648   1.500
 3224TIP3   OH2 9635   4.581   4.546   3.781
 3224TIP3    H1 9636   4.670   4.513   3.789
 3224TIP3    H2 9637   4.539   4.525   3.865
 3225TIP3   OH2 9638   7.070   5.759   2.303
 3225TIP3    H1 9639   6.990   5.781   2.351
 3225TIP3    H2 9640   7.070   5.664   2.299
 3226TIP3   OH2 9641   4.925   6.805   5.816
 3226TIP3    H1 9642   4.914   6.860   5.739
 3226TIP3    H2 9643   4.964   6.724   5.783
 3227TIP3   OH2 9644   0.113   3.591   1.396
 3227TIP3    H1 9645   0.147   3.501   1.394
 3227TIP3    H2 9646   0.018   3.580   1.394
 3228TIP3   OH2 9647   1.665   4.793   3.884
 3228TIP3    H1 9648   1.695   4.704   3.905
 3228TIP3    H2 9649   1.570   4.787   3.883
 3229TIP3   OH2 9650   5.163   4.704   1.072
 3229TIP3    H1 9651   5.218   4.633   1.039
 3229TIP3    H2 9652   5.100   4.721   1.001
 3230TIP3   OH2 9653   5.751   2.242   0.819
 3230TIP3    H1 9654   5.723   2.333   0.827
 3230TIP3    H2 9655   5.798   2.239   0.735
 3231TIP3   OH2 9656   3.871   0.375   5.727
 3231TIP3    H1 9657   3.951   0.362   5.779
 3231TIP3    H2 9658   3.805   0.321   5.771
 3232TIP3   OH2 9659   5.658   0.647   2.122
 3232TIP3    H1 9660   5.669   0.671   2.214
 3232TIP3    H2 9661   5.698   0.719   2.073
 3233TIP3   OH2 9662   6.047   4.601   3.865
 3233TIP3    H1 9663   6.116   4.648   3.911
 3233TIP3    H2 9664   6.058   4.626   3.773
 3234TIP3   OH2 9665   3.952   0.406   1.955
 3234TIP3    H1 9666   3.910   0.359   2.027
 3234TIP3    H2 9667   3.897   0.482   1.941
 3235TIP3   OH2 9668   5.595   0.067   3.287
 3235TIP3    H1 9669   5.635   0.068   3.374
 3235TIP3    H2 9670   5.509   0.107   3.300
 3236TIP3   OH2 9671   2.287   3.792   2.477
 3236TIP3    H1 9672   2.314   3.843   2.553
 3236TIP3    H2 9673   2.254   3.710   2.514
 3237TIP3   OH2 9674   7.174   5.130   1.764
 3237TIP3    H1 9675   7.153   5.086   1.846
 3237TIP3    H2 9676   7.115   5.205   1.762
 3238TIP3   OH2 9677   2.326   0.884   4.219
 3238TIP3    H1 9678   2.389   0.817   4.194
 3238TIP3    H2 9679   2.360   0.966   4.182
 3239TIP3   OH2 9680   2.675   2.752   1.338
 3239TIP3    H1 9681   2.734   2.773   1.265
 3239TIP3    H2 9682   2.589   2.781   1.308
 3240TIP3   OH2 9683   0.091   6.085   5.081
 3240TIP3    H1 9684   0.081   6.169   5.124
 3240TIP3    H2 9685   0.009   6.038   5.098
 3241TIP3   OH2 9686   2.163   4.275   3.703
 3241TIP3    H1 9687   2.070   4.251   3.703
 3241TIP3    H2 9688   2.209   4.191   3.692
 3242TIP3   OH2 9689   6.967   3.097   3.671
 3242TIP3    H1 9690   6.915   3.040   3.614
 3242TIP3    H2 9691   7.053   3.100   3.631
 3243TIP3   OH2 9692   6.793   2.416   0.486
 3243TIP3    H1 9693   6.889   2.408   0.487
 3243TIP3    H2 9694   6.775   2.472   0.410
 3244TIP3   OH2 9695   3.250   6.068   1.588
 3244TIP3    H1 9696   3.337   6.039   1.614
 3244TIP3    H2 9697   3.264   6.154   1.549
 3245TIP3   OH2 9698   4.892   5.098   3.875
 3245TIP3    H1 9699   4.830   5.058   3.936
 3245TIP3    H2 9700   4.975   5.053   3.893
 3246TIP3   OH2 9701   4.200   4.727   4.247
 3246TIP3    H1 9702   4.253   4.726   4.167
 3246TIP3    H2 9703   4.263   4.733   4.318
 3247TIP3   OH2 9704   2.061   4.963   1.195
 3247TIP3    H1 9705   2.088   5.003   1.112
 3247TIP3    H2 9706   2.043   4.872   1.174
 3248TIP3   OH2 9707   0.688   3.119   5.608
 3248TIP3    H1 9708   0.726   3.136   5.522
 3248TIP3    H2 9709   0.707   3.198   5.658
 3249TIP3   OH2 9710   3.561   2.415   2.883
 3249TIP3    H1 9711   3.631   2.371   2.835
 3249TIP3    H2 9712   3.544   2.357   2.958
 3250TIP3   OH2 9713   2.601   3.525   4.235
 3250TIP3    H1 9714   2.687   3.561   4.258
 3250TIP3    H2 9715   2.554   3.522   4.319
 3251TIP3   OH2 9716   4.349   5.023   4.987
 3251TIP3    H1 9717   4.419   5.086   4.972
 3251TIP3    H2 9718   4.369   4.951   4.928
 3252TIP3   OH2 9719   1.785   3.669   4.681
 3252TIP3    H1 9720   1.798   3.728   4.607
 3252TIP3    H2 9721   1.791   3.581   4.643
 3253TIP3   OH2 9722   0.472   6.080   2.225
 3253TIP3    H1 9723   0.488   6.081   2.130
 3253TIP3    H2 9724   0.461   5.987   2.247
 3254TIP3   OH2 9725   4.155   6.211   2.244
 3254TIP3    H1 9726   4.249   6.215   2.224
 3254TIP3    H2 9727   4.144   6.130   2.294
 3255TIP3   OH2 9728   0.127   3.540   5.842
 3255TIP3    H1 9729   0.159   3.483   5.771
 3255TIP3    H2 9730   0.192   3.529   5.912
 3256TIP3   OH2 9731   2.052   0.671   0.197
 3256TIP3    H1 9732   2.024   0.603   0.135
 3256TIP3    H2 9733   2.112   0.626   0.257
 3257TIP3   OH2 9734   4.658   2.356   3.463
 3257TIP3    H1 9735   4.599   2.293   3.505
 3257TIP3    H2 9736   4.627   2.361   3.373
 3258TIP3   OH2 9737   4.323   4.644   2.118
 3258TIP3    H1 9738   4.316   4.739   2.109
 3258TIP3    H2 9739   4.371   4.616   2.040
 3259TIP3   OH2 9740   2.244   5.791   3.738
 3259TIP3    H1 9741   2.175   5.727   3.752
 3259TIP3    H2 9742   2.278   5.811   3.825
 3260TIP3   OH2 9743   0.491   5.818   4.827
 3260TIP3    H1 9744   0.531   5.743   4.784
 3260TIP3    H2 9745   0.486   5.793   4.919
 3261TIP3   OH2 9746   5.633   3.490   5.801
 3261TIP3    H1 9747   5.608   3.400   5.823
 3261TIP3    H2 9748   5.610   3.499   5.708
 3262TIP3   OH2 9749   1.208   3.963   5.495
 3262TIP3    H1 9750   1.180   3.976   5.404
 3262TIP3    H2 9751   1.139   3.908   5.534
 3263TIP3   OH2 9752   2.478   1.755   4.204
 3263TIP3    H1 9753   2.479   1.851   4.208
 3263TIP3    H2 9754   2.416   1.734   4.135
 3264TIP3   OH2 9755   4.794   4.405   3.858
 3264TIP3    H1 9756   4.806   4.324   3.809
 3264TIP3    H2 9757   4.790   4.378   3.949
 3265TIP3   OH2 9758   5.127   5.697   4.228
 3265TIP3    H1 9759   5.048   5.744   4.255
 3265TIP3    H2 9760   5.130   5.708   4.133
 3266TIP3   OH2 9761   1.313   1.633   4.100
 3266TIP3    H1 9762   1.374   1.707   4.105
 3266TIP3    H2 9763   1.324   1.599   4.012
 3267TIP3   OH2 9764   2.058   6.684   5.351
 3267TIP3    H1 9765   2.023   6.698   5.263
 3267TIP3    H2 9766   2.009   6.744   5.406
 3268TIP3   OH2 9767   1.129   3.470   5.464
 3268TIP3    H1 9768   1.141   3.426   5.548
 3268TIP3    H2 9769   1.110   3.561   5.488
 3269TIP3   OH2 9770   0.037   0.241   3.806
 3269TIP3    H1 9771   0.048   0.336   3.814
 3269TIP3    H2 9772   0.125   0.206   3.816
 3270TIP3   OH2 9773   2.954   3.381   3.968
 3270TIP3    H1 9774   2.859   3.383   3.970
 3270TIP3    H2 9775   2.981   3.465   4.006
 3271TIP3   OH2 9776   0.245   5.443   2.115
 3271TIP3    H1 9777   0.246   5.398   2.030
 3271TIP3    H2 9778   0.294   5.385   2.173
 3272TIP3   OH2 9779   0.693   0.960   1.677
 3272TIP3    H1 9780   0.630   0.957   1.749
 3272TIP3    H2 9781   0.645   0.923   1.602
 3273TIP3   OH2 9782   4.301   4.165   0.534
 3273TIP3    H1 9783   4.322   4.102   0.465
 3273TIP3    H2 9784   4.209   4.187   0.520
 3274TIP3   OH2 9785   4.167   0.693   3.701
 3274TIP3    H1 9786   4.211   0.661   3.623
 3274TIP3    H2 9787   4.215   0.774   3.724
 3275TIP3   OH2 9788   2.320   0.502   0.116
 3275TIP3    H1 9789   2.263   0.512   0.041
 3275TIP3    H2 9790   2.261   0.496   0.191
 3276TIP3   OH2 9791   3.022   6.736   5.216
 3276TIP3    H1 9792   2.977   6.720   5.132
 3276TIP3    H2 9793   2.952   6.765   5.275
 3277TIP3   OH2 9794   1.055   1.478   1.708
 3277TIP3    H1 9795   0.983   1.450   1.764
 3277TIP3    H2 9796   1.119   1.516   1.769
 3278TIP3   OH2 9797   2.713   0.888   5.321
 3278TIP3    H1 9798   2.629   0.928   5.299
 3278TIP3    H2 9799   2.705   0.797   5.295
 3279TIP3   OH2 9800   1.905   2.042   1.967
 3279TIP3    H1 9801   1.895   2.066   1.874
 3279TIP3    H2 9802   1.974   2.100   1.999
 3280TIP3   OH2 9803   1.192   3.850   4.931
 3280TIP3    H1 9804   1.275   3.899   4.932
 3280TIP3    H2 9805   1.169   3.845   4.839
 3281TIP3   OH2 9806   1.654   1.437   4.908
 3281TIP3    H1 9807   1.718   1.438   4.837
 3281TIP3    H2 9808   1.686   1.370   4.969
 3282TIP3   OH2 9809   7.184   2.272   3.712
 3282TIP3    H1 9810   7.208   2.279   3.805
 3282TIP3    H2 9811   7.225   2.191   3.683
 3283TIP3   OH2 9812   6.015   4.807   5.625
 3283TIP3    H1 9813   6.109   4.802   5.642
 3283TIP3    H2 9814   5.976   4.823   5.711
 3284TIP3   OH2 9815   2.262   2.926   5.212
 3284TIP3    H1 9816   2.182   2.938   5.160
 3284TIP3    H2 9817   2.274   3.010   5.257
 3285TIP3   OH2 9818   1.721   2.936   0.676
 3285TIP3    H1 9819   1.768   3.020   0.667
 3285TIP3    H2 9820   1.789   2.874   0.701
 3286TIP3   OH2 9821   2.788   2.820   3.605
 3286TIP3    H1 9822   2.812   2.760   3.675
 3286TIP3    H2 9823   2.779   2.905   3.648
 3287TIP3   OH2 9824   6.548   6.539   5.188
 3287TIP3    H1 9825   6.500   6.585   5.256
 3287TIP3    H2 9826   6.615   6.601   5.159
 3288TIP3   OH2 9827   1.867   3.314   2.037
 3288TIP3    H1 9828   1.892   3.405   2.054
 3288TIP3    H2 9829   1.851   3.277   2.124
 3289TIP3   OH2 9830   5.396   4.727   5.746
 3289TIP3    H1 9831   5.304   4.718   5.773
 3289TIP3    H2 9832   5.442   4.659   5.795
 3290TIP3   OH2 9833   6.618   2.190   3.130
 3290TIP3    H1 9834   6.572   2.106   3.130
 3290TIP3    H2 9835   6.649   2.199   3.220
 3291TIP3   OH2 9836   0.472   1.799   1.807
 3291TIP3    H1 9837   0.528   1.721   1.812
 3291TIP3    H2 9838   0.494   1.849   1.886
 3292TIP3   OH2 9839   3.567   0.104   2.996
 3292TIP3    H1 9840   3.661   0.085   3.007
 3292TIP3    H2 9841   3.525   0.018   3.000
 3293TIP3   OH2 9842   3.161   4.410   1.227
 3293TIP3    H1 9843   3.230   4.344   1.231
 3293TIP3    H2 9844   3.096   4.372   1.167
 3294TIP3   OH2 9845   0.204   2.324   3.911
 3294TIP3    H1 9846   0.199   2.242   3.962
 3294TIP3    H2 9847   0.283   2.313   3.857
 3295TIP3   OH2 9848   1.131   2.938   0.029
 3295TIP3    H1 9849   1.212   2.910   0.072
 3295TIP3    H2 9850   1.149   3.028   0.001
 3296TIP3   OH2 9851   0.118   6.231   3.367
 3296TIP3    H1 9852   0.183   6.171   3.329
 3296TIP3    H2 9853   0.142   6.317   3.332
 3297TIP3   OH2 9854   3.839   4.296   1.838
 3297TIP3    H1 9855   3.887   4.313   1.757
 3297TIP3    H2 9856   3.766   4.357   1.836
 3298TIP3   OH2 9857   2.603   1.131   1.003
 3298TIP3    H1 9858   2.541   1.074   1.049
 3298TIP3    H2 9859   2.623   1.200   1.067
 3299TIP3   OH2 9860   2.569   1.308   1.240
 3299TIP3    H1 9861   2.598   1.336   1.326
 3299TIP3    H2 9862   2.482   1.347   1.230
 3300TIP3   OH2 9863   1.233   1.110   0.920
 3300TIP3    H1 9864   1.240   1.200   0.888
 3300TIP3    H2 9865   1.318   1.071   0.900
 3301TIP3   OH2 9866   4.488   0.501   5.200
 3301TIP3    H1 9867   4.437   0.419   5.204
 3301TIP3    H2 9868   4.495   0.529   5.292
 3302TIP3   OH2 9869   6.142   0.159   5.114
 3302TIP3    H1 9870   6.187   0.243   5.125
 3302TIP3    H2 9871   6.069   0.163   5.176
 3303TIP3   OH2 9872   3.665   1.467   0.504
 3303TIP3    H1 9873   3.572   1.474   0.485
 3303TIP3    H2 9874   3.703   1.429   0.425
 3304TIP3   OH2 9875   4.265   6.707   0.179
 3304TIP3    H1 9876   4.335   6.696   0.115
 3304TIP3    H2 9877   4.229   6.619   0.190
 3305TIP3   OH2 9878   3.835   4.806   4.387
 3305TIP3    H1 9879   3.917   4.821   4.341
 3305TIP3    H2 9880   3.827   4.880   4.447
 3306TIP3   OH2 9881   3.914   1.260   0.938
 3306TIP3    H1 9882   3.988   1.319   0.945
 3306TIP3    H2 9883   3.858   1.299   0.871
 3307TIP3   OH2 9884   3.565   5.803   4.548
 3307TIP3    H1 9885   3.511   5.882   4.554
 3307TIP3    H2 9886   3.591   5.785   4.638
 3308TIP3   OH2 9887   5.468   6.683   3.039
 3308TIP3    H1 9888   5.460   6.734   3.120
 3308TIP3    H2 9889   5.453   6.747   2.969
 3309TIP3   OH2 9890   6.609   5.834   0.098
 3309TIP3    H1 9891   6.553   5.778   0.151
 3309TIP3    H2 9892   6.551   5.905   0.068
 3310TIP3   OH2 9893   6.628   6.388   0.693
 3310TIP3    H1 9894   6.545   6.346   0.715
 3310TIP3    H2 9895   6.683   6.374   0.770
 3311TIP3   OH2 9896   2.633   0.006   3.267
 3311TIP3    H1 9897   2.718   0.005   3.311
 3311TIP3    H2 9898   2.590   0.085   3.299
 3312TIP3   OH2 9899   6.696   6.866   2.822
 3312TIP3    H1 9900   6.698   6.863   2.726
 3312TIP3    H2 9901   6.721   6.778   2.849
 3313TIP3   OH2 9902   3.419   4.817   0.059
 3313TIP3    H1 9903   3.382   4.784   0.140
 3313TIP3    H2 9904   3.509   4.842   0.081
 3314TIP3   OH2 9905   6.060   2.927   2.571
 3314TIP3    H1 9906   6.089   2.869   2.642
 3314TIP3    H2 9907   5.965   2.931   2.581
 3315TIP3   OH2 9908   0.459   4.336   0.084
 3315TIP3    H1 9909   0.551   4.330   0.059
 3315TIP3    H2 9910   0.452   4.279   0.161
 3316TIP3   OH2 9911   4.447   4.138   2.335
 3316TIP3    H1 9912   4.514   4.199   2.368
 3316TIP3    H2 9913   4.472   4.123   2.244
 3317TIP3   OH2 9914   0.729   1.025   2.186
 3317TIP3    H1 9915   0.740   1.061   2.099
 3317TIP3    H2 9916   0.805   1.054   2.235
 3318TIP3   OH2 9917   4.208   0.681   0.973
 3318TIP3    H1 9918   4.200   0.773   0.949
 3318TIP3    H2 9919   4.302   0.668   0.988
 3319TIP3   OH2 9920   1.089   0.825   0.215
 3319TIP3    H1 9921   1.021   0.889   0.234
 3319TIP3    H2 9922   1.121   0.848   0.127
 3320TIP3   OH2 9923   0.438   3.833   0.139
 3320TIP3    H1 9924   0.514   3.778   0.120
 3320TIP3    H2 9925   0.427   3.827   0.234
 3321TIP3   OH2 9926   6.608   3.311   4.245
 3321TIP3    H1 9927   6.526   3.300   4.196
 3321TIP3    H2 9928   6.674   3.329   4.177
 3322TIP3   OH2 9929   5.061   0.166   1.303
 3322TIP3    H1 9930   5.062   0.081   1.258
 3322TIP3    H2 9931   4.982   0.164   1.357
 3323TIP3   OH2 9932   0.437   0.698   2.663
 3323TIP3    H1 9933   0.509   0.667   2.717
 3323TIP3    H2 9934   0.358   0.669   2.708
 3324TIP3   OH2 9935   1.815   5.533   0.784
 3324TIP3    H1 9936   1.908   5.550   0.803
 3324TIP3    H2 9937   1.776   5.621   0.780
 3325TIP3   OH2 9938   5.741   4.220   1.426
 3325TIP3    H1 9939   5.690   4.301   1.422
 3325TIP3    H2 9940   5.827   4.245   1.394
 3326TIP3   OH2 9941   5.087   0.034   2.067
 3326TIP3    H1 9942   5.100   0.088   2.145
 3326TIP3    H2 9943   5.157   0.061   2.007
 3327TIP3   OH2 9944   3.716   3.308   0.823
 3327TIP3    H1 9945   3.780   3.302   0.752
 3327TIP3    H2 9946   3.660   3.231   0.812
 3328TIP3   OH2 9947   1.223   2.198   3.516
 3328TIP3    H1 9948   1.293   2.216   3.454
 3328TIP3    H2 9949   1.176   2.281   3.524
 3329TIP3   OH2 9950   2.500   0.671   5.771
 3329TIP3    H1 9951   2.430   0.629   5.820
 3329TIP3    H2 9952   2.576   0.615   5.784
 3330TIP3   OH2 9953   4.103   3.543   4.663
 3330TIP3    H1 9954   4.008   3.557   4.659
 3330TIP3    H2 9955   4.134   3.566   4.575
 3331TIP3   OH2 9956   4.802   4.205   1.481
 3331TIP3    H1 9957   4.752   4.142   1.534
 3331TIP3    H2 9958   4.775   4.290   1.515
 3332TIP3   OH2 9959   2.137   6.002   3.150
 3332TIP3    H1 9960   2.101   6.071   3.094
 3332TIP3    H2 9961   2.129   6.036   3.239
 3333TIP3   OH2 9962   0.182   2.104   2.429
 3333TIP3    H1 9963   0.146   2.061   2.506
 3333TIP3    H2 9964   0.122   2.176   2.410
 3334TIP3   OH2 9965   4.822   3.349   0.937
 3334TIP3    H1 9966   4.753   3.398   0.893
 3334TIP3    H2 9967   4.789   3.259   0.941
 3335TIP3   OH2 9968   6.891   0.638   3.431
 3335TIP3    H1 9969   6.912   0.601   3.346
 3335TIP3    H2 9970   6.960   0.702   3.447
 3336TIP3   OH2 9971   0.126   0.560   0.593
 3336TIP3    H1 9972   0.096   0.473   0.565
 3336TIP3    H2 9973   0.065   0.621   0.551
 3337TIP3   OH2 9974   0.536   5.063   5.025
 3337TIP3    H1 9975   0.560   5.000   4.956
 3337TIP3    H2 9976   0.610   5.061   5.085
 3338TIP3   OH2 9977   5.827   2.741   4.409
 3338TIP3    H1 9978   5.806   2.745   4.316
 3338TIP3    H2 9979   5.798   2.826   4.444
 3339TIP3   OH2 9980   2.459   6.665   4.618
 3339TIP3    H1 9981   2.470   6.680   4.712
 3339TIP3    H2 9982   2.476   6.571   4.607
 3340TIP3   OH2 9983   3.861   2.017   0.535
 3340TIP3    H1 9984   3.807   1.938   0.537
 3340TIP3    H2 9985   3.831   2.064   0.457
 3341TIP3   OH2 9986   4.438   1.720   0.499
 3341TIP3    H1 9987   4.433   1.630   0.533
 3341TIP3    H2 9988   4.491   1.767   0.563
 3342TIP3   OH2 9989   5.298   6.825   2.557
 3342TIP3    H1 9990   5.292   6.730   2.548
 3342TIP3    H2 9991   5.389   6.841   2.581
 3343TIP3   OH2 9992   3.434   1.229   4.937
 3343TIP3    H1 9993   3.523   1.192   4.936
 3343TIP3    H2 9994   3.377   1.154   4.918
 3344TIP3   OH2 9995   3.047   2.506   4.484
 3344TIP3    H1 9996   3.011   2.437   4.429
 3344TIP3    H2 9997   2.986   2.513   4.557
 3345TIP3   OH2 9998   6.597   0.841   3.738
 3345TIP3    H1 9999   6.644   0.758   3.745
 3345TIP3    H210000   6.650   0.893   3.678
 3346TIP3   OH210001   6.860   6.741   0.204
 3346TIP3    H110002   6.829   6.676   0.141
 3346TIP3    H210003   6.951   6.716   0.222
 3347TIP3   OH210004   2.661   4.961   2.280
 3347TIP3    H110005   2.687   4.942   2.370
 3347TIP3    H210006   2.683   4.881   2.231
 3348TIP3   OH210007   6.262   0.663   0.399
 3348TIP3    H110008   6.247   0.593   0.336
 3348TIP3    H210009   6.357   0.679   0.395
 3349TIP3   OH210010   0.779   3.514   1.046
 3349TIP3    H110011   0.855   3.545   1.096
 3349TIP3    H210012   0.714   3.584   1.056
 3350TIP3   OH210013   3.412   3.906   4.203
 3350TIP3    H110014   3.403   3.877   4.294
 3350TIP3    H210015   3.498   3.947   4.200
 3351TIP3   OH210016   6.825   1.494   0.815
 3351TIP3    H110017   6.871   1.503   0.899
 3351TIP3    H210018   6.892   1.515   0.750
 3352TIP3   OH210019   0.897   1.220   2.327
 3352TIP3    H110020   0.838   1.295   2.324
 3352TIP3    H210021   0.955   1.232   2.252
 3353TIP3   OH210022   5.882   1.217   3.108
 3353TIP3    H110023   5.846   1.282   3.168
 3353TIP3    H210024   5.946   1.169   3.160
 3354TIP3   OH210025   0.946   2.276   4.316
 3354TIP3    H110026   1.013   2.343   4.303
 3354TIP3    H210027   0.991   2.205   4.362
 3355TIP3   OH210028   3.351   4.417   3.832
 3355TIP3    H110029   3.348   4.497   3.885
 3355TIP3    H210030   3.366   4.347   3.895
 3356TIP3   OH210031   1.481   6.098   1.820
 3356TIP3    H110032   1.517   6.029   1.876
 3356TIP3    H210033   1.557   6.139   1.780
 3357TIP3   OH210034   2.751   0.180   1.395
 3357TIP3    H110035   2.816   0.171   1.465
 3357TIP3    H210036   2.801   0.170   1.314
 3358TIP3   OH210037   3.116   4.108   0.937
 3358TIP3    H110038   3.111   4.116   1.033
 3358TIP3    H210039   3.207   4.128   0.916
 3359TIP3   OH210040   0.780   2.205   3.943
 3359TIP3    H110041   0.756   2.242   3.858
 3359TIP3    H210042   0.702   2.159   3.973
 3360TIP3   OH210043   2.617   6.401   5.565
 3360TIP3    H110044   2.651   6.424   5.478
 3360TIP3    H210045   2.591   6.309   5.557
 3361TIP3   OH210046   6.025   4.617   0.766
 3361TIP3    H110047   6.038   4.697   0.816
 3361TIP3    H210048   5.930   4.601   0.771
 3362TIP3   OH210049   6.623   4.231   5.551
 3362TIP3    H110050   6.569   4.301   5.587
 3362TIP3    H210051   6.572   4.151   5.567
 3363TIP3   OH210052   1.768   0.305   0.219
 3363TIP3    H110053   1.851   0.294   0.172
 3363TIP3    H210054   1.702   0.272   0.159
 3364TIP3   OH210055   6.672   2.588   4.301
 3364TIP3    H110056   6.752   2.636   4.278
 3364TIP3    H210057   6.667   2.518   4.236
 3365TIP3   OH210058   6.142   1.494   0.606
 3365TIP3    H110059   6.132   1.399   0.618
 3365TIP3    H210060   6.055   1.529   0.624
 3366TIP3   OH210061   1.684   1.094   5.556
 3366TIP3    H110062   1.706   1.039   5.481
 3366TIP3    H210063   1.711   1.182   5.530
 3367TIP3   OH210064   4.272   6.345   3.739
 3367TIP3    H110065   4.349   6.391   3.705
 3367TIP3    H210066   4.250   6.392   3.819
 3368TIP3   OH210067   2.839   5.896   4.486
 3368TIP3    H110068   2.910   5.956   4.463
 3368TIP3    H210069   2.849   5.823   4.426
 3369TIP3   OH210070   1.210   0.650   5.301
 3369TIP3    H110071   1.286   0.613   5.255
 3369TIP3    H210072   1.242   0.734   5.335
 3370TIP3   OH210073   5.697   6.584   0.020
 3370TIP3    H110074   5.743   6.609  -0.060
 3370TIP3    H210075   5.605   6.582  -0.005
 3371TIP3   OH210076   6.421   2.599   0.364
 3371TIP3    H110077   6.374   2.622   0.284
 3371TIP3    H210078   6.401   2.670   0.425
 3372TIP3   OH210079   2.580   2.360   3.646
 3372TIP3    H110080   2.543   2.447   3.632
 3372TIP3    H210081   2.581   2.349   3.741
 3373TIP3   OH210082   7.104   1.680   2.842
 3373TIP3    H110083   7.031   1.713   2.894
 3373TIP3    H210084   7.129   1.598   2.884
 3374TIP3   OH210085   5.414   6.578   1.433
 3374TIP3    H110086   5.322   6.605   1.441
 3374TIP3    H210087   5.418   6.493   1.479
 3375TIP3   OH210088   5.171   3.822   0.864
 3375TIP3    H110089   5.264   3.841   0.871
 3375TIP3    H210090   5.160   3.738   0.909
 3376TIP3   OH210091   4.730   3.527   2.526
 3376TIP3    H110092   4.707   3.598   2.586
 3376TIP3    H210093   4.824   3.534   2.514
 3377TIP3   OH210094   6.472   6.076   5.024
 3377TIP3    H110095   6.451   5.991   5.064
 3377TIP3    H210096   6.387   6.112   4.999
 3378TIP3   OH210097   6.124   3.124   4.851
 3378TIP3    H110098   6.102   3.032   4.865
 3378TIP3    H210099   6.104   3.167   4.934
 3379TIP3   OH210100   0.556   0.151   1.248
 3379TIP3    H110101   0.539   0.080   1.187
 3379TIP3    H210102   0.557   0.230   1.194
 3380TIP3   OH210103   6.015   2.582   4.596
 3380TIP3    H110104   6.010   2.487   4.588
 3380TIP3    H210105   5.969   2.615   4.519
 3381TIP3   OH210106   0.252   5.201   3.473
 3381TIP3    H110107   0.186   5.247   3.422
 3381TIP3    H210108   0.335   5.221   3.430
 3382TIP3   OH210109   2.414   3.053   0.883
 3382TIP3    H110110   2.322   3.063   0.859
 3382TIP3    H210111   2.433   3.129   0.937
 3383TIP3   OH210112   2.593   5.170   2.121
 3383TIP3    H110113   2.629   5.108   2.184
 3383TIP3    H210114   2.510   5.132   2.094
 3384TIP3   OH210115   4.635   6.706   0.998
 3384TIP3    H110116   4.720   6.662   1.001
 3384TIP3    H210117   4.655   6.797   1.021
 3385TIP3   OH210118   1.880   2.870   1.000
 3385TIP3    H110119   1.842   2.814   1.068
 3385TIP3    H210120   1.947   2.815   0.959
 3386TIP3   OH210121   2.368   2.697   0.843
 3386TIP3    H110122   2.426   2.677   0.770
 3386TIP3    H210123   2.291   2.643   0.827
 3387TIP3   OH210124   0.134   1.214   5.179
 3387TIP3    H110125   0.046   1.178   5.168
 3387TIP3    H210126   0.178   1.196   5.096
 3388TIP3   OH210127   6.781   4.786   3.294
 3388TIP3    H110128   6.864   4.774   3.248
 3388TIP3    H210129   6.738   4.859   3.249
 3389TIP3   OH210130   0.954   0.459   4.666
 3389TIP3    H110131   0.988   0.456   4.576
 3389TIP3    H210132   0.869   0.415   4.661
 3390TIP3   OH210133   3.161   5.750   0.123
 3390TIP3    H110134   3.137   5.824   0.068
 3390TIP3    H210135   3.254   5.763   0.142
 3391TIP3   OH210136   3.287   0.401   0.528
 3391TIP3    H110137   3.299   0.330   0.465
 3391TIP3    H210138   3.196   0.429   0.518
 3392TIP3   OH210139   4.929   5.755   1.099
 3392TIP3    H110140   4.951   5.711   1.181
 3392TIP3    H210141   4.835   5.769   1.103
 3393TIP3   OH210142   1.042   6.677   3.789
 3393TIP3    H110143   0.971   6.678   3.853
 3393TIP3    H210144   1.025   6.600   3.735
 3394TIP3   OH210145   0.062   1.376   5.772
 3394TIP3    H110146   0.048   1.443   5.838
 3394TIP3    H210147   0.038   1.294   5.815
 3395TIP3   OH210148   0.198   4.519   0.351
 3395TIP3    H110149   0.182   4.608   0.320
 3395TIP3    H210150   0.291   4.518   0.374
 3396TIP3   OH210151   2.549   4.940   4.827
 3396TIP3    H110152   2.616   5.006   4.846
 3396TIP3    H210153   2.562   4.919   4.734
 3397TIP3   OH210154   3.764   3.526   1.896
 3397TIP3    H110155   3.769   3.431   1.907
 3397TIP3    H210156   3.681   3.540   1.850
 3398TIP3   OH210157   1.521   6.376   3.767
 3398TIP3    H110158   1.524   6.322   3.846
 3398TIP3    H210159   1.435   6.417   3.769
 3399TIP3   OH210160   5.605   6.106   5.532
 3399TIP3    H110161   5.676   6.045   5.553
 3399TIP3    H210162   5.533   6.079   5.589
 3400TIP3   OH210163   1.928   1.334   1.809
 3400TIP3    H110164   2.010   1.377   1.783
 3400TIP3    H210165   1.956   1.258   1.860
 3401TIP3   OH210166   2.998   3.608   4.112
 3401TIP3    H110167   3.066   3.604   4.044
 3401TIP3    H210168   3.047   3.603   4.195
 3402TIP3   OH210169   1.464   5.832   2.846
 3402TIP3    H110170   1.435   5.903   2.788
 3402TIP3    H210171   1.414   5.845   2.926
 3403TIP3   OH210172   5.852   0.306   3.745
 3403TIP3    H110173   5.757   0.309   3.756
 3403TIP3    H210174   5.870   0.367   3.673
 3404TIP3   OH210175   5.300   6.006   1.368
 3404TIP3    H110176   5.205   5.999   1.365
 3404TIP3    H210177   5.331   5.916   1.371
 3405TIP3   OH210178   0.835   5.388   5.849
 3405TIP3    H110179   0.791   5.472   5.863
 3405TIP3    H210180   0.900   5.407   5.781
 3406TIP3   OH210181   0.506   3.550   3.046
 3406TIP3    H110182   0.485   3.457   3.046
 3406TIP3    H210183   0.516   3.573   2.954
 3407TIP3   OH210184   1.547   2.904   3.404
 3407TIP3    H110185   1.618   2.841   3.416
 3407TIP3    H210186   1.506   2.878   3.321
 3408TIP3   OH210187   5.866   1.812   0.657
 3408TIP3    H110188   5.895   1.787   0.570
 3408TIP3    H210189   5.804   1.883   0.643
 3409TIP3   OH210190   1.930   0.449   0.889
 3409TIP3    H110191   1.977   0.530   0.867
 3409TIP3    H210192   1.908   0.410   0.804
 3410TIP3   OH210193   5.368   6.295   0.089
 3410TIP3    H110194   5.307   6.223   0.074
 3410TIP3    H210195   5.317   6.373   0.067
 3411TIP3   OH210196   6.160   2.673   5.703
 3411TIP3    H110197   6.245   2.658   5.745
 3411TIP3    H210198   6.174   2.748   5.646
 3412TIP3   OH210199   5.612   2.050   2.568
 3412TIP3    H110200   5.700   2.048   2.532
 3412TIP3    H210201   5.593   2.143   2.579
 3413TIP3   OH210202   1.180   0.480   1.270
 3413TIP3    H110203   1.121   0.508   1.200
 3413TIP3    H210204   1.246   0.427   1.227
 3414TIP3   OH210205   0.638   0.441   1.340
 3414TIP3    H110206   0.633   0.352   1.376
 3414TIP3    H210207   0.693   0.489   1.401
 3415TIP3   OH210208   6.540   0.613   5.022
 3415TIP3    H110209   6.545   0.533   5.074
 3415TIP3    H210210   6.447   0.624   5.004
 3416TIP3   OH210211   0.921   4.747   3.852
 3416TIP3    H110212   0.863   4.801   3.799
 3416TIP3    H210213   0.988   4.807   3.885
 3417TIP3   OH210214   0.051   5.061   2.126
 3417TIP3    H110215   0.057   4.983   2.182
 3417TIP3    H210216  -0.008   5.035   2.055
 3418TIP3   OH210217   7.116   5.691   0.140
 3418TIP3    H110218   7.137   5.633   0.213
 3418TIP3    H210219   7.057   5.640   0.085
 3419TIP3   OH210220   5.494   2.319   4.649
 3419TIP3    H110221   5.478   2.225   4.640
 3419TIP3    H210222   5.506   2.351   4.560
 3420TIP3   OH210223   6.682   2.216   1.571
 3420TIP3    H110224   6.731   2.179   1.644
 3420TIP3    H210225   6.674   2.309   1.591
 3421TIP3   OH210226   5.883   0.482   1.582
 3421TIP3    H110227   5.793   0.507   1.603
 3421TIP3    H210228   5.932   0.564   1.582
 3422TIP3   OH210229   2.731   2.570   2.109
 3422TIP3    H110230   2.762   2.553   2.198
 3422TIP3    H210231   2.682   2.491   2.085
 3423TIP3   OH210232   2.703   1.898   0.916
 3423TIP3    H110233   2.638   1.831   0.934
 3423TIP3    H210234   2.676   1.935   0.832
 3424TIP3   OH210235   0.965   2.552   1.473
 3424TIP3    H110236   0.999   2.589   1.391
 3424TIP3    H210237   1.033   2.570   1.538
 3425TIP3   OH210238   5.004   5.389   0.093
 3425TIP3    H110239   5.052   5.349   0.165
 3425TIP3    H210240   4.972   5.315   0.042
 3426TIP3   OH210241   6.281   2.548   5.008
 3426TIP3    H110242   6.334   2.470   5.024
 3426TIP3    H210243   6.195   2.525   5.042
 3427TIP3   OH210244   5.048   5.183   5.144
 3427TIP3    H110245   4.974   5.244   5.139
 3427TIP3    H210246   5.030   5.118   5.076
 3428TIP3   OH210247   3.638   3.327   5.718
 3428TIP3    H110248   3.628   3.351   5.811
 3428TIP3    H210249   3.594   3.399   5.671
 3429TIP3   OH210250   3.071   1.805   5.603
 3429TIP3    H110251   3.033   1.721   5.579
 3429TIP3    H210252   3.164   1.796   5.582
 3430TIP3   OH210253   1.031   6.226   0.714
 3430TIP3    H110254   1.024   6.307   0.764
 3430TIP3    H210255   1.047   6.254   0.624
 3431TIP3   OH210256   5.425   6.548   5.084
 3431TIP3    H110257   5.466   6.584   5.162
 3431TIP3    H210258   5.342   6.595   5.076
 3432TIP3   OH210259   1.569   3.180   3.531
 3432TIP3    H110260   1.533   3.104   3.485
 3432TIP3    H210261   1.660   3.186   3.501
 3433TIP3   OH210262   5.777   1.394   3.802
 3433TIP3    H110263   5.721   1.408   3.726
 3433TIP3    H210264   5.767   1.475   3.853
 3434TIP3   OH210265   4.789   1.791   4.033
 3434TIP3    H110266   4.804   1.848   3.958
 3434TIP3    H210267   4.694   1.775   4.033
 3435TIP3   OH210268   4.703   0.221   2.339
 3435TIP3    H110269   4.740   0.142   2.377
 3435TIP3    H210270   4.658   0.265   2.411
 3436TIP3   OH210271   5.927   3.997   3.136
 3436TIP3    H110272   5.947   3.992   3.043
 3436TIP3    H210273   5.834   3.976   3.141
 3437TIP3   OH210274   1.229   5.413   1.029
 3437TIP3    H110275   1.228   5.422   0.934
 3437TIP3    H210276   1.194   5.326   1.046
 3438TIP3   OH210277   3.580   6.362   2.741
 3438TIP3    H110278   3.546   6.452   2.739
 3438TIP3    H210279   3.668   6.370   2.777
 3439TIP3   OH210280   0.663   6.704   4.669
 3439TIP3    H110281   0.661   6.784   4.722
 3439TIP3    H210282   0.692   6.734   4.582
 3440TIP3   OH210283   0.517   4.978   3.753
 3440TIP3    H110284   0.520   4.974   3.848
 3440TIP3    H210285   0.560   5.061   3.731
 3441TIP3   OH210286   3.567   1.657   3.941
 3441TIP3    H110287   3.524   1.587   3.990
 3441TIP3    H210288   3.502   1.684   3.876
 3442TIP3   OH210289   6.518   5.194   2.392
 3442TIP3    H110290   6.521   5.099   2.401
 3442TIP3    H210291   6.506   5.209   2.298
 3443TIP3   OH210292   3.749   2.677   1.572
 3443TIP3    H110293   3.715   2.762   1.600
 3443TIP3    H210294   3.697   2.613   1.620
 3444TIP3   OH210295   1.599   3.411   5.418
 3444TIP3    H110296   1.632   3.500   5.409
 3444TIP3    H210297   1.505   3.419   5.403
 3445TIP3   OH210298   4.319   0.292   2.581
 3445TIP3    H110299   4.303   0.294   2.486
 3445TIP3    H210300   4.298   0.203   2.607
 3446TIP3   OH210301   3.932   1.183   2.995
 3446TIP3    H110302   3.884   1.265   3.005
 3446TIP3    H210303   3.931   1.144   3.082
 3447TIP3   OH210304   5.046   0.083   5.067
 3447TIP3    H110305   5.093   0.143   5.125
 3447TIP3    H210306   5.107   0.011   5.051
 3448TIP3   OH210307   3.762   5.310   2.245
 3448TIP3    H110308   3.764   5.299   2.150
 3448TIP3    H210309   3.799   5.398   2.260
 3449TIP3   OH210310   7.125   4.259   1.098
 3449TIP3    H110311   7.220   4.266   1.104
 3449TIP3    H210312   7.101   4.192   1.163
 3450TIP3   OH210313   5.841   2.132   4.792
 3450TIP3    H110314   5.838   2.054   4.848
 3450TIP3    H210315   5.797   2.200   4.843
 3451TIP3   OH210316   2.886   6.659   0.126
 3451TIP3    H110317   2.852   6.622   0.044
 3451TIP3    H210318   2.929   6.585   0.170
 3452TIP3   OH210319   0.227   1.832   1.977
 3452TIP3    H110320   0.184   1.851   2.060
 3452TIP3    H210321   0.156   1.816   1.915
 3453TIP3   OH210322   7.048   1.445   2.996
 3453TIP3    H110323   6.996   1.410   2.923
 3453TIP3    H210324   7.096   1.369   3.030
 3454TIP3   OH210325   1.526   2.452   3.033
 3454TIP3    H110326   1.453   2.465   3.093
 3454TIP3    H210327   1.593   2.514   3.063
 3455TIP3   OH210328   2.942   1.886   5.009
 3455TIP3    H110329   2.954   1.928   4.924
 3455TIP3    H210330   2.972   1.796   4.995
 3456TIP3   OH210331   7.100   0.185   5.409
 3456TIP3    H110332   7.191   0.157   5.394
 3456TIP3    H210333   7.105   0.280   5.415
 3457TIP3   OH210334   2.627   2.788   3.368
 3457TIP3    H110335   2.570   2.819   3.438
 3457TIP3    H210336   2.716   2.795   3.404
 3458TIP3   OH210337   4.125   0.152   5.164
 3458TIP3    H110338   4.113   0.172   5.257
 3458TIP3    H210339   4.117   0.056   5.159
 3459TIP3   OH210340   4.237   4.434   3.867
 3459TIP3    H110341   4.187   4.404   3.791
 3459TIP3    H210342   4.279   4.356   3.901
 3460TIP3   OH210343   0.812   5.308   4.715
 3460TIP3    H110344   0.801   5.348   4.628
 3460TIP3    H210345   0.896   5.341   4.746
 3461TIP3   OH210346   6.064   3.100   2.205
 3461TIP3    H110347   6.070   3.009   2.234
 3461TIP3    H210348   6.108   3.101   2.120
 3462TIP3   OH210349   3.174   3.100   0.591
 3462TIP3    H110350   3.217   3.171   0.544
 3462TIP3    H210351   3.113   3.062   0.528
 3463TIP3   OH210352   5.460   2.604   1.197
 3463TIP3    H110353   5.486   2.530   1.141
 3463TIP3    H210354   5.471   2.681   1.142
 3464TIP3   OH210355   6.051   1.117   5.031
 3464TIP3    H110356   6.121   1.166   5.074
 3464TIP3    H210357   5.972   1.167   5.050
 3465TIP3   OH210358   0.768   2.652   0.773
 3465TIP3    H110359   0.836   2.588   0.748
 3465TIP3    H210360   0.715   2.662   0.695
 3466TIP3   OH210361   1.492   5.137   3.699
 3466TIP3    H110362   1.461   5.169   3.614
 3466TIP3    H210363   1.561   5.074   3.678
 3467TIP3   OH210364   6.260   6.376   0.069
 3467TIP3    H110365   6.321   6.391   0.141
 3467TIP3    H210366   6.187   6.435   0.086
 3468TIP3   OH210367   1.402   6.158   4.296
 3468TIP3    H110368   1.359   6.076   4.320
 3468TIP3    H210369   1.330   6.216   4.273
 3469TIP3   OH210370   3.224   6.201   1.181
 3469TIP3    H110371   3.248   6.294   1.183
 3469TIP3    H210372   3.143   6.196   1.231
 3470TIP3   OH210373   3.510   6.816   2.982
 3470TIP3    H110374   3.469   6.838   2.898
 3470TIP3    H210375   3.444   6.763   3.027
 3471TIP3   OH210376   5.360   5.154   0.448
 3471TIP3    H110377   5.310   5.097   0.505
 3471TIP3    H210378   5.421   5.199   0.506
 3472TIP3   OH210379   6.124   0.033   0.325
 3472TIP3    H110380   6.165   0.110   0.365
 3472TIP3    H210381   6.173   0.020   0.244
 3473TIP3   OH210382   3.505   2.200   3.327
 3473TIP3    H110383   3.581   2.152   3.359
 3473TIP3    H210384   3.534   2.291   3.323
 3474TIP3   OH210385   1.227   1.373   1.523
 3474TIP3    H110386   1.169   1.393   1.597
 3474TIP3    H210387   1.263   1.287   1.544
 3475TIP3   OH210388   6.564   2.671   1.430
 3475TIP3    H110389   6.587   2.680   1.338
 3475TIP3    H210390   6.603   2.747   1.473
 3476TIP3   OH210391   5.444   4.867   2.966
 3476TIP3    H110392   5.514   4.822   2.919
 3476TIP3    H210393   5.483   4.895   3.048
 3477TIP3   OH210394   2.411   4.045   4.097
 3477TIP3    H110395   2.507   4.052   4.101
 3477TIP3    H210396   2.395   3.958   4.061
 3478TIP3   OH210397   6.567   2.489   3.164
 3478TIP3    H110398   6.597   2.502   3.074
 3478TIP3    H210399   6.534   2.399   3.166
 3479TIP3   OH210400   4.788   1.402   3.269
 3479TIP3    H110401   4.817   1.360   3.188
 3479TIP3    H210402   4.777   1.330   3.331
 3480TIP3   OH210403   4.969   3.902   5.455
 3480TIP3    H110404   5.019   3.821   5.457
 3480TIP3    H210405   4.999   3.947   5.376
 3481TIP3   OH210406   0.698   5.473   1.661
 3481TIP3    H110407   0.706   5.450   1.569
 3481TIP3    H210408   0.764   5.542   1.674
 3482TIP3   OH210409   0.761   1.976   4.415
 3482TIP3    H110410   0.824   1.925   4.365
 3482TIP3    H210411   0.707   1.911   4.460
 3483TIP3   OH210412   3.023   6.010   5.762
 3483TIP3    H110413   3.063   6.077   5.818
 3483TIP3    H210414   3.029   6.046   5.673
 3484TIP3   OH210415   6.790   5.440   3.118
 3484TIP3    H110416   6.708   5.398   3.145
 3484TIP3    H210417   6.793   5.427   3.023
 3485TIP3   OH210418   6.782   1.504   5.124
 3485TIP3    H110419   6.859   1.457   5.092
 3485TIP3    H210420   6.750   1.553   5.048
 3486TIP3   OH210421   6.806   4.132   1.282
 3486TIP3    H110422   6.890   4.171   1.309
 3486TIP3    H210423   6.796   4.056   1.339
 3487TIP3   OH210424   3.242   2.943   4.672
 3487TIP3    H110425   3.295   2.910   4.745
 3487TIP3    H210426   3.265   2.885   4.599
 3488TIP3   OH210427   7.089   3.130   0.857
 3488TIP3    H110428   7.120   3.220   0.852
 3488TIP3    H210429   7.155   3.085   0.910
 3489TIP3   OH210430   6.315   2.571   2.547
 3489TIP3    H110431   6.235   2.545   2.502
 3489TIP3    H210432   6.325   2.507   2.617
 3490TIP3   OH210433   3.756   4.673   2.154
 3490TIP3    H110434   3.840   4.629   2.136
 3490TIP3    H210435   3.781   4.762   2.179
 3491TIP3   OH210436   3.208   4.344  -0.002
 3491TIP3    H110437   3.293   4.369  -0.038
 3491TIP3    H210438   3.209   4.376   0.088
 3492TIP3   OH210439   5.854   3.179   4.739
 3492TIP3    H110440   5.813   3.264   4.757
 3492TIP3    H210441   5.937   3.181   4.786
 3493TIP3   OH210442   2.498   4.942   1.992
 3493TIP3    H110443   2.542   4.977   1.915
 3493TIP3    H210444   2.417   4.993   1.999
 3494TIP3   OH210445   4.096   5.776   4.795
 3494TIP3    H110446   4.023   5.716   4.781
 3494TIP3    H210447   4.054   5.860   4.814
 3495TIP3   OH210448   5.999   1.900   2.241
 3495TIP3    H110449   6.044   1.960   2.180
 3495TIP3    H210450   5.969   1.828   2.185
 3496TIP3   OH210451   1.229   6.106   1.960
 3496TIP3    H110452   1.174   6.078   1.887
 3496TIP3    H210453   1.309   6.138   1.919
 3497TIP3   OH210454   2.316   4.292   5.104
 3497TIP3    H110455   2.292   4.336   5.186
 3497TIP3    H210456   2.313   4.362   5.039
 3498TIP3   OH210457   6.035   4.918   3.895
 3498TIP3    H110458   6.096   4.939   3.965
 3498TIP3    H210459   5.959   4.974   3.912
 3499TIP3   OH210460   6.085   6.408   4.531
 3499TIP3    H110461   6.148   6.400   4.604
 3499TIP3    H210462   6.130   6.461   4.466
 3500TIP3   OH210463   2.219   0.595   4.019
 3500TIP3    H110464   2.167   0.650   3.961
 3500TIP3    H210465   2.172   0.595   4.102
 3501TIP3   OH210466   2.525   5.097   3.615
 3501TIP3    H110467   2.490   5.156   3.548
 3501TIP3    H210468   2.577   5.154   3.672
 3502TIP3   OH210469   6.699   5.408   1.744
 3502TIP3    H110470   6.611   5.445   1.752
 3502TIP3    H210471   6.753   5.481   1.714
 3503TIP3   OH210472   4.244   3.379   2.318
 3503TIP3    H110473   4.324   3.423   2.346
 3503TIP3    H210474   4.265   3.341   2.233
 3504TIP3   OH210475   2.093   0.293   4.040
 3504TIP3    H110476   2.028   0.356   4.072
 3504TIP3    H210477   2.096   0.309   3.946
 3505TIP3   OH210478   4.577   5.982   5.635
 3505TIP3    H110479   4.621   6.065   5.656
 3505TIP3    H210480   4.601   5.923   5.706
 3506TIP3   OH210481   5.181   2.776   1.562
 3506TIP3    H110482   5.179   2.868   1.537
 3506TIP3    H210483   5.201   2.730   1.480
 3507TIP3   OH210484   3.367   6.012   2.707
 3507TIP3    H110485   3.431   5.990   2.775
 3507TIP3    H210486   3.299   5.945   2.715
 3508TIP3   OH210487   5.629   4.503   3.559
 3508TIP3    H110488   5.566   4.503   3.632
 3508TIP3    H210489   5.576   4.527   3.483
 3509TIP3   OH210490   6.443   6.383   3.009
 3509TIP3    H110491   6.399   6.312   3.055
 3509TIP3    H210492   6.502   6.421   3.074
 3510TIP3   OH210493   6.421   0.407   5.401
 3510TIP3    H110494   6.494   0.345   5.394
 3510TIP3    H210495   6.456   0.489   5.366
 3511TIP3   OH210496   0.443   5.443   0.210
 3511TIP3    H110497   0.532   5.475   0.220
 3511TIP3    H210498   0.390   5.501   0.265
 3512TIP3   OH210499   4.280   4.442   1.856
 3512TIP3    H110500   4.207   4.491   1.819
 3512TIP3    H210501   4.353   4.504   1.855
 3513TIP3   OH210502   3.012   0.147   5.200
 3513TIP3    H110503   2.962   0.072   5.168
 3513TIP3    H210504   2.972   0.222   5.156
 3514TIP3   OH210505   1.316   0.097   5.105
 3514TIP3    H110506   1.241   0.112   5.048
 3514TIP3    H210507   1.324   0.177   5.156
 3515TIP3   OH210508   7.263   5.784   1.126
 3515TIP3    H110509   7.172   5.754   1.136
 3515TIP3    H210510   7.271   5.805   1.033
 3516TIP3   OH210511   5.336   1.409   1.123
 3516TIP3    H110512   5.352   1.464   1.046
 3516TIP3    H210513   5.337   1.320   1.089
 3517TIP3   OH210514   6.380   6.566   0.218
 3517TIP3    H110515   6.435   6.640   0.195
 3517TIP3    H210516   6.308   6.603   0.268
 3518TIP3   OH210517   5.245   4.025   3.883
 3518TIP3    H110518   5.241   4.003   3.976
 3518TIP3    H210519   5.288   3.949   3.843
 3519TIP3   OH210520   5.104   3.633   1.800
 3519TIP3    H110521   5.114   3.558   1.741
 3519TIP3    H210522   5.144   3.706   1.753
 3520TIP3   OH210523   5.022   1.753   3.829
 3520TIP3    H110524   5.050   1.829   3.779
 3520TIP3    H210525   5.062   1.765   3.915
 3521TIP3   OH210526   2.040   3.794   5.884
 3521TIP3    H110527   2.055   3.778   5.791
 3521TIP3    H210528   2.048   3.708   5.925
 3522TIP3   OH210529   2.405   3.507   2.772
 3522TIP3    H110530   2.407   3.505   2.867
 3522TIP3    H210531   2.404   3.415   2.745
 3523TIP3   OH210532   6.394   0.820   0.611
 3523TIP3    H110533   6.480   0.844   0.647
 3523TIP3    H210534   6.400   0.843   0.518
 3524TIP3   OH210535   0.685   3.639   3.253
 3524TIP3    H110536   0.641   3.724   3.248
 3524TIP3    H210537   0.640   3.585   3.188
 3525TIP3   OH210538   6.731   4.278   4.351
 3525TIP3    H110539   6.653   4.326   4.321
 3525TIP3    H210540   6.804   4.330   4.317
 3526TIP3   OH210541   0.338   5.957   5.154
 3526TIP3    H110542   0.306   5.868   5.170
 3526TIP3    H210543   0.258   6.009   5.141
 3527TIP3   OH210544   0.894   2.826   5.670
 3527TIP3    H110545   0.816   2.786   5.632
 3527TIP3    H210546   0.943   2.753   5.707
 3528TIP3   OH210547   2.219   4.063   2.389
 3528TIP3    H110548   2.178   4.102   2.466
 3528TIP3    H210549   2.243   3.975   2.416
 3529TIP3   OH210550   5.610   1.511   3.588
 3529TIP3    H110551   5.553   1.485   3.515
 3529TIP3    H210552   5.579   1.599   3.611
 3530TIP3   OH210553   0.371  -0.023   4.904
 3530TIP3    H110554   0.388  -0.095   4.843
 3530TIP3    H210555   0.443   0.038   4.890
 3531TIP3   OH210556   0.149   2.582   1.644
 3531TIP3    H110557   0.232   2.616   1.609
 3531TIP3    H210558   0.125   2.511   1.584
 3532TIP3   OH210559   4.069   5.405   1.493
 3532TIP3    H110560   4.004   5.405   1.422
 3532TIP3    H210561   4.133   5.340   1.466
 3533TIP3   OH210562   6.574   2.774   1.172
 3533TIP3    H110563   6.499   2.718   1.154
 3533TIP3    H210564   6.540   2.843   1.229
 3534TIP3   OH210565   7.121   5.024   5.623
 3534TIP3    H110566   7.092   4.934   5.606
 3534TIP3    H210567   7.043   5.068   5.658
 3535TIP3   OH210568   4.685   4.381   2.677
 3535TIP3    H110569   4.769   4.427   2.683
 3535TIP3    H210570   4.684   4.323   2.753
 3536TIP3   OH210571   1.448   3.446   5.054
 3536TIP3    H110572   1.378   3.490   5.006
 3536TIP3    H210573   1.410   3.425   5.139
 3537TIP3   OH210574   6.693   1.300   5.560
 3537TIP3    H110575   6.715   1.366   5.495
 3537TIP3    H210576   6.615   1.334   5.604
 3538TIP3   OH210577   3.573   4.028   5.133
 3538TIP3    H110578   3.627   3.955   5.161
 3538TIP3    H210579   3.588   4.035   5.039
 3539TIP3   OH210580   6.869   0.102   0.009
 3539TIP3    H110581   6.787   0.093  -0.039
 3539TIP3    H210582   6.893   0.013   0.033
 3540TIP3   OH210583   3.130   3.114   1.292
 3540TIP3    H110584   3.137   3.022   1.268
 3540TIP3    H210585   3.220   3.145   1.295
 3541TIP3   OH210586   1.984   3.525   1.081
 3541TIP3    H110587   2.007   3.616   1.062
 3541TIP3    H210588   2.036   3.504   1.159
 3542TIP3   OH210589   3.799   0.294   1.498
 3542TIP3    H110590   3.805   0.200   1.517
 3542TIP3    H210591   3.713   0.304   1.458
 3543TIP3   OH210592   0.722   0.715   3.640
 3543TIP3    H110593   0.640   0.733   3.685
 3543TIP3    H210594   0.695   0.666   3.562
 3544TIP3   OH210595   2.987   5.298   1.141
 3544TIP3    H110596   2.985   5.275   1.234
 3544TIP3    H210597   2.953   5.221   1.096
 3545TIP3   OH210598   3.613   5.255   1.742
 3545TIP3    H110599   3.532   5.203   1.746
 3545TIP3    H210600   3.601   5.311   1.665
 3546TIP3   OH210601   5.480   2.712   1.653
 3546TIP3    H110602   5.400   2.726   1.602
 3546TIP3    H210603   5.543   2.679   1.589
 3547TIP3   OH210604   5.506   2.630   2.224
 3547TIP3    H110605   5.570   2.679   2.275
 3547TIP3    H210606   5.486   2.687   2.150
 3548TIP3   OH210607   3.814   1.639   2.907
 3548TIP3    H110608   3.840   1.640   2.815
 3548TIP3    H210609   3.831   1.549   2.936
 3549TIP3   OH210610   0.641   2.486   3.540
 3549TIP3    H110611   0.621   2.425   3.469
 3549TIP3    H210612   0.563   2.540   3.549
 3550TIP3   OH210613   2.178   5.869   4.600
 3550TIP3    H110614   2.195   5.775   4.601
 3550TIP3    H210615   2.126   5.884   4.680
 3551TIP3   OH210616   3.910   1.811   5.926
 3551TIP3    H110617   3.931   1.768   5.843
 3551TIP3    H210618   3.922   1.905   5.908
 3552TIP3   OH210619   6.183   2.524   2.989
 3552TIP3    H110620   6.175   2.610   3.030
 3552TIP3    H210621   6.170   2.462   3.061
 3553TIP3   OH210622   1.645   4.166   0.692
 3553TIP3    H110623   1.721   4.200   0.740
 3553TIP3    H210624   1.581   4.147   0.760
 3554TIP3   OH210625   6.820   2.141   2.503
 3554TIP3    H110626   6.727   2.124   2.517
 3554TIP3    H210627   6.838   2.220   2.554
 3555TIP3   OH210628   4.042   5.490   4.694
 3555TIP3    H110629   3.950   5.471   4.715
 3555TIP3    H210630   4.081   5.405   4.677
 3556TIP3   OH210631   5.649   3.678   2.763
 3556TIP3    H110632   5.741   3.705   2.766
 3556TIP3    H210633   5.640   3.617   2.836
 3557TIP3   OH210634   6.086   6.597   2.537
 3557TIP3    H110635   6.069   6.560   2.624
 3557TIP3    H210636   5.999   6.609   2.499
 3558TIP3   OH210637   4.759   3.730   4.938
 3558TIP3    H110638   4.773   3.671   4.864
 3558TIP3    H210639   4.784   3.816   4.905
 3559TIP3   OH210640   2.868   3.371   3.534
 3559TIP3    H110641   2.821   3.392   3.453
 3559TIP3    H210642   2.803   3.383   3.603
 3560TIP3   OH210643   2.012   0.931   2.931
 3560TIP3    H110644   2.070   1.007   2.927
 3560TIP3    H210645   1.967   0.941   3.015
 3561TIP3   OH210646   0.051   1.884   2.984
 3561TIP3    H110647  -0.005   1.833   2.926
 3561TIP3    H210648   0.121   1.823   3.010
 3562TIP3   OH210649   6.001   0.899   0.055
 3562TIP3    H110650   5.969   0.887  -0.034
 3562TIP3    H210651   5.926   0.876   0.111
 3563TIP3   OH210652   6.684   0.560   4.434
 3563TIP3    H110653   6.607   0.525   4.389
 3563TIP3    H210654   6.757   0.539   4.376
 3564TIP3   OH210655   2.213   5.238   3.293
 3564TIP3    H110656   2.208   5.144   3.276
 3564TIP3    H210657   2.123   5.262   3.318
 3565TIP3   OH210658   5.122   4.708   5.853
 3565TIP3    H110659   5.087   4.659   5.778
 3565TIP3    H210660   5.089   4.797   5.841
 3566TIP3   OH210661   0.211   6.404   0.169
 3566TIP3    H110662   0.228   6.354   0.090
 3566TIP3    H210663   0.175   6.340   0.231
 3567TIP3   OH210664   7.188   1.088   0.793
 3567TIP3    H110665   7.251   1.055   0.858
 3567TIP3    H210666   7.102   1.066   0.831
 3568TIP3   OH210667   4.012   2.693   0.589
 3568TIP3    H110668   3.994   2.731   0.675
 3568TIP3    H210669   3.940   2.631   0.576
 3569TIP3   OH210670   3.219   4.317   2.141
 3569TIP3    H110671   3.263   4.399   2.161
 3569TIP3    H210672   3.285   4.250   2.155
 3570TIP3   OH210673   0.515   0.950   4.580
 3570TIP3    H110674   0.609   0.967   4.567
 3570TIP3    H210675   0.497   0.981   4.669
 3571TIP3   OH210676   3.346   1.651   5.167
 3571TIP3    H110677   3.387   1.699   5.095
 3571TIP3    H210678   3.367   1.559   5.150
 3572TIP3   OH210679   2.912   6.216   3.807
 3572TIP3    H110680   2.917   6.273   3.731
 3572TIP3    H210681   2.973   6.144   3.788
 3573TIP3   OH210682   1.887   4.138   5.041
 3573TIP3    H110683   1.960   4.131   4.979
 3573TIP3    H210684   1.929   4.154   5.125
 3574TIP3   OH210685   4.041   5.773   1.630
 3574TIP3    H110686   4.082   5.786   1.715
 3574TIP3    H210687   4.028   5.679   1.624
 3575TIP3   OH210688   0.272   4.410   3.189
 3575TIP3    H110689   0.312   4.399   3.275
 3575TIP3    H210690   0.208   4.339   3.183
 3576TIP3   OH210691   1.534   6.311   4.850
 3576TIP3    H110692   1.621   6.275   4.866
 3576TIP3    H210693   1.474   6.248   4.892
 3577TIP3   OH210694   0.791   0.744   4.301
 3577TIP3    H110695   0.813   0.653   4.281
 3577TIP3    H210696   0.789   0.788   4.216
 3578TIP3   OH210697   0.248   1.620   2.697
 3578TIP3    H110698   0.332   1.584   2.723
 3578TIP3    H210699   0.228   1.578   2.613
 3579TIP3   OH210700   4.624   6.693   2.856
 3579TIP3    H110701   4.591   6.740   2.779
 3579TIP3    H210702   4.573   6.729   2.929
 3580TIP3   OH210703   0.735   1.140   1.930
 3580TIP3    H110704   0.723   1.222   1.881
 3580TIP3    H210705   0.676   1.079   1.887
 3581TIP3   OH210706   6.859   1.810   3.119
 3581TIP3    H110707   6.920   1.767   3.178
 3581TIP3    H210708   6.799   1.740   3.091
 3582TIP3   OH210709   5.685   2.013   0.706
 3582TIP3    H110710   5.634   2.064   0.643
 3582TIP3    H210711   5.709   2.076   0.774
 3583TIP3   OH210712   0.516   0.369   1.054
 3583TIP3    H110713   0.481   0.391   0.967
 3583TIP3    H210714   0.595   0.422   1.062
 3584TIP3   OH210715   5.878   2.276   2.330
 3584TIP3    H110716   5.799   2.231   2.298
 3584TIP3    H210717   5.845   2.360   2.362
 3585TIP3   OH210718   6.559   6.497   1.087
 3585TIP3    H110719   6.538   6.407   1.111
 3585TIP3    H210720   6.646   6.512   1.124
 3586TIP3   OH210721   7.200   6.503   0.008
 3586TIP3    H110722   7.278   6.470   0.053
 3586TIP3    H210723   7.225   6.589  -0.024
 3587TIP3   OH210724   6.081   4.346   5.612
 3587TIP3    H110725   6.015   4.301   5.663
 3587TIP3    H210726   6.094   4.430   5.657
 3588TIP3   OH210727   4.220   2.383   4.856
 3588TIP3    H110728   4.197   2.382   4.763
 3588TIP3    H210729   4.313   2.363   4.858
 3589TIP3   OH210730   3.726   2.142   1.920
 3589TIP3    H110731   3.702   2.229   1.953
 3589TIP3    H210732   3.793   2.111   1.980
 3590TIP3   OH210733   7.038   1.658   1.685
 3590TIP3    H110734   7.002   1.746   1.674
 3590TIP3    H210735   6.961   1.602   1.693
 3591TIP3   OH210736   5.835   5.316   0.768
 3591TIP3    H110737   5.920   5.273   0.756
 3591TIP3    H210738   5.808   5.342   0.680
 3592TIP3   OH210739   7.090   4.082   5.428
 3592TIP3    H110740   7.091   4.085   5.333
 3592TIP3    H210741   7.175   4.045   5.452
 3593TIP3   OH210742   1.802   2.914   1.634
 3593TIP3    H110743   1.744   2.841   1.615
 3593TIP3    H210744   1.752   2.970   1.693
 3594TIP3   OH210745   2.711   1.984   4.715
 3594TIP3    H110746   2.711   1.996   4.810
 3594TIP3    H210747   2.631   2.027   4.686
 3595TIP3   OH210748   6.753   5.039   4.693
 3595TIP3    H110749   6.683   4.975   4.709
 3595TIP3    H210750   6.729   5.115   4.746
 3596TIP3   OH210751   2.547   5.729   5.640
 3596TIP3    H110752   2.624   5.720   5.695
 3596TIP3    H210753   2.473   5.710   5.698
 3597TIP3   OH210754   3.549   6.787   3.996
 3597TIP3    H110755   3.522   6.738   4.073
 3597TIP3    H210756   3.504   6.871   4.004
 3598TIP3   OH210757   4.489   5.668   4.463
 3598TIP3    H110758   4.503   5.673   4.368
 3598TIP3    H210759   4.416   5.607   4.474
 3599TIP3   OH210760   0.897   2.919   1.625
 3599TIP3    H110761   0.956   2.994   1.619
 3599TIP3    H210762   0.939   2.851   1.571
 3600TIP3   OH210763   2.312   2.977   2.160
 3600TIP3    H110764   2.358   2.937   2.086
 3600TIP3    H210765   2.381   3.001   2.221
 3601TIP3   OH210766   1.345   2.713   2.193
 3601TIP3    H110767   1.317   2.698   2.283
 3601TIP3    H210768   1.435   2.744   2.201
 3602TIP3   OH210769   0.027   5.367   0.727
 3602TIP3    H110770  -0.036   5.365   0.799
 3602TIP3    H210771  -0.020   5.410   0.656
 3603TIP3   OH210772   0.143   0.804   1.313
 3603TIP3    H110773   0.064   0.843   1.351
 3603TIP3    H210774   0.137   0.711   1.334
 3604TIP3   OH210775   1.774   3.068   2.579
 3604TIP3    H110776   1.767   3.000   2.647
 3604TIP3    H210777   1.692   3.060   2.530
 3605TIP3   OH210778   6.172   3.583   2.645
 3605TIP3    H110779   6.250   3.536   2.676
 3605TIP3    H210780   6.200   3.674   2.638
 3606TIP3   OH210781   4.889   1.180   1.724
 3606TIP3    H110782   4.928   1.131   1.652
 3606TIP3    H210783   4.807   1.135   1.743
 3607TIP3   OH210784   2.326   1.815   1.590
 3607TIP3    H110785   2.304   1.794   1.499
 3607TIP3    H210786   2.260   1.879   1.616
 3608TIP3   OH210787   2.382   0.623   2.815
 3608TIP3    H110788   2.298   0.668   2.827
 3608TIP3    H210789   2.359   0.538   2.778
 3609TIP3   OH210790   6.833   1.869   5.691
 3609TIP3    H110791   6.847   1.797   5.629
 3609TIP3    H210792   6.917   1.881   5.734
 3610TIP3   OH210793   3.175   1.477   4.405
 3610TIP3    H110794   3.266   1.493   4.429
 3610TIP3    H210795   3.165   1.382   4.404
 3611TIP3   OH210796   6.705  -0.043   1.637
 3611TIP3    H110797   6.703   0.033   1.695
 3611TIP3    H210798   6.785  -0.033   1.587
 3612TIP3   OH210799   5.818   1.265   5.056
 3612TIP3    H110800   5.828   1.343   5.000
 3612TIP3    H210801   5.782   1.199   4.997
 3613TIP3   OH210802   6.542   6.309   4.903
 3613TIP3    H110803   6.526   6.223   4.942
 3613TIP3    H210804   6.476   6.366   4.942
 3614TIP3   OH210805   0.793   4.339   3.757
 3614TIP3    H110806   0.735   4.285   3.703
 3614TIP3    H210807   0.821   4.281   3.828
 3615TIP3   OH210808   4.028   4.468   5.086
 3615TIP3    H110809   4.020   4.525   5.162
 3615TIP3    H210810   4.088   4.399   5.115
 3616TIP3   OH210811   4.541   5.630   4.193
 3616TIP3    H110812   4.448   5.651   4.186
 3616TIP3    H210813   4.586   5.709   4.162
 3617TIP3   OH210814   1.026   1.821   2.856
 3617TIP3    H110815   0.984   1.780   2.780
 3617TIP3    H210816   0.967   1.892   2.882
 3618TIP3   OH210817   5.168   1.009   0.148
 3618TIP3    H110818   5.140   0.943   0.085
 3618TIP3    H210819   5.165   0.964   0.232
 3619TIP3   OH210820   6.105   2.379   1.628
 3619TIP3    H110821   6.198   2.357   1.634
 3619TIP3    H210822   6.081   2.409   1.716
 3620TIP3   OH210823   4.660   5.830   1.044
 3620TIP3    H110824   4.566   5.825   1.061
 3620TIP3    H210825   4.667   5.811   0.950
 3621TIP3   OH210826   3.271   6.059   0.940
 3621TIP3    H110827   3.246   6.085   1.029
 3621TIP3    H210828   3.188   6.043   0.896
 3622TIP3   OH210829   6.522   6.462   1.449
 3622TIP3    H110830   6.469   6.424   1.519
 3622TIP3    H210831   6.613   6.452   1.478
 3623TIP3   OH210832   2.400   0.891   0.641
 3623TIP3    H110833   2.426   0.983   0.634
 3623TIP3    H210834   2.385   0.878   0.735
 3624TIP3   OH210835   7.144   0.258   3.462
 3624TIP3    H110836   7.106   0.252   3.374
 3624TIP3    H210837   7.219   0.199   3.460
 3625TIP3   OH210838   0.091   3.802   5.446
 3625TIP3    H110839   0.058   3.780   5.533
 3625TIP3    H210840   0.013   3.814   5.393
 3626TIP3   OH210841   4.245   6.120   4.395
 3626TIP3    H110842   4.258   6.045   4.453
 3626TIP3    H210843   4.166   6.162   4.427
 3627TIP3   OH210844   3.172   2.269   4.331
 3627TIP3    H110845   3.153   2.360   4.307
 3627TIP3    H210846   3.146   2.218   4.254
 3628TIP3   OH210847   3.785   1.870   3.642
 3628TIP3    H110848   3.808   1.820   3.721
 3628TIP3    H210849   3.837   1.950   3.648
 3629TIP3   OH210850   1.713   4.935   3.648
 3629TIP3    H110851   1.703   4.882   3.727
 3629TIP3    H210852   1.689   4.876   3.576
 3630TIP3   OH210853   7.030   2.972   4.444
 3630TIP3    H110854   7.087   3.044   4.413
 3630TIP3    H210855   6.957   3.017   4.486
 3631TIP3   OH210856   6.605   1.552   2.571
 3631TIP3    H110857   6.585   1.554   2.478
 3631TIP3    H210858   6.555   1.478   2.605
 3632TIP3   OH210859   0.358   2.183   5.154
 3632TIP3    H110860   0.444   2.174   5.114
 3632TIP3    H210861   0.364   2.133   5.236
 3633TIP3   OH210862   3.184   6.532   5.293
 3633TIP3    H110863   3.126   6.608   5.288
 3633TIP3    H210864   3.214   6.519   5.203
 3634TIP3   OH210865   0.641   5.528   2.914
 3634TIP3    H110866   0.564   5.477   2.940
 3634TIP3    H210867   0.710   5.463   2.901
 3635TIP3   OH210868   7.204   3.184   3.935
 3635TIP3    H110869   7.236   3.179   4.025
 3635TIP3    H210870   7.217   3.275   3.910
 3636TIP3   OH210871   5.414   3.191   2.714
 3636TIP3    H110872   5.352   3.241   2.767
 3636TIP3    H210873   5.450   3.255   2.653
 3637TIP3   OH210874   3.112   3.829   5.660
 3637TIP3    H110875   3.037   3.804   5.607
 3637TIP3    H210876   3.096   3.921   5.682
 3638TIP3   OH210877   5.275   4.987   5.481
 3638TIP3    H110878   5.209   5.049   5.513
 3638TIP3    H210879   5.325   4.964   5.559
 3639TIP3   OH210880   5.109   4.955   3.944
 3639TIP3    H110881   5.184   4.897   3.929
 3639TIP3    H210882   5.059   4.911   4.013
 3640TIP3   OH210883   1.008   3.919   0.451
 3640TIP3    H110884   0.957   3.867   0.388
 3640TIP3    H210885   1.094   3.877   0.453
 3641TIP3   OH210886   4.380   2.112   3.256
 3641TIP3    H110887   4.408   2.056   3.183
 3641TIP3    H210888   4.320   2.175   3.216
 3642TIP3   OH210889   6.447   1.063   2.096
 3642TIP3    H110890   6.409   1.146   2.067
 3642TIP3    H210891   6.505   1.087   2.168
 3643TIP3   OH210892   4.902   1.661   0.771
 3643TIP3    H110893   4.809   1.662   0.790
 3643TIP3    H210894   4.912   1.720   0.696
 3644TIP3   OH210895   2.632   2.332   2.023
 3644TIP3    H110896   2.538   2.314   2.017
 3644TIP3    H210897   2.670   2.286   1.948
 3645TIP3   OH210898   2.516   1.827   0.383
 3645TIP3    H110899   2.592   1.775   0.411
 3645TIP3    H210900   2.527   1.837   0.288
 3646TIP3   OH210901   1.042   5.062   4.953
 3646TIP3    H110902   1.134   5.086   4.948
 3646TIP3    H210903   1.034   5.008   5.032
 3647TIP3   OH210904   6.058   4.465   2.664
 3647TIP3    H110905   6.005   4.529   2.711
 3647TIP3    H210906   6.001   4.435   2.593
 3648TIP3   OH210907   6.318   1.152   2.512
 3648TIP3    H110908   6.355   1.215   2.450
 3648TIP3    H210909   6.288   1.080   2.457
 3649TIP3   OH210910   2.944   0.974   5.188
 3649TIP3    H110911   2.873   0.932   5.236
 3649TIP3    H210912   2.901   1.015   5.113
 3650TIP3   OH210913   5.676   4.663   5.372
 3650TIP3    H110914   5.769   4.661   5.396
 3650TIP3    H210915   5.661   4.752   5.342
 3651TIP3   OH210916   0.499   2.336   0.145
 3651TIP3    H110917   0.492   2.250   0.103
 3651TIP3    H210918   0.584   2.370   0.115
 3652TIP3   OH210919   3.269   1.234   1.976
 3652TIP3    H110920   3.250   1.161   2.035
 3652TIP3    H210921   3.183   1.263   1.946
 3653TIP3   OH210922   6.638   1.854   2.319
 3653TIP3    H110923   6.729   1.878   2.300
 3653TIP3    H210924   6.586   1.929   2.289
 3654TIP3   OH210925   2.477   3.067   3.286
 3654TIP3    H110926   2.390   3.067   3.326
 3654TIP3    H210927   2.487   2.978   3.251
 3655TIP3   OH210928   4.275   5.035   3.565
 3655TIP3    H110929   4.316   5.026   3.651
 3655TIP3    H210930   4.192   4.988   3.574
 3656TIP3   OH210931   2.330   2.165   5.404
 3656TIP3    H110932   2.412   2.119   5.426
 3656TIP3    H210933   2.317   2.147   5.311
 3657TIP3   OH210934   5.852   2.000   4.241
 3657TIP3    H110935   5.797   1.922   4.239
 3657TIP3    H210936   5.803   2.066   4.192
 3658TIP3   OH210937   0.193   2.562   3.699
 3658TIP3    H110938   0.119   2.563   3.638
 3658TIP3    H210939   0.166   2.501   3.768
 3659TIP3   OH210940   2.985   0.639   4.106
 3659TIP3    H110941   3.008   0.711   4.165
 3659TIP3    H210942   3.061   0.582   4.107
 3660TIP3   OH210943   5.603   0.257   0.616
 3660TIP3    H110944   5.572   0.167   0.615
 3660TIP3    H210945   5.698   0.251   0.627
 3661TIP3   OH210946   2.696   0.086   1.916
 3661TIP3    H110947   2.626   0.058   1.857
 3661TIP3    H210948   2.738   0.159   1.871
 3662TIP3   OH210949   0.075   5.144   3.721
 3662TIP3    H110950   0.149   5.105   3.675
 3662TIP3    H210951   0.000   5.091   3.695
 3663TIP3   OH210952   1.786   1.467   4.661
 3663TIP3    H110953   1.719   1.422   4.609
 3663TIP3    H210954   1.775   1.559   4.639
 3664TIP3   OH210955   6.269   5.710   5.674
 3664TIP3    H110956   6.185   5.736   5.710
 3664TIP3    H210957   6.276   5.617   5.694
 3665TIP3   OH210958   4.526   6.397   1.741
 3665TIP3    H110959   4.448   6.417   1.688
 3665TIP3    H210960   4.595   6.451   1.703
 3666TIP3   OH210961   3.049   4.215   3.617
 3666TIP3    H110962   3.114   4.178   3.677
 3666TIP3    H210963   2.988   4.144   3.600
 3667TIP3   OH210964   4.238   0.475   0.164
 3667TIP3    H110965   4.144   0.457   0.159
 3667TIP3    H210966   4.246   0.567   0.142
 3668TIP3   OH210967   5.146   3.540   2.837
 3668TIP3    H110968   5.202   3.473   2.875
 3668TIP3    H210969   5.173   3.621   2.881
 3669TIP3   OH210970   0.272   3.440   0.453
 3669TIP3    H110971   0.274   3.366   0.393
 3669TIP3    H210972   0.237   3.512   0.401
 3670TIP3   OH210973   2.209   1.875   4.835
 3670TIP3    H110974   2.190   1.871   4.929
 3670TIP3    H210975   2.279   1.811   4.822
 3671TIP3   OH210976   5.410   2.034   4.644
 3671TIP3    H110977   5.336   2.007   4.699
 3671TIP3    H210978   5.474   1.964   4.656
 3672TIP3   OH210979   2.568   1.534   5.800
 3672TIP3    H110980   2.617   1.535   5.718
 3672TIP3    H210981   2.626   1.575   5.864
 3673TIP3   OH210982   2.536   3.813   4.185
 3673TIP3    H110983   2.606   3.865   4.146
 3673TIP3    H210984   2.578   3.730   4.209
 3674TIP3   OH210985   3.028   0.552   1.984
 3674TIP3    H110986   3.074   0.632   1.959
 3674TIP3    H210987   3.024   0.556   2.080
 3675TIP3   OH210988   3.234   1.931   4.969
 3675TIP3    H110989   3.326   1.935   4.943
 3675TIP3    H210990   3.193   1.872   4.906
 3676TIP3   OH210991   1.775   0.312   2.885
 3676TIP3    H110992   1.715   0.289   2.956
 3676TIP3    H210993   1.805   0.227   2.851
 3677TIP3   OH210994   1.039   5.126   1.578
 3677TIP3    H110995   1.009   5.038   1.603
 3677TIP3    H210996   1.124   5.135   1.621
 3678TIP3   OH210997   1.454   0.208   2.710
 3678TIP3    H110998   1.472   0.298   2.738
 3678TIP3    H210999   1.518   0.192   2.641
 3679TIP3   OH211000   6.644   0.805   0.176
 3679TIP3    H111001   6.661   0.717   0.210
 3679TIP3    H211002   6.565   0.834   0.223
 3680TIP3   OH211003   6.135   0.813   1.319
 3680TIP3    H111004   6.092   0.875   1.261
 3680TIP3    H211005   6.112   0.727   1.284
 3681TIP3   OH211006   3.714   6.552   1.946
 3681TIP3    H111007   3.743   6.472   1.988
 3681TIP3    H211008   3.671   6.602   2.016
 3682TIP3   OH211009   5.902   6.159   0.588
 3682TIP3    H111010   5.927   6.215   0.515
 3682TIP3    H211011   5.877   6.076   0.548
 3683TIP3   OH211012   0.772   6.130   5.735
 3683TIP3    H111013   0.792   6.041   5.766
 3683TIP3    H211014   0.830   6.142   5.660
 3684TIP3   OH211015   4.917   1.941   4.331
 3684TIP3    H111016   4.924   2.036   4.333
 3684TIP3    H211017   4.841   1.923   4.276
 3685TIP3   OH211018   4.037   1.476   5.181
 3685TIP3    H111019   3.985   1.497   5.258
 3685TIP3    H211020   3.975   1.485   5.108
 3686TIP3   OH211021   0.848   1.280   5.206
 3686TIP3    H111022   0.772   1.336   5.219
 3686TIP3    H211023   0.918   1.322   5.256
 3687TIP3   OH211024   0.069   0.729   5.452
 3687TIP3    H111025   0.101   0.799   5.395
 3687TIP3    H211026  -0.026   0.745   5.459
 3688TIP3   OH211027   5.262   1.722   0.243
 3688TIP3    H111028   5.267   1.773   0.162
 3688TIP3    H211029   5.343   1.670   0.243
 3689TIP3   OH211030   3.355   2.510   2.514
 3689TIP3    H111031   3.342   2.536   2.605
 3689TIP3    H211032   3.419   2.439   2.518
 3690TIP3   OH211033   4.983   6.214   0.855
 3690TIP3    H111034   4.984   6.227   0.949
 3690TIP3    H211035   5.004   6.300   0.818
 3691TIP3   OH211036   3.400   3.689   0.404
 3691TIP3    H111037   3.396   3.617   0.341
 3691TIP3    H211038   3.486   3.680   0.446
 3692TIP3   OH211039   6.977   5.630   2.963
 3692TIP3    H111040   7.056   5.666   3.005
 3692TIP3    H211041   6.975   5.539   2.992
 3693TIP3   OH211042   3.906   0.825   3.278
 3693TIP3    H111043   3.878   0.823   3.369
 3693TIP3    H211044   3.845   0.885   3.235
 3694TIP3   OH211045   1.487   1.754   0.075
 3694TIP3    H111046   1.522   1.769  -0.013
 3694TIP3    H211047   1.469   1.842   0.109
 3695TIP3   OH211048   6.078   3.810   4.917
 3695TIP3    H111049   6.018   3.880   4.941
 3695TIP3    H211050   6.022   3.744   4.874
 3696TIP3   OH211051   5.772   1.423   4.669
 3696TIP3    H111052   5.756   1.489   4.737
 3696TIP3    H211053   5.729   1.344   4.702
 3697TIP3   OH211054   3.820   0.126   4.499
 3697TIP3    H111055   3.729   0.097   4.504
 3697TIP3    H211056   3.846   0.109   4.408
 3698TIP3   OH211057   6.859   4.558   5.548
 3698TIP3    H111058   6.787   4.532   5.491
 3698TIP3    H211059   6.833   4.529   5.636
 3699TIP3   OH211060   5.521   2.207   5.603
 3699TIP3    H111061   5.592   2.266   5.578
 3699TIP3    H211062   5.559   2.151   5.671
 3700TIP3   OH211063   3.122   3.826   2.079
 3700TIP3    H111064   3.216   3.848   2.078
 3700TIP3    H211065   3.095   3.832   1.987
 3701TIP3   OH211066   1.655   5.084   1.988
 3701TIP3    H111067   1.741   5.051   1.962
 3701TIP3    H211068   1.647   5.061   2.081
 3702TIP3   OH211069   1.064   3.964   2.692
 3702TIP3    H111070   1.102   4.020   2.760
 3702TIP3    H211071   1.021   3.893   2.740
 3703TIP3   OH211072   1.977   4.893   2.343
 3703TIP3    H111073   2.024   4.901   2.259
 3703TIP3    H211074   1.992   4.976   2.387
 3704TIP3   OH211075   3.833   3.378   2.646
 3704TIP3    H111076   3.891   3.448   2.677
 3704TIP3    H211077   3.757   3.425   2.611
 3705TIP3   OH211078   6.674   0.893   0.612
 3705TIP3    H111079   6.726   0.832   0.560
 3705TIP3    H211080   6.695   0.979   0.577
 3706TIP3   OH211081   6.232   0.398   5.170
 3706TIP3    H111082   6.168   0.461   5.206
 3706TIP3    H211083   6.314   0.420   5.214
 3707TIP3   OH211084   4.807   2.984   3.317
 3707TIP3    H111085   4.794   3.031   3.234
 3707TIP3    H211086   4.895   3.008   3.345
 3708TIP3   OH211087   3.756   1.737   0.258
 3708TIP3    H111088   3.844   1.724   0.222
 3708TIP3    H211089   3.771   1.770   0.346
 3709TIP3   OH211090   1.507   4.855   1.936
 3709TIP3    H111091   1.415   4.876   1.919
 3709TIP3    H211092   1.554   4.937   1.921
 3710TIP3   OH211093   6.454   0.516   2.687
 3710TIP3    H111094   6.384   0.574   2.658
 3710TIP3    H211095   6.413   0.462   2.755
 3711TIP3   OH211096   0.316   2.826   3.346
 3711TIP3    H111097   0.325   2.919   3.367
 3711TIP3    H211098   0.222   2.810   3.345
 3712TIP3   OH211099   2.847   5.895   3.753
 3712TIP3    H111100   2.807   5.919   3.836
 3712TIP3    H211101   2.782   5.922   3.687
 3713TIP3   OH211102   4.560   6.015   0.451
 3713TIP3    H111103   4.479   6.003   0.403
 3713TIP3    H211104   4.616   5.942   0.424
 3714TIP3   OH211105   4.187   6.361   4.937
 3714TIP3    H111106   4.213   6.270   4.923
 3714TIP3    H211107   4.204   6.404   4.853
 3715TIP3   OH211108   4.353   3.511   5.017
 3715TIP3    H111109   4.284   3.562   4.974
 3715TIP3    H211110   4.407   3.577   5.061
 3716TIP3   OH211111   1.858   2.211   2.636
 3716TIP3    H111112   1.902   2.130   2.610
 3716TIP3    H211113   1.817   2.190   2.720
 3717TIP3   OH211114   0.222   3.522   4.326
 3717TIP3    H111115   0.206   3.566   4.242
 3717TIP3    H211116   0.247   3.592   4.386
 3718TIP3   OH211117   3.259   4.496   4.479
 3718TIP3    H111118   3.282   4.529   4.392
 3718TIP3    H211119   3.328   4.433   4.500
 3719TIP3   OH211120   2.471   1.726   4.797
 3719TIP3    H111121   2.426   1.661   4.851
 3719TIP3    H211122   2.553   1.744   4.845
 3720TIP3   OH211123   2.172   2.881   4.407
 3720TIP3    H111124   2.179   2.804   4.351
 3720TIP3    H211125   2.205   2.852   4.492
 3721TIP3   OH211126   5.076   1.503   3.999
 3721TIP3    H111127   5.092   1.574   4.060
 3721TIP3    H211128   4.985   1.515   3.971
 3722TIP3   OH211129   0.716   0.389   4.597
 3722TIP3    H111130   0.681   0.369   4.684
 3722TIP3    H211131   0.671   0.468   4.570
 3723TIP3   OH211132   6.043   0.749   2.890
 3723TIP3    H111133   6.130   0.773   2.922
 3723TIP3    H211134   6.029   0.806   2.814
 3724TIP3   OH211135   3.109   4.581   5.851
 3724TIP3    H111136   3.058   4.661   5.838
 3724TIP3    H211137   3.199   4.607   5.832
 3725TIP3   OH211138   4.265   5.606   4.918
 3725TIP3    H111139   4.188   5.552   4.937
 3725TIP3    H211140   4.233   5.670   4.854
 3726TIP3   OH211141   3.826   6.185   3.012
 3726TIP3    H111142   3.868   6.247   3.071
 3726TIP3    H211143   3.850   6.099   3.046
 3727TIP3   OH211144   6.678   1.568   5.369
 3727TIP3    H111145   6.733   1.564   5.291
 3727TIP3    H211146   6.633   1.652   5.362
 3728TIP3   OH211147   4.698   4.918   2.079
 3728TIP3    H111148   4.604   4.907   2.066
 3728TIP3    H211149   4.710   5.013   2.084
 3729TIP3   OH211150   3.905   0.732   4.091
 3729TIP3    H111151   3.995   0.703   4.081
 3729TIP3    H211152   3.852   0.662   4.052
 3730TIP3   OH211153   0.038   2.725   3.347
 3730TIP3    H111154  -0.013   2.722   3.428
 3730TIP3    H211155  -0.027   2.714   3.278
 3731TIP3   OH211156   3.024   2.168   2.328
 3731TIP3    H111157   3.080   2.229   2.375
 3731TIP3    H211158   2.937   2.208   2.328
 3732TIP3   OH211159   4.073   2.169   4.663
 3732TIP3    H111160   4.113   2.242   4.616
 3732TIP3    H211161   3.979   2.180   4.647
 3733TIP3   OH211162   1.956   6.192   4.678
 3733TIP3    H111163   2.027   6.201   4.615
 3733TIP3    H211164   1.924   6.281   4.692
 3734TIP3   OH211165   2.646   2.885   5.469
 3734TIP3    H111166   2.679   2.877   5.559
 3734TIP3    H211167   2.557   2.850   5.473
 3735TIP3   OH211168   1.659   1.255   0.577
 3735TIP3    H111169   1.567   1.244   0.551
 3735TIP3    H211170   1.707   1.253   0.495
 3736TIP3   OH211171   6.286   1.288   1.993
 3736TIP3    H111172   6.280   1.234   1.914
 3736TIP3    H211173   6.196   1.295   2.024
 3737TIP3   OH211174   3.539   4.367   0.806
 3737TIP3    H111175   3.569   4.293   0.753
 3737TIP3    H211176   3.533   4.440   0.745
 3738TIP3   OH211177   4.157   4.584   4.869
 3738TIP3    H111178   4.164   4.523   4.796
 3738TIP3    H211179   4.124   4.531   4.942
 3739TIP3   OH211180   4.982   4.278   5.736
 3739TIP3    H111181   5.008   4.205   5.792
 3739TIP3    H211182   5.021   4.259   5.651
 3740TIP3   OH211183   2.045   5.637   3.223
 3740TIP3    H111184   2.057   5.685   3.140
 3740TIP3    H211185   2.083   5.551   3.206
 3741TIP3   OH211186   2.986   4.299   2.331
 3741TIP3    H111187   3.052   4.301   2.262
 3741TIP3    H211188   2.912   4.253   2.292
 3742TIP3   OH211189   0.537   5.937   3.211
 3742TIP3    H111190   0.632   5.931   3.196
 3742TIP3    H211191   0.517   6.029   3.197
 3743TIP3   OH211192   3.187   3.837   0.287
 3743TIP3    H111193   3.153   3.897   0.354
 3743TIP3    H211194   3.267   3.802   0.325
 3744TIP3   OH211195   5.334   3.609   4.532
 3744TIP3    H111196   5.352   3.518   4.553
 3744TIP3    H211197   5.242   3.610   4.504
 3745TIP3   OH211198   4.236   6.454   4.655
 3745TIP3    H111199   4.158   6.399   4.646
 3745TIP3    H211200   4.206   6.542   4.632
 3746TIP3   OH211201   4.927   5.221   1.231
 3746TIP3    H111202   4.980   5.157   1.278
 3746TIP3    H211203   4.956   5.215   1.140
 3747TIP3   OH211204   1.770   4.730   1.321
 3747TIP3    H111205   1.782   4.718   1.415
 3747TIP3    H211206   1.721   4.812   1.313
 3748TIP3   OH211207   2.400   2.858   3.588
 3748TIP3    H111208   2.367   2.916   3.657
 3748TIP3    H211209   2.464   2.802   3.633
 3749TIP3   OH211210   2.570   3.063   0.528
 3749TIP3    H111211   2.588   3.088   0.619
 3749TIP3    H211212   2.579   3.144   0.478
 3750TIP3   OH211213   4.859   3.696   0.967
 3750TIP3    H111214   4.836   3.645   0.889
 3750TIP3    H211215   4.791   3.764   0.972
 3751TIP3   OH211216   2.868   4.546   2.433
 3751TIP3    H111217   2.792   4.526   2.488
 3751TIP3    H211218   2.918   4.465   2.432
 3752TIP3   OH211219   1.172   1.175   1.166
 3752TIP3    H111220   1.217   1.105   1.213
 3752TIP3    H211221   1.169   1.145   1.076
 3753TIP3   OH211222   5.087   3.842   3.604
 3753TIP3    H111223   5.178   3.828   3.630
 3753TIP3    H211224   5.083   3.811   3.513
 3754TIP3   OH211225   1.361   6.644   0.707
 3754TIP3    H111226   1.388   6.706   0.775
 3754TIP3    H211227   1.444   6.613   0.670
 3755TIP3   OH211228   1.202   5.605   4.341
 3755TIP3    H111229   1.187   5.661   4.265
 3755TIP3    H211230   1.251   5.530   4.306
 3756TIP3   OH211231   6.689   5.267   0.225
 3756TIP3    H111232   6.687   5.209   0.148
 3756TIP3    H211233   6.620   5.234   0.282
 3757TIP3   OH211234   3.382   3.437   2.270
 3757TIP3    H111235   3.399   3.343   2.267
 3757TIP3    H211236   3.445   3.476   2.209
 3758TIP3   OH211237   7.011   1.588   3.264
 3758TIP3    H111238   7.022   1.573   3.358
 3758TIP3    H211239   6.961   1.513   3.233
 3759TIP3   OH211240   1.829   4.657   2.920
 3759TIP3    H111241   1.854   4.586   2.978
 3759TIP3    H211242   1.913   4.691   2.887
 3760TIP3   OH211243   1.322   4.579   4.448
 3760TIP3    H111244   1.313   4.582   4.352
 3760TIP3    H211245   1.409   4.543   4.463
 3761TIP3   OH211246   6.761   2.501   3.374
 3761TIP3    H111247   6.851   2.526   3.353
 3761TIP3    H211248   6.721   2.482   3.289
 3762TIP3   OH211249   5.829   0.459   0.008
 3762TIP3    H111250   5.768   0.387  -0.010
 3762TIP3    H211251   5.788   0.506   0.081
 3763TIP3   OH211252   0.372   5.966   0.533
 3763TIP3    H111253   0.461   5.931   0.527
 3763TIP3    H211254   0.370   6.013   0.616
 3764TIP3   OH211255   0.320   0.364   1.751
 3764TIP3    H111256   0.314   0.371   1.656
 3764TIP3    H211257   0.407   0.398   1.773
 3765TIP3   OH211258   0.628   6.417   0.101
 3765TIP3    H111259   0.686   6.368   0.160
 3765TIP3    H211260   0.549   6.434   0.153
 3766TIP3   OH211261   5.819   1.058   0.359
 3766TIP3    H111262   5.800   0.983   0.304
 3766TIP3    H211263   5.911   1.047   0.384
 3767TIP3   OH211264   5.716   4.774   3.611
 3767TIP3    H111265   5.800   4.790   3.568
 3767TIP3    H211266   5.691   4.686   3.582
 3768TIP3   OH211267   0.063   6.808   5.455
 3768TIP3    H111268  -0.005   6.791   5.391
 3768TIP3    H211269   0.094   6.896   5.435
 3769TIP3   OH211270   6.486   5.821   2.695
 3769TIP3    H111271   6.413   5.845   2.752
 3769TIP3    H211272   6.474   5.728   2.678
 3770TIP3   OH211273   5.798   5.777   2.614
 3770TIP3    H111274   5.858   5.829   2.562
 3770TIP3    H211275   5.806   5.688   2.578
 3771TIP3   OH211276   2.098   0.588   4.278
 3771TIP3    H111277   2.125   0.614   4.366
 3771TIP3    H211278   2.014   0.632   4.265
 3772TIP3   OH211279   4.447   3.863   5.463
 3772TIP3    H111280   4.539   3.840   5.451
 3772TIP3    H211281   4.439   3.951   5.425
 3773TIP3   OH211282   6.755   5.642   4.781
 3773TIP3    H111283   6.800   5.678   4.857
 3773TIP3    H211284   6.674   5.692   4.774
 3774TIP3   OH211285   3.798   1.419   1.580
 3774TIP3    H111286   3.712   1.459   1.592
 3774TIP3    H211287   3.783   1.326   1.595
 3775TIP3   OH211288   1.643   0.284   5.188
 3775TIP3    H111289   1.679   0.213   5.241
 3775TIP3    H211290   1.554   0.296   5.221
 3776TIP3   OH211291   7.061   1.226   4.298
 3776TIP3    H111292   7.047   1.318   4.277
 3776TIP3    H211293   7.015   1.213   4.381
 3777TIP3   OH211294   5.067   6.667   1.242
 3777TIP3    H111295   4.994   6.635   1.188
 3777TIP3    H211296   5.121   6.717   1.180
 3778TIP3   OH211297   1.394   5.740   3.725
 3778TIP3    H111298   1.473   5.769   3.770
 3778TIP3    H211299   1.417   5.654   3.689
 3779TIP3   OH211300   4.429   3.715   2.317
 3779TIP3    H111301   4.510   3.749   2.354
 3779TIP3    H211302   4.410   3.637   2.369
 3780TIP3   OH211303   2.236   2.476   3.806
 3780TIP3    H111304   2.142   2.494   3.796
 3780TIP3    H211305   2.264   2.447   3.720
 3781TIP3   OH211306   1.612   2.522   0.558
 3781TIP3    H111307   1.596   2.614   0.535
 3781TIP3    H211308   1.706   2.509   0.540
 3782TIP3   OH211309   0.654   3.842   5.073
 3782TIP3    H111310   0.683   3.896   5.000
 3782TIP3    H211311   0.559   3.853   5.076
 3783TIP3   OH211312   6.554   6.303   2.415
 3783TIP3    H111313   6.487   6.325   2.480
 3783TIP3    H211314   6.619   6.253   2.464
 3784TIP3   OH211315   2.467   0.675   4.088
 3784TIP3    H111316   2.506   0.635   4.165
 3784TIP3    H211317   2.380   0.635   4.081
 3785TIP3   OH211318   1.414   2.856   0.946
 3785TIP3    H111319   1.415   2.824   0.856
 3785TIP3    H211320   1.412   2.776   1.000
 3786TIP3   OH211321   0.622   0.284   4.121
 3786TIP3    H111322   0.607   0.371   4.084
 3786TIP3    H211323   0.672   0.300   4.201
 3787TIP3   OH211324   4.671   2.007   3.256
 3787TIP3    H111325   4.631   2.083   3.299
 3787TIP3    H211326   4.667   2.027   3.163
 3788TIP3   OH211327   2.897   4.737   3.167
 3788TIP3    H111328   2.920   4.821   3.206
 3788TIP3    H211329   2.975   4.711   3.119
 3789TIP3   OH211330   4.619   0.745   5.111
 3789TIP3    H111331   4.610   0.661   5.155
 3789TIP3    H211332   4.617   0.810   5.182
 3790TIP3   OH211333   1.500   4.090   0.921
 3790TIP3    H111334   1.541   4.021   0.972
 3790TIP3    H211335   1.420   4.111   0.969
 3791TIP3   OH211336   2.849   6.187   1.862
 3791TIP3    H111337   2.828   6.217   1.950
 3791TIP3    H211338   2.927   6.132   1.873
 3792TIP3   OH211339   2.181   0.158   2.694
 3792TIP3    H111340   2.138   0.147   2.779
 3792TIP3    H211341   2.246   0.088   2.691
 3793TIP3   OH211342   2.665   1.641   5.579
 3793TIP3    H111343   2.677   1.736   5.588
 3793TIP3    H211344   2.693   1.622   5.489
 3794TIP3   OH211345   3.308   6.365   5.496
 3794TIP3    H111346   3.325   6.439   5.438
 3794TIP3    H211347   3.225   6.386   5.539
 3795TIP3   OH211348   4.761   0.141   1.761
 3795TIP3    H111349   4.756   0.142   1.857
 3795TIP3    H211350   4.711   0.064   1.735
 3796TIP3   OH211351   6.165   3.357   3.803
 3796TIP3    H111352   6.191   3.449   3.799
 3796TIP3    H211353   6.240   3.309   3.769
 3797TIP3   OH211354   6.519   6.328   3.397
 3797TIP3    H111355   6.425   6.324   3.412
 3797TIP3    H211356   6.556   6.264   3.458
 3798TIP3   OH211357   5.032   0.186   5.559
 3798TIP3    H111358   5.055   0.140   5.640
 3798TIP3    H211359   4.987   0.264   5.589
 3799TIP3   OH211360   0.377   0.719   2.036
 3799TIP3    H111361   0.429   0.644   2.063
 3799TIP3    H211362   0.298   0.681   1.996
 3800TIP3   OH211363   0.605   5.767   0.189
 3800TIP3    H111364   0.679   5.751   0.130
 3800TIP3    H211365   0.529   5.772   0.132
 3801TIP3   OH211366   6.628   3.582   1.075
 3801TIP3    H111367   6.574   3.544   1.145
 3801TIP3    H211368   6.695   3.516   1.058
 3802TIP3   OH211369   6.254   6.319   1.311
 3802TIP3    H111370   6.205   6.372   1.375
 3802TIP3    H211371   6.235   6.360   1.227
 3803TIP3   OH211372   1.030   1.339   5.406
 3803TIP3    H111373   1.000   1.308   5.492
 3803TIP3    H211374   1.111   1.291   5.390
 3804TIP3   OH211375   6.096   2.271   3.810
 3804TIP3    H111376   6.161   2.245   3.875
 3804TIP3    H211377   6.122   2.359   3.785
 3805TIP3   OH211378   4.872   3.051   0.012
 3805TIP3    H111379   4.839   3.017   0.095
 3805TIP3    H211380   4.836   3.140   0.005
 3806TIP3   OH211381   3.862   3.823   2.880
 3806TIP3    H111382   3.894   3.910   2.858
 3806TIP3    H211383   3.846   3.826   2.974
 3807TIP3   OH211384   6.828   6.520   5.373
 3807TIP3    H111385   6.821   6.531   5.278
 3807TIP3    H211386   6.874   6.598   5.403
 3808TIP3   OH211387   5.684   3.209   1.333
 3808TIP3    H111388   5.752   3.275   1.348
 3808TIP3    H211389   5.718   3.129   1.374
 3809TIP3   OH211390   3.586   6.752   2.512
 3809TIP3    H111391   3.605   6.733   2.603
 3809TIP3    H211392   3.672   6.759   2.470
 3810TIP3   OH211393   2.819   0.501   0.619
 3810TIP3    H111394   2.832   0.571   0.684
 3810TIP3    H211395   2.787   0.546   0.541
 3811TIP3   OH211396   4.746   0.341   4.209
 3811TIP3    H111397   4.667   0.392   4.231
 3811TIP3    H211398   4.787   0.324   4.294
 3812TIP3   OH211399   3.904   6.323   2.287
 3812TIP3    H111400   3.986   6.275   2.280
 3812TIP3    H211401   3.844   6.277   2.229
 3813TIP3   OH211402   6.404   4.333   5.343
 3813TIP3    H111403   6.471   4.266   5.355
 3813TIP3    H211404   6.404   4.381   5.427
 3814TIP3   OH211405   1.894   1.199   2.833
 3814TIP3    H111406   1.905   1.267   2.900
 3814TIP3    H211407   1.976   1.150   2.835
 3815TIP3   OH211408   4.253   0.254   4.771
 3815TIP3    H111409   4.265   0.242   4.866
 3815TIP3    H211410   4.160   0.237   4.757
 3816TIP3   OH211411   1.089   6.019   5.763
 3816TIP3    H111412   1.118   6.090   5.707
 3816TIP3    H211413   1.132   5.941   5.728
 3817TIP3   OH211414   0.075   4.288   3.352
 3817TIP3    H111415   0.004   4.274   3.416
 3817TIP3    H211416   0.155   4.270   3.401
 3818TIP3   OH211417   3.625   5.725   3.313
 3818TIP3    H111418   3.695   5.675   3.272
 3818TIP3    H211419   3.661   5.813   3.323
 3819TIP3   OH211420   4.242   1.624   4.151
 3819TIP3    H111421   4.186   1.588   4.082
 3819TIP3    H211422   4.181   1.648   4.221
 3820TIP3   OH211423   0.329   4.445   2.550
 3820TIP3    H111424   0.374   4.370   2.512
 3820TIP3    H211425   0.250   4.408   2.590
 3821TIP3   OH211426   1.439   0.083   1.806
 3821TIP3    H111427   1.411   0.128   1.885
 3821TIP3    H211428   1.363   0.086   1.748
 3822TIP3   OH211429   2.922   6.694   2.239
 3822TIP3    H111430   2.937   6.692   2.144
 3822TIP3    H211431   2.955   6.780   2.266
 3823TIP3   OH211432   5.452   4.961   4.317
 3823TIP3    H111433   5.519   4.967   4.385
 3823TIP3    H211434   5.380   5.014   4.349
 3824TIP3   OH211435   6.019   0.962   5.681
 3824TIP3    H111436   6.070   0.925   5.753
 3824TIP3    H211437   5.943   0.904   5.673
 3825TIP3   OH211438   1.124   2.478   3.577
 3825TIP3    H111439   1.048   2.532   3.555
 3825TIP3    H211440   1.115   2.461   3.670
 3826TIP3   OH211441   0.507   5.966   2.712
 3826TIP3    H111442   0.420   5.947   2.676
 3826TIP3    H211443   0.558   5.887   2.692
 3827TIP3   OH211444   2.051   0.707   0.853
 3827TIP3    H111445   2.089   0.770   0.915
 3827TIP3    H211446   2.075   0.741   0.767
 3828TIP3   OH211447   0.690   1.921   3.792
 3828TIP3    H111448   0.701   1.868   3.871
 3828TIP3    H211449   0.778   1.950   3.770
 3829TIP3   OH211450   1.588   1.128   4.880
 3829TIP3    H111451   1.530   1.056   4.855
 3829TIP3    H211452   1.668   1.113   4.829
 3830TIP3   OH211453   4.311   6.510   1.210
 3830TIP3    H111454   4.384   6.546   1.262
 3830TIP3    H211455   4.281   6.435   1.261
 3831TIP3   OH211456   1.769   3.796   3.067
 3831TIP3    H111457   1.811   3.830   2.988
 3831TIP3    H211458   1.752   3.873   3.121
 3832TIP3   OH211459   4.775   1.536   4.313
 3832TIP3    H111460   4.761   1.472   4.383
 3832TIP3    H211461   4.697   1.592   4.316
 3833TIP3   OH211462   3.415   1.386   5.230
 3833TIP3    H111463   3.440   1.333   5.154
 3833TIP3    H211464   3.494   1.390   5.284
 3834TIP3   OH211465   2.261   3.886   5.083
 3834TIP3    H111466   2.259   3.915   5.174
 3834TIP3    H211467   2.234   3.794   5.087
 3835TIP3   OH211468   0.483   2.256   5.900
 3835TIP3    H111469   0.405   2.300   5.867
 3835TIP3    H211470   0.549   2.325   5.907
 3836TIP3   OH211471   2.845   4.341   3.009
 3836TIP3    H111472   2.829   4.260   3.057
 3836TIP3    H211473   2.907   4.390   3.063
 3837TIP3   OH211474   4.616   3.706   1.616
 3837TIP3    H111475   4.712   3.701   1.607
 3837TIP3    H211476   4.583   3.656   1.541
 3838TIP3   OH211477   6.825   5.896   0.629
 3838TIP3    H111478   6.860   5.853   0.550
 3838TIP3    H211479   6.823   5.989   0.606
 3839TIP3   OH211480   6.962   4.431   4.292
 3839TIP3    H111481   7.020   4.368   4.249
 3839TIP3    H211482   7.022   4.495   4.331
 3840TIP3   OH211483   2.721   4.079   4.764
 3840TIP3    H111484   2.785   4.010   4.781
 3840TIP3    H211485   2.756   4.156   4.807
 3841TIP3   OH211486   2.396   0.244   5.828
 3841TIP3    H111487   2.338   0.250   5.752
 3841TIP3    H211488   2.473   0.198   5.795
 3842TIP3   OH211489   3.359   1.991   1.635
 3842TIP3    H111490   3.330   2.010   1.546
 3842TIP3    H211491   3.452   1.971   1.626
 3843TIP3   OH211492   6.958   1.760   4.909
 3843TIP3    H111493   6.950   1.667   4.930
 3843TIP3    H211494   7.029   1.764   4.845
 3844TIP3   OH211495   5.009   1.129   2.925
 3844TIP3    H111496   5.092   1.107   2.968
 3844TIP3    H211497   5.031   1.139   2.833
 3845TIP3   OH211498   1.284   1.247   3.170
 3845TIP3    H111499   1.315   1.186   3.236
 3845TIP3    H211500   1.349   1.243   3.101
 3846TIP3   OH211501   0.640   5.201   3.647
 3846TIP3    H111502   0.676   5.219   3.560
 3846TIP3    H211503   0.717   5.194   3.704
 3847TIP3   OH211504   1.818   3.874   0.022
 3847TIP3    H111505   1.816   3.802   0.084
 3847TIP3    H211506   1.856   3.837  -0.057
 3848TIP3   OH211507   4.929   5.605   1.904
 3848TIP3    H111508   4.967   5.693   1.905
 3848TIP3    H211509   4.951   5.571   1.818
 3849TIP3   OH211510   5.112   1.823   4.627
 3849TIP3    H111511   5.018   1.808   4.614
 3849TIP3    H211512   5.145   1.742   4.665
 3850TIP3   OH211513   5.554   5.437   4.547
 3850TIP3    H111514   5.599   5.403   4.625
 3850TIP3    H211515   5.466   5.456   4.578
 3851TIP3   OH211516   5.507   1.342   4.947
 3851TIP3    H111517   5.588   1.380   4.982
 3851TIP3    H211518   5.444   1.351   5.018
 3852TIP3   OH211519   0.386   3.003   1.176
 3852TIP3    H111520   0.476   2.969   1.175
 3852TIP3    H211521   0.332   2.924   1.174
 3853TIP3   OH211522   2.468   1.652   1.385
 3853TIP3    H111523   2.545   1.668   1.439
 3853TIP3    H211524   2.467   1.557   1.373
 3854TIP3   OH211525   4.409   4.294   1.647
 3854TIP3    H111526   4.355   4.353   1.700
 3854TIP3    H211527   4.487   4.279   1.700
 3855TIP3   OH211528   1.685   2.665   1.664
 3855TIP3    H111529   1.776   2.638   1.681
 3855TIP3    H211530   1.655   2.606   1.595
 3856TIP3   OH211531   2.386   3.750   5.439
 3856TIP3    H111532   2.448   3.805   5.391
 3856TIP3    H211533   2.346   3.694   5.372
 3857TIP3   OH211534   6.087   4.236   2.338
 3857TIP3    H111535   5.998   4.266   2.355
 3857TIP3    H211536   6.141   4.314   2.352
 3858TIP3   OH211537   5.541   3.837   5.509
 3858TIP3    H111538   5.535   3.868   5.419
 3858TIP3    H211539   5.622   3.874   5.543
 3859TIP3   OH211540   1.219   4.468   4.666
 3859TIP3    H111541   1.266   4.495   4.587
 3859TIP3    H211542   1.152   4.407   4.633
 3860TIP3   OH211543   4.190   5.242   4.651
 3860TIP3    H111544   4.201   5.163   4.598
 3860TIP3    H211545   4.267   5.295   4.632
 3861TIP3   OH211546   2.454   1.212   4.971
 3861TIP3    H111547   2.448   1.292   5.024
 3861TIP3    H211548   2.529   1.227   4.914
 3862TIP3   OH211549   1.447   2.185   1.989
 3862TIP3    H111550   1.375   2.128   1.960
 3862TIP3    H211551   1.413   2.227   2.068
 3863TIP3   OH211552   0.721   4.803   1.695
 3863TIP3    H111553   0.801   4.833   1.652
 3863TIP3    H211554   0.680   4.884   1.728
 3864TIP3   OH211555   5.326   2.838   2.145
 3864TIP3    H111556   5.248   2.833   2.090
 3864TIP3    H211557   5.385   2.898   2.099
 3865TIP3   OH211558   1.117   2.518   4.274
 3865TIP3    H111559   1.117   2.591   4.337
 3865TIP3    H211560   1.165   2.448   4.319
 3866TIP3   OH211561   3.981   3.294   2.153
 3866TIP3    H111562   4.026   3.377   2.138
 3866TIP3    H211563   3.992   3.277   2.247
 3867TIP3   OH211564   6.457   4.164   0.514
 3867TIP3    H111565   6.506   4.135   0.591
 3867TIP3    H211566   6.508   4.132   0.439
 3868TIP3   OH211567   4.674   1.053   0.518
 3868TIP3    H111568   4.734   1.021   0.450
 3868TIP3    H211569   4.598   0.995   0.512
 3869TIP3   OH211570   4.927   3.805   2.887
 3869TIP3    H111571   5.015   3.787   2.919
 3869TIP3    H211572   4.935   3.889   2.842
 3870TIP3   OH211573   6.916   3.389   3.812
 3870TIP3    H111574   6.916   3.294   3.815
 3870TIP3    H211575   6.947   3.410   3.724
 3871TIP3   OH211576   1.331   6.551   5.715
 3871TIP3    H111577   1.383   6.611   5.768
 3871TIP3    H211578   1.394   6.485   5.685
 3872TIP3   OH211579   4.351   2.922   4.812
 3872TIP3    H111580   4.310   2.862   4.749
 3872TIP3    H211581   4.288   2.928   4.884
 3873TIP3   OH211582   0.891   1.010   0.230
 3873TIP3    H111583   0.895   0.997   0.324
 3873TIP3    H211584   0.798   1.024   0.212
 3874TIP3   OH211585   6.517   0.609   0.429
 3874TIP3    H111586   6.503   0.515   0.440
 3874TIP3    H211587   6.610   0.621   0.445
 3875TIP3   OH211588   1.447   0.741   0.838
 3875TIP3    H111589   1.424   0.657   0.878
 3875TIP3    H211590   1.538   0.755   0.863
 3876TIP3   OH211591   1.863   5.183   0.252
 3876TIP3    H111592   1.836   5.249   0.315
 3876TIP3    H211593   1.943   5.146   0.290
 3877TIP3   OH211594   1.968   3.716   2.266
 3877TIP3    H111595   1.890   3.765   2.294
 3877TIP3    H211596   1.987   3.657   2.339
 3878TIP3   OH211597   1.407   5.862   3.136
 3878TIP3    H111598   1.474   5.922   3.169
 3878TIP3    H211599   1.390   5.803   3.209
 3879TIP3   OH211600   5.651   1.921   3.820
 3879TIP3    H111601   5.680   2.003   3.781
 3879TIP3    H211602   5.616   1.946   3.905
 3880TIP3   OH211603   1.064   1.186   2.539
 3880TIP3    H111604   1.066   1.092   2.518
 3880TIP3    H211605   0.987   1.219   2.493
 3881TIP3   OH211606   0.582   1.665   0.423
 3881TIP3    H111607   0.582   1.616   0.341
 3881TIP3    H211608   0.671   1.699   0.432
 3882TIP3   OH211609   3.266   1.192   1.209
 3882TIP3    H111610   3.327   1.119   1.220
 3882TIP3    H211611   3.316   1.269   1.236
 3883TIP3   OH211612   4.946   5.517   0.430
 3883TIP3    H111613   4.906   5.464   0.499
 3883TIP3    H211614   5.027   5.470   0.408
 3884TIP3   OH211615   3.236   6.584   5.015
 3884TIP3    H111616   3.322   6.626   5.021
 3884TIP3    H211617   3.191   6.631   4.945
 3885TIP3   OH211618   1.162   0.936   0.542
 3885TIP3    H111619   1.127   0.917   0.455
 3885TIP3    H211620   1.085   0.959   0.594
 3886TIP3   OH211621   3.414   3.924   0.166
 3886TIP3    H111622   3.325   3.912   0.198
 3886TIP3    H211623   3.425   3.857   0.098
 3887TIP3   OH211624   5.452   6.054   3.597
 3887TIP3    H111625   5.387   6.092   3.655
 3887TIP3    H211626   5.401   6.020   3.523
 3888TIP3   OH211627   1.201   0.091   3.464
 3888TIP3    H111628   1.224   0.000   3.446
 3888TIP3    H211629   1.222   0.104   3.556
 3889TIP3   OH211630   3.944   0.383   0.145
 3889TIP3    H111631   3.893   0.398   0.225
 3889TIP3    H211632   3.979   0.295   0.156
 3890TIP3   OH211633   3.649   4.202   1.628
 3890TIP3    H111634   3.739   4.209   1.659
 3890TIP3    H211635   3.654   4.225   1.535
 3891TIP3   OH211636   3.603   1.020   3.669
 3891TIP3    H111637   3.680   1.033   3.724
 3891TIP3    H211638   3.591   0.926   3.667
 3892TIP3   OH211639   4.686   1.149   2.649
 3892TIP3    H111640   4.707   1.059   2.627
 3892TIP3    H211641   4.653   1.145   2.739
 3893TIP3   OH211642   3.968   0.324   3.837
 3893TIP3    H111643   4.063   0.332   3.844
 3893TIP3    H211644   3.937   0.415   3.840
 3894TIP3   OH211645   5.164   1.173   1.765
 3894TIP3    H111646   5.072   1.170   1.741
 3894TIP3    H211647   5.168   1.126   1.849
 3895TIP3   OH211648   4.829   5.375   5.070
 3895TIP3    H111649   4.815   5.335   4.984
 3895TIP3    H211650   4.850   5.467   5.051
 3896TIP3   OH211651   6.165   5.571   2.667
 3896TIP3    H111652   6.202   5.637   2.607
 3896TIP3    H211653   6.240   5.519   2.695
 3897TIP3   OH211654   3.775   5.865   3.853
 3897TIP3    H111655   3.696   5.917   3.864
 3897TIP3    H211656   3.778   5.846   3.759
 3898TIP3   OH211657   1.396   0.592   3.513
 3898TIP3    H111658   1.420   0.667   3.567
 3898TIP3    H211659   1.321   0.623   3.462
 3899TIP3   OH211660   3.987   1.103   4.078
 3899TIP3    H111661   4.024   1.184   4.044
 3899TIP3    H211662   4.047   1.075   4.147
 3900TIP3   OH211663   4.510   1.323   3.154
 3900TIP3    H111664   4.602   1.313   3.176
 3900TIP3    H211665   4.510   1.369   3.070
 3901TIP3   OH211666  -0.017   3.420   1.061
 3901TIP3    H111667   0.069   3.461   1.065
 3901TIP3    H211668  -0.027   3.393   0.970
 3902TIP3   OH211669   0.509   0.884   4.096
 3902TIP3    H111670   0.446   0.825   4.056
 3902TIP3    H211671   0.461   0.927   4.167
 3903TIP3   OH211672   5.044   3.823   5.107
 3903TIP3    H111673   5.040   3.771   5.027
 3903TIP3    H211674   5.010   3.764   5.175
 3904TIP3   OH211675   6.812   4.028   4.413
 3904TIP3    H111676   6.790   4.118   4.391
 3904TIP3    H211677   6.785   4.018   4.505
 3905TIP3   OH211678   7.063   4.916   1.511
 3905TIP3    H111679   7.100   4.980   1.571
 3905TIP3    H211680   7.132   4.852   1.497
 3906TIP3   OH211681   0.938   2.480   4.053
 3906TIP3    H111682   0.986   2.512   4.129
 3906TIP3    H211683   0.878   2.552   4.031
 3907TIP3   OH211684   2.815   5.396   2.750
 3907TIP3    H111685   2.845   5.333   2.815
 3907TIP3    H211686   2.891   5.414   2.696
 3908TIP3   OH211687   6.186   4.853   1.368
 3908TIP3    H111688   6.250   4.782   1.364
 3908TIP3    H211689   6.101   4.808   1.364
 3909TIP3   OH211690   3.417   3.163   2.980
 3909TIP3    H111691   3.397   3.103   3.051
 3909TIP3    H211692   3.332   3.190   2.945
 3910TIP3   OH211693   5.474   4.965   5.033
 3910TIP3    H111694   5.396   4.939   4.984
 3910TIP3    H211695   5.440   5.004   5.113
 3911TIP3   OH211696   3.516   1.606   1.239
 3911TIP3    H111697   3.467   1.647   1.168
 3911TIP3    H211698   3.507   1.512   1.223
 3912TIP3   OH211699   0.323   4.407   0.681
 3912TIP3    H111700   0.352   4.410   0.590
 3912TIP3    H211701   0.377   4.471   0.727
 3913TIP3   OH211702   5.739   6.587   3.469
 3913TIP3    H111703   5.692   6.664   3.436
 3913TIP3    H211704   5.741   6.598   3.564
 3914TIP3   OH211705   0.089   2.390   0.296
 3914TIP3    H111706   0.013   2.440   0.265
 3914TIP3    H211707   0.157   2.408   0.231
 3915TIP3   OH211708   5.688   4.247   0.025
 3915TIP3    H111709   5.763   4.189   0.030
 3915TIP3    H211710   5.622   4.206   0.081
 3916TIP3   OH211711   4.497   0.469   4.275
 3916TIP3    H111712   4.499   0.412   4.352
 3916TIP3    H211713   4.421   0.439   4.225
 3917TIP3   OH211714   4.111   4.193   4.526
 3917TIP3    H111715   4.083   4.104   4.547
 3917TIP3    H211716   4.099   4.199   4.431
 3918TIP3   OH211717   5.862   3.635   5.788
 3918TIP3    H111718   5.919   3.600   5.857
 3918TIP3    H211719   5.783   3.581   5.793
 3919TIP3   OH211720   1.778   2.876   1.915
 3919TIP3    H111721   1.788   2.815   1.989
 3919TIP3    H211722   1.686   2.866   1.889
 3920TIP3   OH211723   1.941   1.916   5.731
 3920TIP3    H111724   2.004   1.846   5.749
 3920TIP3    H211725   1.991   1.997   5.746
 3921TIP3   OH211726   3.408   3.099   1.612
 3921TIP3    H111727   3.362   3.126   1.532
 3921TIP3    H211728   3.374   3.011   1.631
 3922TIP3   OH211729   2.546   2.743   1.054
 3922TIP3    H111730   2.607   2.681   1.015
 3922TIP3    H211731   2.480   2.758   0.987
 3923TIP3   OH211732   4.484   3.277   4.903
 3923TIP3    H111733   4.450   3.254   4.816
 3923TIP3    H211734   4.439   3.358   4.926
 3924TIP3   OH211735   0.265   3.939   5.634
 3924TIP3    H111736   0.212   4.009   5.596
 3924TIP3    H211737   0.229   3.858   5.598
 3925TIP3   OH211738   5.955   0.524   5.704
 3925TIP3    H111739   5.998   0.593   5.654
 3925TIP3    H211740   5.882   0.568   5.748
 3926TIP3   OH211741   4.545   4.387   4.292
 3926TIP3    H111742   4.455   4.412   4.270
 3926TIP3    H211743   4.536   4.335   4.372
 3927TIP3   OH211744   6.523   1.566   3.511
 3927TIP3    H111745   6.531   1.566   3.416
 3927TIP3    H211746   6.430   1.550   3.528
 3928TIP3   OH211747   2.817   4.043   3.546
 3928TIP3    H111748   2.730   4.083   3.542
 3928TIP3    H211749   2.817   3.995   3.629
 3929TIP3   OH211750   7.000   3.974   1.780
 3929TIP3    H111751   7.076   4.021   1.814
 3929TIP3    H211752   7.037   3.913   1.716
 3930TIP3   OH211753   6.262   3.841   4.463
 3930TIP3    H111754   6.209   3.892   4.402
 3930TIP3    H211755   6.352   3.858   4.437
 3931TIP3   OH211756   5.175   0.852   0.385
 3931TIP3    H111757   5.098   0.796   0.397
 3931TIP3    H211758   5.249   0.798   0.416
 3932TIP3   OH211759   3.094   1.887   2.279
 3932TIP3    H111760   3.157   1.948   2.242
 3932TIP3    H211761   3.038   1.941   2.335
 3933TIP3   OH211762   3.315   0.027   1.144
 3933TIP3    H111763   3.387   0.081   1.110
 3933TIP3    H211764   3.315   0.044   1.238
 3934TIP3   OH211765   4.232   2.109   2.710
 3934TIP3    H111766   4.248   2.171   2.782
 3934TIP3    H211767   4.315   2.062   2.701
 3935TIP3   OH211768   2.262   0.529   3.713
 3935TIP3    H111769   2.186   0.472   3.725
 3935TIP3    H211770   2.309   0.524   3.797
 3936TIP3   OH211771   1.501   3.379   4.709
 3936TIP3    H111772   1.592   3.349   4.715
 3936TIP3    H211773   1.495   3.452   4.770
 3937TIP3   OH211774   5.930   6.335   4.022
 3937TIP3    H111775   6.009   6.370   4.063
 3937TIP3    H211776   5.937   6.240   4.033
 3938TIP3   OH211777   2.263   3.677   3.684
 3938TIP3    H111778   2.258   3.664   3.779
 3938TIP3    H211779   2.184   3.727   3.663
 3939TIP3   OH211780   6.076   6.314   2.444
 3939TIP3    H111781   6.103   6.398   2.481
 3939TIP3    H211782   6.117   6.311   2.358
 3940TIP3   OH211783   0.023   6.556   1.470
 3940TIP3    H111784   0.087   6.488   1.488
 3940TIP3    H211785  -0.018   6.529   1.387
 3941TIP3   OH211786   4.460   3.719   0.625
 3941TIP3    H111787   4.524   3.696   0.558
 3941TIP3    H211788   4.390   3.765   0.577
 3942TIP3   OH211789   0.008   1.238   3.025
 3942TIP3    H111790  -0.030   1.162   2.981
 3942TIP3    H211791   0.102   1.228   3.013
 3943TIP3   OH211792   2.456   1.683   2.244
 3943TIP3    H111793   2.475   1.719   2.157
 3943TIP3    H211794   2.363   1.660   2.240
 3944TIP3   OH211795   0.710   4.034   4.379
 3944TIP3    H111796   0.758   4.056   4.458
 3944TIP3    H211797   0.702   4.117   4.332
 3945TIP3   OH211798   4.590   3.000   5.728
 3945TIP3    H111799   4.537   3.072   5.693
 3945TIP3    H211800   4.662   3.043   5.772
 3946TIP3   OH211801   2.744   1.601   0.741
 3946TIP3    H111802   2.667   1.655   0.760
 3946TIP3    H211803   2.803   1.617   0.815
 3947TIP3   OH211804   7.080   5.858   5.412
 3947TIP3    H111805   7.149   5.921   5.432
 3947TIP3    H211806   7.043   5.835   5.498
 3948TIP3   OH211807   3.526   0.920   4.386
 3948TIP3    H111808   3.614   0.935   4.351
 3948TIP3    H211809   3.526   0.829   4.415
 3949TIP3   OH211810   6.525   5.023   1.777
 3949TIP3    H111811   6.583   5.056   1.709
 3949TIP3    H211812   6.469   4.959   1.732
 3950TIP3   OH211813   6.389   5.500   3.861
 3950TIP3    H111814   6.298   5.513   3.888
 3950TIP3    H211815   6.394   5.407   3.840
 3951TIP3   OH211816   2.907   4.490   1.884
 3951TIP3    H111817   2.864   4.517   1.965
 3951TIP3    H211818   2.991   4.536   1.885
 3952TIP3   OH211819   5.270   0.607   4.873
 3952TIP3    H111820   5.262   0.626   4.967
 3952TIP3    H211821   5.355   0.564   4.865
 3953TIP3   OH211822   3.469   0.683   4.847
 3953TIP3    H111823   3.521   0.603   4.842
 3953TIP3    H211824   3.512   0.744   4.787
 3954TIP3   OH211825   3.611   5.210   3.041
 3954TIP3    H111826   3.695   5.244   3.071
 3954TIP3    H211827   3.631   5.122   3.008
 3955TIP3   OH211828   4.794   5.743   2.487
 3955TIP3    H111829   4.863   5.765   2.549
 3955TIP3    H211830   4.840   5.721   2.406
 3956TIP3   OH211831   1.832   4.566   5.382
 3956TIP3    H111832   1.844   4.529   5.294
 3956TIP3    H211833   1.919   4.601   5.404
 3957TIP3   OH211834   1.836   4.235   3.784
 3957TIP3    H111835   1.751   4.198   3.805
 3957TIP3    H211836   1.822   4.283   3.702
 3958TIP3   OH211837   6.273   3.720   5.756
 3958TIP3    H111838   6.284   3.785   5.826
 3958TIP3    H211839   6.257   3.638   5.802
 3959TIP3   OH211840   4.050   3.561   5.899
 3959TIP3    H111841   3.956   3.558   5.883
 3959TIP3    H211842   4.088   3.576   5.812
 3960TIP3   OH211843   1.214   6.776   5.072
 3960TIP3    H111844   1.184   6.707   5.131
 3960TIP3    H211845   1.138   6.798   5.019
 3961TIP3   OH211846   6.481   4.882   2.722
 3961TIP3    H111847   6.447   4.804   2.765
 3961TIP3    H211848   6.486   4.948   2.791
 3962TIP3   OH211849   3.105   5.276   4.245
 3962TIP3    H111850   3.097   5.229   4.328
 3962TIP3    H211851   3.014   5.293   4.219
 3963TIP3   OH211852   0.371   5.929   4.082
 3963TIP3    H111853   0.430   5.904   4.011
 3963TIP3    H211854   0.426   5.922   4.161
 3964TIP3   OH211855   5.367   5.975   4.032
 3964TIP3    H111856   5.400   6.038   4.096
 3964TIP3    H211857   5.272   5.988   4.033
 3965TIP3   OH211858   2.778   3.339   1.867
 3965TIP3    H111859   2.713   3.398   1.830
 3965TIP3    H211860   2.829   3.394   1.927
 3966TIP3   OH211861   3.770   2.108   5.255
 3966TIP3    H111862   3.803   2.082   5.169
 3966TIP3    H211863   3.675   2.102   5.247
 3967TIP3   OH211864   4.609   4.271   3.207
 3967TIP3    H111865   4.554   4.303   3.135
 3967TIP3    H211866   4.582   4.180   3.219
 3968TIP3   OH211867   1.951   4.153   4.774
 3968TIP3    H111868   1.951   4.249   4.780
 3968TIP3    H211869   2.032   4.126   4.816
 3969TIP3   OH211870   3.754   6.090   0.061
 3969TIP3    H111871   3.715   6.021   0.115
 3969TIP3    H211872   3.747   6.057  -0.028
 3970TIP3   OH211873   1.970   1.313   3.777
 3970TIP3    H111874   2.022   1.349   3.705
 3970TIP3    H211875   2.032   1.264   3.830
 3971TIP3   OH211876   5.511   4.445   2.057
 3971TIP3    H111877   5.600   4.419   2.078
 3971TIP3    H211878   5.461   4.363   2.060
 3972TIP3   OH211879   1.291   6.191   4.639
 3972TIP3    H111880   1.329   6.146   4.715
 3972TIP3    H211881   1.293   6.284   4.664
 3973TIP3   OH211882   4.732   5.704   2.971
 3973TIP3    H111883   4.758   5.795   2.986
 3973TIP3    H211884   4.644   5.710   2.934
 3974TIP3   OH211885   4.402   3.132   5.355
 3974TIP3    H111886   4.329   3.114   5.295
 3974TIP3    H211887   4.420   3.225   5.344
 3975TIP3   OH211888   5.507   6.304   2.777
 3975TIP3    H111889   5.569   6.263   2.717
 3975TIP3    H211890   5.559   6.325   2.855
 3976TIP3   OH211891   6.372   3.524   5.541
 3976TIP3    H111892   6.354   3.591   5.606
 3976TIP3    H211893   6.350   3.442   5.584
 3977TIP3   OH211894   2.226   5.472   3.078
 3977TIP3    H111895   2.299   5.497   3.020
 3977TIP3    H211896   2.260   5.399   3.129
 3978TIP3   OH211897   2.315   4.142   0.308
 3978TIP3    H111898   2.257   4.161   0.382
 3978TIP3    H211899   2.315   4.047   0.302
 3979TIP3   OH211900   5.868   1.524   0.690
 3979TIP3    H111901   5.782   1.493   0.662
 3979TIP3    H211902   5.864   1.619   0.674
 3980TIP3   OH211903   4.788   2.824   1.727
 3980TIP3    H111904   4.728   2.801   1.656
 3980TIP3    H211905   4.773   2.758   1.794
 3981TIP3   OH211906   4.484   4.901   0.546
 3981TIP3    H111907   4.452   4.951   0.621
 3981TIP3    H211908   4.508   4.967   0.481
 3982TIP3   OH211909   6.410   5.238   3.795
 3982TIP3    H111910   6.471   5.287   3.740
 3982TIP3    H211911   6.357   5.188   3.732
 3983TIP3   OH211912   1.121   1.006   4.407
 3983TIP3    H111913   1.182   1.052   4.348
 3983TIP3    H211914   1.035   1.039   4.383
 3984TIP3   OH211915   1.662   0.162   0.753
 3984TIP3    H111916   1.606   0.234   0.783
 3984TIP3    H211917   1.601   0.098   0.716
 3985TIP3   OH211918   4.452   5.927   3.730
 3985TIP3    H111919   4.384   5.908   3.666
 3985TIP3    H211920   4.534   5.915   3.683
 3986TIP3   OH211921   1.390   3.876   1.699
 3986TIP3    H111922   1.301   3.910   1.694
 3986TIP3    H211923   1.383   3.799   1.755
 3987TIP3   OH211924   3.762   1.288   0.276
 3987TIP3    H111925   3.715   1.214   0.237
 3987TIP3    H211926   3.843   1.293   0.226
 3988TIP3   OH211927   4.450   1.422   4.990
 3988TIP3    H111928   4.427   1.444   5.080
 3988TIP3    H211929   4.458   1.326   4.990
 3989TIP3   OH211930   5.186   1.297   0.850
 3989TIP3    H111931   5.259   1.356   0.832
 3989TIP3    H211932   5.224   1.210   0.851
 3990TIP3   OH211933   5.873   6.665   4.302
 3990TIP3    H111934   5.836   6.713   4.228
 3990TIP3    H211935   5.916   6.732   4.355
 3991TIP3   OH211936   4.924   4.412   2.042
 3991TIP3    H111937   4.986   4.473   2.003
 3991TIP3    H211938   4.947   4.327   2.005
 3992TIP3   OH211939   6.928   3.370   0.009
 3992TIP3    H111940   6.970   3.444  -0.035
 3992TIP3    H211941   6.885   3.408   0.085
 3993TIP3   OH211942   2.993   1.253   4.145
 3993TIP3    H111943   3.043   1.232   4.224
 3993TIP3    H211944   2.977   1.168   4.104
 3994TIP3   OH211945   4.838   5.606   0.023
 3994TIP3    H111946   4.905   5.539   0.035
 3994TIP3    H211947   4.777   5.591   0.096
 3995TIP3   OH211948   1.857   0.546   2.643
 3995TIP3    H111949   1.884   0.456   2.656
 3995TIP3    H211950   1.931   0.588   2.600
 3996TIP3   OH211951   1.072   0.605   3.617
 3996TIP3    H111952   1.010   0.647   3.557
 3996TIP3    H211953   1.106   0.530   3.568
 3997TIP3   OH211954   1.074   1.800   4.968
 3997TIP3    H111955   1.011   1.733   4.941
 3997TIP3    H211956   1.044   1.880   4.927
 3998TIP3   OH211957   4.573   1.768   4.586
 3998TIP3    H111958   4.534   1.727   4.508
 3998TIP3    H211959   4.566   1.862   4.568
 3999TIP3   OH211960   5.073   2.224   3.852
 3999TIP3    H111961   5.121   2.165   3.794
 3999TIP3    H211962   5.004   2.262   3.797
 4000TIP3   OH211963   6.024   4.503   5.815
 4000TIP3    H111964   6.044   4.466   5.901
 4000TIP3    H211965   5.949   4.560   5.830
 4001TIP3   OH211966   1.270   0.812   4.591
 4001TIP3    H111967   1.229   0.759   4.659
 4001TIP3    H211968   1.198   0.858   4.550
 4002TIP3   OH211969   1.001   1.698   0.950
 4002TIP3    H111970   1.053   1.642   1.008
 4002TIP3    H211971   1.003   1.653   0.866
 4003TIP3   OH211972   3.603   5.500   0.141
 4003TIP3    H111973   3.582   5.533   0.054
 4003TIP3    H211974   3.697   5.516   0.151
 4004TIP3   OH211975   7.122   6.469   0.916
 4004TIP3    H111976   7.054   6.523   0.878
 4004TIP3    H211977   7.192   6.530   0.939
 4005TIP3   OH211978   4.309   6.032   5.854
 4005TIP3    H111979   4.244   5.990   5.797
 4005TIP3    H211980   4.342   6.106   5.803
 4006TIP3   OH211981   1.998   1.334   0.974
 4006TIP3    H111982   1.974   1.326   1.067
 4006TIP3    H211983   1.975   1.249   0.936
 4007TIP3   OH211984   1.207   3.372   4.830
 4007TIP3    H111985   1.205   3.388   4.736
 4007TIP3    H211986   1.230   3.456   4.869
 4008TIP3   OH211987   1.751   2.819   2.745
 4008TIP3    H111988   1.749   2.724   2.754
 4008TIP3    H211989   1.777   2.851   2.832
 4009TIP3   OH211990   0.326   4.393   5.552
 4009TIP3    H111991   0.386   4.399   5.478
 4009TIP3    H211992   0.250   4.444   5.526
 4010TIP3   OH211993   3.029   2.282   1.800
 4010TIP3    H111994   3.060   2.271   1.710
 4010TIP3    H211995   2.981   2.365   1.798
 4011TIP3   OH211996   5.221   5.988   0.622
 4011TIP3    H111997   5.186   6.017   0.538
 4011TIP3    H211998   5.156   5.928   0.656
 4012TIP3   OH211999   6.026   4.903   2.696
 4012TIP3    H112000   6.026   4.992   2.731
 4012TIP3    H212001   5.994   4.912   2.606
 4013TIP3   OH212002   4.337   0.110   4.100
 4013TIP3    H112003   4.325   0.072   4.187
 4013TIP3    H212004   4.292   0.049   4.041
 4014TIP3   OH212005   2.130   2.263   4.506
 4014TIP3    H112006   2.180   2.247   4.586
 4014TIP3    H212007   2.142   2.184   4.453
 4015TIP3   OH212008   1.005   3.435   3.718
 4015TIP3    H112009   1.070   3.373   3.684
 4015TIP3    H212010   0.936   3.436   3.651
 4016TIP3   OH212011   4.237   5.004   2.559
 4016TIP3    H112012   4.168   4.937   2.558
 4016TIP3    H212013   4.196   5.080   2.600
 4017TIP3   OH212014   1.192   2.334   1.688
 4017TIP3    H112015   1.259   2.268   1.670
 4017TIP3    H212016   1.230   2.416   1.657
 4018TIP3   OH212017   1.231   0.415   1.790
 4018TIP3    H112018   1.224   0.387   1.699
 4018TIP3    H212019   1.205   0.338   1.842
 4019TIP3   OH212020   5.257   5.682   4.764
 4019TIP3    H112021   5.307   5.661   4.843
 4019TIP3    H212022   5.168   5.653   4.784
 4020TIP3   OH212023   6.947   4.550   1.814
 4020TIP3    H112024   6.922   4.560   1.722
 4020TIP3    H212025   7.007   4.622   1.831
 4021TIP3   OH212026   2.888   3.556   2.620
 4021TIP3    H112027   2.812   3.514   2.660
 4021TIP3    H212028   2.879   3.538   2.526
 4022TIP3   OH212029   5.003   0.527   1.985
 4022TIP3    H112030   4.995   0.591   2.056
 4022TIP3    H212031   5.087   0.485   1.999
 4023TIP3   OH212032   2.809   3.780   5.827
 4023TIP3    H112033   2.830   3.859   5.876
 4023TIP3    H212034   2.801   3.810   5.736
 4024TIP3   OH212035   5.638   1.771   4.216
 4024TIP3    H112036   5.649   1.693   4.269
 4024TIP3    H212037   5.558   1.812   4.251
 4025TIP3   OH212038   1.229   4.319   1.598
 4025TIP3    H112039   1.184   4.397   1.630
 4025TIP3    H212040   1.170   4.246   1.620
 4026TIP3   OH212041   3.781   6.716   3.600
 4026TIP3    H112042   3.706   6.763   3.639
 4026TIP3    H212043   3.828   6.783   3.550
 4027TIP3   OH212044   4.027   4.140   5.865
 4027TIP3    H112045   4.112   4.183   5.875
 4027TIP3    H212046   4.023   4.078   5.937
 4028TIP3   OH212047   2.945   3.681   2.929
 4028TIP3    H112048   2.930   3.773   2.954
 4028TIP3    H212049   3.013   3.686   2.861
 4029TIP3   OH212050   6.111   2.768   3.623
 4029TIP3    H112051   6.105   2.765   3.719
 4029TIP3    H212052   6.204   2.781   3.605
 4030TIP3   OH212053   2.140   2.978   0.141
 4030TIP3    H112054   2.088   2.960   0.062
 4030TIP3    H212055   2.187   2.896   0.158
 4031TIP3   OH212056   6.904   2.314   5.431
 4031TIP3    H112057   6.941   2.233   5.394
 4031TIP3    H212058   6.966   2.382   5.407
 4032TIP3   OH212059   0.648   1.466   5.087
 4032TIP3    H112060   0.677   1.402   5.021
 4032TIP3    H212061   0.554   1.454   5.092
 4033TIP3   OH212062   4.004   5.442   2.815
 4033TIP3    H112063   3.921   5.476   2.849
 4033TIP3    H212064   4.022   5.496   2.738
 4034TIP3   OH212065   3.309   1.801   2.891
 4034TIP3    H112066   3.233   1.858   2.884
 4034TIP3    H212067   3.298   1.738   2.820
 4035TIP3   OH212068   2.288   5.471   3.939
 4035TIP3    H112069   2.365   5.427   3.902
 4035TIP3    H212070   2.230   5.484   3.864
 4036TIP3   OH212071   1.160   6.341   3.985
 4036TIP3    H112072   1.210   6.408   3.939
 4036TIP3    H212073   1.185   6.259   3.942
 4037TIP3   OH212074   5.850   5.322   2.238
 4037TIP3    H112075   5.878   5.245   2.189
 4037TIP3    H212076   5.929   5.374   2.249
 4038TIP3   OH212077   1.380   3.742   2.620
 4038TIP3    H112078   1.347   3.740   2.530
 4038TIP3    H212079   1.365   3.654   2.653
 4039TIP3   OH212080   4.092   3.097   5.782
 4039TIP3    H112081   4.015   3.080   5.837
 4039TIP3    H212082   4.066   3.172   5.729
 4040TIP3   OH212083   2.677   3.348   2.352
 4040TIP3    H112084   2.694   3.283   2.420
 4040TIP3    H212085   2.752   3.408   2.357
 4041TIP3   OH212086   5.659   3.189   2.380
 4041TIP3    H112087   5.710   3.134   2.320
 4041TIP3    H212088   5.718   3.261   2.402
 4042TIP3   OH212089   4.916   2.173   0.781
 4042TIP3    H112090   4.964   2.154   0.700
 4042TIP3    H212091   4.835   2.122   0.772
 4043TIP3   OH212092   1.261   1.622   1.823
 4043TIP3    H112093   1.275   1.691   1.888
 4043TIP3    H212094   1.295   1.658   1.741
 4044TIP3   OH212095   0.566   0.818   1.473
 4044TIP3    H112096   0.629   0.791   1.406
 4044TIP3    H212097   0.484   0.832   1.425
 4045TIP3   OH212098   0.421   0.583   5.625
 4045TIP3    H112099   0.419   0.668   5.581
 4045TIP3    H212100   0.512   0.571   5.651
 4046TIP3   OH212101   5.600   1.799   4.651
 4046TIP3    H112102   5.686   1.831   4.623
 4046TIP3    H212103   5.566   1.753   4.574
 4047TIP3   OH212104   1.644   6.143   2.121
 4047TIP3    H112105   1.723   6.094   2.140
 4047TIP3    H212106   1.578   6.107   2.181
 4048TIP3   OH212107   0.093   0.064   0.478
 4048TIP3    H112108   0.049   0.014   0.408
 4048TIP3    H212109   0.186   0.048   0.464
 4049TIP3   OH212110   5.646   0.588   0.193
 4049TIP3    H112111   5.558   0.556   0.175
 4049TIP3    H212112   5.654   0.585   0.289
 4050TIP3   OH212113   6.610   4.024   2.875
 4050TIP3    H112114   6.658   3.959   2.823
 4050TIP3    H212115   6.525   4.032   2.831
 4051TIP3   OH212116   2.309   0.546   5.914
 4051TIP3    H112117   2.276   0.623   5.961
 4051TIP3    H212118   2.240   0.526   5.851
 4052TIP3   OH212119   2.225   3.413   2.216
 4052TIP3    H112120   2.296   3.359   2.181
 4052TIP3    H212121   2.159   3.350   2.246
 4053TIP3   OH212122   1.628   5.606   0.426
 4053TIP3    H112123   1.574   5.528   0.419
 4053TIP3    H212124   1.584   5.660   0.492
 4054TIP3   OH212125   1.302   2.049   0.671
 4054TIP3    H112126   1.322   2.059   0.764
 4054TIP3    H212127   1.309   2.138   0.635
 4055TIP3   OH212128   5.037   0.124   1.655
 4055TIP3    H112129   5.088   0.153   1.731
 4055TIP3    H212130   4.954   0.170   1.663
 4056TIP3   OH212131   4.208   3.181   1.679
 4056TIP3    H112132   4.118   3.169   1.709
 4056TIP3    H212133   4.254   3.102   1.706
 4057TIP3   OH212134   3.988   3.570   2.106
 4057TIP3    H112135   4.001   3.665   2.102
 4057TIP3    H212136   3.913   3.555   2.049
 4058TIP3   OH212137   4.881   5.655   5.018
 4058TIP3    H112138   4.920   5.675   5.103
 4058TIP3    H212139   4.860   5.741   4.981
 4059TIP3   OH212140   5.993   5.156   5.239
 4059TIP3    H112141   6.005   5.247   5.210
 4059TIP3    H212142   6.080   5.117   5.233
 4060TIP3   OH212143   0.156   0.602   4.717
 4060TIP3    H112144   0.086   0.598   4.651
 4060TIP3    H212145   0.163   0.512   4.749
 4061TIP3   OH212146   0.983   6.437   4.549
 4061TIP3    H112147   0.988   6.354   4.596
 4061TIP3    H212148   1.001   6.503   4.616
 4062TIP3   OH212149   3.240   4.736   1.674
 4062TIP3    H112150   3.199   4.807   1.625
 4062TIP3    H212151   3.249   4.770   1.763
 4063TIP3   OH212152   4.103   6.067   4.950
 4063TIP3    H112153   4.041   6.008   4.993
 4063TIP3    H212154   4.168   6.086   5.018
 4064TIP3   OH212155   1.465   0.858   1.503
 4064TIP3    H112156   1.447   0.909   1.424
 4064TIP3    H212157   1.499   0.922   1.566
 4065TIP3   OH212158   5.008   1.006   3.635
 4065TIP3    H112159   5.040   1.090   3.602
 4065TIP3    H212160   5.065   0.941   3.595
 4066TIP3   OH212161   3.649   6.496   0.070
 4066TIP3    H112162   3.705   6.501  -0.007
 4066TIP3    H212163   3.607   6.582   0.074
 4067TIP3   OH212164   2.514   5.627   5.374
 4067TIP3    H112165   2.525   5.686   5.449
 4067TIP3    H212166   2.439   5.662   5.327
 4068TIP3   OH212167   3.142   3.506   4.977
 4068TIP3    H112168   3.154   3.600   4.987
 4068TIP3    H212169   3.146   3.471   5.066
 4069TIP3   OH212170   2.260   5.593   4.604
 4069TIP3    H112171   2.261   5.570   4.511
 4069TIP3    H212172   2.230   5.513   4.648
 4070TIP3   OH212173   3.906   4.042   1.540
 4070TIP3    H112174   3.873   4.088   1.463
 4070TIP3    H212175   3.971   3.981   1.505
 4071TIP3   OH212176   6.427   6.040   3.145
 4071TIP3    H112177   6.347   6.093   3.147
 4071TIP3    H212178   6.402   5.957   3.187
 4072TIP3   OH212179   5.645   5.163   1.457
 4072TIP3    H112180   5.578   5.178   1.524
 4072TIP3    H212181   5.604   5.194   1.376
 4073TIP3   OH212182   5.158   5.198   1.049
 4073TIP3    H112183   5.154   5.292   1.029
 4073TIP3    H212184   5.152   5.156   0.963
 4074TIP3   OH212185   3.223   1.340   3.811
 4074TIP3    H112186   3.315   1.326   3.790
 4074TIP3    H212187   3.218   1.432   3.836
 4075TIP3   OH212188   1.576   5.036   0.086
 4075TIP3    H112189   1.558   5.130   0.075
 4075TIP3    H212190   1.506   5.005   0.143
 4076TIP3   OH212191   6.788   6.166   0.318
 4076TIP3    H112192   6.789   6.247   0.266
 4076TIP3    H212193   6.816   6.193   0.405
 4077TIP3   OH212194   4.922   4.265   0.955
 4077TIP3    H112195   4.905   4.233   1.044
 4077TIP3    H212196   4.955   4.188   0.908
 4078TIP3   OH212197   3.107   1.997   4.444
 4078TIP3    H112198   3.130   2.085   4.415
 4078TIP3    H212199   3.184   1.944   4.424
 4079TIP3   OH212200   6.562   3.798   5.179
 4079TIP3    H112201   6.485   3.768   5.132
 4079TIP3    H212202   6.633   3.741   5.151
 4080TIP3   OH212203   0.551   4.411   5.101
 4080TIP3    H112204   0.476   4.446   5.052
 4080TIP3    H212205   0.587   4.343   5.045
 4081TIP3   OH212206   1.695   5.731   2.227
 4081TIP3    H112207   1.693   5.713   2.133
 4081TIP3    H212208   1.782   5.702   2.255
 4082TIP3   OH212209   7.096   4.910   4.008
 4082TIP3    H112210   7.149   4.852   3.952
 4082TIP3    H212211   7.076   4.857   4.085
 4083TIP3   OH212212   5.034   6.124   4.286
 4083TIP3    H112213   5.023   6.143   4.379
 4083TIP3    H212214   5.092   6.192   4.254
 4084TIP3   OH212215   2.667   2.023   4.162
 4084TIP3    H112216   2.745   2.075   4.180
 4084TIP3    H212217   2.656   2.027   4.067
 4085TIP3   OH212218   4.384   0.955   2.981
 4085TIP3    H112219   4.470   0.954   3.022
 4085TIP3    H212220   4.334   1.021   3.030
 4086TIP3   OH212221   2.082   3.472   5.357
 4086TIP3    H112222   2.050   3.391   5.396
 4086TIP3    H212223   2.076   3.536   5.427
 4087TIP3   OH212224   4.497   5.180   4.094
 4087TIP3    H112225   4.420   5.137   4.057
 4087TIP3    H212226   4.554   5.195   4.018
 4088TIP3   OH212227   5.525   6.196   4.491
 4088TIP3    H112228   5.500   6.287   4.506
 4088TIP3    H212229   5.457   6.145   4.536
 4089TIP3   OH212230   4.121   4.958   5.564
 4089TIP3    H112231   4.215   4.937   5.566
 4089TIP3    H212232   4.079   4.875   5.541
 4090TIP3   OH212233   2.218   4.313   5.710
 4090TIP3    H112234   2.226   4.403   5.741
 4090TIP3    H212235   2.309   4.284   5.696
 4091TIP3   OH212236   0.108   5.987   2.793
 4091TIP3    H112237   0.155   5.955   2.716
 4091TIP3    H212238   0.105   5.912   2.852
 4092TIP3   OH212239   5.117   3.227   1.723
 4092TIP3    H112240   5.059   3.211   1.798
 4092TIP3    H212241   5.196   3.264   1.762
 4093TIP3   OH212242   0.948   5.915   1.395
 4093TIP3    H112243   0.991   5.970   1.330
 4093TIP3    H212244   0.992   5.830   1.387
 4094TIP3   OH212245   6.347   5.536   1.566
 4094TIP3    H112246   6.304   5.613   1.527
 4094TIP3    H212247   6.319   5.537   1.657
 4095TIP3   OH212248   4.125   4.356   0.876
 4095TIP3    H112249   4.050   4.416   0.877
 4095TIP3    H212250   4.177   4.381   0.952
 4096TIP3   OH212251   7.029   1.844   0.469
 4096TIP3    H112252   6.949   1.853   0.521
 4096TIP3    H212253   7.100   1.843   0.533
 4097TIP3   OH212254   2.317   0.600   1.635
 4097TIP3    H112255   2.359   0.565   1.713
 4097TIP3    H212256   2.277   0.682   1.664
 4098TIP3   OH212257   4.040   5.927   2.122
 4098TIP3    H112258   4.090   5.851   2.150
 4098TIP3    H212259   3.994   5.957   2.200
 4099TIP3   OH212260   1.207   2.443   5.834
 4099TIP3    H112261   1.245   2.424   5.920
 4099TIP3    H212262   1.179   2.357   5.801
 4100TIP3   OH212263   3.210   3.119   0.113
 4100TIP3    H112264   3.135   3.171   0.143
 4100TIP3    H212265   3.253   3.175   0.048
 4101TIP3   OH212266   0.421   6.363   1.758
 4101TIP3    H112267   0.513   6.389   1.758
 4101TIP3    H212268   0.395   6.364   1.850
 4102TIP3   OH212269   3.869   5.653   0.341
 4102TIP3    H112270   3.964   5.659   0.345
 4102TIP3    H212271   3.846   5.584   0.403
 4103TIP3   OH212272   5.195   2.691   0.325
 4103TIP3    H112273   5.203   2.738   0.407
 4103TIP3    H212274   5.157   2.607   0.349
 4104TIP3   OH212275   0.763   1.423   5.480
 4104TIP3    H112276   0.834   1.482   5.457
 4104TIP3    H212277   0.684   1.476   5.474
 4105TIP3   OH212278   6.621   6.423   2.182
 4105TIP3    H112279   6.579   6.379   2.256
 4105TIP3    H212280   6.570   6.504   2.170
 4106TIP3   OH212281   2.177   4.574   5.725
 4106TIP3    H112282   2.248   4.637   5.733
 4106TIP3    H212283   2.112   4.619   5.671
 4107TIP3   OH212284   6.238   5.364   5.370
 4107TIP3    H112285   6.268   5.329   5.286
 4107TIP3    H212286   6.286   5.446   5.380
 4108TIP3   OH212287   5.087   3.465   4.568
 4108TIP3    H112288   5.102   3.411   4.491
 4108TIP3    H212289   4.992   3.478   4.570
 4109TIP3   OH212290   5.385   1.794   2.013
 4109TIP3    H112291   5.464   1.804   1.959
 4109TIP3    H212292   5.313   1.801   1.951
 4110TIP3   OH212293   0.963   0.287   4.217
 4110TIP3    H112294   1.037   0.312   4.272
 4110TIP3    H212295   0.894   0.265   4.279
 4111TIP3   OH212296   1.374   1.768   2.031
 4111TIP3    H112297   1.328   1.846   1.999
 4111TIP3    H212298   1.464   1.797   2.043
 4112TIP3   OH212299   3.166   2.525   1.900
 4112TIP3    H112300   3.081   2.516   1.856
 4112TIP3    H212301   3.145   2.518   1.993
 4113TIP3   OH212302   5.691   6.383   3.849
 4113TIP3    H112303   5.757   6.449   3.829
 4113TIP3    H212304   5.736   6.299   3.837
 4114TIP3   OH212305   2.160   1.658   4.439
 4114TIP3    H112306   2.168   1.630   4.347
 4114TIP3    H212307   2.247   1.690   4.461
 4115TIP3   OH212308   2.271   2.778   0.265
 4115TIP3    H112309   2.219   2.725   0.326
 4115TIP3    H212310   2.361   2.770   0.298
 4116TIP3   OH212311   1.926   6.696   1.421
 4116TIP3    H112312   2.002   6.753   1.410
 4116TIP3    H212313   1.911   6.696   1.516
 4117TIP3   OH212314   2.065   4.881   4.917
 4117TIP3    H112315   2.013   4.956   4.887
 4117TIP3    H212316   2.152   4.897   4.881
 4118TIP3   OH212317   4.961   5.152   2.118
 4118TIP3    H112318   4.948   5.135   2.211
 4118TIP3    H212319   5.002   5.238   2.115
 4119TIP3   OH212320   0.294   0.106   0.876
 4119TIP3    H112321   0.278   0.024   0.830
 4119TIP3    H212322   0.279   0.174   0.809
 4120TIP3   OH212323   0.966   1.298   3.865
 4120TIP3    H112324   0.983   1.229   3.801
 4120TIP3    H212325   0.965   1.379   3.814
 4121TIP3   OH212326   2.929   2.031   1.756
 4121TIP3    H112327   2.980   2.109   1.781
 4121TIP3    H212328   2.838   2.056   1.771
 4122TIP3   OH212329   1.181   4.010   1.446
 4122TIP3    H112330   1.093   4.001   1.408
 4122TIP3    H212331   1.168   3.998   1.540
 4123TIP3   OH212332   0.186   1.266   1.799
 4123TIP3    H112333   0.196   1.184   1.750
 4123TIP3    H212334   0.172   1.332   1.732
 4124TIP3   OH212335   2.245   0.833   1.804
 4124TIP3    H112336   2.335   0.866   1.805
 4124TIP3    H212337   2.211   0.854   1.891
 4125TIP3   OH212338   6.962   2.499   4.554
 4125TIP3    H112339   6.997   2.461   4.634
 4125TIP3    H212340   6.867   2.488   4.562
 4126TIP3   OH212341   3.211   5.530   0.541
 4126TIP3    H112342   3.272   5.514   0.469
 4126TIP3    H212343   3.177   5.618   0.524
 4127TIP3   OH212344   5.860   4.661   2.714
 4127TIP3    H112345   5.817   4.649   2.630
 4127TIP3    H212346   5.896   4.749   2.710
 4128TIP3   OH212347   6.687   3.268   0.200
 4128TIP3    H112348   6.727   3.351   0.228
 4128TIP3    H212349   6.762   3.210   0.184
 4129TIP3   OH212350   2.696   5.382   3.051
 4129TIP3    H112351   2.714   5.322   3.123
 4129TIP3    H212352   2.780   5.423   3.032
 4130TIP3   OH212353   5.781   3.957   5.599
 4130TIP3    H112354   5.803   3.897   5.670
 4130TIP3    H212355   5.815   4.042   5.628
 4131TIP3   OH212356   2.103   6.029   1.693
 4131TIP3    H112357   2.065   5.972   1.626
 4131TIP3    H212358   2.101   6.116   1.654
 4132TIP3   OH212359   1.636   3.711   5.045
 4132TIP3    H112360   1.680   3.791   5.072
 4132TIP3    H212361   1.591   3.680   5.124
 4133TIP3   OH212362   3.199   3.557   1.566
 4133TIP3    H112363   3.151   3.509   1.633
 4133TIP3    H212364   3.276   3.502   1.548
 4134TIP3   OH212365   3.620   5.250   0.772
 4134TIP3    H112366   3.571   5.216   0.697
 4134TIP3    H212367   3.646   5.338   0.745
 4135TIP3   OH212368   4.721   0.126   5.246
 4135TIP3    H112369   4.751   0.209   5.211
 4135TIP3    H212370   4.656   0.150   5.312
 4136TIP3   OH212371   6.108   0.425   3.276
 4136TIP3    H112372   6.181   0.369   3.251
 4136TIP3    H212373   6.064   0.377   3.347
 4137TIP3   OH212374   1.620   0.190   2.210
 4137TIP3    H112375   1.679   0.122   2.177
 4137TIP3    H212376   1.667   0.227   2.285
 4138TIP3   OH212377   6.619   2.039   5.609
 4138TIP3    H112378   6.687   1.976   5.632
 4138TIP3    H212379   6.593   2.079   5.692
 4139TIP3   OH212380   2.584   0.443   0.864
 4139TIP3    H112381   2.593   0.409   0.775
 4139TIP3    H212382   2.497   0.482   0.866
 4140TIP3   OH212383   1.312   4.880   3.297
 4140TIP3    H112384   1.304   4.793   3.334
 4140TIP3    H212385   1.221   4.908   3.282
 4141TIP3   OH212386   5.781   0.778   3.858
 4141TIP3    H112387   5.715   0.786   3.790
 4141TIP3    H212388   5.737   0.805   3.938
 4142TIP3   OH212389   3.409   1.869   2.083
 4142TIP3    H112390   3.330   1.922   2.070
 4142TIP3    H212391   3.411   1.853   2.177
 4143TIP3   OH212392   4.782   1.273   3.883
 4143TIP3    H112393   4.771   1.368   3.895
 4143TIP3    H212394   4.757   1.235   3.967
 4144TIP3   OH212395   5.765   4.929   2.782
 4144TIP3    H112396   5.708   4.886   2.719
 4144TIP3    H212397   5.755   5.023   2.763
 4145TIP3   OH212398   3.404   0.501   0.020
 4145TIP3    H112399   3.410   0.408  -0.002
 4145TIP3    H212400   3.420   0.505   0.114
 4146TIP3   OH212401   6.465   1.799   5.662
 4146TIP3    H112402   6.494   1.881   5.702
 4146TIP3    H212403   6.433   1.746   5.736
 4147TIP3   OH212404   5.542   2.050   4.018
 4147TIP3    H112405   5.484   1.988   4.063
 4147TIP3    H212406   5.562   2.116   4.084
 4148TIP3   OH212407   2.144   0.453   1.479
 4148TIP3    H112408   2.215   0.491   1.532
 4148TIP3    H212409   2.144   0.505   1.399
 4149TIP3   OH212410   2.796   2.601   4.604
 4149TIP3    H112411   2.778   2.645   4.687
 4149TIP3    H212412   2.709   2.583   4.568
 4150TIP3   OH212413   2.265   0.324   5.209
 4150TIP3    H112414   2.310   0.297   5.129
 4150TIP3    H212415   2.264   0.420   5.205
 4151TIP3   OH212416   0.116   6.757   1.643
 4151TIP3    H112417   0.066   6.705   1.580
 4151TIP3    H212418   0.206   6.729   1.631
 4152TIP3   OH212419   5.556   3.596   1.421
 4152TIP3    H112420   5.650   3.596   1.404
 4152TIP3    H212421   5.547   3.640   1.505
 4153TIP3   OH212422   6.594   6.640   0.654
 4153TIP3    H112423   6.602   6.545   0.648
 4153TIP3    H212424   6.617   6.672   0.567
 4154TIP3   OH212425   6.419   4.033   0.034
 4154TIP3    H112426   6.358   3.971   0.073
 4154TIP3    H212427   6.364   4.090  -0.020
 4155TIP3   OH212428   4.298   1.401   0.415
 4155TIP3    H112429   4.313   1.312   0.450
 4155TIP3    H212430   4.343   1.458   0.478
 4156TIP3   OH212431   4.031   3.741   3.721
 4156TIP3    H112432   4.094   3.795   3.769
 4156TIP3    H212433   4.060   3.744   3.630
 4157TIP3   OH212434   5.327   4.377   1.839
 4157TIP3    H112435   5.324   4.449   1.901
 4157TIP3    H212436   5.340   4.299   1.894
 4158TIP3   OH212437   2.392   6.292   2.640
 4158TIP3    H112438   2.300   6.289   2.664
 4158TIP3    H212439   2.435   6.336   2.713
 4159TIP3   OH212440   3.829   3.819   1.158
 4159TIP3    H112441   3.792   3.854   1.239
 4159TIP3    H212442   3.868   3.736   1.183
 4160TIP3   OH212443   4.774   6.653   2.476
 4160TIP3    H112444   4.697   6.701   2.443
 4160TIP3    H212445   4.794   6.695   2.559
 4161TIP3   OH212446   0.733   5.293   3.397
 4161TIP3    H112447   0.726   5.365   3.334
 4161TIP3    H212448   0.826   5.273   3.400
 4162TIP3   OH212449   5.020   2.801   2.595
 4162TIP3    H112450   5.094   2.849   2.632
 4162TIP3    H212451   5.041   2.790   2.502
 4163TIP3   OH212452   5.105   3.454   5.437
 4163TIP3    H112453   5.155   3.472   5.357
 4163TIP3    H212454   5.164   3.476   5.508
 4164TIP3   OH212455   2.775   2.611   0.927
 4164TIP3    H112456   2.847   2.654   0.881
 4164TIP3    H212457   2.789   2.518   0.913
 4165TIP3   OH212458   3.288   6.250   3.215
 4165TIP3    H112459   3.372   6.248   3.261
 4165TIP3    H212460   3.229   6.200   3.271
 4166TIP3   OH212461   0.070   5.532   0.324
 4166TIP3    H112462   0.029   5.492   0.401
 4166TIP3    H212463   0.086   5.459   0.264
 4167TIP3   OH212464   2.813   5.605   5.338
 4167TIP3    H112465   2.720   5.594   5.317
 4167TIP3    H212466   2.838   5.522   5.379
 4168TIP3   OH212467   2.226   1.007   2.280
 4168TIP3    H112468   2.170   0.953   2.224
 4168TIP3    H212469   2.291   0.946   2.315
 4169TIP3   OH212470   3.077   5.381   5.432
 4169TIP3    H112471   3.105   5.371   5.523
 4169TIP3    H212472   3.127   5.315   5.384
 4170TIP3   OH212473   5.614   2.351   5.886
 4170TIP3    H112474   5.627   2.424   5.947
 4170TIP3    H212475   5.644   2.384   5.802
 4171TIP3   OH212476   3.278   6.307   2.823
 4171TIP3    H112477   3.350   6.331   2.881
 4171TIP3    H212478   3.311   6.231   2.774
 4172TIP3   OH212479   0.376   1.398   1.598
 4172TIP3    H112480   0.378   1.371   1.690
 4172TIP3    H212481   0.453   1.454   1.589
 4173TIP3   OH212482   6.510   0.249   4.241
 4173TIP3    H112483   6.453   0.275   4.169
 4173TIP3    H212484   6.517   0.327   4.296
 4174TIP3   OH212485   2.927   1.834   4.572
 4174TIP3    H112486   2.870   1.899   4.611
 4174TIP3    H212487   2.978   1.882   4.507
 4175TIP3   OH212488   3.898   6.433   3.623
 4175TIP3    H112489   3.857   6.519   3.614
 4175TIP3    H212490   3.833   6.380   3.668
 4176TIP3   OH212491   1.409   3.182   5.734
 4176TIP3    H112492   1.377   3.169   5.645
 4176TIP3    H212493   1.477   3.249   5.726
 4177TIP3   OH212494   1.297   0.105   2.488
 4177TIP3    H112495   1.311   0.016   2.521
 4177TIP3    H212496   1.335   0.162   2.555
 4178TIP3   OH212497   5.385   3.737   2.671
 4178TIP3    H112498   5.478   3.730   2.692
 4178TIP3    H212499   5.361   3.826   2.698
 4179TIP3   OH212500   0.419   3.577   1.223
 4179TIP3    H112501   0.412   3.496   1.273
 4179TIP3    H212502   0.500   3.618   1.254
 4180TIP3   OH212503   6.722   3.926   1.431
 4180TIP3    H112504   6.768   3.850   1.467
 4180TIP3    H212505   6.691   3.897   1.345
 4181TIP3   OH212506   3.564   5.606   4.759
 4181TIP3    H112507   3.529   5.543   4.822
 4181TIP3    H212508   3.524   5.580   4.675
 4182TIP3   OH212509   0.424   5.365   1.280
 4182TIP3    H112510   0.419   5.458   1.256
 4182TIP3    H212511   0.449   5.366   1.372
 4183TIP3   OH212512   1.269   2.433   4.729
 4183TIP3    H112513   1.256   2.521   4.763
 4183TIP3    H212514   1.267   2.376   4.806
 4184TIP3   OH212515   6.059   3.845   2.456
 4184TIP3    H112516   6.091   3.921   2.503
 4184TIP3    H212517   6.138   3.797   2.431
 4185TIP3   OH212518   5.865   3.881   3.998
 4185TIP3    H112519   5.875   3.948   3.930
 4185TIP3    H212520   5.944   3.828   3.992
 4186TIP3   OH212521   0.078   6.644   1.072
 4186TIP3    H112522   0.052   6.717   1.128
 4186TIP3    H212523   0.137   6.683   1.007
 4187TIP3   OH212524   7.063   3.759   3.297
 4187TIP3    H112525   7.037   3.670   3.321
 4187TIP3    H212526   6.999   3.786   3.231
 4188TIP3   OH212527   6.281   4.625   3.673
 4188TIP3    H112528   6.281   4.719   3.688
 4188TIP3    H212529   6.216   4.611   3.605
 4189TIP3   OH212530   3.895   4.964   2.474
 4189TIP3    H112531   3.816   4.977   2.526
 4189TIP3    H212532   3.955   4.918   2.533
 4190TIP3   OH212533   6.659   2.751   3.552
 4190TIP3    H112534   6.684   2.670   3.509
 4190TIP3    H212535   6.705   2.749   3.636
 4191TIP3   OH212536   3.738   1.742   1.349
 4191TIP3    H112537   3.655   1.695   1.349
 4191TIP3    H212538   3.771   1.731   1.260
 4192TIP3   OH212539   2.603   4.558   1.583
 4192TIP3    H112540   2.635   4.470   1.563
 4192TIP3    H212541   2.508   4.552   1.579
 4193TIP3   OH212542   6.378   6.597   0.794
 4193TIP3    H112543   6.441   6.591   0.866
 4193TIP3    H212544   6.431   6.613   0.716
 4194TIP3   OH212545   7.002   2.638   4.111
 4194TIP3    H112546   7.032   2.567   4.167
 4194TIP3    H212547   7.055   2.713   4.136
 4195TIP3   OH212548   2.610   4.713   2.969
 4195TIP3    H112549   2.587   4.620   2.964
 4195TIP3    H212550   2.686   4.722   2.912
 4196TIP3   OH212551   1.364   1.094   3.735
 4196TIP3    H112552   1.453   1.062   3.753
 4196TIP3    H212553   1.358   1.094   3.639
 4197TIP3   OH212554   5.684   2.897   5.058
 4197TIP3    H112555   5.657   2.853   5.138
 4197TIP3    H212556   5.779   2.907   5.068
 4198TIP3   OH212557   6.297   4.782   5.028
 4198TIP3    H112558   6.377   4.832   5.041
 4198TIP3    H212559   6.227   4.835   5.066
 4199TIP3   OH212560   3.375   6.359   0.508
 4199TIP3    H112561   3.373   6.265   0.528
 4199TIP3    H212562   3.446   6.368   0.444
 4200TIP3   OH212563   2.820   2.335   1.342
 4200TIP3    H112564   2.822   2.244   1.372
 4200TIP3    H212565   2.728   2.351   1.319
 4201TIP3   OH212566   1.641   6.685   0.042
 4201TIP3    H112567   1.618   6.592   0.037
 4201TIP3    H212568   1.713   6.695  -0.019
 4202TIP3   OH212569   0.307   1.670   4.931
 4202TIP3    H112570   0.358   1.659   4.851
 4202TIP3    H212571   0.338   1.601   4.989
 4203TIP3   OH212572   6.571   2.717   2.753
 4203TIP3    H112573   6.542   2.763   2.832
 4203TIP3    H212574   6.536   2.628   2.763
 4204TIP3   OH212575   6.622   6.689   4.723
 4204TIP3    H112576   6.707   6.649   4.741
 4204TIP3    H212577   6.623   6.771   4.773
 4205TIP3   OH212578   0.674   2.003   0.737
 4205TIP3    H112579   0.710   1.957   0.813
 4205TIP3    H212580   0.636   2.083   0.774
 4206TIP3   OH212581   2.917   2.922   5.292
 4206TIP3    H112582   2.828   2.939   5.322
 4206TIP3    H212583   2.928   2.827   5.303
 4207TIP3   OH212584   3.091   5.818   1.145
 4207TIP3    H112585   3.137   5.770   1.076
 4207TIP3    H212586   3.160   5.860   1.196
 4208TIP3   OH212587   1.749   1.032   5.815
 4208TIP3    H112588   1.723   1.068   5.730
 4208TIP3    H212589   1.780   0.944   5.795
 4209TIP3   OH212590   2.451   2.504   0.361
 4209TIP3    H112591   2.404   2.430   0.398
 4209TIP3    H212592   2.468   2.562   0.435
 4210TIP3   OH212593   2.695   4.765   3.885
 4210TIP3    H112594   2.747   4.794   3.810
 4210TIP3    H212595   2.739   4.803   3.961
 4211TIP3   OH212596   5.707   3.813   5.048
 4211TIP3    H112597   5.779   3.871   5.023
 4211TIP3    H212598   5.638   3.832   4.983
 4212TIP3   OH212599   3.251   3.555   2.945
 4212TIP3    H112600   3.270   3.645   2.921
 4212TIP3    H212601   3.185   3.526   2.881
 4213TIP3   OH212602   2.667   3.367   4.041
 4213TIP3    H112603   2.625   3.416   4.111
 4213TIP3    H212604   2.667   3.276   4.071
 4214TIP3   OH212605   3.160   0.031   5.742
 4214TIP3    H112606   3.119   0.100   5.690
 4214TIP3    H212607   3.253   0.051   5.740
 4215TIP3   OH212608   6.315   3.624   0.271
 4215TIP3    H112609   6.241   3.683   0.282
 4215TIP3    H212610   6.327   3.583   0.357
 4216TIP3   OH212611   0.487   6.115   4.764
 4216TIP3    H112612   0.495   6.019   4.760
 4216TIP3    H212613   0.488   6.143   4.673
 4217TIP3   OH212614   2.377   3.790   2.226
 4217TIP3    H112615   2.342   3.779   2.315
 4217TIP3    H212616   2.460   3.743   2.227
 4218TIP3   OH212617   6.371   1.097   5.198
 4218TIP3    H112618   6.464   1.121   5.196
 4218TIP3    H212619   6.342   1.122   5.286
 4219TIP3   OH212620   6.535   5.725   3.189
 4219TIP3    H112621   6.599   5.761   3.127
 4219TIP3    H212622   6.470   5.682   3.134
 4220TIP3   OH212623   6.904   5.601   1.425
 4220TIP3    H112624   6.879   5.509   1.420
 4220TIP3    H212625   6.958   5.607   1.504
 4221TIP3   OH212626   1.441   0.753   3.947
 4221TIP3    H112627   1.373   0.760   3.880
 4221TIP3    H212628   1.516   0.715   3.900
 4222TIP3   OH212629   0.401   1.042   4.331
 4222TIP3    H112630   0.437   1.019   4.416
 4222TIP3    H212631   0.457   1.113   4.299
 4223TIP3   OH212632   5.291   6.088   4.604
 4223TIP3    H112633   5.207   6.126   4.577
 4223TIP3    H212634   5.270   6.039   4.683
 4224TIP3   OH212635   4.673   2.729   5.716
 4224TIP3    H112636   4.743   2.721   5.650
 4224TIP3    H212637   4.710   2.691   5.795
 4225TIP3   OH212638   3.902   3.610   4.106
 4225TIP3    H112639   3.842   3.536   4.116
 4225TIP3    H212640   3.989   3.572   4.123
 4226TIP3   OH212641   3.502   6.040   4.663
 4226TIP3    H112642   3.513   6.079   4.576
 4226TIP3    H212643   3.581   6.066   4.711
 4227TIP3   OH212644   1.613   5.941   1.495
 4227TIP3    H112645   1.615   5.885   1.417
 4227TIP3    H212646   1.526   5.981   1.494
 4228TIP3   OH212647   1.888   3.138   0.600
 4228TIP3    H112648   1.910   3.218   0.649
 4228TIP3    H212649   1.913   3.158   0.510
 4229TIP3   OH212650   2.767   5.699   1.198
 4229TIP3    H112651   2.736   5.758   1.128
 4229TIP3    H212652   2.709   5.717   1.272
 4230TIP3   OH212653   1.912   5.452   1.852
 4230TIP3    H112654   1.881   5.369   1.888
 4230TIP3    H212655   1.957   5.495   1.924
 4231TIP3   OH212656   6.166   1.104   2.938
 4231TIP3    H112657   6.095   1.089   3.000
 4231TIP3    H212658   6.122   1.125   2.856
 4232TIP3   OH212659   1.833   4.599   5.742
 4232TIP3    H112660   1.765   4.581   5.676
 4232TIP3    H212661   1.830   4.524   5.801
 4233TIP3   OH212662   0.562   3.735   4.753
 4233TIP3    H112663   0.469   3.713   4.761
 4233TIP3    H212664   0.573   3.814   4.806
 4234TIP3   OH212665   5.352   6.167   3.223
 4234TIP3    H112666   5.319   6.116   3.298
 4234TIP3    H212667   5.273   6.194   3.176
 4235TIP3   OH212668   5.277   3.302   2.917
 4235TIP3    H112669   5.200   3.252   2.943
 4235TIP3    H212670   5.337   3.293   2.990
 4236TIP3   OH212671   2.170   1.792   5.827
 4236TIP3    H112672   2.231   1.866   5.827
 4236TIP3    H212673   2.217   1.724   5.876
 4237TIP3   OH212674   5.355   2.511   2.604
 4237TIP3    H112675   5.260   2.510   2.613
 4237TIP3    H212676   5.387   2.455   2.675
 4238TIP3   OH212677   6.732   4.825   2.900
 4238TIP3    H112678   6.780   4.754   2.942
 4238TIP3    H212679   6.721   4.797   2.809
 4239TIP3   OH212680   1.304   2.762   2.465
 4239TIP3    H112681   1.393   2.764   2.500
 4239TIP3    H212682   1.251   2.810   2.529
 4240TIP3   OH212683   1.658   2.224   4.490
 4240TIP3    H112684   1.644   2.134   4.462
 4240TIP3    H212685   1.684   2.270   4.410
 4241TIP3   OH212686   6.582   5.316   3.290
 4241TIP3    H112687   6.491   5.289   3.277
 4241TIP3    H212688   6.576   5.401   3.333
 4242TIP3   OH212689   5.592   6.562   0.560
 4242TIP3    H112690   5.609   6.512   0.480
 4242TIP3    H212691   5.501   6.542   0.581
 4243TIP3   OH212692   5.552   0.873   0.763
 4243TIP3    H112693   5.544   0.910   0.676
 4243TIP3    H212694   5.587   0.785   0.748
 4244TIP3   OH212695   5.370   4.066   2.550
 4244TIP3    H112696   5.335   4.122   2.481
 4244TIP3    H212697   5.449   4.027   2.511
 4245TIP3   OH212698   6.257   2.496   3.742
 4245TIP3    H112699   6.207   2.555   3.798
 4245TIP3    H212700   6.349   2.516   3.761
 4246TIP3   OH212701   3.567   5.505   4.055
 4246TIP3    H112702   3.568   5.414   4.024
 4246TIP3    H212703   3.514   5.502   4.135
 4247TIP3   OH212704   4.323   0.910   3.759
 4247TIP3    H112705   4.334   0.989   3.811
 4247TIP3    H212706   4.412   0.873   3.754
 4248TIP3   OH212707   2.543   6.148   1.842
 4248TIP3    H112708   2.625   6.108   1.868
 4248TIP3    H212709   2.541   6.232   1.890
 4249TIP3   OH212710   5.155   1.376   1.436
 4249TIP3    H112711   5.231   1.425   1.404
 4249TIP3    H212712   5.108   1.351   1.357
 4250TIP3   OH212713   0.197   2.003   1.359
 4250TIP3    H112714   0.254   1.962   1.424
 4250TIP3    H212715   0.118   1.950   1.358
 4251TIP3   OH212716   4.934   2.974   1.924
 4251TIP3    H112717   4.914   2.930   1.842
 4251TIP3    H212718   5.029   2.963   1.934
 4252TIP3   OH212719   4.484   3.705   3.553
 4252TIP3    H112720   4.438   3.637   3.504
 4252TIP3    H212721   4.497   3.667   3.640
 4253TIP3   OH212722   0.866   5.370   2.592
 4253TIP3    H112723   0.935   5.309   2.565
 4253TIP3    H212724   0.875   5.375   2.687
 4254TIP3   OH212725   0.760   1.755   5.621
 4254TIP3    H112726   0.837   1.715   5.580
 4254TIP3    H212727   0.792   1.838   5.655
 4255TIP3   OH212728   3.982   4.761   4.050
 4255TIP3    H112729   3.996   4.683   4.104
 4255TIP3    H212730   4.070   4.796   4.035
 4256TIP3   OH212731   0.224   1.535   5.271
 4256TIP3    H112732   0.129   1.535   5.258
 4256TIP3    H212733   0.243   1.620   5.309
 4257TIP3   OH212734   3.731   2.880   2.580
 4257TIP3    H112735   3.755   2.927   2.660
 4257TIP3    H212736   3.739   2.787   2.604
 4258TIP3   OH212737   3.200   1.982   1.388
 4258TIP3    H112738   3.151   1.947   1.462
 4258TIP3    H212739   3.197   1.913   1.322
 4259TIP3   OH212740   3.377   1.264   0.715
 4259TIP3    H112741   3.466   1.275   0.750
 4259TIP3    H212742   3.354   1.174   0.737
 4260TIP3   OH212743   5.726   6.101   2.995
 4260TIP3    H112744   5.768   6.160   3.058
 4260TIP3    H212745   5.733   6.147   2.912
 4261TIP3   OH212746   4.565   5.468   5.563
 4261TIP3    H112747   4.472   5.461   5.583
 4261TIP3    H212748   4.567   5.515   5.479
 4262TIP3   OH212749   6.907   5.541   0.841
 4262TIP3    H112750   6.868   5.584   0.917
 4262TIP3    H212751   6.833   5.511   0.789
 4263TIP3   OH212752   2.260   0.323   1.089
 4263TIP3    H112753   2.335   0.271   1.060
 4263TIP3    H212754   2.183   0.273   1.062
 4264TIP3   OH212755   0.443   1.962   0.336
 4264TIP3    H112756   0.474   2.000   0.254
 4264TIP3    H212757   0.522   1.935   0.382
 4265TIP3   OH212758   1.827   2.508   5.028
 4265TIP3    H112759   1.800   2.561   4.953
 4265TIP3    H212760   1.857   2.571   5.093
 4266TIP3   OH212761   5.877   2.383   2.842
 4266TIP3    H112762   5.919   2.299   2.819
 4266TIP3    H212763   5.863   2.378   2.936
 4267TIP3   OH212764   7.205   4.628   3.486
 4267TIP3    H112765   7.126   4.578   3.509
 4267TIP3    H212766   7.198   4.640   3.391
 4268TIP3   OH212767   1.058   0.745   1.663
 4268TIP3    H112768   1.089   0.746   1.572
 4268TIP3    H212769   1.031   0.836   1.680
 4269TIP3   OH212770   5.108   0.984   2.311
 4269TIP3    H112771   5.057   0.938   2.377
 4269TIP3    H212772   5.177   0.923   2.287
 4270TIP3   OH212773   1.365   1.947   0.255
 4270TIP3    H112774   1.315   1.877   0.297
 4270TIP3    H212775   1.429   1.974   0.322
 4271TIP3   OH212776   0.473   6.212   4.243
 4271TIP3    H112777   0.507   6.173   4.324
 4271TIP3    H212778   0.380   6.194   4.244
 4272TIP3   OH212779   5.727   4.261   1.732
 4272TIP3    H112780   5.804   4.316   1.721
 4272TIP3    H212781   5.666   4.291   1.665
 4273TIP3   OH212782   4.814   0.270   4.546
 4273TIP3    H112783   4.820   0.219   4.627
 4273TIP3    H212784   4.722   0.295   4.540
 4274TIP3   OH212785   5.759   3.022   0.453
 4274TIP3    H112786   5.698   3.019   0.526
 4274TIP3    H212787   5.799   3.109   0.458
 4275TIP3   OH212788   0.265   6.019   0.998
 4275TIP3    H112789   0.248   6.076   1.073
 4275TIP3    H212790   0.179   5.984   0.975
 4276TIP3   OH212791   1.938   2.705   5.621
 4276TIP3    H112792   1.892   2.779   5.580
 4276TIP3    H212793   1.955   2.734   5.710
 4277TIP3   OH212794   0.190   6.347   3.864
 4277TIP3    H112795   0.216   6.279   3.802
 4277TIP3    H212796   0.255   6.417   3.851
 4278TIP3   OH212797   0.927   3.280   0.929
 4278TIP3    H112798   1.016   3.285   0.894
 4278TIP3    H212799   0.908   3.368   0.959
 4279TIP3   OH212800   3.267   4.545   4.210
 4279TIP3    H112801   3.339   4.565   4.151
 4279TIP3    H212802   3.194   4.598   4.178
 4280TIP3   OH212803   2.517   6.253   4.014
 4280TIP3    H112804   2.492   6.207   3.934
 4280TIP3    H212805   2.504   6.346   3.993
 4281TIP3   OH212806   3.186   2.208   1.589
 4281TIP3    H112807   3.161   2.154   1.513
 4281TIP3    H212808   3.266   2.167   1.622
 4282TIP3   OH212809   0.641   2.681   3.786
 4282TIP3    H112810   0.555   2.648   3.761
 4282TIP3    H212811   0.702   2.612   3.758
 4283TIP3   OH212812   6.744   2.773   5.384
 4283TIP3    H112813   6.789   2.835   5.441
 4283TIP3    H212814   6.680   2.826   5.336
 4284TIP3   OH212815   3.375   4.084   2.218
 4284TIP3    H112816   3.356   3.998   2.179
 4284TIP3    H212817   3.405   4.063   2.306
 4285TIP3   OH212818   3.309   4.039   1.817
 4285TIP3    H112819   3.348   3.963   1.860
 4285TIP3    H212820   3.381   4.103   1.814
 4286TIP3   OH212821   6.254   1.707   2.536
 4286TIP3    H112822   6.215   1.744   2.457
 4286TIP3    H212823   6.338   1.753   2.544
 4287TIP3   OH212824   6.861   2.359   0.145
 4287TIP3    H112825   6.818   2.276   0.122
 4287TIP3    H212826   6.797   2.403   0.201
 4288TIP3   OH212827   4.665   2.807   0.501
 4288TIP3    H112828   4.704   2.835   0.583
 4288TIP3    H212829   4.639   2.716   0.516
 4289TIP3   OH212830   3.830   0.182   2.150
 4289TIP3    H112831   3.837   0.142   2.236
 4289TIP3    H212832   3.738   0.170   2.124
 4290TIP3   OH212833   4.501   1.477   0.604
 4290TIP3    H112834   4.492   1.432   0.688
 4290TIP3    H212835   4.595   1.498   0.598
 4291TIP3   OH212836   2.865   1.495   4.739
 4291TIP3    H112837   2.798   1.548   4.697
 4291TIP3    H212838   2.887   1.542   4.819
 4292TIP3   OH212839   5.517   4.095   0.195
 4292TIP3    H112840   5.428   4.131   0.190
 4292TIP3    H212841   5.508   4.005   0.163
 4293TIP3   OH212842   6.461   3.190   2.343
 4293TIP3    H112843   6.409   3.113   2.323
 4293TIP3    H212844   6.433   3.255   2.279
 4294TIP3   OH212845   5.699   3.627   2.196
 4294TIP3    H112846   5.709   3.658   2.287
 4294TIP3    H212847   5.683   3.707   2.146
 4295TIP3   OH212848   3.597   0.828   2.299
 4295TIP3    H112849   3.688   0.804   2.317
 4295TIP3    H212850   3.547   0.747   2.314
 4296TIP3   OH212851   5.632   1.292   5.280
 4296TIP3    H112852   5.684   1.308   5.202
 4296TIP3    H212853   5.695   1.273   5.349
 4297TIP3   OH212854   6.627   5.195   0.572
 4297TIP3    H112855   6.614   5.110   0.528
 4297TIP3    H212856   6.556   5.249   0.538
 4298TIP3   OH212857   1.334   2.757   1.196
 4298TIP3    H112858   1.398   2.758   1.267
 4298TIP3    H212859   1.250   2.740   1.238
 4299TIP3   OH212860   1.688   1.176   2.143
 4299TIP3    H112861   1.708   1.155   2.051
 4299TIP3    H212862   1.628   1.250   2.138
 4300TIP3   OH212863   5.796   4.861   0.059
 4300TIP3    H112864   5.834   4.786   0.013
 4300TIP3    H212865   5.708   4.831   0.083
 4301TIP3   OH212866   4.546   5.051   4.624
 4301TIP3    H112867   4.596   5.128   4.599
 4301TIP3    H212868   4.473   5.048   4.562
 4302TIP3   OH212869   5.744   3.100   0.178
 4302TIP3    H112870   5.740   3.086   0.273
 4302TIP3    H212871   5.811   3.167   0.166
 4303TIP3   OH212872   0.139   6.024   4.353
 4303TIP3    H112873   0.135   6.075   4.272
 4303TIP3    H212874   0.047   6.013   4.378
 4304TIP3   OH212875   5.801   6.313   3.185
 4304TIP3    H112876   5.875   6.281   3.237
 4304TIP3    H212877   5.726   6.307   3.244
 4305TIP3   OH212878   3.629   2.490   0.333
 4305TIP3    H112879   3.594   2.401   0.341
 4305TIP3    H212880   3.638   2.504   0.239
 4306TIP3   OH212881   2.174   4.112   4.945
 4306TIP3    H112882   2.204   4.027   4.977
 4306TIP3    H212883   2.221   4.175   4.998
 4307TIP3   OH212884   3.192   2.725   4.478
 4307TIP3    H112885   3.147   2.757   4.399
 4307TIP3    H212886   3.168   2.633   4.483
 4308TIP3   OH212887   1.109   1.445   0.565
 4308TIP3    H112888   1.091   1.417   0.475
 4308TIP3    H212889   1.035   1.501   0.589
 4309TIP3   OH212890   1.471   0.583   1.552
 4309TIP3    H112891   1.478   0.675   1.527
 4309TIP3    H212892   1.378   0.562   1.543
 4310TIP3   OH212893   0.924   1.034   1.403
 4310TIP3    H112894   0.886   1.118   1.429
 4310TIP3    H212895   1.011   1.033   1.443
 4311TIP3   OH212896   1.994   5.482   5.465
 4311TIP3    H112897   1.986   5.572   5.433
 4311TIP3    H212898   2.004   5.429   5.386
 4312TIP3   OH212899   4.288   3.672   1.817
 4312TIP3    H112900   4.240   3.753   1.836
 4312TIP3    H212901   4.264   3.650   1.727
 4313TIP3   OH212902   2.269   1.384   2.946
 4313TIP3    H112903   2.358   1.361   2.973
 4313TIP3    H212904   2.233   1.432   3.021
 4314TIP3   OH212905   3.909   2.961   0.527
 4314TIP3    H112906   3.936   2.873   0.552
 4314TIP3    H212907   3.839   2.983   0.590
 4315TIP3   OH212908   6.535   3.576   3.696
 4315TIP3    H112909   6.479   3.503   3.671
 4315TIP3    H212910   6.569   3.552   3.782
 4316TIP3   OH212911   6.583   3.181   2.962
 4316TIP3    H112912   6.493   3.162   2.991
 4316TIP3    H212913   6.601   3.269   2.996
 4317TIP3   OH212914   6.329   5.526   4.624
 4317TIP3    H112915   6.361   5.476   4.548
 4317TIP3    H212916   6.244   5.559   4.596
 4318TIP3   OH212917   4.241   6.439   5.190
 4318TIP3    H112918   4.219   6.423   5.098
 4318TIP3    H212919   4.183   6.380   5.238
 4319TIP3   OH212920   3.010   6.556   0.981
 4319TIP3    H112921   2.952   6.574   0.907
 4319TIP3    H212922   2.997   6.463   0.999
 4320TIP3   OH212923   5.842   3.261   5.168
 4320TIP3    H112924   5.769   3.272   5.228
 4320TIP3    H212925   5.856   3.348   5.130
 4321TIP3   OH212926   3.978   4.142   4.012
 4321TIP3    H112927   3.956   4.158   3.921
 4321TIP3    H212928   3.943   4.055   4.031
 4322TIP3   OH212929   6.355   1.524   1.798
 4322TIP3    H112930   6.380   1.486   1.714
 4322TIP3    H212931   6.397   1.468   1.863
 4323TIP3   OH212932   4.035   2.055   5.288
 4323TIP3    H112933   4.078   2.124   5.239
 4323TIP3    H212934   3.943   2.082   5.292
 4324TIP3   OH212935   1.512   4.288   3.562
 4324TIP3    H112936   1.494   4.374   3.600
 4324TIP3    H212937   1.533   4.233   3.637
 4325TIP3   OH212938   3.519   2.240   0.292
 4325TIP3    H112939   3.475   2.201   0.216
 4325TIP3    H212940   3.447   2.268   0.349
 4326TIP3   OH212941   4.402   5.727   1.013
 4326TIP3    H112942   4.354   5.767   1.085
 4326TIP3    H212943   4.398   5.633   1.030
 4327TIP3   OH212944   3.778   3.282   3.951
 4327TIP3    H112945   3.791   3.296   4.045
 4327TIP3    H212946   3.867   3.282   3.914
 4328TIP3   OH212947   0.946   3.868   0.137
 4328TIP3    H112948   1.017   3.807   0.115
 4328TIP3    H212949   0.867   3.826   0.104
 4329TIP3   OH212950   1.399   5.465   3.652
 4329TIP3    H112951   1.340   5.423   3.589
 4329TIP3    H212952   1.482   5.474   3.606
 4330TIP3   OH212953   2.515   5.272   4.175
 4330TIP3    H112954   2.498   5.351   4.124
 4330TIP3    H212955   2.607   5.279   4.202
 4331TIP3   OH212956   0.427   5.799   1.031
 4331TIP3    H112957   0.414   5.760   0.944
 4331TIP3    H212958   0.374   5.879   1.029
 4332TIP3   OH212959   4.253   2.307   2.898
 4332TIP3    H112960   4.279   2.302   2.990
 4332TIP3    H212961   4.171   2.355   2.899
 4333TIP3   OH212962   1.834   6.451   5.664
 4333TIP3    H112963   1.805   6.360   5.667
 4333TIP3    H212964   1.851   6.467   5.571
 4334TIP3   OH212965   5.848   4.731   1.663
 4334TIP3    H112966   5.759   4.759   1.644
 4334TIP3    H212967   5.892   4.733   1.578
 4335TIP3   OH212968   3.665   2.487   4.946
 4335TIP3    H112969   3.572   2.490   4.926
 4335TIP3    H212970   3.669   2.491   5.042
 4336TIP3   OH212971   3.840   0.898   1.552
 4336TIP3    H112972   3.917   0.848   1.578
 4336TIP3    H212973   3.866   0.943   1.472
 4337TIP3   OH212974   5.878   1.678   3.070
 4337TIP3    H112975   5.968   1.691   3.039
 4337TIP3    H212976   5.849   1.598   3.026
 4338TIP3   OH212977   2.303   5.188   2.347
 4338TIP3    H112978   2.268   5.166   2.261
 4338TIP3    H212979   2.365   5.259   2.331
 4339TIP3   OH212980   5.211   3.789   2.953
 4339TIP3    H112981   5.240   3.824   3.037
 4339TIP3    H212982   5.274   3.824   2.889
 4340TIP3   OH212983   4.575   1.202   4.786
 4340TIP3    H112984   4.652   1.151   4.759
 4340TIP3    H212985   4.544   1.158   4.865
 4341TIP3   OH212986   5.143   0.604   5.152
 4341TIP3    H112987   5.205   0.542   5.112
 4341TIP3    H212988   5.122   0.565   5.236
 4342TIP3   OH212989   3.267   0.261   1.600
 4342TIP3    H112990   3.289   0.348   1.567
 4342TIP3    H212991   3.310   0.256   1.685
 4343TIP3   OH212992   4.629   3.827   2.462
 4343TIP3    H112993   4.674   3.911   2.471
 4343TIP3    H212994   4.675   3.768   2.521
 4344TIP3   OH212995   0.095   0.728   3.790
 4344TIP3    H112996   0.000   0.713   3.796
 4344TIP3    H212997   0.106   0.780   3.710
 4345TIP3   OH212998   5.100   3.023   5.704
 4345TIP3    H112999   5.136   2.993   5.620
 4345TIP3    H213000   5.098   2.944   5.759
 4346TIP3   OH213001   3.475   0.658   4.422
 4346TIP3    H113002   3.532   0.582   4.413
 4346TIP3    H213003   3.410   0.632   4.486
 4347TIP3   OH213004   1.976   6.716   1.712
 4347TIP3    H113005   2.055   6.729   1.765
 4347TIP3    H213006   1.920   6.790   1.734
 4348TIP3   OH213007   2.821   4.861   0.577
 4348TIP3    H113008   2.871   4.942   0.572
 4348TIP3    H213009   2.861   4.812   0.649
 4349TIP3   OH213010   1.169   1.987   3.374
 4349TIP3    H113011   1.169   1.907   3.427
 4349TIP3    H213012   1.204   2.055   3.433
 4350TIP3   OH213013   6.540   5.660   3.666
 4350TIP3    H113014   6.474   5.632   3.729
 4350TIP3    H213015   6.620   5.670   3.718
 4351TIP3   OH213016   2.715   2.319   5.159
 4351TIP3    H113017   2.773   2.365   5.099
 4351TIP3    H213018   2.759   2.236   5.176
 4352TIP3   OH213019   5.215   5.034   2.013
 4352TIP3    H113020   5.197   5.077   2.097
 4352TIP3    H213021   5.290   4.978   2.031
 4353TIP3   OH213022   0.382   0.921   1.281
 4353TIP3    H113023   0.306   0.871   1.311
 4353TIP3    H213024   0.352   1.012   1.280
 4354TIP3   OH213025   2.117   4.351   1.870
 4354TIP3    H113026   2.141   4.398   1.950
 4354TIP3    H213027   2.062   4.278   1.900
 4355TIP3   OH213028   5.358   2.710   5.042
 4355TIP3    H113029   5.263   2.721   5.048
 4355TIP3    H213030   5.380   2.741   4.954
 4356TIP3   OH213031   0.143   2.837   2.867
 4356TIP3    H113032   0.076   2.843   2.799
 4356TIP3    H213033   0.093   2.840   2.949
 4357TIP3   OH213034   6.164   3.620   5.277
 4357TIP3    H113035   6.073   3.647   5.269
 4357TIP3    H213036   6.172   3.590   5.368
 4358TIP3   OH213037   4.568   4.232   4.518
 4358TIP3    H113038   4.522   4.153   4.547
 4358TIP3    H213039   4.638   4.244   4.583
 4359TIP3   OH213040   6.196   4.116   0.279
 4359TIP3    H113041   6.168   4.058   0.208
 4359TIP3    H213042   6.256   4.062   0.331
 4360TIP3   OH213043   6.884   6.241   0.533
 4360TIP3    H113044   6.902   6.333   0.513
 4360TIP3    H213045   6.847   6.243   0.622
 4361TIP3   OH213046   7.070   3.671   4.187
 4361TIP3    H113047   7.059   3.674   4.092
 4361TIP3    H213048   7.161   3.698   4.201
 4362TIP3   OH213049   4.310   0.972   4.212
 4362TIP3    H113050   4.364   1.002   4.139
 4362TIP3    H213051   4.349   0.888   4.238
 4363TIP3   OH213052   1.590   5.576   4.301
 4363TIP3    H113053   1.577   5.585   4.206
 4363TIP3    H213054   1.570   5.663   4.335
 4364TIP3   OH213055   1.628   1.704   4.679
 4364TIP3    H113056   1.548   1.657   4.703
 4364TIP3    H213057   1.628   1.706   4.583
 4365TIP3   OH213058   1.840   5.018   3.411
 4365TIP3    H113059   1.848   4.933   3.367
 4365TIP3    H213060   1.803   4.997   3.497
 4366TIP3   OH213061   5.622   0.521   3.644
 4366TIP3    H113062   5.598   0.594   3.701
 4366TIP3    H213063   5.598   0.550   3.556
 4367TIP3   OH213064   2.910   1.115   1.269
 4367TIP3    H113065   2.831   1.096   1.219
 4367TIP3    H213066   2.981   1.070   1.222
 4368TIP3   OH213067   4.773   2.064   3.877
 4368TIP3    H113068   4.818   2.092   3.798
 4368TIP3    H213069   4.683   2.046   3.848
 4369TIP3   OH213070   2.443   6.113   3.799
 4369TIP3    H113071   2.437   6.018   3.785
 4369TIP3    H213072   2.353   6.140   3.814
 4370TIP3   OH213073   1.773   2.984   5.479
 4370TIP3    H113074   1.742   2.897   5.452
 4370TIP3    H213075   1.749   3.042   5.407
 4371TIP3   OH213076   0.921   5.796   1.982
 4371TIP3    H113077   0.933   5.863   2.049
 4371TIP3    H213078   0.871   5.840   1.913
 4372TIP3   OH213079   0.630   2.201   1.278
 4372TIP3    H113080   0.574   2.197   1.356
 4372TIP3    H213081   0.697   2.266   1.301
 4373TIP3   OH213082   3.338   1.690   5.791
 4373TIP3    H113083   3.267   1.625   5.786
 4373TIP3    H213084   3.415   1.639   5.814
 4374TIP3   OH213085   4.884   1.175   4.678
 4374TIP3    H113086   4.935   1.232   4.735
 4374TIP3    H213087   4.905   1.086   4.707
 4375TIP3   OH213088   3.190   2.084   5.448
 4375TIP3    H113089   3.204   2.035   5.367
 4375TIP3    H213090   3.096   2.101   5.451
 4376TIP3   OH213091   3.234   1.054   5.570
 4376TIP3    H113092   3.240   1.064   5.665
 4376TIP3    H213093   3.180   0.976   5.557
 4377TIP3   OH213094   0.265   1.992   0.816
 4377TIP3    H113095   0.197   1.957   0.758
 4377TIP3    H213096   0.343   1.941   0.795
 4378TIP3   OH213097   6.645   5.082   2.911
 4378TIP3    H113098   6.685   4.995   2.909
 4378TIP3    H213099   6.664   5.119   2.825
 4379TIP3   OH213100   5.663   6.541   1.139
 4379TIP3    H113101   5.653   6.578   1.052
 4379TIP3    H213102   5.573   6.534   1.172
 4380TIP3   OH213103   3.859   1.351   4.025
 4380TIP3    H113104   3.865   1.257   4.039
 4380TIP3    H213105   3.790   1.380   4.085
 4381TIP3   OH213106   7.073   5.283   4.769
 4381TIP3    H113107   7.039   5.267   4.857
 4381TIP3    H213108   7.169   5.281   4.779
 4382TIP3   OH213109   4.870   0.968   5.367
 4382TIP3    H113110   4.897   0.914   5.441
 4382TIP3    H213111   4.898   0.918   5.290
 4383TIP3   OH213112   4.004   3.998   5.145
 4383TIP3    H113113   3.998   4.051   5.066
 4383TIP3    H213114   4.063   3.926   5.122
 4384TIP3   OH213115   0.458   4.330   3.816
 4384TIP3    H113116   0.490   4.292   3.898
 4384TIP3    H213117   0.521   4.301   3.750
 4385TIP3   OH213118   4.566   1.929   3.605
 4385TIP3    H113119   4.519   1.852   3.639
 4385TIP3    H213120   4.657   1.900   3.596
 4386TIP3   OH213121   6.492   5.513   1.912
 4386TIP3    H113122   6.524   5.603   1.909
 4386TIP3    H213123   6.397   5.521   1.920
 4387TIP3   OH213124   1.703   6.334   0.805
 4387TIP3    H113125   1.658   6.399   0.751
 4387TIP3    H213126   1.659   6.339   0.890
 4388TIP3   OH213127   6.055   6.050   2.961
 4388TIP3    H113128   5.960   6.038   2.948
 4388TIP3    H213129   6.067   6.045   3.055
 4389TIP3   OH213130   1.017   1.393   0.892
 4389TIP3    H113131   0.977   1.451   0.828
 4389TIP3    H213132   1.107   1.381   0.862
 4390TIP3   OH213133   0.128   6.508   3.332
 4390TIP3    H113134   0.117   6.598   3.300
 4390TIP3    H213135   0.040   6.483   3.360
 4391TIP3   OH213136   5.852   5.494   4.464
 4391TIP3    H113137   5.799   5.500   4.384
 4391TIP3    H213138   5.830   5.572   4.514
 4392TIP3   OH213139   0.367   6.396   0.653
 4392TIP3    H113140   0.379   6.304   0.676
 4392TIP3    H213141   0.288   6.397   0.598
 4393TIP3   OH213142   5.057   6.299   1.578
 4393TIP3    H113143   5.117   6.226   1.566
 4393TIP3    H213144   5.045   6.305   1.672
 4394TIP3   OH213145   1.514   4.478   2.649
 4394TIP3    H113146   1.515   4.438   2.562
 4394TIP3    H213147   1.433   4.447   2.688
 4395TIP3   OH213148   4.597   5.171   4.986
 4395TIP3    H113149   4.656   5.178   4.911
 4395TIP3    H213150   4.583   5.262   5.014
 4396TIP3   OH213151   4.451   4.011   2.083
 4396TIP3    H113152   4.452   3.921   2.052
 4396TIP3    H213153   4.386   4.055   2.028
 4397TIP3   OH213154   5.268   1.358   4.789
 4397TIP3    H113155   5.357   1.363   4.824
 4397TIP3    H213156   5.226   1.289   4.840
 4398TIP3   OH213157   4.610   1.178   4.106
 4398TIP3    H113158   4.635   1.137   4.189
 4398TIP3    H213159   4.591   1.269   4.129
 4399TIP3   OH213160   5.592   2.868   1.124
 4399TIP3    H113161   5.632   2.943   1.080
 4399TIP3    H213162   5.532   2.906   1.188
 4400TIP3   OH213163   0.915   2.930   4.487
 4400TIP3    H113164   0.825   2.918   4.458
 4400TIP3    H213165   0.942   3.014   4.451
 4401TIP3   OH213166   1.589   4.812   1.023
 4401TIP3    H113167   1.668   4.866   1.021
 4401TIP3    H213168   1.560   4.809   0.932
 4402TIP3   OH213169   6.873   1.801   5.248
 4402TIP3    H113170   6.886   1.768   5.160
 4402TIP3    H213171   6.809   1.872   5.238
 4403TIP3   OH213172   6.894   2.207   0.926
 4403TIP3    H113173   6.802   2.214   0.951
 4403TIP3    H213174   6.935   2.158   0.998
 4404TIP3   OH213175   6.987   1.423   3.485
 4404TIP3    H113176   6.932   1.346   3.498
 4404TIP3    H213177   7.028   1.437   3.570
 4405TIP3   OH213178   1.613   5.809   3.458
 4405TIP3    H113179   1.623   5.890   3.508
 4405TIP3    H213180   1.703   5.783   3.437
 4406TIP3   OH213181   1.664   4.617   1.860
 4406TIP3    H113182   1.749   4.628   1.902
 4406TIP3    H213183   1.606   4.678   1.905
 4407TIP3   OH213184   6.124   3.649   1.361
 4407TIP3    H113185   6.168   3.733   1.347
 4407TIP3    H213186   6.150   3.623   1.449
 4408TIP3   OH213187   0.131   2.272   4.418
 4408TIP3    H113188   0.062   2.209   4.436
 4408TIP3    H213189   0.203   2.247   4.476
 4409TIP3   OH213190   7.105   3.132   5.388
 4409TIP3    H113191   7.100   3.106   5.480
 4409TIP3    H213192   7.046   3.206   5.380
 4410TIP3   OH213193   6.441   6.194   4.554
 4410TIP3    H113194   6.412   6.232   4.472
 4410TIP3    H213195   6.416   6.258   4.621
 4411TIP3   OH213196   1.685   5.429   1.528
 4411TIP3    H113197   1.657   5.378   1.604
 4411TIP3    H213198   1.757   5.379   1.490
 4412TIP3   OH213199   3.757   1.424   2.688
 4412TIP3    H113200   3.781   1.475   2.611
 4412TIP3    H213201   3.682   1.470   2.725
 4413TIP3   OH213202   5.089   4.419   3.789
 4413TIP3    H113203   4.997   4.440   3.772
 4413TIP3    H213204   5.097   4.326   3.766
 4414TIP3   OH213205   3.239   4.797   2.865
 4414TIP3    H113206   3.217   4.885   2.897
 4414TIP3    H213207   3.154   4.754   2.856
 4415TIP3   OH213208   4.384   1.219   1.032
 4415TIP3    H113209   4.471   1.203   0.994
 4415TIP3    H213210   4.395   1.300   1.082
 4416TIP3   OH213211   6.486   3.389   1.294
 4416TIP3    H113212   6.567   3.339   1.281
 4416TIP3    H213213   6.466   3.378   1.386
 4417TIP3   OH213214   4.403   1.135   5.377
 4417TIP3    H113215   4.390   1.153   5.470
 4417TIP3    H213216   4.321   1.095   5.348
 4418TIP3   OH213217   1.165   5.187   3.841
 4418TIP3    H113218   1.254   5.170   3.870
 4418TIP3    H213219   1.156   5.138   3.760
 4419TIP3   OH213220   5.040   5.742   5.495
 4419TIP3    H113221   5.116   5.724   5.439
 4419TIP3    H213222   4.965   5.737   5.436
 4420TIP3   OH213223   3.329   0.681   0.393
 4420TIP3    H113224   3.355   0.616   0.459
 4420TIP3    H213225   3.242   0.653   0.364
 4421TIP3   OH213226   3.647   3.908   0.457
 4421TIP3    H113227   3.705   3.887   0.530
 4421TIP3    H213228   3.563   3.871   0.482
 4422TIP3   OH213229   7.009   5.150   3.001
 4422TIP3    H113230   7.018   5.064   2.962
 4422TIP3    H213231   7.097   5.172   3.033
 4423TIP3   OH213232   2.533   5.686   4.603
 4423TIP3    H113233   2.539   5.728   4.517
 4423TIP3    H213234   2.440   5.666   4.613
 4424TIP3   OH213235   6.117   4.290   5.344
 4424TIP3    H113236   6.088   4.340   5.420
 4424TIP3    H213237   6.086   4.201   5.360
 4425TIP3   OH213238   0.476   2.084   3.339
 4425TIP3    H113239   0.533   2.047   3.273
 4425TIP3    H213240   0.497   2.035   3.419
 4426TIP3   OH213241   4.287   0.787   0.647
 4426TIP3    H113242   4.345   0.791   0.723
 4426TIP3    H213243   4.213   0.843   0.670
 4427TIP3   OH213244   6.240   0.520   5.570
 4427TIP3    H113245   6.302   0.472   5.514
 4427TIP3    H213246   6.252   0.481   5.657
 4428TIP3   OH213247   6.325   3.972   4.693
 4428TIP3    H113248   6.328   3.908   4.622
 4428TIP3    H213249   6.417   3.987   4.715
 4429TIP3   OH213250   2.945   2.405   0.139
 4429TIP3    H113251   3.026   2.381   0.093
 4429TIP3    H213252   2.971   2.414   0.230
 4430TIP3   OH213253   6.921   5.185   4.540
 4430TIP3    H113254   6.867   5.114   4.576
 4430TIP3    H213255   6.965   5.223   4.616
 4431TIP3   OH213256   5.003   5.841   5.213
 4431TIP3    H113257   4.937   5.798   5.267
 4431TIP3    H213258   5.013   5.928   5.252
 4432TIP3   OH213259   3.067   5.175   4.496
 4432TIP3    H113260   3.072   5.265   4.527
 4432TIP3    H213261   3.095   5.122   4.571
 4433TIP3   OH213262   1.201   5.616   5.352
 4433TIP3    H113263   1.148   5.584   5.425
 4433TIP3    H213264   1.137   5.639   5.284
 4434TIP3   OH213265   6.912   0.853   1.289
 4434TIP3    H113266   6.956   0.858   1.204
 4434TIP3    H213267   6.819   0.847   1.266
 4435TIP3   OH213268   1.846   1.395   3.382
 4435TIP3    H113269   1.824   1.331   3.450
 4435TIP3    H213270   1.833   1.348   3.300
 4436TIP3   OH213271   4.493   3.303   1.271
 4436TIP3    H113272   4.534   3.221   1.241
 4436TIP3    H213273   4.423   3.319   1.207
 4437TIP3   OH213274   3.602   3.659   4.373
 4437TIP3    H113275   3.578   3.589   4.433
 4437TIP3    H213276   3.696   3.671   4.386
 4438TIP3   OH213277   6.888   4.685   2.150
 4438TIP3    H113278   6.965   4.641   2.115
 4438TIP3    H213279   6.862   4.746   2.081
 4439TIP3   OH213280   5.455   1.271   2.338
 4439TIP3    H113281   5.364   1.245   2.325
 4439TIP3    H213282   5.450   1.359   2.375
 4440TIP3   OH213283   2.613   5.837   2.765
 4440TIP3    H113284   2.562   5.917   2.772
 4440TIP3    H213285   2.548   5.767   2.761
 4441TIP3   OH213286   0.771   4.378   5.804
 4441TIP3    H113287   0.687   4.423   5.794
 4441TIP3    H213288   0.837   4.444   5.779
 4442TIP3   OH213289   7.117   4.650   2.419
 4442TIP3    H113290   7.036   4.680   2.459
 4442TIP3    H213291   7.181   4.654   2.490
 4443TIP3   OH213292   1.136   5.142   5.701
 4443TIP3    H113293   1.052   5.122   5.743
 4443TIP3    H213294   1.113   5.193   5.624
 4444TIP3   OH213295   5.376   4.487   3.731
 4444TIP3    H113296   5.291   4.481   3.776
 4444TIP3    H213297   5.410   4.398   3.733
 4445TIP3   OH213298   3.977   1.739   1.476
 4445TIP3    H113299   3.898   1.758   1.426
 4445TIP3    H213300   3.961   1.776   1.563
 4446TIP3   OH213301   4.450   2.177   1.456
 4446TIP3    H113302   4.413   2.099   1.498
 4446TIP3    H213303   4.390   2.247   1.480
 4447TIP3   OH213304   5.152   4.676   4.099
 4447TIP3    H113305   5.235   4.675   4.147
 4447TIP3    H213306   5.131   4.584   4.086
 4448TIP3   OH213307   2.649   4.521   2.585
 4448TIP3    H113308   2.581   4.587   2.598
 4448TIP3    H213309   2.607   4.438   2.609
 4449TIP3   OH213310   3.872   0.741   2.013
 4449TIP3    H113311   3.959   0.775   1.990
 4449TIP3    H213312   3.885   0.697   2.097
 4450TIP3   OH213313   4.581   1.733   2.964
 4450TIP3    H113314   4.502   1.732   3.018
 4450TIP3    H213315   4.549   1.721   2.874
 4451TIP3   OH213316   7.199   2.058   4.486
 4451TIP3    H113317   7.206   1.996   4.559
 4451TIP3    H213318   7.209   2.005   4.408
 4452TIP3   OH213319   5.853   4.221   5.751
 4452TIP3    H113320   5.809   4.242   5.833
 4452TIP3    H213321   5.813   4.279   5.687
 4453TIP3   OH213322   4.885   4.971   2.312
 4453TIP3    H113323   4.797   4.935   2.321
 4453TIP3    H213324   4.913   4.943   2.225
 4454TIP3   OH213325   2.152   0.850   3.823
 4454TIP3    H113326   2.117   0.831   3.736
 4454TIP3    H213327   2.084   0.818   3.883
 4455TIP3   OH213328   5.009   1.443   5.652
 4455TIP3    H113329   4.983   1.535   5.647
 4455TIP3    H213330   4.939   1.395   5.609
 4456TIP3   OH213331   3.764   5.668   5.717
 4456TIP3    H113332   3.740   5.602   5.782
 4456TIP3    H213333   3.687   5.675   5.661
 4457TIP3   OH213334   0.746   6.194   4.134
 4457TIP3    H113335   0.651   6.198   4.128
 4457TIP3    H213336   0.767   6.231   4.220
 4458TIP3   OH213337   6.932   0.032   1.485
 4458TIP3    H113338   6.940   0.067   1.396
 4458TIP3    H213339   7.000  -0.036   1.490
 4459TIP3   OH213340   1.544   1.976   4.405
 4459TIP3    H113341   1.535   1.881   4.408
 4459TIP3    H213342   1.554   1.997   4.312
 4460TIP3   OH213343   2.479   2.918   1.963
 4460TIP3    H113344   2.545   2.985   1.943
 4460TIP3    H213345   2.427   2.911   1.883
 4461TIP3   OH213346   4.493   6.679   0.696
 4461TIP3    H113347   4.539   6.746   0.646
 4461TIP3    H213348   4.451   6.624   0.629
 4462TIP3   OH213349   0.122   5.708   2.573
 4462TIP3    H113350   0.036   5.666   2.576
 4462TIP3    H213351   0.178   5.654   2.629
 4463TIP3   OH213352   1.306   3.130   0.799
 4463TIP3    H113353   1.389   3.111   0.843
 4463TIP3    H213354   1.245   3.063   0.831
 4464TIP3   OH213355   1.819   6.728   3.943
 4464TIP3    H113356   1.775   6.679   4.012
 4464TIP3    H213357   1.783   6.692   3.861
 4465TIP3   OH213358   5.459   2.378   4.041
 4465TIP3    H113359   5.509   2.332   3.974
 4465TIP3    H213360   5.397   2.432   3.992
 4466TIP3   OH213361   5.044   3.179   5.419
 4466TIP3    H113362   5.092   3.183   5.336
 4466TIP3    H213363   5.048   3.268   5.453
 4467TIP3   OH213364   4.980   5.459   2.782
 4467TIP3    H113365   4.917   5.389   2.772
 4467TIP3    H213366   5.002   5.458   2.876
 4468TIP3   OH213367   0.164   5.770   4.056
 4468TIP3    H113368   0.138   5.760   4.147
 4468TIP3    H213369   0.254   5.801   4.060
 4469TIP3   OH213370   6.211   2.435   0.046
 4469TIP3    H113371   6.152   2.424  -0.029
 4469TIP3    H213372   6.156   2.476   0.114
 4470TIP3   OH213373   4.045   1.090   4.842
 4470TIP3    H113374   4.027   1.002   4.873
 4470TIP3    H213375   4.138   1.090   4.822
 4471TIP3   OH213376   4.987   1.303   0.606
 4471TIP3    H113377   4.992   1.248   0.528
 4471TIP3    H213378   5.078   1.321   0.628
 4472TIP3   OH213379   5.323   0.638   4.565
 4472TIP3    H113380   5.330   0.671   4.655
 4472TIP3    H213381   5.290   0.548   4.576
 4473TIP3   OH213382   5.172   6.543   2.063
 4473TIP3    H113383   5.192   6.451   2.081
 4473TIP3    H213384   5.258   6.585   2.057
 4474TIP3   OH213385   0.461   5.963   1.624
 4474TIP3    H113386   0.552   5.989   1.631
 4474TIP3    H213387   0.426   6.016   1.551
 4475TIP3   OH213388   2.775   5.151   4.917
 4475TIP3    H113389   2.829   5.082   4.881
 4475TIP3    H213390   2.805   5.231   4.873
 4476TIP3   OH213391   4.500   1.369   3.840
 4476TIP3    H113392   4.502   1.401   3.930
 4476TIP3    H213393   4.491   1.274   3.849
 4477TIP3   OH213394   6.870   6.503   2.384
 4477TIP3    H113395   6.820   6.432   2.343
 4477TIP3    H213396   6.824   6.583   2.358
 4478TIP3   OH213397   3.414   4.035   3.212
 4478TIP3    H113398   3.429   4.125   3.241
 4478TIP3    H213399   3.336   4.007   3.260
 4479TIP3   OH213400   3.994   2.787   1.738
 4479TIP3    H113401   4.041   2.859   1.779
 4479TIP3    H213402   3.903   2.817   1.730
 4480TIP3   OH213403   2.929   3.781   1.805
 4480TIP3    H113404   2.874   3.828   1.868
 4480TIP3    H213405   2.945   3.696   1.847
 4481TIP3   OH213406   5.532   2.472   5.358
 4481TIP3    H113407   5.467   2.437   5.297
 4481TIP3    H213408   5.616   2.439   5.326
 4482TIP3   OH213409   6.188   6.272   5.251
 4482TIP3    H113410   6.208   6.187   5.291
 4482TIP3    H213411   6.210   6.336   5.319
 4483TIP3   OH213412   2.623   4.279   1.516
 4483TIP3    H113413   2.623   4.189   1.483
 4483TIP3    H213414   2.672   4.274   1.598
 4484TIP3   OH213415   1.823   0.004   1.281
 4484TIP3    H113416   1.842   0.078   1.338
 4484TIP3    H213417   1.729  -0.011   1.291
 4485TIP3   OH213418   6.861   2.928   1.274
 4485TIP3    H113419   6.826   2.903   1.188
 4485TIP3    H213420   6.951   2.895   1.274
 4486TIP3   OH213421   3.913   5.405   5.692
 4486TIP3    H113422   3.945   5.411   5.602
 4486TIP3    H213423   3.869   5.489   5.708
 4487TIP3   OH213424   0.885   5.317   2.291
 4487TIP3    H113425   0.980   5.306   2.304
 4487TIP3    H213426   0.846   5.272   2.366
 4488TIP3   OH213427   2.267   1.917   0.421
 4488TIP3    H113428   2.243   1.931   0.329
 4488TIP3    H213429   2.354   1.879   0.418
 4489TIP3   OH213430   3.705   2.579   4.256
 4489TIP3    H113431   3.712   2.570   4.161
 4489TIP3    H213432   3.610   2.578   4.273
 4490TIP3   OH213433   5.124   2.699   3.521
 4490TIP3    H113434   5.047   2.686   3.577
 4490TIP3    H213435   5.087   2.730   3.438
 4491TIP3   OH213436   0.644   1.798   1.153
 4491TIP3    H113437   0.606   1.824   1.236
 4491TIP3    H213438   0.713   1.735   1.176
 4492TIP3   OH213439   1.487   3.612   1.011
 4492TIP3    H113440   1.531   3.659   0.940
 4492TIP3    H213441   1.507   3.519   0.995
 4493TIP3   OH213442   1.194   6.183   2.927
 4493TIP3    H113443   1.187   6.120   2.856
 4493TIP3    H213444   1.264   6.242   2.901
 4494TIP3   OH213445   0.604   1.174   0.741
 4494TIP3    H113446   0.532   1.117   0.769
 4494TIP3    H213447   0.603   1.169   0.645
 4495TIP3   OH213448   2.318   2.748   1.458
 4495TIP3    H113449   2.339   2.796   1.377
 4495TIP3    H213450   2.223   2.741   1.457
 4496TIP3   OH213451   3.029   0.136   4.831
 4496TIP3    H113452   3.066   0.224   4.834
 4496TIP3    H213453   2.935   0.149   4.842
 4497TIP3   OH213454   4.200   3.926   1.831
 4497TIP3    H113455   4.192   4.013   1.871
 4497TIP3    H213456   4.265   3.939   1.762
 4498TIP3   OH213457   1.069   6.554   5.671
 4498TIP3    H113458   1.165   6.562   5.668
 4498TIP3    H213459   1.052   6.489   5.739
 4499TIP3   OH213460   1.995   4.613   3.797
 4499TIP3    H113461   2.029   4.700   3.817
 4499TIP3    H213462   2.068   4.554   3.817
 4500TIP3   OH213463   6.813   4.660   3.681
 4500TIP3    H113464   6.727   4.682   3.645
 4500TIP3    H213465   6.838   4.581   3.633
 4501TIP3   OH213466   4.017   4.120   0.441
 4501TIP3    H113467   3.966   4.049   0.480
 4501TIP3    H213468   3.983   4.200   0.483
 4502TIP3   OH213469   2.875   6.498   4.295
 4502TIP3    H113470   2.961   6.532   4.317
 4502TIP3    H213471   2.858   6.532   4.207
 4503TIP3   OH213472   6.952   0.055   2.626
 4503TIP3    H113473   6.951   0.038   2.531
 4503TIP3    H213474   7.005   0.134   2.635
 4504TIP3   OH213475   0.909   2.556   2.089
 4504TIP3    H113476   0.944   2.598   2.168
 4504TIP3    H213477   0.814   2.564   2.098
 4505TIP3   OH213478   1.430   2.383   4.355
 4505TIP3    H113479   1.477   2.336   4.424
 4505TIP3    H213480   1.346   2.407   4.394
 4506TIP3   OH213481   1.198   0.256   3.994
 4506TIP3    H113482   1.215   0.341   3.954
 4506TIP3    H213483   1.110   0.263   4.029
 4507TIP3   OH213484   5.643   5.585   1.412
 4507TIP3    H113485   5.673   5.527   1.341
 4507TIP3    H213486   5.696   5.558   1.487
 4508TIP3   OH213487   0.623   5.625   3.640
 4508TIP3    H113488   0.553   5.576   3.684
 4508TIP3    H213489   0.700   5.568   3.648
 4509TIP3   OH213490   6.446   5.567   5.359
 4509TIP3    H113491   6.489   5.623   5.423
 4509TIP3    H213492   6.509   5.558   5.288
 4510TIP3   OH213493   0.518   4.894   0.739
 4510TIP3    H113494   0.497   4.986   0.718
 4510TIP3    H213495   0.599   4.899   0.790
 4511TIP3   OH213496   5.681   0.999   2.473
 4511TIP3    H113497   5.595   0.971   2.440
 4511TIP3    H213498   5.680   0.974   2.565
 4512TIP3   OH213499   0.748   5.452   1.408
 4512TIP3    H113500   0.789   5.377   1.365
 4512TIP3    H213501   0.714   5.505   1.336
 4513TIP3   OH213502   6.329   3.951   2.872
 4513TIP3    H113503   6.327   4.045   2.888
 4513TIP3    H213504   6.359   3.913   2.954
 4514TIP3   OH213505   6.685   2.669   5.656
 4514TIP3    H113506   6.591   2.654   5.672
 4514TIP3    H213507   6.689   2.693   5.563
 4515TIP3   OH213508   3.238   5.920   5.424
 4515TIP3    H113509   3.307   5.976   5.386
 4515TIP3    H213510   3.162   5.978   5.428
 4516TIP3   OH213511   6.826   5.391   0.449
 4516TIP3    H113512   6.832   5.312   0.502
 4516TIP3    H213513   6.792   5.361   0.365
 4517TIP3   OH213514   1.547   3.145   3.806
 4517TIP3    H113515   1.578   3.169   3.718
 4517TIP3    H213516   1.628   3.129   3.856
 4518TIP3   OH213517   3.665   5.949   0.533
 4518TIP3    H113518   3.683   6.026   0.586
 4518TIP3    H213519   3.597   5.901   0.581
 4519TIP3   OH213520   1.797   5.613   3.360
 4519TIP3    H113521   1.886   5.622   3.324
 4519TIP3    H213522   1.749   5.564   3.293
 4520TIP3   OH213523   0.733   5.123   1.898
 4520TIP3    H113524   0.818   5.082   1.880
 4520TIP3    H213525   0.754   5.207   1.938
 4521TIP3   OH213526   2.866   6.132   2.963
 4521TIP3    H113527   2.815   6.188   2.904
 4521TIP3    H213528   2.943   6.185   2.984
 4522TIP3   OH213529   3.597   3.468   2.485
 4522TIP3    H113530   3.511   3.511   2.491
 4522TIP3    H213531   3.590   3.410   2.410
 4523TIP3   OH213532   2.436   1.537   0.079
 4523TIP3    H113533   2.475   1.478   0.144
 4523TIP3    H213534   2.402   1.479   0.011
 4524TIP3   OH213535   5.817   1.421   2.205
 4524TIP3    H113536   5.743   1.483   2.206
 4524TIP3    H213537   5.781   1.341   2.245
 4525TIP3   OH213538   2.223   2.291   5.008
 4525TIP3    H113539   2.187   2.359   4.950
 4525TIP3    H213540   2.298   2.333   5.050
 4526TIP3   OH213541   3.262   0.089   1.387
 4526TIP3    H113542   3.225   0.005   1.414
 4526TIP3    H213543   3.247   0.147   1.460
 4527TIP3   OH213544   1.826   1.682   1.144
 4527TIP3    H113545   1.901   1.681   1.085
 4527TIP3    H213546   1.798   1.774   1.145
 4528TIP3   OH213547   4.893   5.257   4.385
 4528TIP3    H113548   4.887   5.164   4.363
 4528TIP3    H213549   4.838   5.267   4.463
 4529TIP3   OH213550   0.888   3.637   5.794
 4529TIP3    H113551   0.828   3.704   5.762
 4529TIP3    H213552   0.833   3.578   5.846
 4530TIP3   OH213553   4.656   3.490   3.358
 4530TIP3    H113554   4.659   3.538   3.440
 4530TIP3    H213555   4.625   3.403   3.382
 4531TIP3   OH213556   4.336   5.320   1.946
 4531TIP3    H113557   4.261   5.374   1.919
 4531TIP3    H213558   4.297   5.253   2.003
 4532TIP3   OH213559   1.539   4.433   2.954
 4532TIP3    H113560   1.525   4.439   3.048
 4532TIP3    H213561   1.512   4.518   2.920
 4533TIP3   OH213562   2.983   2.567   0.703
 4533TIP3    H113563   2.937   2.526   0.630
 4533TIP3    H213564   3.033   2.496   0.743
 4534TIP3   OH213565   1.788   1.483   2.004
 4534TIP3    H113566   1.700   1.505   1.974
 4534TIP3    H213567   1.830   1.441   1.929
 4535TIP3   OH213568   3.067   4.123   1.196
 4535TIP3    H113569   3.001   4.139   1.264
 4535TIP3    H213570   3.116   4.047   1.227
 4536TIP3   OH213571   0.304   4.938   3.579
 4536TIP3    H113572   0.390   4.939   3.620
 4536TIP3    H213573   0.287   5.030   3.556
 4537TIP3   OH213574   5.465   2.742   4.796
 4537TIP3    H113575   5.528   2.672   4.817
 4537TIP3    H213576   5.520   2.818   4.777
 4538TIP3   OH213577   3.247   6.144   3.938
 4538TIP3    H113578   3.251   6.227   3.891
 4538TIP3    H213579   3.300   6.158   4.016
 4539TIP3   OH213580   4.945   2.088   1.290
 4539TIP3    H113581   4.948   2.118   1.200
 4539TIP3    H213582   4.861   2.043   1.298
 4540TIP3   OH213583   1.491   0.607   5.211
 4540TIP3    H113584   1.544   0.644   5.282
 4540TIP3    H213585   1.529   0.643   5.131
 4541TIP3   OH213586   2.463   3.598   0.125
 4541TIP3    H113587   2.405   3.546   0.180
 4541TIP3    H213588   2.472   3.548   0.044
 4542TIP3   OH213589   6.007   6.516   1.498
 4542TIP3    H113590   5.985   6.494   1.589
 4542TIP3    H213591   5.928   6.559   1.464
 4543TIP3   OH213592   3.885   0.151   2.421
 4543TIP3    H113593   3.824   0.189   2.485
 4543TIP3    H213594   3.936   0.226   2.389
 4544TIP3   OH213595   2.305   3.880   4.353
 4544TIP3    H113596   2.378   3.861   4.294
 4544TIP3    H213597   2.307   3.976   4.364
 4545TIP3   OH213598   2.341   2.107   2.396
 4545TIP3    H113599   2.310   2.085   2.308
 4545TIP3    H213600   2.317   2.032   2.450
 4546TIP3   OH213601   1.385   4.622   5.727
 4546TIP3    H113602   1.343   4.542   5.755
 4546TIP3    H213603   1.455   4.637   5.791
 4547TIP3   OH213604   3.292   2.861   3.307
 4547TIP3    H113605   3.329   2.801   3.371
 4547TIP3    H213606   3.199   2.868   3.331
 4548TIP3   OH213607   3.701   1.394   5.165
 4548TIP3    H113608   3.751   1.313   5.157
 4548TIP3    H213609   3.726   1.445   5.088
 4549TIP3   OH213610   6.650   0.250   5.417
 4549TIP3    H113611   6.637   0.170   5.367
 4549TIP3    H213612   6.718   0.297   5.369
 4550TIP3   OH213613   6.763   3.186   1.645
 4550TIP3    H113614   6.697   3.164   1.711
 4550TIP3    H213615   6.792   3.101   1.612
 4551TIP3   OH213616   2.427   5.573   1.046
 4551TIP3    H113617   2.357   5.509   1.031
 4551TIP3    H213618   2.503   5.521   1.069
 4552TIP3   OH213619   2.805   6.752   5.392
 4552TIP3    H113620   2.743   6.823   5.376
 4552TIP3    H213621   2.868   6.789   5.453
 4553TIP3   OH213622   3.276   4.306   2.872
 4553TIP3    H113623   3.358   4.299   2.920
 4553TIP3    H213624   3.285   4.243   2.801
 4554TIP3   OH213625   5.238   3.867   3.219
 4554TIP3    H113626   5.170   3.935   3.215
 4554TIP3    H213627   5.304   3.904   3.277
 4555TIP3   OH213628   2.731   0.186   4.488
 4555TIP3    H113629   2.721   0.096   4.459
 4555TIP3    H213630   2.775   0.230   4.416
 4556TIP3   OH213631   4.052   3.204   3.971
 4556TIP3    H113632   4.085   3.209   4.061
 4556TIP3    H213633   3.980   3.141   3.975
 4557TIP3   OH213634   3.067   4.815   5.434
 4557TIP3    H113635   3.095   4.821   5.343
 4557TIP3    H213636   2.973   4.801   5.430
 4558TIP3   OH213637   6.186   6.062   1.301
 4558TIP3    H113638   6.177   6.156   1.288
 4558TIP3    H213639   6.259   6.053   1.363
 4559TIP3   OH213640   1.768   6.086   4.447
 4559TIP3    H113641   1.858   6.112   4.427
 4559TIP3    H213642   1.725   6.166   4.477
 4560TIP3   OH213643   6.095   5.659   4.577
 4560TIP3    H113644   6.001   5.678   4.581
 4560TIP3    H213645   6.122   5.693   4.492
 4561TIP3   OH213646   4.173   3.051   5.215
 4561TIP3    H113647   4.081   3.025   5.213
 4561TIP3    H213648   4.211   3.012   5.136
 4562TIP3   OH213649   1.993   3.509   0.104
 4562TIP3    H113650   2.014   3.418   0.125
 4562TIP3    H213651   2.027   3.522   0.015
 4563TIP3   OH213652   1.291   3.020   1.210
 4563TIP3    H113653   1.321   2.930   1.203
 4563TIP3    H213654   1.203   3.013   1.247
 4564TIP3   OH213655   4.397   6.531   5.590
 4564TIP3    H113656   4.455   6.470   5.545
 4564TIP3    H213657   4.349   6.575   5.520
 4565TIP3   OH213658   6.409   0.724   1.285
 4565TIP3    H113659   6.338   0.783   1.310
 4565TIP3    H213660   6.404   0.652   1.349
 4566TIP3   OH213661   0.919   6.205   1.943
 4566TIP3    H113662   0.827   6.230   1.950
 4566TIP3    H213663   0.939   6.160   2.025
 4567TIP3   OH213664   1.839   1.541   5.683
 4567TIP3    H113665   1.931   1.568   5.676
 4567TIP3    H213666   1.829   1.512   5.773
 4568TIP3   OH213667   1.399   5.590   4.074
 4568TIP3    H113668   1.332   5.658   4.083
 4568TIP3    H213669   1.358   5.523   4.019
 4569TIP3   OH213670   5.576   3.985   2.376
 4569TIP3    H113671   5.634   3.923   2.420
 4569TIP3    H213672   5.556   3.943   2.292
 4570TIP3   OH213673   5.730   3.166   3.879
 4570TIP3    H113674   5.822   3.158   3.904
 4570TIP3    H213675   5.718   3.101   3.810
 4571TIP3   OH213676   6.962   5.412   0.052
 4571TIP3    H113677   7.036   5.364   0.091
 4571TIP3    H213678   6.884   5.365   0.082
 4572TIP3   OH213679   1.946   2.930   4.832
 4572TIP3    H113680   1.873   2.873   4.806
 4572TIP3    H213681   2.009   2.923   4.759
 4573TIP3   OH213682   2.312   4.499   3.733
 4573TIP3    H113683   2.263   4.417   3.727
 4573TIP3    H213684   2.400   4.477   3.702
 4574TIP3   OH213685   0.313   6.148   4.518
 4574TIP3    H113686   0.255   6.127   4.445
 4574TIP3    H213687   0.283   6.092   4.589
 4575TIP3   OH213688   3.254   6.039   0.135
 4575TIP3    H113689   3.312   6.011   0.063
 4575TIP3    H213690   3.309   6.032   0.213
 4576TIP3   OH213691   0.725   5.204   0.978
 4576TIP3    H113692   0.755   5.207   1.069
 4576TIP3    H213693   0.644   5.255   0.978
 4577TIP3   OH213694   7.118   0.376   1.119
 4577TIP3    H113695   7.038   0.413   1.158
 4577TIP3    H213696   7.126   0.420   1.035
 4578TIP3   OH213697   0.645   2.643   5.002
 4578TIP3    H113698   0.733   2.608   5.017
 4578TIP3    H213699   0.602   2.576   4.949
 4579TIP3   OH213700   0.743   1.452   2.392
 4579TIP3    H113701   0.798   1.468   2.469
 4579TIP3    H213702   0.669   1.511   2.403
 4580TIP3   OH213703   5.148   5.345   2.062
 4580TIP3    H113704   5.234   5.340   2.104
 4580TIP3    H213705   5.166   5.326   1.970
 4581TIP3   OH213706   5.475   1.852   2.672
 4581TIP3    H113707   5.521   1.926   2.634
 4581TIP3    H213708   5.542   1.784   2.679
 4582TIP3   OH213709   4.456   0.193   2.872
 4582TIP3    H113710   4.487   0.281   2.853
 4582TIP3    H213711   4.518   0.160   2.937
 4583TIP3   OH213712   0.317   1.570   2.008
 4583TIP3    H113713   0.287   1.657   1.982
 4583TIP3    H213714   0.411   1.580   2.023
 4584TIP3   OH213715   5.372   6.320   1.494
 4584TIP3    H113716   5.344   6.262   1.564
 4584TIP3    H213717   5.409   6.261   1.428
 4585TIP3   OH213718   3.135   0.764   5.248
 4585TIP3    H113719   3.072   0.835   5.241
 4585TIP3    H213720   3.176   0.776   5.334
 4586TIP3   OH213721   1.701   5.628   4.026
 4586TIP3    H113722   1.756   5.585   3.960
 4586TIP3    H213723   1.612   5.617   3.994
 4587TIP3   OH213724   1.248   3.420   0.795
 4587TIP3    H113725   1.275   3.329   0.785
 4587TIP3    H213726   1.273   3.443   0.884
 4588TIP3   OH213727   3.836   5.206   4.216
 4588TIP3    H113728   3.853   5.285   4.164
 4588TIP3    H213729   3.742   5.207   4.232
 4589TIP3   OH213730   4.943   2.368   2.952
 4589TIP3    H113731   4.915   2.302   3.016
 4589TIP3    H213732   5.039   2.369   2.958
 4590TIP3   OH213733   3.469   3.115   2.567
 4590TIP3    H113734   3.513   3.033   2.543
 4590TIP3    H213735   3.529   3.157   2.629
 4591TIP3   OH213736   5.532   0.800   1.325
 4591TIP3    H113737   5.534   0.892   1.299
 4591TIP3    H213738   5.613   0.787   1.374
 4592TIP3   OH213739   3.983   3.814   0.176
 4592TIP3    H113740   3.995   3.736   0.230
 4592TIP3    H213741   3.907   3.858   0.212
 4593TIP3   OH213742   5.616   1.064   4.025
 4593TIP3    H113743   5.528   1.093   3.999
 4593TIP3    H213744   5.674   1.132   3.991
 4594TIP3   OH213745   1.910   4.458   3.085
 4594TIP3    H113746   1.977   4.515   3.123
 4594TIP3    H213747   1.956   4.377   3.064
 4595TIP3   OH213748   1.452   3.404   2.852
 4595TIP3    H113749   1.390   3.383   2.922
 4595TIP3    H213750   1.511   3.469   2.891
 4596TIP3   OH213751   6.720   3.055   4.425
 4596TIP3    H113752   6.721   3.136   4.373
 4596TIP3    H213753   6.745   3.082   4.513
 4597TIP3   OH213754   1.500   0.688   4.626
 4597TIP3    H113755   1.422   0.743   4.619
 4597TIP3    H213756   1.467   0.598   4.621
 4598TIP3   OH213757   2.165   4.712   0.037
 4598TIP3    H113758   2.162   4.805   0.018
 4598TIP3    H213759   2.248   4.700   0.084
 4599TIP3   OH213760   2.479   3.389   0.410
 4599TIP3    H113761   2.399   3.425   0.450
 4599TIP3    H213762   2.452   3.367   0.320
 4600TIP3   OH213763   2.932   4.663   4.329
 4600TIP3    H113764   2.956   4.574   4.357
 4600TIP3    H213765   2.970   4.671   4.242
 4601TIP3   OH213766   2.735   2.816   2.885
 4601TIP3    H113767   2.772   2.744   2.833
 4601TIP3    H213768   2.811   2.869   2.909
 4602TIP3   OH213769   3.249   1.913   0.035
 4602TIP3    H113770   3.259   1.942   0.126
 4602TIP3    H213771   3.164   1.869   0.033
 4603TIP3   OH213772   3.415   6.086   0.598
 4603TIP3    H113773   3.488   6.112   0.656
 4603TIP3    H213774   3.398   5.995   0.620
 4604TIP3   OH213775   3.220   4.487   1.903
 4604TIP3    H113776   3.219   4.401   1.944
 4604TIP3    H213777   3.185   4.473   1.815
 4605TIP3   OH213778   2.500   1.586   5.199
 4605TIP3    H113779   2.449   1.517   5.158
 4605TIP3    H213780   2.549   1.626   5.127
 4606TIP3   OH213781   0.129   0.045   3.447
 4606TIP3    H113782   0.089  -0.026   3.397
 4606TIP3    H213783   0.217   0.054   3.410
 4607TIP3   OH213784   2.496   5.900   3.429
 4607TIP3    H113785   2.571   5.853   3.394
 4607TIP3    H213786   2.420   5.848   3.402
 4608TIP3   OH213787   0.784   4.416   0.565
 4608TIP3    H113788   0.871   4.410   0.603
 4608TIP3    H213789   0.758   4.507   0.577
 4609TIP3   OH213790   0.743   5.203   1.246
 4609TIP3    H113791   0.835   5.226   1.257
 4609TIP3    H213792   0.720   5.159   1.329
 4610TIP3   OH213793   1.475   2.428   1.237
 4610TIP3    H113794   1.381   2.426   1.257
 4610TIP3    H213795   1.518   2.405   1.319
 4611TIP3   OH213796   3.256   4.097   3.784
 4611TIP3    H113797   3.278   4.131   3.871
 4611TIP3    H213798   3.329   4.124   3.728
 4612TIP3   OH213799   4.898   6.112   3.611
 4612TIP3    H113800   4.891   6.095   3.705
 4612TIP3    H213801   4.823   6.169   3.591
 4613TIP3   OH213802   2.322   4.239   2.802
 4613TIP3    H113803   2.266   4.307   2.763
 4613TIP3    H213804   2.305   4.245   2.896
 4614TIP3   OH213805   0.166   4.227   2.619
 4614TIP3    H113806   0.119   4.248   2.700
 4614TIP3    H213807   0.208   4.143   2.637
 4615TIP3   OH213808   1.410   4.728   1.651
 4615TIP3    H113809   1.486   4.704   1.704
 4615TIP3    H213810   1.428   4.817   1.622
 4616TIP3   OH213811   3.790   3.272   1.966
 4616TIP3    H113812   3.858   3.284   2.032
 4616TIP3    H213813   3.743   3.193   1.993
 4617TIP3   OH213814   6.675   4.708   2.673
 4617TIP3    H113815   6.706   4.713   2.582
 4617TIP3    H213816   6.600   4.768   2.676
 4618TIP3   OH213817   6.223   1.324   4.754
 4618TIP3    H113818   6.155   1.374   4.799
 4618TIP3    H213819   6.282   1.391   4.718
 4619TIP3   OH213820   3.365   0.950   3.175
 4619TIP3    H113821   3.374   0.954   3.080
 4619TIP3    H213822   3.300   1.018   3.196
 4620TIP3   OH213823   0.942   3.665   3.361
 4620TIP3    H113824   0.986   3.746   3.333
 4620TIP3    H213825   0.855   3.671   3.324
 4621TIP3   OH213826   0.085   3.185   2.385
 4621TIP3    H113827   0.157   3.162   2.326
 4621TIP3    H213828   0.006   3.167   2.333
 4622TIP3   OH213829   4.934   3.898   1.801
 4622TIP3    H113830   4.870   3.904   1.872
 4622TIP3    H213831   4.905   3.823   1.749
 4623TIP3   OH213832   0.569   6.480   3.239
 4623TIP3    H113833   0.569   6.573   3.216
 4623TIP3    H213834   0.621   6.475   3.319
 4624TIP3   OH213835   6.736   2.333   4.645
 4624TIP3    H113836   6.648   2.352   4.677
 4624TIP3    H213837   6.790   2.328   4.724
 4625TIP3   OH213838   3.052   6.351   1.666
 4625TIP3    H113839   3.087   6.281   1.722
 4625TIP3    H213840   3.116   6.421   1.672
 4626TIP3   OH213841   2.987   1.547   5.815
 4626TIP3    H113842   2.943   1.535   5.731
 4626TIP3    H213843   2.922   1.588   5.871
 4627TIP3   OH213844   7.015   0.086   1.878
 4627TIP3    H113845   7.050   0.072   1.966
 4627TIP3    H213846   6.921   0.071   1.886
 4628TIP3   OH213847   0.746   4.372   2.106
 4628TIP3    H113848   0.679   4.304   2.105
 4628TIP3    H213849   0.787   4.367   2.019
 4629TIP3   OH213850   5.819   3.692   2.457
 4629TIP3    H113851   5.819   3.702   2.552
 4629TIP3    H213852   5.910   3.706   2.432
 4630TIP3   OH213853   3.252   0.838   3.719
 4630TIP3    H113854   3.217   0.816   3.805
 4630TIP3    H213855   3.271   0.932   3.724
 4631TIP3   OH213856   6.074   5.199   3.414
 4631TIP3    H113857   6.028   5.252   3.479
 4631TIP3    H213858   6.155   5.172   3.458
 4632TIP3   OH213859   3.212   3.201   2.589
 4632TIP3    H113860   3.287   3.180   2.645
 4632TIP3    H213861   3.230   3.290   2.557
 4633TIP3   OH213862   1.710   5.381   2.713
 4633TIP3    H113863   1.655   5.304   2.717
 4633TIP3    H213864   1.652   5.454   2.736
 4634TIP3   OH213865   6.185   4.924   0.472
 4634TIP3    H113866   6.146   4.843   0.437
 4634TIP3    H213867   6.266   4.935   0.423
 4635TIP3   OH213868   5.937   3.723   2.726
 4635TIP3    H113869   5.974   3.637   2.709
 4635TIP3    H213870   5.993   3.761   2.794
 4636TIP3   OH213871   0.314   2.391   1.476
 4636TIP3    H113872   0.371   2.342   1.418
 4636TIP3    H213873   0.343   2.367   1.564
 4637TIP3   OH213874   1.148   4.166   0.451
 4637TIP3    H113875   1.124   4.082   0.490
 4637TIP3    H213876   1.181   4.218   0.524
 4638TIP3   OH213877   6.470   0.531   3.335
 4638TIP3    H113878   6.501   0.609   3.289
 4638TIP3    H213879   6.404   0.564   3.396
 4639TIP3   OH213880   1.252   4.055   5.744
 4639TIP3    H113881   1.252   4.027   5.653
 4639TIP3    H213882   1.159   4.068   5.765
 4640TIP3   OH213883   5.044   0.810   5.867
 4640TIP3    H113884   5.114   0.860   5.910
 4640TIP3    H213885   5.086   0.728   5.842
 4641TIP3   OH213886   4.601   4.937   4.207
 4641TIP3    H113887   4.567   5.024   4.186
 4641TIP3    H213888   4.611   4.894   4.122
 4642TIP3   OH213889   1.059   3.169   0.566
 4642TIP3    H113890   1.063   3.126   0.480
 4642TIP3    H213891   1.148   3.163   0.600
 4643TIP3   OH213892   5.010   6.304   3.914
 4643TIP3    H113893   4.930   6.287   3.964
 4643TIP3    H213894   5.049   6.381   3.955
 4644TIP3   OH213895   3.551   1.462   3.217
 4644TIP3    H113896   3.636   1.501   3.237
 4644TIP3    H213897   3.499   1.534   3.181
 4645TIP3   OH213898   1.412   1.841   5.608
 4645TIP3    H113899   1.498   1.879   5.621
 4645TIP3    H213900   1.422   1.750   5.637
 4646TIP3   OH213901   6.994   4.435   3.805
 4646TIP3    H113902   6.909   4.427   3.763
 4646TIP3    H213903   7.001   4.357   3.860
 4647TIP3   OH213904   4.812   5.792   2.129
 4647TIP3    H113905   4.865   5.724   2.086
 4647TIP3    H213906   4.743   5.744   2.174
 4648TIP3   OH213907   5.293   6.513   2.920
 4648TIP3    H113908   5.336   6.568   2.985
 4648TIP3    H213909   5.362   6.457   2.886
 4649TIP3   OH213910   2.216   1.176   2.072
 4649TIP3    H113911   2.124   1.183   2.097
 4649TIP3    H213912   2.258   1.129   2.144
 4650TIP3   OH213913   2.622   4.373   5.435
 4650TIP3    H113914   2.553   4.433   5.406
 4650TIP3    H213915   2.647   4.325   5.356
 4651TIP3   OH213916   4.454   2.378   2.734
 4651TIP3    H113917   4.373   2.364   2.784
 4651TIP3    H213918   4.475   2.471   2.747
 4652TIP3   OH213919   6.940   5.502   1.948
 4652TIP3    H113920   7.015   5.472   1.897
 4652TIP3    H213921   6.902   5.421   1.984
 4653TIP3   OH213922   1.664   4.730   0.478
 4653TIP3    H113923   1.681   4.817   0.443
 4653TIP3    H213924   1.697   4.670   0.412
 4654TIP3   OH213925   2.043   4.485   0.134
 4654TIP3    H113926   2.097   4.548   0.085
 4654TIP3    H213927   2.107   4.430   0.181
 4655TIP3   OH213928   5.608   1.594   2.896
 4655TIP3    H113929   5.626   1.672   2.842
 4655TIP3    H213930   5.694   1.559   2.916
 4656TIP3   OH213931   0.889   0.178   0.814
 4656TIP3    H113932   0.926   0.203   0.899
 4656TIP3    H213933   0.965   0.153   0.761
 4657TIP3   OH213934   4.778   3.072   3.042
 4657TIP3    H113935   4.799   3.125   2.965
 4657TIP3    H213936   4.688   3.041   3.027
 4658TIP3   OH213937   0.568   4.305   4.444
 4658TIP3    H113938   0.488   4.358   4.434
 4658TIP3    H213939   0.634   4.351   4.392
 4659TIP3   OH213940   3.560   6.256   3.308
 4659TIP3    H113941   3.551   6.272   3.403
 4659TIP3    H213942   3.627   6.318   3.280
 4660TIP3   OH213943   6.098   2.971   3.279
 4660TIP3    H113944   6.193   2.967   3.290
 4660TIP3    H213945   6.069   3.030   3.348
 4661TIP3   OH213946   6.797   2.089   1.796
 4661TIP3    H113947   6.875   2.126   1.838
 4661TIP3    H213948   6.734   2.081   1.867
 4662TIP3   OH213949   1.179   6.542   1.570
 4662TIP3    H113950   1.222   6.532   1.655
 4662TIP3    H213951   1.235   6.602   1.521
 4663TIP3   OH213952   1.051   0.913   2.845
 4663TIP3    H113953   1.123   0.897   2.906
 4663TIP3    H213954   1.011   0.994   2.875
 4664TIP3   OH213955   4.244   3.291   1.218
 4664TIP3    H113956   4.188   3.216   1.197
 4664TIP3    H213957   4.221   3.313   1.309
 4665TIP3   OH213958   6.507   4.088   5.798
 4665TIP3    H113959   6.442   4.048   5.857
 4665TIP3    H213960   6.491   4.046   5.713
 4666TIP3   OH213961   3.478   5.791   0.660
 4666TIP3    H113962   3.404   5.788   0.599
 4666TIP3    H213963   3.449   5.737   0.734
 4667TIP3   OH213964   4.422   4.670   5.751
 4667TIP3    H113965   4.388   4.751   5.790
 4667TIP3    H213966   4.409   4.681   5.657
 4668TIP3   OH213967   4.608   3.209   2.500
 4668TIP3    H113968   4.648   3.221   2.414
 4668TIP3    H213969   4.583   3.117   2.502
 4669TIP3   OH213970   5.378   4.507   2.869
 4669TIP3    H113971   5.465   4.529   2.900
 4669TIP3    H213972   5.388   4.423   2.824
 4670TIP3   OH213973   6.879   1.079   0.090
 4670TIP3    H113974   6.816   1.034   0.034
 4670TIP3    H213975   6.937   1.126   0.030
 4671TIP3   OH213976   4.779   1.090   5.059
 4671TIP3    H113977   4.864   1.111   5.098
 4671TIP3    H213978   4.736   1.035   5.124
 4672TIP3   OH213979   6.480   2.156   3.558
 4672TIP3    H113980   6.405   2.210   3.535
 4672TIP3    H213981   6.543   2.171   3.487
 4673TIP3   OH213982   2.158   0.050   3.717
 4673TIP3    H113983   2.130   0.142   3.722
 4673TIP3    H213984   2.087   0.006   3.670
 4674TIP3   OH213985   4.999   3.731   1.214
 4674TIP3    H113986   4.963   3.819   1.223
 4674TIP3    H213987   4.969   3.702   1.128
 4675TIP3   OH213988   2.428   0.730   2.072
 4675TIP3    H113989   2.338   0.764   2.071
 4675TIP3    H213990   2.482   0.805   2.047
 4676TIP3   OH213991   5.232   0.316   0.012
 4676TIP3    H113992   5.328   0.309   0.012
 4676TIP3    H213993   5.202   0.235   0.054
 4677TIP3   OH213994   5.762   0.951   4.777
 4677TIP3    H113995   5.736   0.865   4.744
 4677TIP3    H213996   5.750   0.945   4.872
 4678TIP3   OH213997   3.738   3.624   0.308
 4678TIP3    H113998   3.728   3.578   0.225
 4678TIP3    H213999   3.832   3.631   0.321
 4679TIP3   OH214000   3.368   2.037   2.495
 4679TIP3    H114001   3.363   2.061   2.402
 4679TIP3    H214002   3.280   2.051   2.529
 4680TIP3   OH214003   3.657   5.561   2.360
 4680TIP3    H114004   3.574   5.598   2.392
 4680TIP3    H214005   3.697   5.522   2.437
 4681TIP3   OH214006   1.073   2.584   0.188
 4681TIP3    H114007   1.164   2.584   0.217
 4681TIP3    H214008   1.076   2.628   0.103
 4682TIP3   OH214009   6.673   1.959   2.797
 4682TIP3    H114010   6.681   1.964   2.702
 4682TIP3    H214011   6.713   2.040   2.828
 4683TIP3   OH214012   5.446   2.334   3.381
 4683TIP3    H114013   5.529   2.382   3.385
 4683TIP3    H214014   5.397   2.364   3.458
 4684TIP3   OH214015   6.710   5.045   3.222
 4684TIP3    H114016   6.669   5.085   3.299
 4684TIP3    H214017   6.724   5.118   3.162
 4685TIP3   OH214018   6.307   5.687   3.045
 4685TIP3    H114019   6.305   5.755   2.977
 4685TIP3    H214020   6.242   5.624   3.016
 4686TIP3   OH214021   2.577   5.809   0.574
 4686TIP3    H114022   2.590   5.752   0.650
 4686TIP3    H214023   2.512   5.873   0.603
 4687TIP3   OH214024   6.131   6.317   2.188
 4687TIP3    H114025   6.052   6.323   2.134
 4687TIP3    H214026   6.199   6.291   2.127
 4688TIP3   OH214027   5.263   5.790   0.165
 4688TIP3    H114028   5.329   5.823   0.226
 4688TIP3    H214029   5.308   5.723   0.115
 4689TIP3   OH214030   1.912   5.931   1.463
 4689TIP3    H114031   1.880   6.015   1.432
 4689TIP3    H214032   1.851   5.907   1.533
 4690TIP3   OH214033   7.163   4.170   1.908
 4690TIP3    H114034   7.085   4.206   1.951
 4690TIP3    H214035   7.209   4.123   1.978
 4691TIP3   OH214036   3.375   4.102   0.540
 4691TIP3    H114037   3.297   4.055   0.512
 4691TIP3    H214038   3.343   4.188   0.567
 4692TIP3   OH214039   4.110   0.280   1.041
 4692TIP3    H114040   4.178   0.233   0.993
 4692TIP3    H214041   4.154   0.358   1.076
 4693TIP3   OH214042   3.545   0.696   2.003
 4693TIP3    H114043   3.596   0.623   2.037
 4693TIP3    H214044   3.600   0.773   2.018
 4694TIP3   OH214045   6.432   5.845   5.157
 4694TIP3    H114046   6.496   5.774   5.168
 4694TIP3    H214047   6.437   5.894   5.239
 4695TIP3   OH214048   6.362   4.409   4.662
 4695TIP3    H114049   6.446   4.445   4.633
 4695TIP3    H214050   6.299   4.439   4.597
 4696TIP3   OH214051   4.893   2.725   5.538
 4696TIP3    H114052   4.906   2.674   5.458
 4696TIP3    H214053   4.974   2.776   5.547
 4697TIP3   OH214054   3.163   5.420   2.227
 4697TIP3    H114055   3.073   5.407   2.254
 4697TIP3    H214056   3.215   5.404   2.306
 4698TIP3   OH214057   2.526   3.422   3.412
 4698TIP3    H114058   2.522   3.339   3.459
 4698TIP3    H214059   2.450   3.421   3.354
 4699TIP3   OH214060   6.929   1.863   2.187
 4699TIP3    H114061   7.023   1.857   2.169
 4699TIP3    H214062   6.910   1.956   2.190
 4700TIP3   OH214063   4.648   1.979   1.316
 4700TIP3    H114064   4.577   2.036   1.347
 4700TIP3    H214065   4.604   1.905   1.274
 4701TIP3   OH214066   1.524   6.374   2.023
 4701TIP3    H114067   1.497   6.418   2.103
 4701TIP3    H214068   1.563   6.292   2.054
 4702TIP3   OH214069   3.922   1.750   3.432
 4702TIP3    H114070   3.982   1.824   3.417
 4702TIP3    H214071   3.852   1.787   3.485
 4703TIP3   OH214072   2.580   4.888   3.228
 4703TIP3    H114073   2.635   4.851   3.160
 4703TIP3    H214074   2.529   4.814   3.261
 4704TIP3   OH214075   1.411   2.577   1.911
 4704TIP3    H114076   1.330   2.527   1.924
 4704TIP3    H214077   1.421   2.629   1.991
 4705TIP3   OH214078   3.016   5.916   3.230
 4705TIP3    H114079   3.054   5.831   3.254
 4705TIP3    H214080   2.941   5.894   3.175
 4706TIP3   OH214081   6.753   0.543   0.186
 4706TIP3    H114082   6.801   0.497   0.117
 4706TIP3    H214083   6.753   0.483   0.260
 4707TIP3   OH214084   2.822   0.502   3.632
 4707TIP3    H114085   2.917   0.490   3.634
 4707TIP3    H214086   2.795   0.467   3.547
 4708TIP3   OH214087   6.509   2.797   2.482
 4708TIP3    H114088   6.472   2.883   2.503
 4708TIP3    H214089   6.516   2.753   2.567
 4709TIP3   OH214090   3.689   2.910   0.776
 4709TIP3    H114091   3.666   2.818   0.769
 4709TIP3    H214092   3.628   2.954   0.717
 4710TIP3   OH214093   1.934   6.041   5.458
 4710TIP3    H114094   1.977   6.036   5.543
 4710TIP3    H214095   1.991   6.098   5.406
 4711TIP3   OH214096   4.617   4.807   4.713
 4711TIP3    H114097   4.567   4.774   4.788
 4711TIP3    H214098   4.563   4.877   4.677
 4712TIP3   OH214099   3.787   5.935   3.367
 4712TIP3    H114100   3.838   5.947   3.287
 4712TIP3    H214101   3.745   6.020   3.382
 4713TIP3   OH214102   5.079   6.640   2.787
 4713TIP3    H114103   5.097   6.732   2.804
 4713TIP3    H214104   5.157   6.594   2.819
 4714TIP3   OH214105   7.184   5.085   5.353
 4714TIP3    H114106   7.193   4.995   5.324
 4714TIP3    H214107   7.178   5.080   5.448
 4715TIP3   OH214108   1.997   3.106   1.511
 4715TIP3    H114109   2.085   3.125   1.544
 4715TIP3    H214110   1.962   3.044   1.576
 4716TIP3   OH214111   4.040   5.445   4.996
 4716TIP3    H114112   3.950   5.467   4.972
 4716TIP3    H214113   4.056   5.361   4.954
 4717TIP3   OH214114   0.251   0.113   1.875
 4717TIP3    H114115   0.316   0.061   1.829
 4717TIP3    H214116   0.280   0.204   1.865
 4718TIP3   OH214117   2.860   0.950   0.058
 4718TIP3    H114118   2.862   0.961  -0.037
 4718TIP3    H214119   2.823   0.863   0.072
 4719TIP3   OH214120   7.138   1.669   2.556
 4719TIP3    H114121   7.101   1.669   2.645
 4719TIP3    H214122   7.064   1.648   2.499
 4720TIP3   OH214123   5.287   4.659   1.546
 4720TIP3    H114124   5.271   4.655   1.640
 4720TIP3    H214125   5.200   4.661   1.507
 4721TIP3   OH214126   3.714   5.008   1.908
 4721TIP3    H114127   3.652   4.945   1.945
 4721TIP3    H214128   3.660   5.083   1.884
 4722TIP3   OH214129   0.897   0.768   0.691
 4722TIP3    H114130   0.838   0.699   0.661
 4722TIP3    H214131   0.872   0.784   0.781
 4723TIP3   OH214132   5.829   0.152   2.372
 4723TIP3    H114133   5.901   0.122   2.427
 4723TIP3    H214134   5.872   0.205   2.304
 4724TIP3   OH214135   1.800   0.438   0.468
 4724TIP3    H114136   1.856   0.378   0.517
 4724TIP3    H214137   1.776   0.390   0.389
 4725TIP3   OH214138   5.815   1.987   3.141
 4725TIP3    H114139   5.801   1.972   3.047
 4725TIP3    H214140   5.887   1.928   3.164
 4726TIP3   OH214141   7.054   0.186   4.499
 4726TIP3    H114142   7.141   0.202   4.461
 4726TIP3    H214143   7.065   0.105   4.549
 4727TIP3   OH214144   3.385   5.370   4.538
 4727TIP3    H114145   3.427   5.317   4.605
 4727TIP3    H214146   3.445   5.443   4.524
 4728TIP3   OH214147   0.134   3.071   5.656
 4728TIP3    H114148   0.160   2.984   5.685
 4728TIP3    H214149   0.053   3.089   5.704
 4729TIP3   OH214150   3.281   0.712   2.721
 4729TIP3    H114151   3.251   0.621   2.710
 4729TIP3    H214152   3.346   0.707   2.791
 4730TIP3   OH214153   4.308   1.935   1.532
 4730TIP3    H114154   4.347   1.900   1.612
 4730TIP3    H214155   4.226   1.976   1.561
 4731TIP3   OH214156   6.957   0.601   2.841
 4731TIP3    H114157   6.962   0.681   2.893
 4731TIP3    H214158   6.869   0.568   2.856
 4732TIP3   OH214159   1.830   5.521   0.263
 4732TIP3    H114160   1.846   5.442   0.313
 4732TIP3    H214161   1.751   5.559   0.301
 4733TIP3   OH214162   3.117   1.316   2.841
 4733TIP3    H114163   3.070   1.258   2.781
 4733TIP3    H214164   3.205   1.280   2.844
 4734TIP3   OH214165   0.345   4.322   3.448
 4734TIP3    H114166   0.404   4.396   3.438
 4734TIP3    H214167   0.310   4.331   3.537
 4735TIP3   OH214168   0.968   5.558   0.717
 4735TIP3    H114169   0.990   5.643   0.680
 4735TIP3    H214170   0.930   5.577   0.802
 4736TIP3   OH214171   5.395   0.155   2.257
 4736TIP3    H114172   5.475   0.203   2.236
 4736TIP3    H214173   5.340   0.218   2.303
 4737TIP3   OH214174   2.784   0.421   5.237
 4737TIP3    H114175   2.744   0.340   5.205
 4737TIP3    H214176   2.865   0.429   5.186
 4738TIP3   OH214177   0.799   0.614   4.984
 4738TIP3    H114178   0.864   0.654   4.925
 4738TIP3    H214179   0.845   0.607   5.068
 4739TIP3   OH214180   4.823   4.791   0.752
 4739TIP3    H114181   4.793   4.848   0.823
 4739TIP3    H214182   4.862   4.716   0.796
 4740TIP3   OH214183   6.206   6.720   4.628
 4740TIP3    H114184   6.188   6.720   4.722
 4740TIP3    H214185   6.291   6.765   4.620
 4741TIP3   OH214186   5.816   2.272   3.149
 4741TIP3    H114187   5.775   2.187   3.132
 4741TIP3    H214188   5.903   2.251   3.180
 4742TIP3   OH214189   4.232   4.396   5.644
 4742TIP3    H114190   4.237   4.393   5.740
 4742TIP3    H214191   4.319   4.421   5.616
 4743TIP3   OH214192   1.209   0.570   4.049
 4743TIP3    H114193   1.223   0.659   4.082
 4743TIP3    H214194   1.244   0.572   3.960
 4744TIP3   OH214195   3.848   2.594   2.591
 4744TIP3    H114196   3.845   2.502   2.618
 4744TIP3    H214197   3.847   2.643   2.674
 4745TIP3   OH214198   3.737   3.973   4.705
 4745TIP3    H114199   3.714   3.974   4.612
 4745TIP3    H214200   3.829   4.000   4.706
 4746TIP3   OH214201   5.694   2.343   1.604
 4746TIP3    H114202   5.702   2.249   1.619
 4746TIP3    H214203   5.630   2.351   1.533
 4747TIP3   OH214204   1.196   5.747   2.338
 4747TIP3    H114205   1.259   5.780   2.401
 4747TIP3    H214206   1.162   5.667   2.378
 4748TIP3   OH214207   2.944   0.878   1.719
 4748TIP3    H114208   2.949   0.878   1.623
 4748TIP3    H214209   2.862   0.832   1.739
 4749TIP3   OH214210   2.533   6.433   3.525
 4749TIP3    H114211   2.506   6.414   3.435
 4749TIP3    H214212   2.453   6.466   3.567
 4750TIP3   OH214213   2.321   4.041   1.315
 4750TIP3    H114214   2.381   4.025   1.388
 4750TIP3    H214215   2.341   3.973   1.252
 4751TIP3   OH214216   1.059   2.827   5.070
 4751TIP3    H114217   1.008   2.746   5.077
 4751TIP3    H214218   0.997   2.896   5.095
 4752TIP3   OH214219   4.149   2.386   1.831
 4752TIP3    H114220   4.091   2.428   1.767
 4752TIP3    H214221   4.213   2.454   1.853
 4753TIP3   OH214222   4.098   1.040   4.389
 4753TIP3    H114223   4.093   0.971   4.456
 4753TIP3    H214224   4.172   1.014   4.334
 4754TIP3   OH214225   4.283   6.660   2.292
 4754TIP3    H114226   4.234   6.597   2.346
 4754TIP3    H214227   4.215   6.712   2.250
 4755TIP3   OH214228   4.464   3.825   2.804
 4755TIP3    H114229   4.432   3.735   2.797
 4755TIP3    H214230   4.430   3.856   2.888
 4756TIP3   OH214231   1.561   3.192   2.260
 4756TIP3    H114232   1.576   3.278   2.220
 4756TIP3    H214233   1.647   3.164   2.290
 4757TIP3   OH214234   0.119   2.409   5.383
 4757TIP3    H114235   0.110   2.421   5.289
 4757TIP3    H214236   0.071   2.483   5.422
 4758TIP3   OH214237   7.150   3.395   5.524
 4758TIP3    H114238   7.143   3.325   5.588
 4758TIP3    H214239   7.062   3.434   5.522
 4759TIP3   OH214240   6.016   6.583   3.373
 4759TIP3    H114241   6.030   6.531   3.294
 4759TIP3    H214242   5.925   6.565   3.399
 4760TIP3   OH214243   2.708   1.220   3.666
 4760TIP3    H114244   2.769   1.155   3.631
 4760TIP3    H214245   2.673   1.179   3.745
 4761TIP3   OH214246   0.607   0.804   4.922
 4761TIP3    H114247   0.561   0.762   4.849
 4761TIP3    H214248   0.676   0.742   4.946
 4762TIP3   OH214249   3.448   0.322   1.064
 4762TIP3    H114250   3.455   0.415   1.043
 4762TIP3    H214251   3.413   0.282   0.984
 4763TIP3   OH214252   0.135   6.267   1.465
 4763TIP3    H114253   0.078   6.221   1.526
 4763TIP3    H214254   0.197   6.200   1.435
 4764TIP3   OH214255   6.688   3.182   1.922
 4764TIP3    H114256   6.704   3.276   1.932
 4764TIP3    H214257   6.595   3.171   1.945
 4765TIP3   OH214258   6.908   6.526   0.512
 4765TIP3    H114259   6.967   6.590   0.473
 4765TIP3    H214260   6.822   6.547   0.477
 4766TIP3   OH214261   6.683   5.151   2.607
 4766TIP3    H114262   6.751   5.092   2.574
 4766TIP3    H214263   6.625   5.164   2.532
 4767TIP3   OH214264   0.160   1.512   2.952
 4767TIP3    H114265   0.173   1.432   2.900
 4767TIP3    H214266   0.186   1.583   2.894
 4768TIP3   OH214267   6.032   0.027   3.233
 4768TIP3    H114268   6.119   0.014   3.196
 4768TIP3    H214269   5.972   0.011   3.160
 4769TIP3   OH214270   0.918   1.995   5.618
 4769TIP3    H114271   1.013   1.980   5.621
 4769TIP3    H214272   0.909   2.082   5.579
 4770TIP3   OH214273   1.103   3.388   4.556
 4770TIP3    H114274   1.047   3.465   4.562
 4770TIP3    H214275   1.046   3.319   4.522
 4771TIP3   OH214276   3.572   0.757   5.148
 4771TIP3    H114277   3.523   0.784   5.226
 4771TIP3    H214278   3.649   0.711   5.182
 4772TIP3   OH214279   5.507   0.426   2.910
 4772TIP3    H114280   5.559   0.352   2.942
 4772TIP3    H214281   5.572   0.486   2.874
 4773TIP3   OH214282   0.821   2.788   0.038
 4773TIP3    H114283   0.857   2.860  -0.014
 4773TIP3    H214284   0.750   2.827   0.089
 4774TIP3   OH214285   1.302   4.258   3.349
 4774TIP3    H114286   1.390   4.292   3.364
 4774TIP3    H214287   1.316   4.166   3.326
 4775TIP3   OH214288   0.070   4.075   4.349
 4775TIP3    H114289   0.159   4.039   4.345
 4775TIP3    H214290   0.023   4.015   4.407
 4776TIP3   OH214291   6.105   3.930   0.100
 4776TIP3    H114292   6.017   3.927   0.064
 4776TIP3    H214293   6.144   3.847   0.074
 4777TIP3   OH214294   1.600   0.216   4.607
 4777TIP3    H114295   1.603   0.232   4.701
 4777TIP3    H214296   1.680   0.256   4.573
 4778TIP3   OH214297   3.216   3.773   0.593
 4778TIP3    H114298   3.288   3.733   0.545
 4778TIP3    H214299   3.153   3.703   0.605
 4779TIP3   OH214300   6.386   6.296   4.304
 4779TIP3    H114301   6.476   6.296   4.270
 4779TIP3    H214302   6.370   6.387   4.329
 4780TIP3   OH214303   4.153   5.105   0.674
 4780TIP3    H114304   4.149   5.062   0.589
 4780TIP3    H214305   4.174   5.196   0.654
 4781TIP3   OH214306   4.860   2.289   5.790
 4781TIP3    H114307   4.946   2.246   5.796
 4781TIP3    H214308   4.832   2.296   5.881
 4782TIP3   OH214309   1.033   1.349   4.123
 4782TIP3    H114310   1.012   1.335   4.031
 4782TIP3    H214311   1.110   1.407   4.121
 4783TIP3   OH214312   3.015   6.343   4.995
 4783TIP3    H114313   3.058   6.266   5.031
 4783TIP3    H214314   3.077   6.414   5.010
 4784TIP3   OH214315   0.986   3.145   4.292
 4784TIP3    H114316   0.955   3.085   4.224
 4784TIP3    H214317   1.076   3.166   4.267
 4785TIP3   OH214318   6.622   6.439   4.207
 4785TIP3    H114319   6.625   6.457   4.301
 4785TIP3    H214320   6.712   6.419   4.184
 4786TIP3   OH214321   1.829   1.961   3.429
 4786TIP3    H114322   1.840   2.056   3.424
 4786TIP3    H214323   1.735   1.949   3.447
 4787TIP3   OH214324   7.050   3.632   1.682
 4787TIP3    H114325   7.103   3.553   1.690
 4787TIP3    H214326   7.048   3.668   1.770
 4788TIP3   OH214327   5.845   0.613   2.339
 4788TIP3    H114328   5.794   0.571   2.408
 4788TIP3    H214329   5.875   0.541   2.284
 4789TIP3   OH214330   6.017   5.296   4.560
 4789TIP3    H114331   6.096   5.285   4.507
 4789TIP3    H214332   5.974   5.373   4.522
 4790TIP3   OH214333   6.974   4.923   2.289
 4790TIP3    H114334   6.944   4.833   2.281
 4790TIP3    H214335   6.988   4.952   2.199
 4791TIP3   OH214336   0.405   2.110   2.186
 4791TIP3    H114337   0.409   2.128   2.280
 4791TIP3    H214338   0.352   2.031   2.178
 4792TIP3   OH214339   5.439   5.649   4.223
 4792TIP3    H114340   5.344   5.651   4.209
 4792TIP3    H214341   5.452   5.703   4.301
 4793TIP3   OH214342   3.165   6.699   4.064
 4793TIP3    H114343   3.199   6.643   4.133
 4793TIP3    H214344   3.235   6.761   4.045
 4794TIP3   OH214345   3.614   3.238   1.718
 4794TIP3    H114346   3.533   3.189   1.702
 4794TIP3    H214347   3.612   3.258   1.811
 4795TIP3   OH214348   6.455   5.539   4.993
 4795TIP3    H114349   6.406   5.619   4.975
 4795TIP3    H214350   6.462   5.496   4.907
 4796TIP3   OH214351   1.035   3.009   0.330
 4796TIP3    H114352   1.000   2.975   0.248
 4796TIP3    H214353   1.017   2.940   0.394
 4797TIP3   OH214354   5.363   2.009   0.352
 4797TIP3    H114355   5.420   1.971   0.285
 4797TIP3    H214356   5.275   1.983   0.327
 4798TIP3   OH214357   6.880   5.370   2.865
 4798TIP3    H114358   6.960   5.391   2.815
 4798TIP3    H214359   6.902   5.291   2.913
 4799TIP3   OH214360   3.023   2.393   2.728
 4799TIP3    H114361   3.094   2.410   2.790
 4799TIP3    H214362   2.974   2.320   2.767
 4800TIP3   OH214363   6.891   4.468   3.494
 4800TIP3    H114364   6.822   4.412   3.529
 4800TIP3    H214365   6.883   4.460   3.399
 4801TIP3   OH214366   2.146   4.352   3.364
 4801TIP3    H114367   2.212   4.324   3.428
 4801TIP3    H214368   2.157   4.447   3.360
 4802TIP3   OH214369   6.226   0.062   3.995
 4802TIP3    H114370   6.137   0.026   3.995
 4802TIP3    H214371   6.256   0.054   3.905
 4803TIP3   OH214372   1.143   6.281   2.166
 4803TIP3    H114373   1.176   6.226   2.095
 4803TIP3    H214374   1.115   6.219   2.233
 4804TIP3   OH214375   6.280   1.914   3.619
 4804TIP3    H114376   6.351   1.944   3.675
 4804TIP3    H214377   6.318   1.908   3.532
 4805TIP3   OH214378   3.075   5.264   0.153
 4805TIP3    H114379   3.013   5.292   0.220
 4805TIP3    H214380   3.130   5.341   0.138
 4806TIP3   OH214381   2.569   4.923   4.519
 4806TIP3    H114382   2.650   4.917   4.468
 4806TIP3    H214383   2.527   5.003   4.486
 4807TIP3   OH214384   4.676   5.570   1.723
 4807TIP3    H114385   4.767   5.575   1.696
 4807TIP3    H214386   4.676   5.517   1.802
 4808TIP3   OH214387   4.561   0.989   5.781
 4808TIP3    H114388   4.648   0.958   5.803
 4808TIP3    H214389   4.513   0.987   5.864
 4809TIP3   OH214390   4.253   1.825   3.436
 4809TIP3    H114391   4.224   1.884   3.505
 4809TIP3    H214392   4.301   1.881   3.375
 4810TIP3   OH214393   5.686   0.319   2.530
 4810TIP3    H114394   5.645   0.383   2.472
 4810TIP3    H214395   5.720   0.251   2.471
 4811TIP3   OH214396   0.098   3.566   2.350
 4811TIP3    H114397   0.017   3.544   2.303
 4811TIP3    H214398   0.069   3.581   2.440
 4812TIP3   OH214399   6.842   5.829   1.735
 4812TIP3    H114400   6.779   5.858   1.800
 4812TIP3    H214401   6.859   5.906   1.681
 4813TIP3   OH214402   6.726   2.064   5.151
 4813TIP3    H114403   6.749   2.157   5.154
 4813TIP3    H214404   6.736   2.041   5.059
 4814TIP3   OH214405   5.860   1.077   1.576
 4814TIP3    H114406   5.869   1.128   1.495
 4814TIP3    H214407   5.766   1.079   1.595
 4815TIP3   OH214408   6.935   4.074   5.719
 4815TIP3    H114409   6.991   4.120   5.657
 4815TIP3    H214410   6.996   4.038   5.784
 4816TIP3   OH214411   1.651   6.431   2.948
 4816TIP3    H114412   1.698   6.449   3.029
 4816TIP3    H214413   1.720   6.416   2.883
 4817TIP3   OH214414   5.035   5.174   5.620
 4817TIP3    H114415   4.953   5.197   5.577
 4817TIP3    H214416   5.061   5.252   5.667
 4818TIP3   OH214417   0.494   5.091   5.378
 4818TIP3    H114418   0.535   5.054   5.300
 4818TIP3    H214419   0.429   5.026   5.405
 4819TIP3   OH214420   0.120   3.836   1.256
 4819TIP3    H114421   0.164   3.906   1.305
 4819TIP3    H214422   0.167   3.756   1.282
 4820TIP3   OH214423   0.371   6.432   2.025
 4820TIP3    H114424   0.295   6.376   2.041
 4820TIP3    H214425   0.436   6.403   2.088
 4821TIP3   OH214426   5.355   1.187   2.637
 4821TIP3    H114427   5.426   1.245   2.610
 4821TIP3    H214428   5.346   1.202   2.731
 4822TIP3   OH214429   5.206   6.086   1.993
 4822TIP3    H114430   5.254   6.165   2.020
 4822TIP3    H214431   5.130   6.119   1.945
 4823TIP3   OH214432   6.232   6.232   4.983
 4823TIP3    H114433   6.262   6.321   4.967
 4823TIP3    H214434   6.196   6.235   5.072
 4824TIP3   OH214435   4.770   2.907   0.259
 4824TIP3    H114436   4.737   2.863   0.337
 4824TIP3    H214437   4.778   2.999   0.285
 4825TIP3   OH214438   5.420   0.005   2.623
 4825TIP3    H114439   5.375  -0.069   2.583
 4825TIP3    H214440   5.354   0.075   2.625
 4826TIP3   OH214441   1.523   2.716   4.929
 4826TIP3    H114442   1.541   2.703   4.836
 4826TIP3    H214443   1.477   2.800   4.933
 4827TIP3   OH214444   3.101   3.934   1.619
 4827TIP3    H114445   3.155   4.002   1.660
 4827TIP3    H214446   3.041   3.906   1.688
 4828TIP3   OH214447   3.155   3.838   2.836
 4828TIP3    H114448   3.172   3.840   2.742
 4828TIP3    H214449   3.110   3.920   2.854
 4829TIP3   OH214450   3.047   2.341   5.614
 4829TIP3    H114451   3.067   2.425   5.573
 4829TIP3    H214452   2.953   2.345   5.632
 4830TIP3   OH214453   0.333   5.061   4.788
 4830TIP3    H114454   0.261   5.002   4.811
 4830TIP3    H214455   0.412   5.015   4.814
 4831TIP3   OH214456   2.795   1.701   2.643
 4831TIP3    H114457   2.737   1.712   2.569
 4831TIP3    H214458   2.785   1.781   2.695
 4832TIP3   OH214459   0.321   4.917   5.109
 4832TIP3    H114460   0.388   4.978   5.077
 4832TIP3    H214461   0.241   4.946   5.065
 4833TIP3   OH214462   4.927   4.591   0.911
 4833TIP3    H114463   4.904   4.503   0.883
 4833TIP3    H214464   4.911   4.591   1.006
 4834TIP3   OH214465   0.601   4.454   3.034
 4834TIP3    H114466   0.547   4.393   3.086
 4834TIP3    H214467   0.616   4.528   3.093
 4835TIP3   OH214468   1.647   5.000   0.346
 4835TIP3    H114469   1.702   5.044   0.411
 4835TIP3    H214470   1.673   5.039   0.262
 4836TIP3   OH214471   0.679   2.772   2.895
 4836TIP3    H114472   0.669   2.736   2.807
 4836TIP3    H214473   0.589   2.781   2.927
 4837TIP3   OH214474   3.161   1.242   4.676
 4837TIP3    H114475   3.170   1.227   4.582
 4837TIP3    H214476   3.217   1.176   4.717
 4838TIP3   OH214477   2.293   4.465   1.668
 4838TIP3    H114478   2.241   4.450   1.747
 4838TIP3    H214479   2.234   4.441   1.596
 4839TIP3   OH214480   5.876   3.518   4.222
 4839TIP3    H114481   5.859   3.434   4.265
 4839TIP3    H214482   5.944   3.559   4.276
 4840TIP3   OH214483   1.033   2.650   2.334
 4840TIP3    H114484   1.036   2.746   2.326
 4840TIP3    H214485   1.059   2.634   2.425
 4841TIP3   OH214486   4.982   1.409   1.642
 4841TIP3    H114487   4.936   1.327   1.658
 4841TIP3    H214488   5.041   1.390   1.569
 4842TIP3   OH214489   3.469   1.988   1.081
 4842TIP3    H114490   3.530   1.918   1.059
 4842TIP3    H214491   3.497   2.062   1.028
 4843TIP3   OH214492   3.249   0.613   3.147
 4843TIP3    H114493   3.192   0.690   3.141
 4843TIP3    H214494   3.193   0.540   3.121
 4844TIP3   OH214495   6.374   0.179   1.894
 4844TIP3    H114496   6.321   0.236   1.838
 4844TIP3    H214497   6.463   0.213   1.885
 4845TIP3   OH214498   1.678   6.576   2.230
 4845TIP3    H114499   1.668   6.641   2.161
 4845TIP3    H214500   1.738   6.511   2.193
 4846TIP3   OH214501   0.790   4.520   1.336
 4846TIP3    H114502   0.835   4.458   1.393
 4846TIP3    H214503   0.706   4.478   1.317
 4847TIP3   OH214504   2.581   0.148   2.629
 4847TIP3    H114505   2.603   0.238   2.606
 4847TIP3    H214506   2.543   0.154   2.717
 4848TIP3   OH214507   5.590   2.327   1.347
 4848TIP3    H114508   5.580   2.395   1.281
 4848TIP3    H214509   5.529   2.258   1.321
 4849TIP3   OH214510   1.622   3.882   2.612
 4849TIP3    H114511   1.539   3.836   2.603
 4849TIP3    H214512   1.607   3.946   2.681
 4850TIP3   OH214513   5.793   3.081   1.067
 4850TIP3    H114514   5.833   3.118   1.146
 4850TIP3    H214515   5.862   3.027   1.027
 4851TIP3   OH214516   5.014   5.619   1.327
 4851TIP3    H114517   5.041   5.528   1.316
 4851TIP3    H214518   5.085   5.660   1.376
 4852TIP3   OH214519   2.687   1.197   5.355
 4852TIP3    H114520   2.746   1.179   5.428
 4852TIP3    H214521   2.627   1.122   5.353
 4853TIP3   OH214522   1.317   0.863   5.427
 4853TIP3    H114523   1.264   0.938   5.454
 4853TIP3    H214524   1.400   0.876   5.473
 4854TIP3   OH214525   2.087   5.984   0.243
 4854TIP3    H114526   2.112   5.929   0.170
 4854TIP3    H214527   2.116   5.937   0.321
 4855TIP3   OH214528   0.393   1.158   1.085
 4855TIP3    H114529   0.479   1.140   1.123
 4855TIP3    H214530   0.401   1.132   0.993
 4856TIP3   OH214531   3.788   3.334   0.339
 4856TIP3    H114532   3.792   3.422   0.301
 4856TIP3    H214533   3.731   3.343   0.415
 4857TIP3   OH214534   4.112   4.365   3.636
 4857TIP3    H114535   4.168   4.417   3.578
 4857TIP3    H214536   4.111   4.278   3.597
 4858TIP3   OH214537   1.021   5.279   3.385
 4858TIP3    H114538   1.048   5.317   3.469
 4858TIP3    H214539   1.040   5.348   3.321
 4859TIP3   OH214540   2.627   5.147   5.191
 4859TIP3    H114541   2.651   5.117   5.103
 4859TIP3    H214542   2.536   5.176   5.181
 4860TIP3   OH214543   5.284   3.224   0.357
 4860TIP3    H114544   5.334   3.257   0.432
 4860TIP3    H214545   5.325   3.266   0.281
 4861TIP3   OH214546   4.982   4.271   2.402
 4861TIP3    H114547   4.997   4.327   2.326
 4861TIP3    H214548   5.067   4.233   2.422
 4862TIP3   OH214549   6.252   4.886   2.402
 4862TIP3    H114550   6.255   4.830   2.480
 4862TIP3    H214551   6.343   4.909   2.385
 4863TIP3   OH214552   1.758   4.129   0.142
 4863TIP3    H114553   1.767   4.043   0.101
 4863TIP3    H214554   1.692   4.116   0.211
 4864TIP3   OH214555   0.621   6.163   4.496
 4864TIP3    H114556   0.711   6.130   4.504
 4864TIP3    H214557   0.625   6.253   4.526
 4865TIP3   OH214558   6.224   3.550   1.612
 4865TIP3    H114559   6.305   3.602   1.616
 4865TIP3    H214560   6.192   3.549   1.703
 4866TIP3   OH214561   2.150   1.995   1.723
 4866TIP3    H114562   2.111   2.019   1.640
 4866TIP3    H214563   2.093   1.926   1.757
 4867TIP3   OH214564   2.355   3.061   3.772
 4867TIP3    H114565   2.402   3.070   3.855
 4867TIP3    H214566   2.308   3.144   3.762
 4868TIP3   OH214567   4.521   3.434   0.974
 4868TIP3    H114568   4.464   3.509   0.957
 4868TIP3    H214569   4.500   3.372   0.904
 4869TIP3   OH214570   5.093   2.394   2.311
 4869TIP3    H114571   5.125   2.482   2.330
 4869TIP3    H214572   5.162   2.336   2.343
 4870TIP3   OH214573   6.819   6.003   0.014
 4870TIP3    H114574   6.759   6.074  -0.007
 4870TIP3    H214575   6.768   5.946   0.073
 4871TIP3   OH214576   2.574   0.603   3.453
 4871TIP3    H114577   2.655   0.563   3.421
 4871TIP3    H214578   2.565   0.683   3.402
 4872TIP3   OH214579   4.079   0.256   2.852
 4872TIP3    H114580   4.114   0.253   2.941
 4872TIP3    H214581   4.089   0.166   2.819
 4873TIP3   OH214582   5.788   4.326   2.917
 4873TIP3    H114583   5.728   4.272   2.969
 4873TIP3    H214584   5.803   4.276   2.837
 4874TIP3   OH214585   1.523   5.428   5.207
 4874TIP3    H114586   1.499   5.453   5.117
 4874TIP3    H214587   1.618   5.441   5.211
 4875TIP3   OH214588   4.202   3.526   5.602
 4875TIP3    H114589   4.267   3.577   5.650
 4875TIP3    H214590   4.215   3.550   5.510
 4876TIP3   OH214591   5.463   6.592   2.425
 4876TIP3    H114592   5.394   6.550   2.475
 4876TIP3    H214593   5.545   6.563   2.466
 4877TIP3   OH214594   4.113   5.148   0.948
 4877TIP3    H114595   4.136   5.111   0.862
 4877TIP3    H214596   4.018   5.159   0.944
 4878TIP3   OH214597   4.164   3.970   3.791
 4878TIP3    H114598   4.180   4.056   3.828
 4878TIP3    H214599   4.097   3.985   3.724
 4879TIP3   OH214600   5.190   2.744   4.673
 4879TIP3    H114601   5.137   2.665   4.663
 4879TIP3    H214602   5.275   2.713   4.703
 4880TIP3   OH214603   0.993   6.378   3.147
 4880TIP3    H114604   0.915   6.412   3.104
 4880TIP3    H214605   0.980   6.283   3.149
 4881TIP3   OH214606   5.009   4.623   0.491
 4881TIP3    H114607   4.954   4.549   0.515
 4881TIP3    H214608   4.949   4.686   0.452
 4882TIP3   OH214609   6.822   0.038   4.086
 4882TIP3    H114610   6.839   0.113   4.142
 4882TIP3    H214611   6.729   0.020   4.097
 4883TIP3   OH214612   0.075   6.608   4.052
 4883TIP3    H114613   0.061   6.527   4.102
 4883TIP3    H214614  -0.013   6.633   4.025
 4884TIP3   OH214615   0.175   0.283   2.617
 4884TIP3    H114616   0.240   0.332   2.668
 4884TIP3    H214617   0.219   0.265   2.534
 4885TIP3   OH214618   3.892   0.130   3.992
 4885TIP3    H114619   3.967   0.074   3.971
 4885TIP3    H214620   3.898   0.203   3.929
 4886TIP3   OH214621   1.004   3.807   2.434
 4886TIP3    H114622   1.075   3.820   2.371
 4886TIP3    H214623   1.019   3.875   2.501
 4887TIP3   OH214624   7.211   1.824   3.961
 4887TIP3    H114625   7.165   1.905   3.982
 4887TIP3    H214626   7.193   1.808   3.869
 4888TIP3   OH214627   5.114   4.389   1.663
 4888TIP3    H114628   5.174   4.391   1.738
 4888TIP3    H214629   5.047   4.325   1.687
 4889TIP3   OH214630   1.783   4.471   3.673
 4889TIP3    H114631   1.859   4.523   3.697
 4889TIP3    H214632   1.728   4.531   3.622
 4890TIP3   OH214633   0.212   2.823   3.831
 4890TIP3    H114634   0.229   2.742   3.782
 4890TIP3    H214635   0.285   2.829   3.893
 4891TIP3   OH214636   3.597   4.332   4.273
 4891TIP3    H114637   3.583   4.426   4.268
 4891TIP3    H214638   3.634   4.317   4.360
 4892TIP3   OH214639   0.687   6.094   1.280
 4892TIP3    H114640   0.774   6.130   1.264
 4892TIP3    H214641   0.691   6.004   1.247
 4893TIP3   OH214642   1.507   4.450   4.248
 4893TIP3    H114643   1.489   4.383   4.182
 4893TIP3    H214644   1.517   4.401   4.330
 4894TIP3   OH214645   2.896   5.470   2.279
 4894TIP3    H114646   2.927   5.465   2.370
 4894TIP3    H214647   2.802   5.460   2.285
 4895TIP3   OH214648   4.674   6.430   4.694
 4895TIP3    H114649   4.609   6.500   4.683
 4895TIP3    H214650   4.649   6.388   4.776
 4896TIP3   OH214651   3.448   2.128   4.386
 4896TIP3    H114652   3.405   2.069   4.323
 4896TIP3    H214653   3.529   2.084   4.409
 4897TIP3   OH214654   2.013   1.918   5.466
 4897TIP3    H114655   2.063   1.999   5.453
 4897TIP3    H214656   2.004   1.909   5.560
 4898TIP3   OH214657   1.452   1.694   0.779
 4898TIP3    H114658   1.543   1.702   0.753
 4898TIP3    H214659   1.405   1.675   0.697
 4899TIP3   OH214660   0.167   1.703   0.750
 4899TIP3    H114661   0.235   1.637   0.761
 4899TIP3    H214662   0.130   1.714   0.838
 4900TIP3   OH214663   3.739   4.552   4.756
 4900TIP3    H114664   3.748   4.491   4.830
 4900TIP3    H214665   3.761   4.638   4.792
 4901TIP3   OH214666   5.928   4.435   0.193
 4901TIP3    H114667   5.964   4.423   0.281
 4901TIP3    H214668   5.837   4.458   0.207
 4902TIP3   OH214669   6.517   4.946   1.207
 4902TIP3    H114670   6.515   4.957   1.302
 4902TIP3    H214671   6.582   4.878   1.192
 4903TIP3   OH214672   0.447   5.743   2.995
 4903TIP3    H114673   0.494   5.790   3.064
 4903TIP3    H214674   0.515   5.703   2.941
 4904TIP3   OH214675   2.516   5.132   5.740
 4904TIP3    H114676   2.586   5.187   5.775
 4904TIP3    H214677   2.496   5.171   5.655
 4905TIP3   OH214678   1.342   6.029   3.397
 4905TIP3    H114679   1.351   6.124   3.395
 4905TIP3    H214680   1.333   6.004   3.305
 4906TIP3   OH214681   0.779   3.141   4.683
 4906TIP3    H114682   0.806   3.055   4.715
 4906TIP3    H214683   0.737   3.123   4.599
 4907TIP3   OH214684   5.984   5.668   1.769
 4907TIP3    H114685   5.948   5.681   1.681
 4907TIP3    H214686   5.907   5.673   1.827
 4908TIP3   OH214687   5.312   4.989   4.643
 4908TIP3    H114688   5.349   5.072   4.612
 4908TIP3    H214689   5.372   4.961   4.713
 4909TIP3   OH214690   0.389   3.045   1.487
 4909TIP3    H114691   0.480   3.057   1.516
 4909TIP3    H214692   0.395   3.042   1.391
 4910TIP3   OH214693   4.610   5.211   0.261
 4910TIP3    H114694   4.608   5.126   0.217
 4910TIP3    H214695   4.642   5.192   0.349
 4911TIP3   OH214696   0.260   3.269   4.386
 4911TIP3    H114697   0.231   3.359   4.400
 4911TIP3    H214698   0.261   3.258   4.291
 4912TIP3   OH214699   5.883   5.578   2.440
 4912TIP3    H114700   5.944   5.505   2.452
 4912TIP3    H214701   5.927   5.635   2.377
 4913TIP3   OH214702   5.887   3.926   4.550
 4913TIP3    H114703   5.894   3.986   4.624
 4913TIP3    H214704   5.796   3.895   4.553
 4914TIP3   OH214705   6.215   4.498   1.447
 4914TIP3    H114706   6.267   4.541   1.379
 4914TIP3    H214707   6.265   4.420   1.470
 4915TIP3   OH214708   1.864   6.677   4.889
 4915TIP3    H114709   1.900   6.590   4.904
 4915TIP3    H214710   1.770   6.663   4.876
 4916TIP3   OH214711   6.754   2.818   3.795
 4916TIP3    H114712   6.694   2.837   3.866
 4916TIP3    H214713   6.839   2.852   3.825
 4917TIP3   OH214714   2.069   0.920   3.288
 4917TIP3    H114715   2.125   0.956   3.219
 4917TIP3    H214716   2.065   0.826   3.269
 4918TIP3   OH214717   6.971   6.621   1.557
 4918TIP3    H114718   7.060   6.592   1.540
 4918TIP3    H214719   6.978   6.715   1.570
 4919TIP3   OH214720   5.316   2.973   0.851
 4919TIP3    H114721   5.348   3.034   0.918
 4919TIP3    H214722   5.369   2.991   0.774
 4920TIP3   OH214723   3.794   4.458   3.364
 4920TIP3    H114724   3.742   4.519   3.311
 4920TIP3    H214725   3.877   4.503   3.378
 4921TIP3   OH214726   1.575   1.743   0.373
 4921TIP3    H114727   1.579   1.746   0.277
 4921TIP3    H214728   1.555   1.652   0.393
 4922TIP3   OH214729   1.473   1.528   5.635
 4922TIP3    H114730   1.380   1.506   5.643
 4922TIP3    H214731   1.514   1.490   5.712
 4923TIP3   OH214732   2.114   2.592   1.929
 4923TIP3    H114733   2.050   2.646   1.976
 4923TIP3    H214734   2.181   2.653   1.900
 4924TIP3   OH214735   4.147   5.635   0.353
 4924TIP3    H114736   4.170   5.559   0.300
 4924TIP3    H214737   4.215   5.640   0.420
 4925TIP3   OH214738   7.199   0.423   0.178
 4925TIP3    H114739   7.270   0.385   0.126
 4925TIP3    H214740   7.167   0.495   0.124
 4926TIP3   OH214741   0.605   1.797   5.406
 4926TIP3    H114742   0.649   1.787   5.491
 4926TIP3    H214743   0.662   1.751   5.344
 4927TIP3   OH214744   6.003   1.376   2.003
 4927TIP3    H114745   5.969   1.309   1.944
 4927TIP3    H214746   5.932   1.390   2.066
 4928TIP3   OH214747   3.108   2.951   2.513
 4928TIP3    H114748   3.178   2.907   2.465
 4928TIP3    H214749   3.147   3.033   2.542
 4929TIP3   OH214750   0.687   1.952   0.458
 4929TIP3    H114751   0.707   1.979   0.548
 4929TIP3    H214752   0.688   2.033   0.408
 4930TIP3   OH214753   5.659   1.381   4.102
 4930TIP3    H114754   5.667   1.431   4.184
 4930TIP3    H214755   5.690   1.442   4.034
 4931TIP3   OH214756   4.443   2.704   3.413
 4931TIP3    H114757   4.537   2.704   3.391
 4931TIP3    H214758   4.399   2.681   3.331
 4932TIP3   OH214759   0.456   4.206   1.055
 4932TIP3    H114760   0.516   4.195   0.981
 4932TIP3    H214761   0.479   4.135   1.115
 4933TIP3   OH214762   3.818   6.315   3.895
 4933TIP3    H114763   3.731   6.301   3.932
 4933TIP3    H214764   3.860   6.229   3.897
 4934TIP3   OH214765   2.194   2.861   3.257
 4934TIP3    H114766   2.213   2.949   3.288
 4934TIP3    H214767   2.139   2.875   3.179
 4935TIP3   OH214768   5.595   0.326   2.128
 4935TIP3    H114769   5.573   0.353   2.039
 4935TIP3    H214770   5.663   0.260   2.117
 4936TIP3   OH214771   1.600   5.642   2.697
 4936TIP3    H114772   1.676   5.685   2.658
 4936TIP3    H214773   1.560   5.710   2.752
 4937TIP3   OH214774   1.862   6.156   2.385
 4937TIP3    H114775   1.847   6.093   2.315
 4937TIP3    H214776   1.923   6.219   2.348
 4938TIP3   OH214777   6.128   0.839   0.668
 4938TIP3    H114778   6.222   0.819   0.662
 4938TIP3    H214779   6.105   0.871   0.581
 4939TIP3   OH214780   2.079   4.082   0.119
 4939TIP3    H114781   1.991   4.066   0.151
 4939TIP3    H214782   2.110   4.158   0.168
 4940TIP3   OH214783   0.208   5.930   1.951
 4940TIP3    H114784   0.291   5.882   1.956
 4940TIP3    H214785   0.163   5.909   2.033
 4941TIP3   OH214786   1.093   1.687   3.097
 4941TIP3    H114787   1.034   1.613   3.086
 4941TIP3    H214788   1.078   1.741   3.019
 4942TIP3   OH214789   5.786   2.417   4.451
 4942TIP3    H114790   5.695   2.415   4.421
 4942TIP3    H214791   5.806   2.326   4.472
 4943TIP3   OH214792   4.082   0.765   1.605
 4943TIP3    H114793   4.161   0.749   1.554
 4943TIP3    H214794   4.025   0.691   1.585
 4944TIP3   OH214795   4.870   6.376   5.368
 4944TIP3    H114796   4.850   6.402   5.278
 4944TIP3    H214797   4.841   6.451   5.420
 4945TIP3   OH214798   1.685   2.060   4.157
 4945TIP3    H114799   1.694   2.144   4.113
 4945TIP3    H214800   1.767   2.051   4.207
 4946TIP3   OH214801   1.931   1.370   4.390
 4946TIP3    H114802   1.880   1.422   4.453
 4946TIP3    H214803   2.021   1.375   4.422
 4947TIP3   OH214804   4.933   0.792   5.162
 4947TIP3    H114805   4.878   0.777   5.085
 4947TIP3    H214806   5.009   0.736   5.148
 4948TIP3   OH214807   1.213   1.360   2.376
 4948TIP3    H114808   1.241   1.271   2.353
 4948TIP3    H214809   1.173   1.350   2.463
 4949TIP3   OH214810   5.039   2.873   3.954
 4949TIP3    H114811   5.015   2.853   4.044
 4949TIP3    H214812   4.959   2.857   3.904
 4950TIP3   OH214813   3.357   1.072   3.866
 4950TIP3    H114814   3.427   1.115   3.817
 4950TIP3    H214815   3.325   1.138   3.927
 4951TIP3   OH214816   0.783   5.034   0.777
 4951TIP3    H114817   0.768   5.087   0.856
 4951TIP3    H214818   0.873   5.003   0.786
 4952TIP3   OH214819   5.886   1.540   5.402
 4952TIP3    H114820   5.866   1.576   5.489
 4952TIP3    H214821   5.832   1.591   5.342
 4953TIP3   OH214822   1.968   4.222   5.299
 4953TIP3    H114823   2.053   4.226   5.343
 4953TIP3    H214824   1.952   4.313   5.273
 4954TIP3   OH214825   3.679   5.593   2.052
 4954TIP3    H114826   3.695   5.606   2.146
 4954TIP3    H214827   3.624   5.516   2.048
 4955TIP3   OH214828   0.796   2.902   2.648
 4955TIP3    H114829   0.758   2.816   2.632
 4955TIP3    H214830   0.777   2.920   2.740
 4956TIP3   OH214831   3.357   0.116   3.710
 4956TIP3    H114832   3.271   0.084   3.684
 4956TIP3    H214833   3.405   0.038   3.737
 4957TIP3   OH214834   3.794   3.672   5.869
 4957TIP3    H114835   3.710   3.629   5.887
 4957TIP3    H214836   3.812   3.724   5.948
 4958TIP3   OH214837   4.136   2.041   3.118
 4958TIP3    H114838   4.201   2.012   3.054
 4958TIP3    H214839   4.096   1.960   3.148
 4959TIP3   OH214840   4.695   1.168   3.432
 4959TIP3    H114841   4.632   1.102   3.403
 4959TIP3    H214842   4.696   1.160   3.527
 4960TIP3   OH214843   6.251   0.641   4.972
 4960TIP3    H114844   6.195   0.601   4.905
 4960TIP3    H214845   6.196   0.706   5.015
 4961TIP3   OH214846   1.525   5.380   3.893
 4961TIP3    H114847   1.504   5.361   3.802
 4961TIP3    H214848   1.618   5.404   3.891
 4962TIP3   OH214849   2.692   5.874   1.009
 4962TIP3    H114850   2.606   5.867   0.968
 4962TIP3    H214851   2.682   5.942   1.075
 4963TIP3   OH214852   5.811   4.147   2.719
 4963TIP3    H114853   5.850   4.131   2.633
 4963TIP3    H214854   5.759   4.068   2.737
 4964TIP3   OH214855   1.060   6.084   3.191
 4964TIP3    H114856   0.997   6.012   3.187
 4964TIP3    H214857   1.101   6.085   3.105
 4965TIP3   OH214858   0.634   0.434   4.855
 4965TIP3    H114859   0.552   0.484   4.848
 4965TIP3    H214860   0.695   0.495   4.895
 4966TIP3   OH214861   6.993   4.722   2.737
 4966TIP3    H114862   7.036   4.785   2.795
 4966TIP3    H214863   6.930   4.775   2.687
 4967TIP3   OH214864   4.723   1.793   0.977
 4967TIP3    H114865   4.800   1.788   1.034
 4967TIP3    H214866   4.730   1.879   0.935
 4968TIP3   OH214867   5.298   4.793   3.796
 4968TIP3    H114868   5.206   4.796   3.769
 4968TIP3    H214869   5.347   4.827   3.721
 4969TIP3   OH214870   6.264   5.604   1.216
 4969TIP3    H114871   6.283   5.511   1.226
 4969TIP3    H214872   6.173   5.613   1.245
 4970TIP3   OH214873   1.674   4.482   3.248
 4970TIP3    H114874   1.758   4.519   3.221
 4970TIP3    H214875   1.642   4.542   3.316
 4971TIP3   OH214876   1.889   0.651   4.920
 4971TIP3    H114877   1.927   0.722   4.972
 4971TIP3    H214878   1.851   0.694   4.844
 4972TIP3   OH214879   4.407   6.516   0.919
 4972TIP3    H114880   4.386   6.429   0.886
 4972TIP3    H214881   4.372   6.517   1.008
 4973TIP3   OH214882   2.435   2.522   3.146
 4973TIP3    H114883   2.407   2.511   3.237
 4973TIP3    H214884   2.371   2.473   3.095
 4974TIP3   OH214885   1.230   1.808   4.708
 4974TIP3    H114886   1.165   1.738   4.701
 4974TIP3    H214887   1.181   1.885   4.733
 4975TIP3   OH214888   4.325   1.734   5.370
 4975TIP3    H114889   4.409   1.766   5.403
 4975TIP3    H214890   4.266   1.739   5.445
 4976TIP3   OH214891   6.396   1.433   1.325
 4976TIP3    H114892   6.356   1.477   1.250
 4976TIP3    H214893   6.334   1.364   1.348
 4977TIP3   OH214894   4.779   6.383   1.509
 4977TIP3    H114895   4.780   6.437   1.588
 4977TIP3    H214896   4.867   6.346   1.504
 4978TIP3   OH214897   0.425   6.356   5.142
 4978TIP3    H114898   0.340   6.368   5.184
 4978TIP3    H214899   0.412   6.388   5.052
 4979TIP3   OH214900   1.715   3.494   0.443
 4979TIP3    H114901   1.738   3.569   0.496
 4979TIP3    H214902   1.778   3.426   0.467
 4980TIP3   OH214903   2.265   3.609   5.194
 4980TIP3    H114904   2.199   3.601   5.263
 4980TIP3    H214905   2.277   3.520   5.161
 4981TIP3   OH214906   6.172   3.050   1.947
 4981TIP3    H114907   6.219   2.977   1.907
 4981TIP3    H214908   6.144   3.104   1.873
 4982TIP3   OH214909   2.054   2.173   2.257
 4982TIP3    H114910   2.027   2.085   2.283
 4982TIP3    H214911   2.071   2.218   2.340
 4983TIP3   OH214912   6.377   1.296   2.962
 4983TIP3    H114913   6.310   1.232   2.935
 4983TIP3    H214914   6.326   1.367   3.001
 4984TIP3   OH214915   3.364   2.433   0.469
 4984TIP3    H114916   3.282   2.435   0.517
 4984TIP3    H214917   3.383   2.524   0.449
 4985TIP3   OH214918   5.060   4.166   3.711
 4985TIP3    H114919   5.107   4.110   3.772
 4985TIP3    H214920   4.969   4.134   3.713
 4986TIP3   OH214921   2.731   3.413   0.551
 4986TIP3    H114922   2.672   3.391   0.623
 4986TIP3    H214923   2.672   3.432   0.477
 4987TIP3   OH214924   1.471   6.047   2.305
 4987TIP3    H114925   1.533   5.985   2.345
 4987TIP3    H214926   1.396   5.993   2.281
 4988TIP3   OH214927   1.917   3.854   1.896
 4988TIP3    H114928   1.931   3.932   1.949
 4988TIP3    H214929   2.005   3.829   1.867
 4989TIP3   OH214930   7.113   0.498   0.877
 4989TIP3    H114931   7.054   0.572   0.887
 4989TIP3    H214932   7.059   0.428   0.840
 4990TIP3   OH214933   4.782   2.817   2.334
 4990TIP3    H114934   4.761   2.908   2.314
 4990TIP3    H214935   4.878   2.815   2.338
 4991TIP3   OH214936   3.296   5.385   1.806
 4991TIP3    H114937   3.234   5.356   1.872
 4991TIP3    H214938   3.259   5.354   1.723
 4992TIP3   OH214939   5.834   2.860   5.460
 4992TIP3    H114940   5.908   2.860   5.400
 4992TIP3    H214941   5.818   2.952   5.479
 4993TIP3   OH214942   6.141   3.386   0.145
 4993TIP3    H114943   6.220   3.337   0.124
 4993TIP3    H214944   6.139   3.389   0.241
 4994TIP3   OH214945   6.264   4.937   2.940
 4994TIP3    H114946   6.251   4.867   2.875
 4994TIP3    H214947   6.338   4.906   2.993
 4995TIP3   OH214948   1.339   3.026   3.986
 4995TIP3    H114949   1.415   3.046   3.931
 4995TIP3    H214950   1.292   2.957   3.939
 4996TIP3   OH214951   5.930   4.743   1.376
 4996TIP3    H114952   5.947   4.676   1.311
 4996TIP3    H214953   5.853   4.790   1.343
 4997TIP3   OH214954   4.728   4.907   5.569
 4997TIP3    H114955   4.673   4.985   5.567
 4997TIP3    H214956   4.792   4.921   5.499
 4998TIP3   OH214957   2.326   3.366   5.092
 4998TIP3    H114958   2.379   3.299   5.049
 4998TIP3    H214959   2.256   3.385   5.030
 4999TIP3   OH214960   3.822   6.422   1.144
 4999TIP3    H114961   3.911   6.428   1.110
 4999TIP3    H214962   3.782   6.505   1.122
 5000TIP3   OH214963   3.124   3.683   2.348
 5000TIP3    H114964   3.133   3.755   2.410
 5000TIP3    H214965   3.198   3.692   2.289
 5001TIP3   OH214966   3.418   0.037   2.396
 5001TIP3    H114967   3.459  -0.045   2.369
 5001TIP3    H214968   3.324   0.018   2.396
 5002TIP3   OH214969   3.547   2.952   1.360
 5002TIP3    H114970   3.564   2.933   1.268
 5002TIP3    H214971   3.474   2.893   1.384
 5003TIP3   OH214972   6.866   1.867   3.945
 5003TIP3    H114973   6.868   1.852   4.040
 5003TIP3    H214974   6.895   1.785   3.907
 5004TIP3   OH214975   2.671   0.760   1.799
 5004TIP3    H114976   2.710   0.738   1.715
 5004TIP3    H214977   2.671   0.677   1.848
 5005TIP3   OH214978   4.747   1.092   3.687
 5005TIP3    H114979   4.764   1.142   3.767
 5005TIP3    H214980   4.834   1.061   3.659
 5006TIP3   OH214981   5.235   1.671   1.496
 5006TIP3    H114982   5.239   1.623   1.579
 5006TIP3    H214983   5.305   1.633   1.443
 5007TIP3   OH214984   2.972   4.674   2.210
 5007TIP3    H114985   2.900   4.723   2.171
 5007TIP3    H214986   2.933   4.629   2.285
 5008TIP3   OH214987   3.271   4.874   2.292
 5008TIP3    H114988   3.244   4.822   2.216
 5008TIP3    H214989   3.190   4.899   2.335
 5009TIP3   OH214990   0.447   2.664   3.587
 5009TIP3    H114991   0.421   2.715   3.510
 5009TIP3    H214992   0.366   2.653   3.637
 5010TIP3   OH214993   0.769   1.074   4.475
 5010TIP3    H114994   0.732   1.162   4.485
 5010TIP3    H214995   0.787   1.066   4.382
 5011TIP3   OH214996   2.113   6.626   4.618
 5011TIP3    H114997   2.121   6.652   4.526
 5011TIP3    H214998   2.102   6.708   4.665
 5012TIP3   OH214999   2.338   4.884   3.682
 5012TIP3    H115000   2.375   4.839   3.757
 5012TIP3    H215001   2.391   4.963   3.673
 5013TIP3   OH215002   6.673   1.679   4.972
 5013TIP3    H115003   6.711   1.733   4.903
 5013TIP3    H215004   6.604   1.733   5.011
 5014TIP3   OH215005   5.308   0.378   3.152
 5014TIP3    H115006   5.359   0.441   3.102
 5014TIP3    H215007   5.254   0.432   3.210
 5015TIP3   OH215008   5.262   2.750   1.032
 5015TIP3    H115009   5.286   2.822   0.975
 5015TIP3    H215010   5.236   2.792   1.114
 5016TIP3   OH215011   6.537   5.711   4.209
 5016TIP3    H115012   6.595   5.661   4.266
 5016TIP3    H215013   6.543   5.668   4.124
 5017TIP3   OH215014   0.393   0.348   0.355
 5017TIP3    H115015   0.328   0.380   0.292
 5017TIP3    H215016   0.472   0.400   0.336
 5018TIP3   OH215017   0.740   3.896   4.138
 5018TIP3    H115018   0.744   3.813   4.185
 5018TIP3    H215019   0.736   3.963   4.207
 5019TIP3   OH215020   4.772   5.289   0.986
 5019TIP3    H115021   4.778   5.308   1.079
 5019TIP3    H215022   4.693   5.237   0.976
 5020TIP3   OH215023   0.991   4.279   2.298
 5020TIP3    H115024   0.923   4.336   2.263
 5020TIP3    H215025   1.018   4.225   2.223
 5021TIP3   OH215026   4.186   2.569   4.089
 5021TIP3    H115027   4.267   2.618   4.099
 5021TIP3    H215028   4.162   2.580   3.997
 5022TIP3   OH215029   1.572   1.070   1.122
 5022TIP3    H115030   1.580   1.141   1.185
 5022TIP3    H215031   1.557   1.114   1.038
 5023TIP3   OH215032   5.934   4.888   4.710
 5023TIP3    H115033   5.849   4.880   4.754
 5023TIP3    H215034   5.919   4.952   4.641
 5024TIP3   OH215035   5.147   5.260   4.871
 5024TIP3    H115036   5.156   5.216   4.955
 5024TIP3    H215037   5.131   5.190   4.808
 5025TIP3   OH215038   0.638   0.426   5.187
 5025TIP3    H115039   0.691   0.503   5.210
 5025TIP3    H215040   0.553   0.443   5.227
 5026TIP3   OH215041   0.938   6.219   4.782
 5026TIP3    H115042   0.871   6.232   4.849
 5026TIP3    H215043   1.021   6.227   4.829
 5027TIP3   OH215044   0.878   5.673   2.615
 5027TIP3    H115045   0.957   5.726   2.627
 5027TIP3    H215046   0.906   5.583   2.631
 5028TIP3   OH215047   0.303   3.133   2.581
 5028TIP3    H115048   0.231   3.104   2.526
 5028TIP3    H215049   0.330   3.055   2.629
 5029TIP3   OH215050   6.790   6.339   2.941
 5029TIP3    H115051   6.749   6.321   3.026
 5029TIP3    H215052   6.883   6.325   2.956
 5030TIP3   OH215053   6.396   3.328   3.669
 5030TIP3    H115054   6.412   3.318   3.575
 5030TIP3    H215055   6.465   3.277   3.710
 5031TIP3   OH215056   2.610   6.710   2.743
 5031TIP3    H115057   2.552   6.694   2.668
 5031TIP3    H215058   2.589   6.799   2.771
 5032TIP3   OH215059   2.432   1.920   5.141
 5032TIP3    H115060   2.415   1.864   5.217
 5032TIP3    H215061   2.352   1.971   5.131
 5033TIP3   OH215062   4.670   5.292   4.541
 5033TIP3    H115063   4.600   5.324   4.484
 5033TIP3    H215064   4.724   5.369   4.559
 5034TIP3   OH215065   2.253   4.173   0.989
 5034TIP3    H115066   2.240   4.108   1.059
 5034TIP3    H215067   2.337   4.213   1.009
 5035TIP3   OH215068   3.908   5.371   0.502
 5035TIP3    H115069   3.916   5.378   0.597
 5035TIP3    H215070   3.862   5.289   0.488
 5036TIP3   OH215071   2.924   3.140   4.521
 5036TIP3    H115072   2.898   3.232   4.516
 5036TIP3    H215073   2.860   3.094   4.467
 5037TIP3   OH215074   6.090   5.102   0.152
 5037TIP3    H115075   6.101   5.019   0.106
 5037TIP3    H215076   6.167   5.153   0.127
 5038TIP3   OH215077   0.265   1.730   4.086
 5038TIP3    H115078   0.192   1.765   4.035
 5038TIP3    H215079   0.223   1.687   4.161
 5039TIP3   OH215080   3.269   2.772   2.406
 5039TIP3    H115081   3.297   2.756   2.316
 5039TIP3    H215082   3.318   2.708   2.458
 5040TIP3   OH215083  -0.005   1.848   4.317
 5040TIP3    H115084   0.090   1.843   4.315
 5040TIP3    H215085  -0.030   1.862   4.225
 5041TIP3   OH215086   6.338   4.866   1.643
 5041TIP3    H115087   6.322   4.777   1.673
 5041TIP3    H215088   6.251   4.906   1.639
 5042TIP3   OH215089   6.482   0.789   3.199
 5042TIP3    H115090   6.443   0.871   3.231
 5042TIP3    H215091   6.571   0.791   3.233
 5043TIP3   OH215092   6.764   5.159   1.720
 5043TIP3    H115093   6.732   5.249   1.729
 5043TIP3    H215094   6.859   5.168   1.708
 5044TIP3   OH215095   5.471   3.139   3.555
 5044TIP3    H115096   5.493   3.224   3.595
 5044TIP3    H215097   5.518   3.075   3.609
 5045TIP3   OH215098   0.279   6.532   5.342
 5045TIP3    H115099   0.324   6.607   5.303
 5045TIP3    H215100   0.342   6.498   5.405
 5046TIP3   OH215101   1.741   2.118   2.862
 5046TIP3    H115102   1.796   2.040   2.858
 5046TIP3    H215103   1.726   2.132   2.956
 5047TIP3   OH215104   0.006   0.898   5.018
 5047TIP3    H115105   0.050   0.896   4.933
 5047TIP3    H215106  -0.082   0.930   4.998
 5048TIP3   OH215107   4.061   3.267   4.254
 5048TIP3    H115108   4.145   3.242   4.292
 5048TIP3    H215109   3.996   3.221   4.308
 5049TIP3   OH215110   5.957   2.925   2.950
 5049TIP3    H115111   5.891   2.930   3.019
 5049TIP3    H215112   5.932   2.848   2.899
 5050TIP3   OH215113   5.993   2.161   3.329
 5050TIP3    H115114   6.054   2.131   3.396
 5050TIP3    H215115   5.996   2.094   3.261
 5051TIP3   OH215116   0.856   6.529   1.069
 5051TIP3    H115117   0.911   6.601   1.100
 5051TIP3    H215118   0.911   6.482   1.007
 5052TIP3   OH215119   1.762   3.909   5.171
 5052TIP3    H115120   1.696   3.968   5.207
 5052TIP3    H215121   1.822   3.967   5.124
 5053TIP3   OH215122   2.536   0.565   1.452
 5053TIP3    H115123   2.605   0.616   1.408
 5053TIP3    H215124   2.485   0.630   1.500
 5054TIP3   OH215125   2.226   4.422   4.572
 5054TIP3    H115126   2.303   4.470   4.541
 5054TIP3    H215127   2.188   4.385   4.493
 5055TIP3   OH215128   3.652   6.684   2.182
 5055TIP3    H115129   3.628   6.768   2.143
 5055TIP3    H215130   3.697   6.708   2.263
 5056TIP3   OH215131   0.106   3.624   0.338
 5056TIP3    H115132   0.015   3.624   0.306
 5056TIP3    H215133   0.125   3.716   0.354
 5057TIP3   OH215134   5.605   5.844   1.522
 5057TIP3    H115135   5.591   5.776   1.456
 5057TIP3    H215136   5.612   5.925   1.473
 5058TIP3   OH215137   0.475   3.235   2.275
 5058TIP3    H115138   0.538   3.212   2.344
 5058TIP3    H215139   0.452   3.326   2.293
 5059TIP3   OH215140   0.427   3.699   2.153
 5059TIP3    H115141   0.494   3.655   2.100
 5059TIP3    H215142   0.417   3.785   2.112
 5060TIP3   OH215143   3.589   3.616   2.161
 5060TIP3    H115144   3.650   3.690   2.166
 5060TIP3    H215145   3.638   3.543   2.197
 5061TIP3   OH215146   3.092   0.499   3.562
 5061TIP3    H115147   3.057   0.578   3.521
 5061TIP3    H215148   3.174   0.526   3.602
 5062TIP3   OH215149   5.056   2.554   1.654
 5062TIP3    H115150   5.058   2.645   1.626
 5062TIP3    H215151   5.129   2.513   1.608
 5063TIP3   OH215152   3.023   5.947   4.725
 5063TIP3    H115153   3.115   5.974   4.724
 5063TIP3    H215154   2.986   5.983   4.645
 5064TIP3   OH215155   3.825   2.235   4.596
 5064TIP3    H115156   3.786   2.274   4.518
 5064TIP3    H215157   3.750   2.203   4.646
 5065TIP3   OH215158   2.209   6.284   4.464
 5065TIP3    H115159   2.276   6.278   4.396
 5065TIP3    H215160   2.249   6.243   4.541
 5066TIP3   OH215161   3.212   3.999   3.386
 5066TIP3    H115162   3.123   3.965   3.382
 5066TIP3    H215163   3.254   3.950   3.456
 5067TIP3   OH215164   2.246   3.620   2.050
 5067TIP3    H115165   2.214   3.548   2.106
 5067TIP3    H215166   2.283   3.683   2.112
 5068TIP3   OH215167   5.663   4.243   2.308
 5068TIP3    H115168   5.626   4.157   2.329
 5068TIP3    H215169   5.684   4.237   2.215
 5069TIP3   OH215170   1.627   1.481   3.106
 5069TIP3    H115171   1.656   1.529   3.183
 5069TIP3    H215172   1.534   1.501   3.098
 5070TIP3   OH215173   3.417   4.992   4.598
 5070TIP3    H115174   3.488   5.050   4.624
 5070TIP3    H215175   3.337   5.038   4.624
 5071TIP3   OH215176   5.588   1.871   5.157
 5071TIP3    H115177   5.496   1.879   5.131
 5071TIP3    H215178   5.600   1.779   5.180
 5072TIP3   OH215179   1.340   6.645   2.064
 5072TIP3    H115180   1.350   6.584   2.137
 5072TIP3    H215181   1.428   6.680   2.049
 5073TIP3   OH215182   5.903   3.279   0.062
 5073TIP3    H115183   5.984   3.331   0.066
 5073TIP3    H215184   5.898   3.250  -0.029
 5074TIP3   OH215185   4.156   2.969   3.372
 5074TIP3    H115186   4.146   2.907   3.299
 5074TIP3    H215187   4.150   2.915   3.450
 5075TIP3   OH215188   2.473   5.250   3.389
 5075TIP3    H115189   2.498   5.343   3.386
 5075TIP3    H215190   2.379   5.251   3.371
 5076TIP3   OH215191   3.123   5.671   5.867
 5076TIP3    H115192   3.201   5.632   5.827
 5076TIP3    H215193   3.063   5.684   5.793
 5077TIP3   OH215194   0.373   3.416   5.339
 5077TIP3    H115195   0.347   3.430   5.430
 5077TIP3    H215196   0.416   3.497   5.313
 5078TIP3   OH215197   3.694   6.142   3.558
 5078TIP3    H115198   3.780   6.128   3.596
 5078TIP3    H215199   3.671   6.232   3.580
 5079TIP3   OH215200   4.084   4.987   4.357
 5079TIP3    H115201   4.102   4.923   4.288
 5079TIP3    H215202   4.131   5.065   4.329
 5080TIP3   OH215203   0.654   4.369   4.731
 5080TIP3    H115204   0.577   4.348   4.784
 5080TIP3    H215205   0.622   4.367   4.641
 5081TIP3   OH215206   5.907   3.723   5.268
 5081TIP3    H115207   5.870   3.698   5.353
 5081TIP3    H215208   5.849   3.793   5.237
 5082TIP3   OH215209   0.208   5.684   3.656
 5082TIP3    H115210   0.178   5.595   3.676
 5082TIP3    H215211   0.157   5.740   3.715
 5083TIP3   OH215212   6.204   4.252   1.142
 5083TIP3    H115213   6.206   4.320   1.075
 5083TIP3    H215214   6.290   4.257   1.184
 5084TIP3   OH215215   0.515   2.716   3.224
 5084TIP3    H115216   0.442   2.743   3.279
 5084TIP3    H215217   0.592   2.726   3.280
 5085TIP3   OH215218   4.089   1.704   2.360
 5085TIP3    H115219   4.035   1.730   2.286
 5085TIP3    H215220   4.162   1.766   2.360
 5086TIP3   OH215221   5.932   2.112   1.641
 5086TIP3    H115222   6.015   2.133   1.599
 5086TIP3    H215223   5.868   2.116   1.570
 5087TIP3   OH215224   6.748   1.571   3.001
 5087TIP3    H115225   6.820   1.588   2.940
 5087TIP3    H215226   6.784   1.508   3.064
 5088TIP3   OH215227   4.473   2.153   3.511
 5088TIP3    H115228   4.414   2.154   3.436
 5088TIP3    H215229   4.506   2.064   3.515
 5089TIP3   OH215230   6.324   2.832   4.432
 5089TIP3    H115231   6.375   2.870   4.361
 5089TIP3    H215232   6.363   2.746   4.447
 5090TIP3   OH215233   4.867   3.627   3.243
 5090TIP3    H115234   4.797   3.593   3.299
 5090TIP3    H215235   4.844   3.598   3.155
 5091TIP3   OH215236   1.298   1.513   3.862
 5091TIP3    H115237   1.297   1.525   3.767
 5091TIP3    H215238   1.291   1.418   3.873
 5092TIP3   OH215239   1.245   4.208   1.053
 5092TIP3    H115240   1.166   4.249   1.019
 5092TIP3    H215241   1.236   4.213   1.148
 5093TIP3   OH215242   1.461   1.145   1.589
 5093TIP3    H115243   1.505   1.095   1.657
 5093TIP3    H215244   1.518   1.220   1.573
 5094TIP3   OH215245   2.315   4.018   4.708
 5094TIP3    H115246   2.372   4.075   4.656
 5094TIP3    H215247   2.268   4.078   4.766
 5095TIP3   OH215248   6.243   2.320   0.648
 5095TIP3    H115249   6.237   2.410   0.679
 5095TIP3    H215250   6.265   2.328   0.555
 5096TIP3   OH215251   1.557   0.274   1.469
 5096TIP3    H115252   1.483   0.309   1.519
 5096TIP3    H215253   1.516   0.223   1.399
 5097TIP3   OH215254   6.147   1.319   1.003
 5097TIP3    H115255   6.161   1.237   1.052
 5097TIP3    H215256   6.061   1.308   0.963
 5098TIP3   OH215257   5.769   0.945   1.092
 5098TIP3    H115258   5.856   0.958   1.129
 5098TIP3    H215259   5.777   0.864   1.041
 5099TIP3   OH215260   4.863   3.926   3.958
 5099TIP3    H115261   4.900   3.837   3.964
 5099TIP3    H215262   4.831   3.933   3.868
 5100TIP3   OH215263   1.360   3.032   4.572
 5100TIP3    H115264   1.418   3.014   4.646
 5100TIP3    H215265   1.419   3.058   4.501
 5101TIP3   OH215266   4.317   1.039   4.803
 5101TIP3    H115267   4.321   0.944   4.793
 5101TIP3    H215268   4.333   1.054   4.896
 5102TIP3   OH215269   2.999   6.461   0.314
 5102TIP3    H115270   2.915   6.464   0.360
 5102TIP3    H215271   3.008   6.370   0.287
 5103TIP3   OH215272   3.189   2.667   4.777
 5103TIP3    H115273   3.130   2.657   4.703
 5103TIP3    H215274   3.133   2.695   4.849
 5104TIP3   OH215275   5.719   1.734   1.975
 5104TIP3    H115276   5.720   1.827   1.995
 5104TIP3    H215277   5.780   1.724   1.903
 5105TIP3   OH215278   2.806   5.282   0.864
 5105TIP3    H115279   2.779   5.327   0.944
 5105TIP3    H215280   2.877   5.223   0.892
 5106TIP3   OH215281   5.124   6.275   4.838
 5106TIP3    H115282   5.111   6.184   4.864
 5106TIP3    H215283   5.069   6.287   4.761
 5107TIP3   OH215284   0.262   2.650   1.346
 5107TIP3    H115285   0.331   2.701   1.388
 5107TIP3    H215286   0.277   2.560   1.375
 5108TIP3   OH215287   3.979   4.632   1.483
 5108TIP3    H115288   4.047   4.645   1.549
 5108TIP3    H215289   3.935   4.716   1.477
 5109TIP3   OH215290   3.952   3.605   3.400
 5109TIP3    H115291   3.947   3.512   3.377
 5109TIP3    H215292   3.863   3.626   3.430
 5110TIP3   OH215293   7.045   3.098   5.655
 5110TIP3    H115294   7.081   3.043   5.725
 5110TIP3    H215295   6.975   3.148   5.696
 5111TIP3   OH215296   5.358   3.231   2.308
 5111TIP3    H115297   5.361   3.274   2.223
 5111TIP3    H215298   5.450   3.229   2.337
 5112TIP3   OH215299   5.989   4.521   4.271
 5112TIP3    H115300   6.077   4.525   4.234
 5112TIP3    H215301   5.987   4.589   4.337
 5113TIP3   OH215302   5.272   0.410   2.482
 5113TIP3    H115303   5.208   0.369   2.424
 5113TIP3    H215304   5.262   0.364   2.566
 5114TIP3   OH215305   6.447   3.244   3.393
 5114TIP3    H115306   6.426   3.243   3.299
 5114TIP3    H215307   6.410   3.162   3.427
 5115TIP3   OH215308   2.606   6.281   0.967
 5115TIP3    H115309   2.556   6.353   0.927
 5115TIP3    H215310   2.615   6.217   0.896
 5116TIP3   OH215311   6.942   3.707   5.815
 5116TIP3    H115312   6.871   3.757   5.775
 5116TIP3    H215313   6.957   3.749   5.899
 5117TIP3   OH215314   4.469   1.704   4.943
 5117TIP3    H115315   4.472   1.760   5.020
 5117TIP3    H215316   4.475   1.615   4.977
 5118TIP3   OH215317   0.776   6.593   5.867
 5118TIP3    H115318   0.851   6.585   5.925
 5118TIP3    H215319   0.772   6.686   5.846
 5119TIP3   OH215320   7.130   2.733   4.532
 5119TIP3    H115321   7.046   2.696   4.559
 5119TIP3    H215322   7.111   2.826   4.516
 5120TIP3   OH215323   6.466   0.155   0.968
 5120TIP3    H115324   6.553   0.193   0.961
 5120TIP3    H215325   6.429   0.193   1.047
 5121TIP3   OH215326   3.011   4.513   5.582
 5121TIP3    H115327   2.922   4.518   5.617
 5121TIP3    H215328   3.032   4.604   5.559
 5122TIP3   OH215329   0.778   5.653   0.900
 5122TIP3    H115330   0.745   5.740   0.921
 5122TIP3    H215331   0.699   5.600   0.887
 5123TIP3   OH215332   2.046   5.096   5.438
 5123TIP3    H115333   1.958   5.061   5.424
 5123TIP3    H215334   2.038   5.151   5.516
 5124TIP3   OH215335   1.622   6.561   4.935
 5124TIP3    H115336   1.596   6.473   4.909
 5124TIP3    H215337   1.552   6.590   4.995
 5125TIP3   OH215338   0.150   4.779   0.212
 5125TIP3    H115339   0.111   4.851   0.261
 5125TIP3    H215340   0.236   4.813   0.185
 5126TIP3   OH215341   1.689   3.802   2.159
 5126TIP3    H115342   1.644   3.776   2.079
 5126TIP3    H215343   1.704   3.896   2.150
 5127TIP3   OH215344   4.075   1.754   3.044
 5127TIP3    H115345   3.999   1.699   3.061
 5127TIP3    H215346   4.057   1.795   2.960
 5128TIP3   OH215347   0.842   3.951   1.087
 5128TIP3    H115348   0.938   3.943   1.095
 5128TIP3    H215349   0.828   4.039   1.053
 5129TIP3   OH215350   5.062   6.578   5.721
 5129TIP3    H115351   5.150   6.599   5.751
 5129TIP3    H215352   5.074   6.507   5.658
 5130TIP3   OH215353   3.143   3.469   1.298
 5130TIP3    H115354   3.214   3.407   1.281
 5130TIP3    H215355   3.158   3.498   1.388
 5131TIP3   OH215356   3.935   4.550   0.905
 5131TIP3    H115357   3.949   4.568   0.998
 5131TIP3    H215358   3.841   4.558   0.892
 5132TIP3   OH215359   5.451   2.162   0.556
 5132TIP3    H115360   5.440   2.092   0.492
 5132TIP3    H215361   5.380   2.223   0.536
 5133TIP3   OH215362   3.865   0.401   3.360
 5133TIP3    H115363   3.937   0.351   3.399
 5133TIP3    H215364   3.889   0.409   3.268
 5134TIP3   OH215365   4.682   0.250   4.806
 5134TIP3    H115366   4.772   0.257   4.838
 5134TIP3    H215367   4.637   0.326   4.842
 5135TIP3   OH215368   2.580   2.337   3.939
 5135TIP3    H115369   2.642   2.385   3.993
 5135TIP3    H215370   2.494   2.372   3.964
 5136TIP3   OH215371   0.266   0.778   0.762
 5136TIP3    H115372   0.341   0.784   0.702
 5136TIP3    H215373   0.306   0.765   0.849
 5137TIP3   OH215374   3.943   6.037   4.697
 5137TIP3    H115375   4.010   6.028   4.765
 5137TIP3    H215376   3.862   6.053   4.745
 5138TIP3   OH215377   6.685   1.092   0.823
 5138TIP3    H115378   6.639   1.017   0.785
 5138TIP3    H215379   6.669   1.163   0.762
 5139TIP3   OH215380   6.047   4.377   4.621
 5139TIP3    H115381   6.101   4.310   4.663
 5139TIP3    H215382   6.044   4.448   4.685
 5140TIP3   OH215383   4.206   2.908   1.802
 5140TIP3    H115384   4.243   2.828   1.764
 5140TIP3    H215385   4.270   2.937   1.867
 5141TIP3   OH215386   6.438   5.144   2.124
 5141TIP3    H115387   6.432   5.125   2.031
 5141TIP3    H215388   6.350   5.127   2.158
 5142TIP3   OH215389   4.424   2.661   2.689
 5142TIP3    H115390   4.360   2.722   2.653
 5142TIP3    H215391   4.491   2.717   2.728
 5143TIP3   OH215392   5.793   0.710   5.928
 5143TIP3    H115393   5.869   0.734   5.980
 5143TIP3    H215394   5.769   0.623   5.959
 5144TIP3   OH215395   2.683   5.963   3.114
 5144TIP3    H115396   2.738   6.040   3.096
 5144TIP3    H215397   2.595   5.999   3.128
 5145TIP3   OH215398   1.373   0.018   3.787
 5145TIP3    H115399   1.446  -0.040   3.765
 5145TIP3    H215400   1.414   0.091   3.834
 5146TIP3   OH215401   6.264   5.339   1.192
 5146TIP3    H115402   6.266   5.245   1.171
 5146TIP3    H215403   6.214   5.343   1.274
 5147TIP3   OH215404   4.059   4.326   1.184
 5147TIP3    H115405   4.141   4.319   1.137
 5147TIP3    H215406   4.082   4.308   1.276
 5148TIP3   OH215407   1.712   2.352   0.846
 5148TIP3    H115408   1.635   2.397   0.813
 5148TIP3    H215409   1.684   2.312   0.928
 5149TIP3   OH215410   7.097   3.431   4.948
 5149TIP3    H115411   7.135   3.370   4.885
 5149TIP3    H215412   7.170   3.458   5.003
 5150TIP3   OH215413   5.773   0.616   4.306
 5150TIP3    H115414   5.772   0.700   4.259
 5150TIP3    H215415   5.697   0.569   4.273
 5151TIP3   OH215416   4.295   1.299   1.340
 5151TIP3    H115417   4.323   1.380   1.298
 5151TIP3    H215418   4.211   1.278   1.300
 5152TIP3   OH215419   3.047   1.319   0.891
 5152TIP3    H115420   3.105   1.359   0.826
 5152TIP3    H215421   3.004   1.248   0.843
 5153TIP3   OH215422   3.822   1.008   2.639
 5153TIP3    H115423   3.820   1.080   2.576
 5153TIP3    H215424   3.889   1.033   2.702
 5154TIP3   OH215425   2.390   1.573   2.758
 5154TIP3    H115426   2.471   1.579   2.809
 5154TIP3    H215427   2.329   1.526   2.814
 5155TIP3   OH215428   2.765   1.251   5.827
 5155TIP3    H115429   2.842   1.213   5.870
 5155TIP3    H215430   2.711   1.283   5.898
 5156TIP3   OH215431   1.112   6.619   4.152
 5156TIP3    H115432   1.072   6.705   4.157
 5156TIP3    H215433   1.073   6.579   4.074
 5157TIP3   OH215434   6.288   0.538   0.670
 5157TIP3    H115435   6.293   0.626   0.632
 5157TIP3    H215436   6.285   0.480   0.594
 5158TIP3   OH215437   0.303   2.180   1.137
 5158TIP3    H115438   0.371   2.131   1.090
 5158TIP3    H215439   0.264   2.117   1.197
 5159TIP3   OH215440   2.396   4.499   3.193
 5159TIP3    H115441   2.412   4.418   3.242
 5159TIP3    H215442   2.464   4.500   3.126
 5160TIP3   OH215443   6.529   3.226   5.146
 5160TIP3    H115444   6.513   3.177   5.065
 5160TIP3    H215445   6.473   3.303   5.138
 5161TIP3   OH215446   1.686   5.057   2.258
 5161TIP3    H115447   1.595   5.072   2.284
 5161TIP3    H215448   1.701   4.965   2.277
 5162TIP3   OH215449   4.667   2.625   4.316
 5162TIP3    H115450   4.642   2.545   4.362
 5162TIP3    H215451   4.632   2.696   4.370
 5163TIP3   OH215452   5.331   0.963   4.333
 5163TIP3    H115453   5.346   0.879   4.377
 5163TIP3    H215454   5.271   0.942   4.262
 5164TIP3   OH215455   2.508   0.830   2.651
 5164TIP3    H115456   2.465   0.764   2.705
 5164TIP3    H215457   2.595   0.794   2.634
 5165TIP3   OH215458   1.829   3.520   2.451
 5165TIP3    H115459   1.836   3.609   2.484
 5165TIP3    H215460   1.822   3.466   2.530
 5166TIP3   OH215461   0.445   4.118   5.266
 5166TIP3    H115462   0.450   4.056   5.193
 5166TIP3    H215463   0.398   4.193   5.230
 5167TIP3   OH215464   1.638   5.461   5.814
 5167TIP3    H115465   1.543   5.474   5.810
 5167TIP3    H215466   1.659   5.470   5.907
 5168TIP3   OH215467   4.593   1.761   1.517
 5168TIP3    H115468   4.663   1.700   1.491
 5168TIP3    H215469   4.616   1.843   1.473
 5169TIP3   OH215470   2.058   1.462   0.480
 5169TIP3    H115471   2.058   1.553   0.511
 5169TIP3    H215472   1.986   1.457   0.418
 5170TIP3   OH215473   1.758   6.189   5.610
 5170TIP3    H115474   1.818   6.188   5.535
 5170TIP3    H215475   1.746   6.097   5.633
 5171TIP3   OH215476   2.303   6.670   3.597
 5171TIP3    H115477   2.371   6.736   3.584
 5171TIP3    H215478   2.265   6.691   3.682
 5172TIP3   OH215479   0.996   2.467   2.683
 5172TIP3    H115480   1.030   2.412   2.612
 5172TIP3    H215481   0.902   2.450   2.683
 5173TIP3   OH215482   2.004   0.167   4.775
 5173TIP3    H115483   1.936   0.193   4.837
 5173TIP3    H215484   2.083   0.210   4.806
 5174TIP3   OH215485   6.754   3.491   2.751
 5174TIP3    H115486   6.814   3.560   2.723
 5174TIP3    H215487   6.693   3.481   2.678
 5175TIP3   OH215488   1.116   3.829   3.780
 5175TIP3    H115489   1.109   3.739   3.810
 5175TIP3    H215490   1.046   3.875   3.827
 5176TIP3   OH215491   0.294   3.099   3.436
 5176TIP3    H115492   0.202   3.102   3.409
 5176TIP3    H215493   0.302   3.167   3.502
 5177TIP3   OH215494   3.764   1.075   1.053
 5177TIP3    H115495   3.814   1.156   1.046
 5177TIP3    H215496   3.773   1.034   0.967
 5178TIP3   OH215497   2.603   2.096   3.547
 5178TIP3    H115498   2.579   2.176   3.595
 5178TIP3    H215499   2.686   2.117   3.506
 5179TIP3   OH215500   1.155   2.351   2.465
 5179TIP3    H115501   1.222   2.346   2.533
 5179TIP3    H215502   1.205   2.356   2.383
 5180TIP3   OH215503   5.434   6.047   2.987
 5180TIP3    H115504   5.378   6.069   2.912
 5180TIP3    H215505   5.385   6.078   3.063
 5181TIP3   OH215506   0.474   2.201   0.817
 5181TIP3    H115507   0.424   2.121   0.827
 5181TIP3    H215508   0.424   2.254   0.755
 5182TIP3   OH215509   5.292   3.414   2.074
 5182TIP3    H115510   5.219   3.470   2.099
 5182TIP3    H215511   5.251   3.338   2.032
 5183TIP3   OH215512   2.132   5.310   5.688
 5183TIP3    H115513   2.225   5.329   5.703
 5183TIP3    H215514   2.116   5.231   5.739
 5184TIP3   OH215515   6.920   6.584   4.537
 5184TIP3    H115516   6.859   6.592   4.610
 5184TIP3    H215517   6.878   6.631   4.465
 5185TIP3   OH215518   2.394   4.888   0.125
 5185TIP3    H115519   2.394   4.980   0.151
 5185TIP3    H215520   2.460   4.848   0.181
 5186TIP3   OH215521   4.471   0.974   3.441
 5186TIP3    H115522   4.377   0.977   3.422
 5186TIP3    H215523   4.499   0.887   3.411
 5187TIP3   OH215524   2.410   2.503   5.573
 5187TIP3    H115525   2.315   2.501   5.566
 5187TIP3    H215526   2.440   2.526   5.485
 5188TIP3   OH215527   5.069   4.621   1.319
 5188TIP3    H115528   5.078   4.531   1.351
 5188TIP3    H215529   5.121   4.624   1.239
 5189TIP3   OH215530   1.041   5.867   0.217
 5189TIP3    H115531   1.021   5.833   0.304
 5189TIP3    H215532   0.962   5.914   0.190
 5190TIP3   OH215533   6.514   2.140   5.356
 5190TIP3    H115534   6.589   2.137   5.297
 5190TIP3    H215535   6.552   2.146   5.444
 5191TIP3   OH215536   6.386   1.978   0.200
 5191TIP3    H115537   6.443   1.901   0.200
 5191TIP3    H215538   6.359   1.988   0.292
 5192TIP3   OH215539   6.153   5.920   2.592
 5192TIP3    H115540   6.225   5.876   2.546
 5192TIP3    H215541   6.082   5.921   2.528
 5193TIP3   OH215542   1.301   0.935   5.064
 5193TIP3    H115543   1.364   0.891   5.122
 5193TIP3    H215544   1.271   0.866   5.005
 5194TIP3   OH215545   4.548   1.382   5.348
 5194TIP3    H115546   4.518   1.296   5.378
 5194TIP3    H215547   4.560   1.371   5.254
 5195TIP3   OH215548   6.869   1.439   4.155
 5195TIP3    H115549   6.822   1.415   4.075
 5195TIP3    H215550   6.807   1.421   4.225
 5196TIP3   OH215551   6.546   4.925   1.465
 5196TIP3    H115552   6.461   4.913   1.508
 5196TIP3    H215553   6.594   4.845   1.483
 5197TIP3   OH215554   6.413   2.847   3.646
 5197TIP3    H115555   6.490   2.795   3.623
 5197TIP3    H215556   6.432   2.881   3.734
 5198TIP3   OH215557   7.199   1.079   3.466
 5198TIP3    H115558   7.215   1.153   3.407
 5198TIP3    H215559   7.150   1.116   3.539
 5199TIP3   OH215560   5.868   0.913   4.445
 5199TIP3    H115561   5.784   0.884   4.478
 5199TIP3    H215562   5.928   0.906   4.519
 5200TIP3   OH215563   3.330   3.086   3.928
 5200TIP3    H115564   3.372   3.172   3.919
 5200TIP3    H215565   3.260   3.087   3.863
 5201TIP3   OH215566   6.548   4.044   0.263
 5201TIP3    H115567   6.521   4.038   0.172
 5201TIP3    H215568   6.484   3.990   0.310
 5202TIP3   OH215569   1.030   1.208   0.113
 5202TIP3    H115570   0.995   1.218   0.025
 5202TIP3    H215571   1.000   1.121   0.141
 5203TIP3   OH215572   1.105   3.044   3.500
 5203TIP3    H115573   1.152   3.096   3.565
 5203TIP3    H215574   1.164   2.971   3.480
 5204TIP3   OH215575   2.068   4.075   0.823
 5204TIP3    H115576   1.983   4.105   0.854
 5204TIP3    H215577   2.131   4.132   0.867
 5205TIP3   OH215578   6.556   5.572   3.414
 5205TIP3    H115579   6.526   5.628   3.485
 5205TIP3    H215580   6.565   5.631   3.339
 5206TIP3   OH215581   4.598   0.862   3.761
 5206TIP3    H115582   4.632   0.951   3.769
 5206TIP3    H215583   4.623   0.834   3.673
 5207TIP3   OH215584   6.368   4.843   0.263
 5207TIP3    H115585   6.345   4.835   0.170
 5207TIP3    H215586   6.412   4.928   0.269
 5208TIP3   OH215587   5.123   3.317   4.842
 5208TIP3    H115588   5.156   3.377   4.776
 5208TIP3    H215589   5.055   3.266   4.797
 5209TIP3   OH215590   5.186   1.708   0.799
 5209TIP3    H115591   5.094   1.683   0.793
 5209TIP3    H215592   5.217   1.708   0.708
 5210TIP3   OH215593   7.103   4.559   4.482
 5210TIP3    H115594   7.078   4.511   4.561
 5210TIP3    H215595   7.195   4.580   4.494
 5211TIP3   OH215596   2.297   6.669   2.296
 5211TIP3    H115597   2.228   6.682   2.361
 5211TIP3    H215598   2.297   6.575   2.280
 5212TIP3   OH215599   3.712   3.290   3.495
 5212TIP3    H115600   3.718   3.357   3.562
 5212TIP3    H215601   3.783   3.311   3.434
 5213TIP3   OH215602   1.779   3.227   5.761
 5213TIP3    H115603   1.734   3.178   5.830
 5213TIP3    H215604   1.731   3.309   5.754
 5214TIP3   OH215605   6.497   5.599   2.287
 5214TIP3    H115606   6.454   5.678   2.254
 5214TIP3    H215607   6.586   5.628   2.311
 5215TIP3   OH215608   2.111   6.718   4.375
 5215TIP3    H115609   2.158   6.706   4.292
 5215TIP3    H215610   2.019   6.706   4.352
 5216TIP3   OH215611   6.834   6.300   4.047
 5216TIP3    H115612   6.895   6.352   3.995
 5216TIP3    H215613   6.884   6.273   4.124
 5217TIP3   OH215614   2.212   2.913   4.695
 5217TIP3    H115615   2.220   2.818   4.688
 5217TIP3    H215616   2.257   2.934   4.778
 5218TIP3   OH215617   3.025   1.552   0.550
 5218TIP3    H115618   3.120   1.558   0.542
 5218TIP3    H215619   3.002   1.613   0.619
 5219TIP3   OH215620   4.642   5.862   4.082
 5219TIP3    H115621   4.734   5.871   4.108
 5219TIP3    H215622   4.646   5.836   3.990
 5220TIP3   OH215623   4.621   0.143   0.219
 5220TIP3    H115624   4.576   0.227   0.223
 5220TIP3    H215625   4.711   0.162   0.246
 5221TIP3   OH215626   4.285   3.708   1.203
 5221TIP3    H115627   4.231   3.643   1.157
 5221TIP3    H215628   4.259   3.701   1.295
 5222TIP3   OH215629   3.547   3.884   3.574
 5222TIP3    H115630   3.618   3.889   3.510
 5222TIP3    H215631   3.590   3.903   3.658
 5223TIP3   OH215632   4.451   4.355   1.332
 5223TIP3    H115633   4.386   4.350   1.402
 5223TIP3    H215634   4.506   4.430   1.357
 5224TIP3   OH215635  -0.044   6.797   4.510
 5224TIP3    H115636  -0.018   6.867   4.449
 5224TIP3    H215637  -0.061   6.722   4.453
 5225TIP3   OH215638   5.003   1.693   4.319
 5225TIP3    H115639   4.956   1.775   4.329
 5225TIP3    H215640   4.936   1.629   4.296
 5226TIP3   OH215641   3.378   4.983   1.009
 5226TIP3    H115642   3.308   4.997   0.945
 5226TIP3    H215643   3.416   4.899   0.985
 5227TIP3   OH215644   3.849   3.553   4.615
 5227TIP3    H115645   3.759   3.528   4.595
 5227TIP3    H215646   3.876   3.608   4.541
 5228TIP3   OH215647   0.224   6.176   4.813
 5228TIP3    H115648   0.182   6.122   4.881
 5228TIP3    H215649   0.308   6.132   4.797
 5229TIP3   OH215650   2.129   0.530   2.140
 5229TIP3    H115651   2.080   0.462   2.187
 5229TIP3    H215652   2.221   0.509   2.155
 5230TIP3   OH215653   5.227   2.214   2.465
 5230TIP3    H115654   5.247   2.282   2.529
 5230TIP3    H215655   5.270   2.136   2.499
 5231TIP3   OH215656   1.856   1.786   1.634
 5231TIP3    H115657   1.892   1.743   1.556
 5231TIP3    H215658   1.924   1.777   1.700
 5232TIP3   OH215659   4.811   6.468   5.124
 5232TIP3    H115660   4.726   6.423   5.122
 5232TIP3    H215661   4.801   6.542   5.065
 5233TIP3   OH215662   3.438   3.559   1.909
 5233TIP3    H115663   3.509   3.571   1.973
 5233TIP3    H215664   3.415   3.466   1.916
 5234TIP3   OH215665   1.623   4.898   1.638
 5234TIP3    H115666   1.614   4.941   1.553
 5234TIP3    H215667   1.672   4.818   1.620
 5235TIP3   OH215668   0.016   4.351   5.575
 5235TIP3    H115669   0.082   4.284   5.556
 5235TIP3    H215670  -0.021   4.325   5.659
 5236TIP3   OH215671   3.431   6.598   2.715
 5236TIP3    H115672   3.346   6.630   2.746
 5236TIP3    H215673   3.492   6.671   2.732
 5237TIP3   OH215674   6.983   2.630   3.672
 5237TIP3    H115675   6.903   2.627   3.723
 5237TIP3    H215676   7.046   2.675   3.728
 5238TIP3   OH215677   2.630   1.079   3.895
 5238TIP3    H115678   2.628   1.114   3.984
 5238TIP3    H215679   2.552   1.024   3.888
 5239TIP3   OH215680   1.105   0.584   0.682
 5239TIP3    H115681   1.077   0.675   0.692
 5239TIP3    H215682   1.068   0.540   0.758
 5240TIP3   OH215683   6.913   4.455   2.492
 5240TIP3    H115684   6.869   4.410   2.420
 5240TIP3    H215685   6.982   4.506   2.449
 5241TIP3   OH215686   5.966   1.597   4.599
 5241TIP3    H115687   5.902   1.527   4.595
 5241TIP3    H215688   6.018   1.578   4.677
 5242TIP3   OH215689   6.435   1.375   1.587
 5242TIP3    H115690   6.512   1.321   1.567
 5242TIP3    H215691   6.418   1.424   1.506
 5243TIP3   OH215692   6.675   2.535   0.245
 5243TIP3    H115693   6.590   2.524   0.287
 5243TIP3    H215694   6.656   2.584   0.165
 5244TIP3   OH215695   3.741   0.715   0.585
 5244TIP3    H115696   3.770   0.743   0.672
 5244TIP3    H215697   3.665   0.660   0.602
 5245TIP3   OH215698   3.355   4.229   0.955
 5245TIP3    H115699   3.379   4.235   1.047
 5245TIP3    H215700   3.420   4.281   0.909
 5246TIP3   OH215701   1.925   5.266   3.281
 5246TIP3    H115702   1.893   5.254   3.191
 5246TIP3    H215703   1.897   5.188   3.327
 5247TIP3   OH215704   2.271   6.731   5.046
 5247TIP3    H115705   2.326   6.663   5.084
 5247TIP3    H215706   2.283   6.807   5.103
 5248TIP3   OH215707   4.126   5.341   1.160
 5248TIP3    H115708   4.081   5.296   1.088
 5248TIP3    H215709   4.120   5.434   1.138
 5249TIP3   OH215710   1.898   5.051   4.812
 5249TIP3    H115711   1.860   5.088   4.732
 5249TIP3    H215712   1.831   4.989   4.844
 5250TIP3   OH215713   6.737   6.208   4.498
 5250TIP3    H115714   6.654   6.164   4.517
 5250TIP3    H215715   6.759   6.252   4.579
 5251TIP3   OH215716   4.862   2.846   4.685
 5251TIP3    H115717   4.788   2.897   4.718
 5251TIP3    H215718   4.937   2.878   4.735
 5252TIP3   OH215719   5.797   4.918   0.896
 5252TIP3    H115720   5.814   4.988   0.960
 5252TIP3    H215721   5.789   4.964   0.812
 5253TIP3   OH215722   0.583   4.954   1.120
 5253TIP3    H115723   0.638   5.032   1.132
 5253TIP3    H215724   0.494   4.985   1.135
 5254TIP3   OH215725   1.956   5.228   3.848
 5254TIP3    H115726   2.046   5.226   3.880
 5254TIP3    H215727   1.956   5.166   3.775
 5255TIP3   OH215728   6.559   6.612   4.010
 5255TIP3    H115729   6.584   6.521   4.025
 5255TIP3    H215730   6.560   6.652   4.097
 5256TIP3   OH215731   7.106   5.175   4.002
 5256TIP3    H115732   7.117   5.086   4.037
 5256TIP3    H215733   7.125   5.166   3.909
 5257TIP3   OH215734   2.511   5.579   1.985
 5257TIP3    H115735   2.560   5.607   2.062
 5257TIP3    H215736   2.526   5.648   1.921
 5258TIP3   OH215737   6.011   6.386   3.760
 5258TIP3    H115738   5.966   6.368   3.842
 5258TIP3    H215739   6.103   6.364   3.777
 5259TIP3   OH215740   5.805   0.089   2.719
 5259TIP3    H115741   5.781   0.063   2.630
 5259TIP3    H215742   5.780   0.181   2.725
 5260TIP3   OH215743   6.091   5.919   1.793
 5260TIP3    H115744   6.182   5.907   1.820
 5260TIP3    H215745   6.060   5.831   1.775
 5261TIP3   OH215746   2.043   1.596   4.717
 5261TIP3    H115747   1.961   1.644   4.728
 5261TIP3    H215748   2.046   1.577   4.623
 5262TIP3   OH215749   4.735   5.052   1.636
 5262TIP3    H115750   4.690   5.136   1.645
 5262TIP3    H215751   4.820   5.074   1.599
 5263TIP3   OH215752   1.030   1.342   1.328
 5263TIP3    H115753   1.095   1.356   1.397
 5263TIP3    H215754   1.071   1.280   1.268
 5264TIP3   OH215755   4.636   0.418   3.489
 5264TIP3    H115756   4.712   0.448   3.438
 5264TIP3    H215757   4.664   0.335   3.528
 5265TIP3   OH215758   5.057   5.743   0.535
 5265TIP3    H115759   5.067   5.796   0.456
 5265TIP3    H215760   5.004   5.669   0.507
 5266TIP3   OH215761   1.033   5.132   4.568
 5266TIP3    H115762   1.116   5.134   4.616
 5266TIP3    H215763   0.966   5.150   4.635
 5267TIP3   OH215764   2.710   1.212   4.221
 5267TIP3    H115765   2.720   1.256   4.306
 5267TIP3    H215766   2.800   1.201   4.189
 5268TIP3   OH215767   1.790   1.074   4.710
 5268TIP3    H115768   1.744   1.129   4.646
 5268TIP3    H215769   1.881   1.073   4.680
 5269TIP3   OH215770   7.198   2.709   2.474
 5269TIP3    H115771   7.143   2.787   2.461
 5269TIP3    H215772   7.137   2.644   2.510
 5270TIP3   OH215773   5.170   1.839   1.713
 5270TIP3    H115774   5.241   1.794   1.667
 5270TIP3    H215775   5.150   1.915   1.658
 5271TIP3   OH215776   5.375   0.022   0.494
 5271TIP3    H115777   5.456  -0.012   0.531
 5271TIP3    H215778   5.346   0.088   0.556
 5272TIP3   OH215779   5.592   3.443   2.937
 5272TIP3    H115780   5.510   3.407   2.902
 5272TIP3    H215781   5.585   3.430   3.031
 5273TIP3   OH215782   0.597   1.724   2.722
 5273TIP3    H115783   0.536   1.797   2.726
 5273TIP3    H215784   0.541   1.646   2.720
 5274TIP3   OH215785   3.224   1.021   2.129
 5274TIP3    H115786   3.211   0.926   2.121
 5274TIP3    H215787   3.235   1.036   2.223
 5275TIP3   OH215788   4.409   5.685   5.937
 5275TIP3    H115789   4.491   5.728   5.913
 5275TIP3    H215790   4.349   5.757   5.957
 5276TIP3   OH215791   5.260   2.238   1.411
 5276TIP3    H115792   5.253   2.235   1.316
 5276TIP3    H215793   5.330   2.175   1.432
 5277TIP3   OH215794   7.268   2.740   0.245
 5277TIP3    H115795   7.253   2.700   0.159
 5277TIP3    H215796   7.208   2.693   0.303
 5278TIP3   OH215797   3.692   4.003   3.982
 5278TIP3    H115798   3.716   3.979   3.893
 5278TIP3    H215799   3.667   4.095   3.977
 5279TIP3   OH215800   5.003   6.043   5.593
 5279TIP3    H115801   4.967   6.060   5.506
 5279TIP3    H215802   5.011   5.947   5.598
 5280TIP3   OH215803   1.503   2.031   0.481
 5280TIP3    H115804   1.448   1.984   0.543
 5280TIP3    H215805   1.565   2.079   0.537
 5281TIP3   OH215806   2.924   5.788   5.635
 5281TIP3    H115807   2.942   5.860   5.696
 5281TIP3    H215808   2.853   5.821   5.579
 5282TIP3   OH215809   4.791   5.858   0.360
 5282TIP3    H115810   4.883   5.885   0.354
 5282TIP3    H215811   4.761   5.853   0.269
 5283TIP3   OH215812   1.883   5.369   0.468
 5283TIP3    H115813   1.953   5.427   0.498
 5283TIP3    H215814   1.885   5.295   0.528
 5284TIP3   OH215815   2.009   0.209   1.950
 5284TIP3    H115816   1.958   0.129   1.938
 5284TIP3    H215817   2.057   0.219   1.868
 5285TIP3   OH215818   4.363   6.479   0.543
 5285TIP3    H115819   4.284   6.449   0.498
 5285TIP3    H215820   4.415   6.400   0.556
 5286TIP3   OH215821   6.217   5.153   5.767
 5286TIP3    H115822   6.311   5.144   5.785
 5286TIP3    H215823   6.178   5.073   5.801
 5287TIP3   OH215824   2.342   1.024   4.798
 5287TIP3    H115825   2.436   1.009   4.785
 5287TIP3    H215826   2.338   1.104   4.850
 5288TIP3   OH215827   1.112   2.887   2.136
 5288TIP3    H115828   1.166   2.953   2.179
 5288TIP3    H215829   1.166   2.807   2.138
 5289TIP3   OH215830   0.294   5.376   1.861
 5289TIP3    H115831   0.274   5.296   1.811
 5289TIP3    H215832   0.388   5.370   1.878
 5290TIP3   OH215833   0.563   0.581   0.029
 5290TIP3    H115834   0.549   0.627   0.112
 5290TIP3    H215835   0.622   0.638  -0.020
 5291TIP3   OH215836   0.836   1.732   2.572
 5291TIP3    H115837   0.808   1.787   2.499
 5291TIP3    H215838   0.755   1.716   2.621
 5292TIP3   OH215839   5.261   4.512   0.443
 5292TIP3    H115840   5.177   4.558   0.442
 5292TIP3    H215841   5.323   4.573   0.403
 5293TIP3   OH215842   6.282   4.771   5.651
 5293TIP3    H115843   6.303   4.753   5.742
 5293TIP3    H215844   6.367   4.781   5.608
 5294TIP3   OH215845   1.131   6.026   4.876
 5294TIP3    H115846   1.037   6.018   4.860
 5294TIP3    H215847   1.171   5.959   4.820
 5295TIP3   OH215848   4.962   3.700   2.057
 5295TIP3    H115849   5.006   3.658   2.131
 5295TIP3    H215850   5.004   3.663   1.979
 5296TIP3   OH215851   5.212   4.031   4.167
 5296TIP3    H115852   5.234   4.109   4.219
 5296TIP3    H215853   5.250   3.958   4.216
 5297TIP3   OH215854   3.806   1.552   3.302
 5297TIP3    H115855   3.815   1.493   3.376
 5297TIP3    H215856   3.856   1.630   3.326
 5298TIP3   OH215857   2.784   2.626   3.154
 5298TIP3    H115858   2.750   2.710   3.185
 5298TIP3    H215859   2.715   2.591   3.099
 5299TIP3   OH215860   5.522   5.950   0.682
 5299TIP3    H115861   5.427   5.958   0.669
 5299TIP3    H215862   5.553   5.906   0.603
 5300TIP3   OH215863   6.700   0.129   3.085
 5300TIP3    H115864   6.651   0.094   3.159
 5300TIP3    H215865   6.641   0.195   3.048
 5301TIP3   OH215866   3.802   0.783   0.316
 5301TIP3    H115867   3.711   0.762   0.295
 5301TIP3    H215868   3.800   0.812   0.407
 5302TIP3   OH215869   3.386   3.054   5.675
 5302TIP3    H115870   3.479   3.057   5.651
 5302TIP3    H215871   3.381   2.991   5.746
 5303TIP3   OH215872   0.586   5.353   4.221
 5303TIP3    H115873   0.514   5.395   4.267
 5303TIP3    H215874   0.548   5.324   4.138
 5304TIP3   OH215875   3.870   3.391   3.011
 5304TIP3    H115876   3.794   3.428   2.966
 5304TIP3    H215877   3.891   3.312   2.962
 5305TIP3   OH215878   6.700   5.566   2.802
 5305TIP3    H115879   6.713   5.630   2.872
 5305TIP3    H215880   6.763   5.496   2.822
 5306TIP3   OH215881   6.712   0.918   5.297
 5306TIP3    H115882   6.806   0.910   5.311
 5306TIP3    H215883   6.676   0.932   5.385
 5307TIP3   OH215884   0.229   3.378   5.638
 5307TIP3    H115885   0.251   3.287   5.659
 5307TIP3    H215886   0.153   3.372   5.581
 5308TIP3   OH215887   0.642   3.773   1.013
 5308TIP3    H115888   0.722   3.821   1.032
 5308TIP3    H215889   0.596   3.828   0.949
 5309TIP3   OH215890   0.423   5.846   0.021
 5309TIP3    H115891   0.482   5.916  -0.009
 5309TIP3    H215892   0.335   5.880   0.004
 5310TIP3   OH215893   5.441   1.677   4.460
 5310TIP3    H115894   5.379   1.604   4.458
 5310TIP3    H215895   5.396   1.746   4.509
 5311TIP3   OH215896   0.828   4.500   5.142
 5311TIP3    H115897   0.743   4.477   5.179
 5311TIP3    H215898   0.877   4.418   5.142
 5312TIP3   OH215899   0.496   1.492   4.413
 5312TIP3    H115900   0.439   1.520   4.485
 5312TIP3    H215901   0.493   1.564   4.350
 5313TIP3   OH215902   1.556   0.968   1.759
 5313TIP3    H115903   1.524   1.029   1.825
 5313TIP3    H215904   1.637   0.932   1.796
 5314TIP3   OH215905   0.377   0.109   5.173
 5314TIP3    H115906   0.464   0.117   5.213
 5314TIP3    H215907   0.384   0.035   5.112
 5315TIP3   OH215908   0.600   4.161   5.542
 5315TIP3    H115909   0.548   4.122   5.472
 5315TIP3    H215910   0.612   4.252   5.516
 5316TIP3   OH215911   3.742   4.991   3.317
 5316TIP3    H115912   3.709   4.940   3.244
 5316TIP3    H215913   3.832   4.960   3.329
 5317TIP3   OH215914   4.356   4.936   3.836
 5317TIP3    H115915   4.358   4.867   3.902
 5317TIP3    H215916   4.398   4.896   3.759
 5318TIP3   OH215917   6.354   1.039   3.216
 5318TIP3    H115918   6.262   1.043   3.241
 5318TIP3    H215919   6.397   1.103   3.274
 5319TIP3   OH215920   2.703   1.634   3.505
 5319TIP3    H115921   2.753   1.553   3.496
 5319TIP3    H215922   2.767   1.703   3.486
 5320TIP3   OH215923   2.624   5.755   1.798
 5320TIP3    H115924   2.582   5.813   1.735
 5320TIP3    H215925   2.683   5.700   1.746
 5321TIP3   OH215926   1.910   2.588   1.147
 5321TIP3    H115927   1.917   2.513   1.206
 5321TIP3    H215928   1.999   2.624   1.143
 5322TIP3   OH215929   4.079   6.789   2.155
 5322TIP3    H115930   4.025   6.731   2.101
 5322TIP3    H215931   4.029   6.870   2.160
 5323TIP3   OH215932   7.026   3.875  -0.022
 5323TIP3    H115933   7.077   3.954  -0.003
 5323TIP3    H215934   6.940   3.892   0.015
 5324TIP3   OH215935   6.961   0.802   0.634
 5324TIP3    H115936   6.960   0.798   0.730
 5324TIP3    H215937   6.954   0.895   0.613
 5325TIP3   OH215938   2.731   3.116   3.405
 5325TIP3    H115939   2.649   3.082   3.371
 5325TIP3    H215940   2.731   3.091   3.498
 5326TIP3   OH215941   2.155   4.258   1.376
 5326TIP3    H115942   2.227   4.199   1.353
 5326TIP3    H215943   2.125   4.226   1.461
 5327TIP3   OH215944   2.878   6.433   3.972
 5327TIP3    H115945   2.783   6.444   3.965
 5327TIP3    H215946   2.900   6.372   3.901
 5328TIP3   OH215947   0.391   0.707   1.702
 5328TIP3    H115948   0.468   0.706   1.646
 5328TIP3    H215949   0.374   0.615   1.722
 5329TIP3   OH215950   4.275   0.593   2.965
 5329TIP3    H115951   4.198   0.575   3.019
 5329TIP3    H215952   4.291   0.686   2.977
 5330TIP3   OH215953   6.649   6.398   3.749
 5330TIP3    H115954   6.605   6.333   3.804
 5330TIP3    H215955   6.737   6.405   3.784
 5331TIP3   OH215956   2.392   2.364   1.045
 5331TIP3    H115957   2.345   2.319   1.115
 5331TIP3    H215958   2.351   2.331   0.964
 5332TIP3   OH215959   0.110   6.538   2.683
 5332TIP3    H115960   0.167   6.479   2.732
 5332TIP3    H215961   0.070   6.595   2.749
 5333TIP3   OH215962   3.071   2.797   3.444
 5333TIP3    H115963   3.004   2.836   3.388
 5333TIP3    H215964   3.029   2.789   3.530
 5334TIP3   OH215965   0.774   0.519   4.153
 5334TIP3    H115966   0.756   0.532   4.060
 5334TIP3    H215967   0.853   0.463   4.154
 5335TIP3   OH215968   7.022   1.269   5.304
 5335TIP3    H115969   7.046   1.324   5.378
 5335TIP3    H215970   6.928   1.280   5.295
 5336TIP3   OH215971   3.692   4.351   3.612
 5336TIP3    H115972   3.734   4.370   3.529
 5336TIP3    H215973   3.653   4.435   3.639
 5337TIP3   OH215974   5.920   3.970   3.435
 5337TIP3    H115975   6.011   3.976   3.465
 5337TIP3    H215976   5.917   4.024   3.357
 5338TIP3   OH215977   2.700   3.038   4.153
 5338TIP3    H115978   2.772   2.975   4.148
 5338TIP3    H215979   2.668   3.032   4.243
 5339TIP3   OH215980   5.827   5.031   3.367
 5339TIP3    H115981   5.901   4.970   3.378
 5339TIP3    H215982   5.828   5.084   3.447
 5340TIP3   OH215983   6.836   3.477   0.276
 5340TIP3    H115984   6.821   3.566   0.308
 5340TIP3    H215985   6.850   3.425   0.355
 5341TIP3   OH215986   7.054   5.984   5.182
 5341TIP3    H115987   7.015   6.071   5.172
 5341TIP3    H215988   7.063   5.972   5.276
 5342TIP3   OH215989   3.647   4.157   0.654
 5342TIP3    H115990   3.712   4.093   0.684
 5342TIP3    H215991   3.573   4.104   0.624
 5343TIP3   OH215992   7.214   3.400   1.673
 5343TIP3    H115993   7.264   3.374   1.595
 5343TIP3    H215994   7.140   3.340   1.676
 5344TIP3   OH215995   3.304   2.386   3.906
 5344TIP3    H115996   3.383   2.341   3.938
 5344TIP3    H215997   3.233   2.351   3.960
 5345TIP3   OH215998   2.629   2.491   2.914
 5345TIP3    H115999   2.613   2.557   2.846
 5345TIP3    H216000   2.567   2.511   2.983
 5346TIP3   OH216001   3.466   6.127   4.143
 5346TIP3    H116002   3.459   6.149   4.236
 5346TIP3    H216003   3.512   6.043   4.143
 5347TIP3   OH216004   0.871   5.504   3.768
 5347TIP3    H116005   0.845   5.484   3.858
 5347TIP3    H216006   0.936   5.574   3.777
 5348TIP3   OH216007   0.699   5.236   0.079
 5348TIP3    H116008   0.723   5.178   0.152
 5348TIP3    H216009   0.736   5.321   0.102
 5349TIP3   OH216010   6.810   6.427   1.432
 5349TIP3    H116011   6.871   6.484   1.479
 5349TIP3    H216012   6.770   6.485   1.367
 5350TIP3   OH216013   1.332   4.748   2.704
 5350TIP3    H116014   1.398   4.727   2.770
 5350TIP3    H216015   1.285   4.666   2.690
 5351TIP3   OH216016   1.831   0.264   3.516
 5351TIP3    H116017   1.905   0.309   3.475
 5351TIP3    H216018   1.764   0.331   3.527
 5352TIP3   OH216019   6.861   0.576   4.954
 5352TIP3    H116020   6.873   0.607   5.043
 5352TIP3    H216021   6.904   0.641   4.899
 5353TIP3   OH216022   5.566   0.659   4.877
 5353TIP3    H116023   5.651   0.688   4.844
 5353TIP3    H216024   5.553   0.573   4.837
 5354TIP3   OH216025   1.488   0.242   3.873
 5354TIP3    H116026   1.511   0.321   3.922
 5354TIP3    H216027   1.416   0.270   3.815
 5355TIP3   OH216028   1.510   1.433   0.341
 5355TIP3    H116029   1.485   1.340   0.347
 5355TIP3    H216030   1.442   1.472   0.286
 5356TIP3   OH216031   1.100   6.537   2.129
 5356TIP3    H116032   1.169   6.568   2.070
 5356TIP3    H216033   1.124   6.446   2.147
 5357TIP3   OH216034   2.729   0.699   2.634
 5357TIP3    H116035   2.795   0.688   2.566
 5357TIP3    H216036   2.685   0.614   2.640
 5358TIP3   OH216037   0.401   5.093   1.262
 5358TIP3    H116038   0.314   5.095   1.222
 5358TIP3    H216039   0.418   5.184   1.287
 5359TIP3   OH216040   2.658   1.760   5.050
 5359TIP3    H116041   2.602   1.837   5.049
 5359TIP3    H216042   2.744   1.793   5.077
 5360TIP3   OH216043   1.224   5.731   0.644
 5360TIP3    H116044   1.261   5.793   0.580
 5360TIP3    H216045   1.192   5.787   0.715
 5361TIP3   OH216046   5.230   0.388   4.615
 5361TIP3    H116047   5.151   0.375   4.667
 5361TIP3    H216048   5.252   0.300   4.584
 5362TIP3   OH216049   6.558   0.350   5.119
 5362TIP3    H116050   6.634   0.302   5.086
 5362TIP3    H216051   6.490   0.335   5.053
 5363TIP3   OH216052   2.051   0.870   2.548
 5363TIP3    H116053   1.960   0.897   2.534
 5363TIP3    H216054   2.053   0.778   2.521
 5364TIP3   OH216055   6.285   0.752   4.377
 5364TIP3    H116056   6.323   0.827   4.331
 5364TIP3    H216057   6.305   0.769   4.469
 5365TIP3   OH216058   2.044   6.067   5.697
 5365TIP3    H116059   2.057   6.057   5.792
 5365TIP3    H216060   2.092   6.147   5.675
 5366TIP3   OH216061   0.885   1.763   4.683
 5366TIP3    H116062   0.841   1.766   4.598
 5366TIP3    H216063   0.944   1.687   4.677
 5367TIP3   OH216064   5.077   1.840   5.448
 5367TIP3    H116065   5.109   1.842   5.358
 5367TIP3    H216066   5.116   1.762   5.486
 5368TIP3   OH216067   3.666   1.804   4.150
 5368TIP3    H116068   3.625   1.753   4.080
 5368TIP3    H216069   3.760   1.794   4.134
 5369TIP3   OH216070   2.558   6.430   2.817
 5369TIP3    H116071   2.607   6.511   2.800
 5369TIP3    H216072   2.625   6.363   2.828
 5370TIP3   OH216073   5.669   0.400   5.666
 5370TIP3    H116074   5.595   0.433   5.615
 5370TIP3    H216075   5.709   0.334   5.609
 5371TIP3   OH216076   0.762   5.868   4.360
 5371TIP3    H116077   0.834   5.858   4.298
 5371TIP3    H216078   0.799   5.919   4.432
 5372TIP3   OH216079   3.282   6.411   4.708
 5372TIP3    H116080   3.292   6.445   4.618
 5372TIP3    H216081   3.345   6.462   4.759
 5373TIP3   OH216082   6.262   1.715   2.175
 5373TIP3    H116083   6.172   1.681   2.170
 5373TIP3    H216084   6.252   1.804   2.208
 5374TIP3   OH216085   0.720   3.328   4.887
 5374TIP3    H116086   0.703   3.375   4.805
 5374TIP3    H216087   0.752   3.242   4.859
 5375TIP3   OH216088   0.244   6.192   2.111
 5375TIP3    H116089   0.223   6.133   2.038
 5375TIP3    H216090   0.319   6.152   2.154
 5376TIP3   OH216091   0.110   1.502   4.189
 5376TIP3    H116092   0.031   1.535   4.147
 5376TIP3    H216093   0.091   1.505   4.283
 5377TIP3   OH216094   6.983   2.804   4.864
 5377TIP3    H116095   6.958   2.780   4.775
 5377TIP3    H216096   6.904   2.840   4.903
 5378TIP3   OH216097   1.859   5.012   2.698
 5378TIP3    H116098   1.923   5.053   2.640
 5378TIP3    H216099   1.817   4.945   2.645
 5379TIP3   OH216100   6.695   2.219   3.382
 5379TIP3    H116101   6.733   2.307   3.379
 5379TIP3    H216102   6.769   2.160   3.374
 5380TIP3   OH216103   6.041   2.025   1.218
 5380TIP3    H116104   5.967   2.059   1.168
 5380TIP3    H216105   6.093   1.976   1.154
 5381TIP3   OH216106   7.156   2.755   3.839
 5381TIP3    H116107   7.241   2.792   3.815
 5381TIP3    H216108   7.177   2.685   3.901
 5382TIP3   OH216109   4.463   5.983   3.258
 5382TIP3    H116110   4.452   5.919   3.187
 5382TIP3    H216111   4.556   6.006   3.254
 5383TIP3   OH216112   1.244   3.400   4.161
 5383TIP3    H116113   1.323   3.405   4.108
 5383TIP3    H216114   1.247   3.314   4.202
 5384TIP3   OH216115   3.055   5.983   0.452
 5384TIP3    H116116   3.018   5.955   0.536
 5384TIP3    H216117   3.030   6.076   0.445
 5385TIP3   OH216118   3.415   3.463   0.276
 5385TIP3    H116119   3.454   3.422   0.199
 5385TIP3    H216120   3.321   3.447   0.267
 5386TIP3   OH216121   3.907   0.830   2.886
 5386TIP3    H116122   3.838   0.894   2.868
 5386TIP3    H216123   3.949   0.861   2.965
 5387TIP3   OH216124   2.240   0.559   1.213
 5387TIP3    H116125   2.257   0.477   1.167
 5387TIP3    H216126   2.156   0.589   1.178
 5388TIP3   OH216127   2.696   4.736   0.120
 5388TIP3    H116128   2.769   4.719   0.060
 5388TIP3    H216129   2.716   4.820   0.160
 5389TIP3   OH216130   6.162   2.095   0.042
 5389TIP3    H116131   6.170   2.176   0.092
 5389TIP3    H216132   6.242   2.047   0.062
 5390TIP3   OH216133   2.856   3.907   2.528
 5390TIP3    H116134   2.782   3.951   2.486
 5390TIP3    H216135   2.818   3.863   2.604
 5391TIP3   OH216136   5.383   2.665   4.344
 5391TIP3    H116137   5.423   2.752   4.351
 5391TIP3    H216138   5.299   2.681   4.301
 5392TIP3   OH216139   5.136   3.435   4.060
 5392TIP3    H116140   5.206   3.413   3.998
 5392TIP3    H216141   5.074   3.363   4.053
 5393TIP3   OH216142   1.068   3.732   2.904
 5393TIP3    H116143   1.100   3.644   2.925
 5393TIP3    H216144   1.140   3.790   2.931
 5394TIP3   OH216145   1.330   2.376   2.194
 5394TIP3    H116146   1.397   2.416   2.250
 5394TIP3    H216147   1.292   2.450   2.146
 5395TIP3   OH216148   0.987   4.671   3.038
 5395TIP3    H116149   0.910   4.709   2.995
 5395TIP3    H216150   0.968   4.680   3.131
 5396TIP3   OH216151   1.712   1.268   1.646
 5396TIP3    H116152   1.783   1.288   1.707
 5396TIP3    H216153   1.672   1.353   1.628
 5397TIP3   OH216154   2.331   5.697   5.851
 5397TIP3    H116155   2.256   5.736   5.806
 5397TIP3    H216156   2.305   5.694   5.943
 5398TIP3   OH216157   1.709   3.845   3.990
 5398TIP3    H116158   1.669   3.920   4.034
 5398TIP3    H216159   1.781   3.819   4.047
 5399TIP3   OH216160   2.936   5.483   3.744
 5399TIP3    H116161   2.898   5.436   3.670
 5399TIP3    H216162   2.967   5.565   3.707
 5400TIP3   OH216163   1.646   0.012   3.480
 5400TIP3    H116164   1.680  -0.069   3.516
 5400TIP3    H216165   1.686   0.081   3.534
 5401TIP3   OH216166   5.796   6.092   4.163
 5401TIP3    H116167   5.857   6.076   4.091
 5401TIP3    H216168   5.723   6.033   4.147
 5402TIP3   OH216169   1.557   5.560   4.733
 5402TIP3    H116170   1.627   5.505   4.698
 5402TIP3    H216171   1.576   5.647   4.699
 5403TIP3   OH216172   0.852   6.317   3.932
 5403TIP3    H116173   0.948   6.325   3.928
 5403TIP3    H216174   0.836   6.255   4.003
 5404TIP3   OH216175   2.698   2.786   0.206
 5404TIP3    H116176   2.777   2.830   0.172
 5404TIP3    H216177   2.647   2.766   0.127
 5405TIP3   OH216178   0.200   5.744   2.908
 5405TIP3    H116179   0.225   5.712   2.821
 5405TIP3    H216180   0.283   5.753   2.955
 5406TIP3   OH216181   7.069   5.497   5.614
 5406TIP3    H116182   7.006   5.568   5.599
 5406TIP3    H216183   7.114   5.522   5.696
 5407TIP3   OH216184   3.882   6.324   4.950
 5407TIP3    H116185   3.863   6.390   5.017
 5407TIP3    H216186   3.978   6.319   4.948
 5408TIP3   OH216187   6.147   5.129   2.488
 5408TIP3    H116188   6.183   5.045   2.461
 5408TIP3    H216189   6.219   5.173   2.532
 5409TIP3   OH216190   4.056   4.266   3.108
 5409TIP3    H116191   4.110   4.189   3.089
 5409TIP3    H216192   4.037   4.260   3.202
 5410TIP3   OH216193   4.166   0.918   3.292
 5410TIP3    H116194   4.154   0.995   3.237
 5410TIP3    H216195   4.083   0.870   3.284
 5411TIP3   OH216196   2.447   0.313   4.622
 5411TIP3    H116197   2.393   0.247   4.664
 5411TIP3    H216198   2.507   0.263   4.567
 5412TIP3   OH216199   2.873   2.116   4.364
 5412TIP3    H116200   2.885   2.205   4.328
 5412TIP3    H216201   2.958   2.092   4.399
 5413TIP3   OH216202   4.940   1.676   0.404
 5413TIP3    H116203   4.933   1.707   0.314
 5413TIP3    H216204   5.030   1.697   0.430
 5414TIP3   OH216205   1.865   1.313   4.134
 5414TIP3    H116206   1.915   1.384   4.095
 5414TIP3    H216207   1.882   1.320   4.228
 5415TIP3   OH216208   7.040   0.230   2.222
 5415TIP3    H116209   7.123   0.186   2.207
 5415TIP3    H216210   7.063   0.309   2.271
 5416TIP3   OH216211   0.748   5.105   0.331
 5416TIP3    H116212   0.667   5.146   0.360
 5416TIP3    H216213   0.817   5.163   0.364
 5417TIP3   OH216214   1.201   0.166   2.820
 5417TIP3    H116215   1.183   0.244   2.872
 5417TIP3    H216216   1.290   0.180   2.786
 5418TIP3   OH216217   1.873   5.909   3.230
 5418TIP3    H116218   1.803   5.865   3.182
 5418TIP3    H216219   1.945   5.845   3.231
 5419TIP3   OH216220   0.043   5.404   3.398
 5419TIP3    H116221  -0.046   5.438   3.390
 5419TIP3    H216222   0.066   5.416   3.490
 5420TIP3   OH216223   5.616   2.807   3.384
 5420TIP3    H116224   5.575   2.742   3.441
 5420TIP3    H216225   5.543   2.846   3.336
 5421TIP3   OH216226   0.968   5.773   1.114
 5421TIP3    H116227   0.876   5.793   1.103
 5421TIP3    H216228   0.970   5.681   1.140
 5422TIP3   OH216229   0.206   2.097   4.065
 5422TIP3    H116230   0.269   2.044   4.016
 5422TIP3    H216231   0.251   2.118   4.147
 5423TIP3   OH216232   3.319   6.116   4.433
 5423TIP3    H116233   3.318   6.020   4.441
 5423TIP3    H216234   3.227   6.141   4.429
 5424TIP3   OH216235   6.552   5.747   5.544
 5424TIP3    H116236   6.592   5.834   5.544
 5424TIP3    H216237   6.465   5.761   5.580
 5425TIP3   OH216238   5.152   3.317   3.326
 5425TIP3    H116239   5.108   3.298   3.243
 5425TIP3    H216240   5.100   3.271   3.392
 5426TIP3   OH216241   4.848   6.604   0.217
 5426TIP3    H116242   4.940   6.591   0.240
 5426TIP3    H216243   4.799   6.560   0.288
 5427TIP3   OH216244   4.368   2.431   2.276
 5427TIP3    H116245   4.421   2.495   2.324
 5427TIP3    H216246   4.286   2.476   2.257
 5428TIP3   OH216247   2.070   1.584   3.215
 5428TIP3    H116248   2.000   1.520   3.233
 5428TIP3    H216249   2.117   1.592   3.298
 5429TIP3   OH216250   5.756   0.938   2.746
 5429TIP3    H116251   5.842   0.913   2.713
 5429TIP3    H216252   5.766   0.941   2.841
 5430TIP3   OH216253   0.408   4.276   4.856
 5430TIP3    H116254   0.377   4.185   4.859
 5430TIP3    H216255   0.399   4.302   4.764
 5431TIP3   OH216256   7.088   2.378   0.836
 5431TIP3    H116257   7.169   2.339   0.869
 5431TIP3    H216258   7.019   2.319   0.865
 5432TIP3   OH216259   3.865   4.048   4.382
 5432TIP3    H116260   3.849   4.132   4.340
 5432TIP3    H216261   3.825   3.984   4.322
 5433TIP3   OH216262   4.623   5.877   1.924
 5433TIP3    H116263   4.673   5.827   1.989
 5433TIP3    H216264   4.654   5.967   1.935
 5434TIP3   OH216265   5.654   2.525   3.492
 5434TIP3    H116266   5.720   2.456   3.496
 5434TIP3    H216267   5.640   2.550   3.583
 5435TIP3   OH216268   5.680   4.851   3.878
 5435TIP3    H116269   5.701   4.864   3.785
 5435TIP3    H216270   5.726   4.922   3.922
 5436TIP3   OH216271   0.749   1.754   1.820
 5436TIP3    H116272   0.793   1.829   1.859
 5436TIP3    H216273   0.804   1.679   1.843
 5437TIP3   OH216274   2.892   4.090   0.070
 5437TIP3    H116275   2.848   4.101  -0.015
 5437TIP3    H216276   2.958   4.023   0.054
 5438TIP3   OH216277   2.189   3.562   2.622
 5438TIP3    H116278   2.225   3.511   2.550
 5438TIP3    H216279   2.258   3.561   2.689
 5439TIP3   OH216280   2.697   6.059   4.633
 5439TIP3    H116281   2.656   5.995   4.691
 5439TIP3    H216282   2.763   6.009   4.585
 5440TIP3   OH216283   5.811   0.937   3.037
 5440TIP3    H116284   5.820   0.978   3.123
 5440TIP3    H216285   5.846   0.849   3.048
 5441TIP3   OH216286   0.806   0.552   2.204
 5441TIP3    H116287   0.828   0.563   2.111
 5441TIP3    H216288   0.891   0.536   2.246
 5442TIP3   OH216289   0.101   3.588   1.968
 5442TIP3    H116290   0.078   3.668   2.014
 5442TIP3    H216291   0.140   3.531   2.034
 5443TIP3   OH216292   2.429   0.896   3.898
 5443TIP3    H116293   2.430   0.816   3.951
 5443TIP3    H216294   2.337   0.913   3.882
 5444TIP3   OH216295   5.435   0.658   3.152
 5444TIP3    H116296   5.500   0.727   3.139
 5444TIP3    H216297   5.352   0.699   3.130
 5445TIP3   OH216298   2.181   5.936   3.494
 5445TIP3    H116299   2.215   6.024   3.476
 5445TIP3    H216300   2.207   5.919   3.585
 5446TIP3   OH216301   5.538   6.391   0.869
 5446TIP3    H116302   5.566   6.481   0.851
 5446TIP3    H216303   5.598   6.337   0.817
 5447TIP3   OH216304   2.643   5.384   2.313
 5447TIP3    H116305   2.561   5.433   2.303
 5447TIP3    H216306   2.633   5.309   2.255
 5448TIP3   OH216307   6.253   4.237   5.071
 5448TIP3    H116308   6.284   4.154   5.034
 5448TIP3    H216309   6.173   4.257   5.022
 5449TIP3   OH216310   0.870   5.664   1.592
 5449TIP3    H116311   0.847   5.746   1.635
 5449TIP3    H216312   0.930   5.622   1.653
 5450TIP3   OH216313   6.959   1.263   5.664
 5450TIP3    H116314   6.871   1.249   5.628
 5450TIP3    H216315   6.948   1.253   5.758
 5451TIP3   OH216316   5.700   2.536   0.079
 5451TIP3    H116317   5.637   2.586   0.131
 5451TIP3    H216318   5.780   2.587   0.082
 5452TIP3   OH216319   3.921   6.283   0.792
 5452TIP3    H116320   3.942   6.192   0.809
 5452TIP3    H216321   3.944   6.329   0.873
 5453TIP3   OH216322   3.014   0.579   1.034
 5453TIP3    H116323   3.023   0.509   0.970
 5453TIP3    H216324   2.927   0.616   1.016
 5454TIP3   OH216325   1.604   1.682   5.020
 5454TIP3    H116326   1.634   1.602   4.977
 5454TIP3    H216327   1.520   1.660   5.059
 5455TIP3   OH216328   1.157   5.051   3.590
 5455TIP3    H116329   1.125   5.014   3.508
 5455TIP3    H216330   1.231   4.994   3.614
 5456TIP3   OH216331   5.621   0.798   4.080
 5456TIP3    H116332   5.531   0.771   4.099
 5456TIP3    H216333   5.617   0.894   4.078
 5457TIP3   OH216334   5.648   5.844   4.931
 5457TIP3    H116335   5.734   5.846   4.973
 5457TIP3    H216336   5.628   5.936   4.912
 5458TIP3   OH216337   0.598   3.970   3.089
 5458TIP3    H116338   0.693   3.968   3.085
 5458TIP3    H216339   0.570   3.955   2.999
 5459TIP3   OH216340   1.878   0.386   4.991
 5459TIP3    H116341   1.885   0.478   4.965
 5459TIP3    H216342   1.827   0.388   5.072
 5460TIP3   OH216343   0.559   3.250   0.321
 5460TIP3    H116344   0.491   3.292   0.374
 5460TIP3    H216345   0.619   3.320   0.298
 5461TIP3   OH216346   4.601   2.391   0.986
 5461TIP3    H116347   4.550   2.333   1.043
 5461TIP3    H216348   4.541   2.464   0.967
 5462TIP3   OH216349   2.459   3.813   1.937
 5462TIP3    H116350   2.417   3.893   1.969
 5462TIP3    H216351   2.388   3.748   1.936
 5463TIP3   OH216352   1.581   1.376   5.286
 5463TIP3    H116353   1.615   1.327   5.210
 5463TIP3    H216354   1.656   1.382   5.345
 5464TIP3   OH216355   1.517   0.466   1.855
 5464TIP3    H116356   1.497   0.555   1.884
 5464TIP3    H216357   1.540   0.476   1.762
 5465TIP3   OH216358   0.172   1.270   5.451
 5465TIP3    H116359   0.220   1.352   5.461
 5465TIP3    H216360   0.163   1.260   5.356
 5466TIP3   OH216361   5.787   3.640   5.514
 5466TIP3    H116362   5.696   3.609   5.512
 5466TIP3    H216363   5.828   3.588   5.584
 5467TIP3   OH216364   3.063   4.618   4.059
 5467TIP3    H116365   3.072   4.685   3.991
 5467TIP3    H216366   3.047   4.537   4.011
 5468TIP3   OH216367   3.112   5.282   1.998
 5468TIP3    H116368   3.060   5.358   1.972
 5468TIP3    H216369   3.133   5.298   2.090
 5469TIP3   OH216370   2.838   0.209   5.733
 5469TIP3    H116371   2.874   0.250   5.654
 5469TIP3    H216372   2.846   0.276   5.800
 5470TIP3   OH216373   0.650   5.968   0.824
 5470TIP3    H116374   0.720   6.014   0.870
 5470TIP3    H216375   0.570   6.012   0.853
 5471TIP3   OH216376   2.771   5.050   1.167
 5471TIP3    H116377   2.836   5.086   1.228
 5471TIP3    H216378   2.798   4.959   1.155
 5472TIP3   OH216379   5.158   2.325   3.292
 5472TIP3    H116380   5.079   2.279   3.264
 5472TIP3    H216381   5.230   2.266   3.269
 5473TIP3   OH216382   6.010   6.580   0.813
 5473TIP3    H116383   5.936   6.620   0.768
 5473TIP3    H216384   6.006   6.614   0.902
 5474TIP3   OH216385   1.516   1.497   1.897
 5474TIP3    H116386   1.559   1.573   1.860
 5474TIP3    H216387   1.424   1.508   1.873
 5475TIP3   OH216388   1.579   2.190   3.125
 5475TIP3    H116389   1.535   2.264   3.082
 5475TIP3    H216390   1.672   2.208   3.114
 5476TIP3   OH216391   4.208   4.142   3.373
 5476TIP3    H116392   4.275   4.109   3.433
 5476TIP3    H216393   4.213   4.084   3.297
 5477TIP3   OH216394   3.634   4.297   5.186
 5477TIP3    H116395   3.623   4.202   5.182
 5477TIP3    H216396   3.602   4.321   5.273
 5478TIP3   OH216397   6.196   0.330   4.349
 5478TIP3    H116398   6.136   0.379   4.292
 5478TIP3    H216399   6.189   0.239   4.318
 5479TIP3   OH216400   1.292   6.430   0.945
 5479TIP3    H116401   1.333   6.432   0.858
 5479TIP3    H216402   1.332   6.355   0.988
 5480TIP3   OH216403   6.186   3.951   3.557
 5480TIP3    H116404   6.235   3.870   3.567
 5480TIP3    H216405   6.240   4.005   3.501
 5481TIP3   OH216406   6.461   2.147   0.760
 5481TIP3    H116407   6.520   2.219   0.737
 5481TIP3    H216408   6.396   2.187   0.818
 5482TIP3   OH216409   6.181   6.670   4.126
 5482TIP3    H116410   6.103   6.678   4.072
 5482TIP3    H216411   6.254   6.696   4.069
 5483TIP3   OH216412   3.158   5.694   3.271
 5483TIP3    H116413   3.246   5.721   3.296
 5483TIP3    H216414   3.151   5.603   3.300
 5484TIP3   OH216415   7.024   2.853   3.494
 5484TIP3    H116416   6.966   2.834   3.420
 5484TIP3    H216417   6.978   2.817   3.570
 5485TIP3   OH216418   0.599   4.660   1.180
 5485TIP3    H116419   0.534   4.619   1.236
 5485TIP3    H216420   0.586   4.754   1.194
 5486TIP3   OH216421   5.693   5.555   4.218
 5486TIP3    H116422   5.731   5.643   4.225
 5486TIP3    H216423   5.599   5.570   4.225
 5487TIP3   OH216424   4.092   3.884   4.372
 5487TIP3    H116425   4.172   3.922   4.336
 5487TIP3    H216426   4.028   3.955   4.366
 5488TIP3   OH216427   3.250   4.265   4.244
 5488TIP3    H116428   3.320   4.244   4.305
 5488TIP3    H216429   3.248   4.361   4.241
 5489TIP3   OH216430   5.813   5.761   4.587
 5489TIP3    H116431   5.784   5.845   4.623
 5489TIP3    H216432   5.818   5.703   4.662
 5490TIP3   OH216433   5.277   4.237   2.344
 5490TIP3    H116434   5.237   4.201   2.265
 5490TIP3    H216435   5.272   4.332   2.332
 5491TIP3   OH216436   1.581   6.754   2.734
 5491TIP3    H116437   1.577   6.714   2.647
 5491TIP3    H216438   1.668   6.794   2.737
 5492TIP3   OH216439   1.613   0.754   5.005
 5492TIP3    H116440   1.574   0.824   4.951
 5492TIP3    H216441   1.701   0.786   5.024
 5493TIP3   OH216442   5.029   1.816   2.580
 5493TIP3    H116443   5.077   1.799   2.661
 5493TIP3    H216444   4.964   1.882   2.604
 5494TIP3   OH216445   2.833   6.707   5.001
 5494TIP3    H116446   2.793   6.621   4.994
 5494TIP3    H216447   2.904   6.706   4.936
 5495TIP3   OH216448   3.254   0.232   5.074
 5495TIP3    H116449   3.238   0.325   5.062
 5495TIP3    H216450   3.182   0.203   5.131
 5496TIP3   OH216451   5.481   0.272   1.814
 5496TIP3    H116452   5.494   0.361   1.847
 5496TIP3    H216453   5.569   0.238   1.801
 5497TIP3   OH216454   3.493   5.785   1.345
 5497TIP3    H116455   3.468   5.877   1.339
 5497TIP3    H216456   3.456   5.745   1.266
 5498TIP3   OH216457   0.387   2.938   0.833
 5498TIP3    H116458   0.481   2.937   0.854
 5498TIP3    H216459   0.351   2.865   0.883
 5499TIP3   OH216460   0.973   4.466   2.835
 5499TIP3    H116461   0.906   4.397   2.829
 5499TIP3    H216462   0.950   4.515   2.914
 5500TIP3   OH216463   1.174   6.585   5.269
 5500TIP3    H116464   1.185   6.491   5.281
 5500TIP3    H216465   1.110   6.611   5.335
 5501TIP3   OH216466   0.531   0.058   1.718
 5501TIP3    H116467   0.611   0.007   1.714
 5501TIP3    H216468   0.461  -0.006   1.712
 5502TIP3   OH216469   6.043   1.521   5.762
 5502TIP3    H116470   6.026   1.439   5.716
 5502TIP3    H216471   6.124   1.554   5.723
 5503TIP3   OH216472   2.295   0.218   1.345
 5503TIP3    H116473   2.316   0.267   1.265
 5503TIP3    H216474   2.247   0.280   1.399
 5504TIP3   OH216475   4.347   3.986   1.255
 5504TIP3    H116476   4.342   3.940   1.170
 5504TIP3    H216477   4.279   3.945   1.308
 5505TIP3   OH216478   4.969   6.716   4.701
 5505TIP3    H116479   4.997   6.626   4.684
 5505TIP3    H216480   4.976   6.726   4.795
 5506TIP3   OH216481   2.231   6.300   1.086
 5506TIP3    H116482   2.221   6.364   1.016
 5506TIP3    H216483   2.283   6.230   1.047
 5507TIP3   OH216484   7.027   4.818   4.290
 5507TIP3    H116485   7.065   4.733   4.267
 5507TIP3    H216486   7.015   4.815   4.385
 5508TIP3   OH216487   2.171   2.595   3.339
 5508TIP3    H116488   2.160   2.560   3.251
 5508TIP3    H216489   2.158   2.689   3.329
 5509TIP3   OH216490   4.224   6.544   3.506
 5509TIP3    H116491   4.175   6.611   3.554
 5509TIP3    H216492   4.313   6.550   3.540
 5510TIP3   OH216493   6.238   2.998   1.585
 5510TIP3    H116494   6.222   2.937   1.657
 5510TIP3    H216495   6.333   3.004   1.579
 5511TIP3   OH216496   0.795   4.853   0.262
 5511TIP3    H116497   0.874   4.830   0.311
 5511TIP3    H216498   0.791   4.948   0.267
 5512TIP3   OH216499   0.898   4.088   4.639
 5512TIP3    H116500   0.978   4.057   4.597
 5512TIP3    H216501   0.867   4.014   4.690
 5513TIP3   OH216502   0.428   1.196   5.550
 5513TIP3    H116503   0.338   1.214   5.524
 5513TIP3    H216504   0.481   1.257   5.499
 5514TIP3   OH216505   4.117   2.874   4.975
 5514TIP3    H116506   4.122   2.790   5.020
 5514TIP3    H216507   4.023   2.893   4.970
 5515TIP3   OH216508   4.170   3.352   1.473
 5515TIP3    H116509   4.075   3.354   1.476
 5515TIP3    H216510   4.195   3.294   1.545
 5516TIP3   OH216511   5.839   6.588   3.737
 5516TIP3    H116512   5.863   6.679   3.755
 5516TIP3    H216513   5.923   6.543   3.725
 5517TIP3   OH216514   1.201   5.093   4.158
 5517TIP3    H116515   1.250   5.081   4.240
 5517TIP3    H216516   1.267   5.082   4.090
 5518TIP3   OH216517   3.269   1.662   0.543
 5518TIP3    H116518   3.345   1.714   0.567
 5518TIP3    H216519   3.200   1.727   0.528
 5519TIP3   OH216520   2.255   6.540   5.746
 5519TIP3    H116521   2.326   6.568   5.688
 5519TIP3    H216522   2.225   6.621   5.787
 5520TIP3   OH216523   2.266   1.848   2.454
 5520TIP3    H116524   2.217   1.810   2.381
 5520TIP3    H216525   2.309   1.773   2.496
 5521TIP3   OH216526   2.291   4.319   2.278
 5521TIP3    H116527   2.270   4.231   2.311
 5521TIP3    H216528   2.280   4.376   2.354
 5522TIP3   OH216529   3.844   1.516   5.371
 5522TIP3    H116530   3.753   1.500   5.347
 5522TIP3    H216531   3.879   1.429   5.390
 5523TIP3   OH216532   1.079   5.307   5.283
 5523TIP3    H116533   1.170   5.283   5.268
 5523TIP3    H216534   1.083   5.373   5.353
 5524TIP3   OH216535   6.270   2.164   3.996
 5524TIP3    H116536   6.306   2.192   4.081
 5524TIP3    H216537   6.333   2.195   3.932
 5525TIP3   OH216538   1.894   6.428   0.373
 5525TIP3    H116539   1.967   6.407   0.432
 5525TIP3    H216540   1.819   6.384   0.412
 5526TIP3   OH216541   6.585   1.499   0.137
 5526TIP3    H116542   6.510   1.549   0.169
 5526TIP3    H216543   6.562   1.408   0.154
 5527TIP3   OH216544   6.110   4.635   0.102
 5527TIP3    H116545   6.136   4.568   0.164
 5527TIP3    H216546   6.044   4.687   0.149
 5528TIP3   OH216547   1.417   0.307   5.556
 5528TIP3    H116548   1.335   0.340   5.518
 5528TIP3    H216549   1.394   0.288   5.647
 5529TIP3   OH216550   0.637   2.873   0.900
 5529TIP3    H116551   0.708   2.935   0.920
 5529TIP3    H216552   0.683   2.793   0.874
 5530TIP3   OH216553   4.219   2.501   2.555
 5530TIP3    H116554   4.307   2.497   2.591
 5530TIP3    H216555   4.192   2.409   2.549
 5531TIP3   OH216556   2.217   5.180   2.925
 5531TIP3    H116557   2.220   5.092   2.961
 5531TIP3    H216558   2.308   5.206   2.918
 5532TIP3   OH216559   1.137   2.888   2.634
 5532TIP3    H116560   1.139   2.975   2.676
 5532TIP3    H216561   1.089   2.833   2.696
 5533TIP3   OH216562   3.673   2.904   1.738
 5533TIP3    H116563   3.684   2.925   1.831
 5533TIP3    H216564   3.595   2.953   1.711
 5534TIP3   OH216565   2.426   4.688   1.945
 5534TIP3    H116566   2.410   4.651   2.032
 5534TIP3    H216567   2.448   4.780   1.961
 5535TIP3   OH216568   0.556   1.636   2.058
 5535TIP3    H116569   0.623   1.581   2.017
 5535TIP3    H216570   0.568   1.622   2.152
 5536TIP3   OH216571   4.436   6.414   0.226
 5536TIP3    H116572   4.435   6.460   0.310
 5536TIP3    H216573   4.369   6.347   0.234
 5537TIP3   OH216574   4.438   3.328   1.638
 5537TIP3    H116575   4.346   3.303   1.652
 5537TIP3    H216576   4.463   3.371   1.720
 5538TIP3   OH216577   3.005   5.321   3.199
 5538TIP3    H116578   3.079   5.318   3.260
 5538TIP3    H216579   3.001   5.412   3.171
 5539TIP3   OH216580   2.429   6.776   5.844
 5539TIP3    H116581   2.455   6.737   5.761
 5539TIP3    H216582   2.426   6.703   5.906
 5540TIP3   OH216583   5.928   4.284   3.817
 5540TIP3    H116584   5.960   4.224   3.885
 5540TIP3    H216585   5.947   4.371   3.851
 5541TIP3   OH216586   6.075   5.385   2.398
 5541TIP3    H116587   6.084   5.290   2.396
 5541TIP3    H216588   6.141   5.414   2.461
 5542TIP3   OH216589   5.993   4.383   3.084
 5542TIP3    H116590   5.944   4.371   3.002
 5542TIP3    H216591   5.971   4.305   3.136
 5543TIP3   OH216592   7.161   4.314   0.195
 5543TIP3    H116593   7.221   4.389   0.192
 5543TIP3    H216594   7.088   4.344   0.250
 5544TIP3   OH216595   0.589   1.227   1.360
 5544TIP3    H116596   0.553   1.310   1.331
 5544TIP3    H216597   0.652   1.251   1.429
 5545TIP3   OH216598   2.756   1.901   0.140
 5545TIP3    H116599   2.734   1.987   0.104
 5545TIP3    H216600   2.681   1.845   0.117
 5546TIP3   OH216601   1.907   5.896   3.539
 5546TIP3    H116602   2.002   5.892   3.529
 5546TIP3    H216603   1.878   5.961   3.475
 5547TIP3   OH216604   1.397   4.508   0.621
 5547TIP3    H116605   1.315   4.508   0.571
 5547TIP3    H216606   1.448   4.436   0.584
 5548TIP3   OH216607   4.452   5.439   0.331
 5548TIP3    H116608   4.383   5.425   0.266
 5548TIP3    H216609   4.495   5.354   0.339
 5549TIP3   OH216610   2.712   3.430   0.160
 5549TIP3    H116611   2.687   3.479   0.239
 5549TIP3    H216612   2.649   3.459   0.093
 5550TIP3   OH216613   6.356   2.085   5.015
 5550TIP3    H116614   6.355   2.169   5.061
 5550TIP3    H216615   6.372   2.020   5.083
 5551TIP3   OH216616   1.237   4.458   3.975
 5551TIP3    H116617   1.179   4.415   3.913
 5551TIP3    H216618   1.319   4.408   3.971
 5552TIP3   OH216619   5.042   6.295   2.186
 5552TIP3    H116620   5.082   6.226   2.239
 5552TIP3    H216621   5.023   6.365   2.249
 5553TIP3   OH216622   6.509   0.274   2.544
 5553TIP3    H116623   6.495   0.321   2.462
 5553TIP3    H216624   6.502   0.341   2.612
 5554TIP3   OH216625   1.818   2.277   3.511
 5554TIP3    H116626   1.745   2.287   3.573
 5554TIP3    H216627   1.852   2.366   3.500
 5555TIP3   OH216628   7.142   0.772   4.503
 5555TIP3    H116629   7.105   0.687   4.479
 5555TIP3    H216630   7.098   0.795   4.585
 5556TIP3   OH216631   1.406   1.441   4.263
 5556TIP3    H116632   1.484   1.415   4.213
 5556TIP3    H216633   1.354   1.491   4.201
 5557TIP3   OH216634   0.370   3.764   2.525
 5557TIP3    H116635   0.362   3.837   2.586
 5557TIP3    H216636   0.285   3.761   2.480
 5558TIP3   OH216637   1.118   0.560   0.270
 5558TIP3    H116638   1.126   0.655   0.278
 5558TIP3    H216639   1.108   0.545   0.175
 5559TIP3   OH216640   0.152   1.588   5.577
 5559TIP3    H116641   0.081   1.535   5.541
 5559TIP3    H216642   0.167   1.553   5.665
 5560TIP3   OH216643   5.797   2.489   1.063
 5560TIP3    H116644   5.867   2.517   1.004
 5560TIP3    H216645   5.829   2.407   1.101
 5561TIP3   OH216646   5.598   3.978   4.442
 5561TIP3    H116647   5.534   4.016   4.382
 5561TIP3    H216648   5.648   4.053   4.474
 5562TIP3   OH216649   3.343   1.792   3.378
 5562TIP3    H116650   3.316   1.708   3.415
 5562TIP3    H216651   3.278   1.855   3.410
 5563TIP3   OH216652   6.974   2.422   3.083
 5563TIP3    H116653   7.025   2.371   3.021
 5563TIP3    H216654   7.019   2.411   3.167
 5564TIP3   OH216655   4.347   4.696   0.204
 5564TIP3    H116656   4.438   4.672   0.190
 5564TIP3    H216657   4.306   4.617   0.239
 5565TIP3   OH216658   0.891   4.122   2.552
 5565TIP3    H116659   0.954   4.060   2.587
 5565TIP3    H216660   0.926   4.147   2.467
 5566TIP3   OH216661   1.243   4.095   0.168
 5566TIP3    H116662   1.298   4.017   0.157
 5566TIP3    H216663   1.234   4.105   0.263
 5567TIP3   OH216664   6.720   1.422   3.681
 5567TIP3    H116665   6.648   1.475   3.648
 5567TIP3    H216666   6.691   1.395   3.768
 5568TIP3   OH216667   6.498   3.012   1.650
 5568TIP3    H116668   6.568   2.949   1.635
 5568TIP3    H216669   6.462   2.989   1.735
 5569TIP3   OH216670   2.922   1.176   2.171
 5569TIP3    H116671   2.987   1.142   2.233
 5569TIP3    H216672   2.937   1.126   2.091
 5570TIP3   OH216673   6.877   6.314   5.028
 5570TIP3    H116674   6.817   6.253   5.071
 5570TIP3    H216675   6.872   6.292   4.935
 5571TIP3   OH216676   6.918   6.430   3.771
 5571TIP3    H116677   6.930   6.426   3.676
 5571TIP3    H216678   7.000   6.398   3.807
 5572TIP3   OH216679   3.324   3.494   1.054
 5572TIP3    H116680   3.337   3.548   1.131
 5572TIP3    H216681   3.402   3.508   1.001
 5573TIP3   OH216682   3.719   4.136   0.320
 5573TIP3    H116683   3.696   4.046   0.343
 5573TIP3    H216684   3.662   4.158   0.247
 5574TIP3   OH216685   2.141   1.654   0.252
 5574TIP3    H116686   2.212   1.590   0.257
 5574TIP3    H216687   2.120   1.673   0.343
 5575TIP3   OH216688   3.780   0.174   4.815
 5575TIP3    H116689   3.815   0.178   4.726
 5575TIP3    H216690   3.706   0.113   4.809
 5576TIP3   OH216691   4.678   1.173   5.547
 5576TIP3    H116692   4.633   1.178   5.631
 5576TIP3    H216693   4.758   1.123   5.566
 5577TIP3   OH216694   3.959   6.114   1.939
 5577TIP3    H116695   3.961   6.037   1.996
 5577TIP3    H216696   4.041   6.159   1.956
 5578TIP3   OH216697   2.239   2.047   0.660
 5578TIP3    H116698   2.255   2.001   0.577
 5578TIP3    H216699   2.165   2.002   0.699
 5579TIP3   OH216700   2.389   2.063   1.870
 5579TIP3    H116701   2.361   2.144   1.912
 5579TIP3    H216702   2.324   2.047   1.802
 5580TIP3   OH216703   3.116   0.970   0.492
 5580TIP3    H116704   3.107   0.920   0.411
 5580TIP3    H216705   3.195   1.023   0.480
 5581TIP3   OH216706   0.701   4.977   2.137
 5581TIP3    H116707   0.716   5.032   2.060
 5581TIP3    H216708   0.788   4.952   2.166
 5582TIP3   OH216709   2.940   5.543   5.102
 5582TIP3    H116710   2.878   5.577   5.038
 5582TIP3    H216711   2.916   5.588   5.184
 5583TIP3   OH216712   3.315   3.997   5.157
 5583TIP3    H116713   3.410   4.010   5.152
 5583TIP3    H216714   3.305   3.904   5.181
 5584TIP3   OH216715   1.373   1.574   3.117
 5584TIP3    H116716   1.350   1.529   3.035
 5584TIP3    H216717   1.301   1.553   3.177
 5585TIP3   OH216718   4.354   5.168   1.604
 5585TIP3    H116719   4.319   5.195   1.519
 5585TIP3    H216720   4.436   5.217   1.613
 5586TIP3   OH216721   0.208   2.059   3.268
 5586TIP3    H116722   0.303   2.065   3.272
 5586TIP3    H216723   0.189   1.966   3.278
 5587TIP3   OH216724   2.989   1.805   4.094
 5587TIP3    H116725   2.921   1.754   4.140
 5587TIP3    H216726   3.067   1.793   4.148
 5588TIP3   OH216727   4.316   1.579   2.087
 5588TIP3    H116728   4.330   1.604   2.179
 5588TIP3    H216729   4.291   1.661   2.044
 5589TIP3   OH216730   1.922   4.446   1.510
 5589TIP3    H116731   1.958   4.364   1.544
 5589TIP3    H216732   1.992   4.483   1.457
 5590TIP3   OH216733   2.547   3.419   5.237
 5590TIP3    H116734   2.524   3.434   5.328
 5590TIP3    H216735   2.464   3.404   5.192
 5591TIP3   OH216736   3.978   3.840   2.040
 5591TIP3    H116737   4.060   3.876   2.074
 5591TIP3    H216738   3.945   3.909   1.982
 5592TIP3   OH216739   1.110   2.467   3.847
 5592TIP3    H116740   1.052   2.434   3.915
 5592TIP3    H216741   1.198   2.445   3.877
 5593TIP3   OH216742   7.063   0.750   4.181
 5593TIP3    H116743   7.151   0.733   4.147
 5593TIP3    H216744   7.004   0.719   4.112
 5594TIP3   OH216745  -0.015   5.730   3.083
 5594TIP3    H116746   0.069   5.733   3.036
 5594TIP3    H216747   0.010   5.710   3.173
 5595TIP3   OH216748   6.613   6.793   2.118
 5595TIP3    H116749   6.557   6.716   2.106
 5595TIP3    H216750   6.627   6.826   2.030
 5596TIP3   OH216751   6.380   5.044   5.163
 5596TIP3    H116752   6.447   5.023   5.099
 5596TIP3    H216753   6.359   5.136   5.147
 5597TIP3   OH216754   0.679   0.158   5.175
 5597TIP3    H116755   0.774   0.144   5.178
 5597TIP3    H216756   0.669   0.253   5.183
 5598TIP3   OH216757   6.658   6.370   0.168
 5598TIP3    H116758   6.654   6.457   0.208
 5598TIP3    H216759   6.629   6.311   0.237
 5599TIP3   OH216760   3.433   5.949   2.033
 5599TIP3    H116761   3.526   5.930   2.021
 5599TIP3    H216762   3.409   5.902   2.113
 5600TIP3   OH216763   0.108   4.906   1.243
 5600TIP3    H116764   0.093   4.845   1.316
 5600TIP3    H216765   0.094   4.993   1.281
 5601TIP3   OH216766   2.665   4.921   5.782
 5601TIP3    H116767   2.617   4.882   5.709
 5601TIP3    H216768   2.603   4.983   5.821
 5602TIP3   OH216769   1.660   3.164   0.148
 5602TIP3    H116770   1.741   3.125   0.180
 5602TIP3    H216771   1.675   3.178   0.055
 5603TIP3   OH216772   7.111   4.279   3.610
 5603TIP3    H116773   7.182   4.269   3.672
 5603TIP3    H216774   7.075   4.366   3.628
 5604TIP3   OH216775   3.660   4.960   2.975
 5604TIP3    H116776   3.600   4.921   2.911
 5604TIP3    H216777   3.701   4.885   3.018
 5605TIP3   OH216778   6.152   1.360   3.329
 5605TIP3    H116779   6.190   1.340   3.415
 5605TIP3    H216780   6.208   1.429   3.294
 5606TIP3   OH216781   1.381   1.545   5.167
 5606TIP3    H116782   1.437   1.512   5.238
 5606TIP3    H216783   1.363   1.469   5.113
 5607TIP3   OH216784   2.244   2.237   0.868
 5607TIP3    H116785   2.158   2.224   0.909
 5607TIP3    H216786   2.264   2.153   0.827
 5608TIP3   OH216787   1.841   2.413   1.347
 5608TIP3    H116788   1.775   2.430   1.414
 5608TIP3    H216789   1.830   2.320   1.326
 5609TIP3   OH216790   2.151   6.110   0.759
 5609TIP3    H116791   2.085   6.100   0.690
 5609TIP3    H216792   2.122   6.051   0.829
 5610TIP3   OH216793   7.255   1.165   1.242
 5610TIP3    H116794   7.324   1.200   1.298
 5610TIP3    H216795   7.242   1.233   1.176
 5611TIP3   OH216796   6.810   2.925   4.204
 5611TIP3    H116797   6.800   2.932   4.299
 5611TIP3    H216798   6.891   2.877   4.192
 5612TIP3   OH216799   4.050   5.757   3.020
 5612TIP3    H116800   4.115   5.766   2.951
 5612TIP3    H216801   4.079   5.681   3.070
 5613TIP3   OH216802   3.331   3.010   5.005
 5613TIP3    H116803   3.311   2.924   4.968
 5613TIP3    H216804   3.300   3.004   5.095
 5614TIP3   OH216805   6.687   5.793   1.474
 5614TIP3    H116806   6.717   5.820   1.561
 5614TIP3    H216807   6.746   5.723   1.449
 5615TIP3   OH216808   4.348   5.782   1.881
 5615TIP3    H116809   4.439   5.754   1.885
 5615TIP3    H216810   4.348   5.870   1.917
 5616TIP3   OH216811   7.098   2.354   1.739
 5616TIP3    H116812   7.143   2.284   1.692
 5616TIP3    H216813   7.130   2.347   1.829
 5617TIP3   OH216814   6.020   2.834   0.304
 5617TIP3    H116815   6.029   2.877   0.219
 5617TIP3    H216816   6.082   2.879   0.361
 5618TIP3   OH216817   6.711   4.320   5.084
 5618TIP3    H116818   6.745   4.311   5.173
 5618TIP3    H216819   6.632   4.265   5.083
 5619TIP3   OH216820   0.518   0.918   1.872
 5619TIP3    H116821   0.480   0.957   1.951
 5619TIP3    H216822   0.476   0.832   1.867
 5620TIP3   OH216823   2.914   1.580   4.994
 5620TIP3    H116824   2.852   1.541   5.056
 5620TIP3    H216825   2.995   1.531   5.007
 5621TIP3   OH216826   1.759   4.294   2.835
 5621TIP3    H116827   1.830   4.349   2.800
 5621TIP3    H216828   1.700   4.357   2.878
 5622TIP3   OH216829   5.994   5.567   3.622
 5622TIP3    H116830   6.008   5.659   3.600
 5622TIP3    H216831   6.083   5.530   3.625
 5623TIP3   OH216832   5.045   2.047   5.040
 5623TIP3    H116833   5.065   2.110   5.109
 5623TIP3    H216834   4.955   2.069   5.014
 5624TIP3   OH216835   0.646   3.993   0.256
 5624TIP3    H116836   0.716   3.949   0.303
 5624TIP3    H216837   0.629   3.938   0.180
 5625TIP3   OH216838   5.822   1.595   5.959
 5625TIP3    H116839   5.862   1.509   5.944
 5625TIP3    H216840   5.733   1.586   5.925
 5626TIP3   OH216841   4.802   4.280   4.679
 5626TIP3    H116842   4.854   4.297   4.600
 5626TIP3    H216843   4.786   4.367   4.716
 5627TIP3   OH216844   4.982   1.348   0.120
 5627TIP3    H116845   5.034   1.365   0.199
 5627TIP3    H216846   4.894   1.331   0.152
 5628TIP3   OH216847   3.556   4.783   1.076
 5628TIP3    H116848   3.557   4.799   1.170
 5628TIP3    H216849   3.630   4.725   1.060
 5629TIP3   OH216850   2.830   2.660   4.318
 5629TIP3    H116851   2.831   2.650   4.413
 5629TIP3    H216852   2.901   2.721   4.299
 5630TIP3   OH216853   6.499   4.623   1.813
 5630TIP3    H116854   6.422   4.590   1.859
 5630TIP3    H216855   6.572   4.576   1.851
 5631TIP3   OH216856   5.287   4.638   3.524
 5631TIP3    H116857   5.348   4.604   3.590
 5631TIP3    H216858   5.341   4.651   3.446
 5632TIP3   OH216859   3.853   5.517   1.290
 5632TIP3    H116860   3.864   5.609   1.315
 5632TIP3    H216861   3.779   5.518   1.229
 5633TIP3   OH216862   4.004   2.803   2.457
 5633TIP3    H116863   4.059   2.790   2.380
 5633TIP3    H216864   3.941   2.731   2.454
 5634TIP3   OH216865   0.266   0.768   0.171
 5634TIP3    H116866   0.224   0.682   0.179
 5634TIP3    H216867   0.236   0.816   0.248
 5635TIP3   OH216868   3.182   1.523   1.368
 5635TIP3    H116869   3.087   1.519   1.377
 5635TIP3    H216870   3.214   1.443   1.410
 5636TIP3   OH216871   2.960   1.569   5.507
 5636TIP3    H116872   3.030   1.504   5.507
 5636TIP3    H216873   2.891   1.531   5.453
 5637TIP3   OH216874   4.423   1.457   5.572
 5637TIP3    H116875   4.422   1.551   5.588
 5637TIP3    H216876   4.478   1.446   5.494
 5638TIP3   OH216877   3.254   2.475   1.445
 5638TIP3    H116878   3.265   2.384   1.475
 5638TIP3    H216879   3.193   2.468   1.372
 5639TIP3   OH216880   3.421   3.934   5.895
 5639TIP3    H116881   3.361   3.999   5.932
 5639TIP3    H216882   3.449   3.972   5.811
 5640TIP3   OH216883   5.911   5.023   2.450
 5640TIP3    H116884   5.994   5.069   2.460
 5640TIP3    H216885   5.848   5.074   2.501
 5641TIP3   OH216886   2.371   4.890   2.264
 5641TIP3    H116887   2.458   4.893   2.223
 5641TIP3    H216888   2.319   4.953   2.214
 5642TIP3   OH216889   3.878   5.218   5.087
 5642TIP3    H116890   3.940   5.223   5.015
 5642TIP3    H216891   3.914   5.152   5.146
 5643TIP3   OH216892   0.642   5.663   2.144
 5643TIP3    H116893   0.684   5.674   2.230
 5643TIP3    H216894   0.682   5.584   2.108
 5644TIP3   OH216895   0.289   5.680   4.531
 5644TIP3    H116896   0.320   5.596   4.498
 5644TIP3    H216897   0.263   5.729   4.453
 5645TIP3   OH216898   1.800   5.842   4.202
 5645TIP3    H116899   1.730   5.907   4.212
 5645TIP3    H216900   1.775   5.792   4.125
 5646TIP3   OH216901   4.951   3.633   5.285
 5646TIP3    H116902   4.993   3.574   5.348
 5646TIP3    H216903   4.900   3.575   5.229
 5647TIP3   OH216904   1.272   0.413   2.924
 5647TIP3    H116905   1.348   0.454   2.882
 5647TIP3    H216906   1.213   0.485   2.943
 5648TIP3   OH216907   4.543   6.016   0.742
 5648TIP3    H116908   4.562   6.024   0.649
 5648TIP3    H216909   4.615   6.060   0.787
 5649TIP3   OH216910   1.942   4.813   0.818
 5649TIP3    H116911   1.955   4.814   0.724
 5649TIP3    H216912   2.024   4.849   0.854
 5650TIP3   OH216913   4.599   5.543   2.537
 5650TIP3    H116914   4.625   5.627   2.577
 5650TIP3    H216915   4.676   5.517   2.486
 5651TIP3   OH216916   2.956   0.596   2.516
 5651TIP3    H116917   2.981   0.506   2.536
 5651TIP3    H216918   2.991   0.612   2.428
 5652TIP3   OH216919   4.469   3.353   0.110
 5652TIP3    H116920   4.394   3.334   0.054
 5652TIP3    H216921   4.433   3.357   0.198
 5653TIP3   OH216922   5.486   0.744   2.733
 5653TIP3    H116923   5.499   0.650   2.743
 5653TIP3    H216924   5.561   0.783   2.778
 5654TIP3   OH216925   2.318   3.293   3.547
 5654TIP3    H116926   2.257   3.366   3.534
 5654TIP3    H216927   2.335   3.293   3.641
 5655TIP3   OH216928   2.287   6.344   3.171
 5655TIP3    H116929   2.221   6.412   3.183
 5655TIP3    H216930   2.371   6.389   3.183
 5656TIP3   OH216931   0.940   2.233   4.995
 5656TIP3    H116932   1.017   2.281   5.025
 5656TIP3    H216933   0.891   2.214   5.076
 5657TIP3   OH216934   7.163   2.252   5.530
 5657TIP3    H116935   7.225   2.301   5.476
 5657TIP3    H216936   7.206   2.243   5.614
 5658TIP3   OH216937   3.239   5.594   2.911
 5658TIP3    H116938   3.310   5.613   2.972
 5658TIP3    H216939   3.253   5.502   2.887
 5659TIP3   OH216940   0.563   0.477   1.798
 5659TIP3    H116941   0.611   0.429   1.866
 5659TIP3    H216942   0.614   0.557   1.785
 5660TIP3   OH216943   4.670   4.312   2.134
 5660TIP3    H116944   4.752   4.352   2.164
 5660TIP3    H216945   4.603   4.345   2.194
 5661TIP3   OH216946   4.050   0.304   1.680
 5661TIP3    H116947   4.050   0.365   1.754
 5661TIP3    H216948   3.961   0.308   1.646
 5662TIP3   OH216949   4.776   2.147   4.651
 5662TIP3    H116950   4.807   2.164   4.562
 5662TIP3    H216951   4.834   2.199   4.706
 5663TIP3   OH216952   1.924   5.127   1.602
 5663TIP3    H116953   1.909   5.037   1.573
 5663TIP3    H216954   1.872   5.180   1.542
 5664TIP3   OH216955   6.241   2.955   2.996
 5664TIP3    H116956   6.146   2.951   2.984
 5664TIP3    H216957   6.254   3.028   3.056
 5665TIP3   OH216958   0.140   0.928   5.259
 5665TIP3    H116959   0.096   0.918   5.175
 5665TIP3    H216960   0.168   1.019   5.261
 5666TIP3   OH216961   5.236   2.268   0.691
 5666TIP3    H116962   5.291   2.190   0.698
 5666TIP3    H216963   5.210   2.286   0.782
 5667TIP3   OH216964   1.292   5.488   4.600
 5667TIP3    H116965   1.361   5.420   4.599
 5667TIP3    H216966   1.280   5.510   4.508
 5668TIP3   OH216967   4.751   4.910   1.256
 5668TIP3    H116968   4.685   4.970   1.290
 5668TIP3    H216969   4.803   4.884   1.332
 5669TIP3   OH216970   5.122   2.513   0.974
 5669TIP3    H116971   5.040   2.528   1.020
 5669TIP3    H216972   5.180   2.583   1.005
 5670TIP3   OH216973   7.120   4.764   1.901
 5670TIP3    H116974   7.155   4.730   1.984
 5670TIP3    H216975   7.196   4.772   1.844
 5671TIP3   OH216976   3.680   2.092   2.238
 5671TIP3    H116977   3.595   2.120   2.203
 5671TIP3    H216978   3.720   2.172   2.271
 5672TIP3   OH216979   3.438   5.465   0.401
 5672TIP3    H116980   3.486   5.451   0.319
 5672TIP3    H216981   3.506   5.481   0.466
 5673TIP3   OH216982   4.008   5.474   2.371
 5673TIP3    H116983   4.041   5.384   2.379
 5673TIP3    H216984   4.024   5.513   2.457
 5674TIP3   OH216985   0.901   5.979   0.634
 5674TIP3    H116986   0.928   6.062   0.672
 5674TIP3    H216987   0.826   5.952   0.687
 5675TIP3   OH216988   2.113   6.202   5.291
 5675TIP3    H116989   2.164   6.122   5.284
 5675TIP3    H216990   2.177   6.270   5.313
 5676TIP3   OH216991   1.656   6.266   2.538
 5676TIP3    H116992   1.719   6.326   2.576
 5676TIP3    H216993   1.707   6.215   2.475
 5677TIP3   OH216994   0.314   2.578   5.568
 5677TIP3    H116995   0.375   2.505   5.563
 5677TIP3    H216996   0.232   2.539   5.597
 5678TIP3   OH216997   2.188   6.486   1.804
 5678TIP3    H116998   2.267   6.496   1.750
 5678TIP3    H216999   2.127   6.439   1.747
 5679TIP3   OH217000   1.895   6.461   4.617
 5679TIP3    H117001   1.973   6.516   4.619
 5679TIP3    H217002   1.822   6.524   4.611
 5680TIP3   OH217003   5.575   6.063   1.372
 5680TIP3    H117004   5.482   6.059   1.348
 5680TIP3    H217005   5.614   6.119   1.305
 5681TIP3   OH217006   6.772   5.900   0.344
 5681TIP3    H117007   6.686   5.900   0.301
 5681TIP3    H217008   6.802   5.991   0.338
 5682TIP3   OH217009   3.029   0.504   1.400
 5682TIP3    H117010   3.082   0.438   1.354
 5682TIP3    H217011   3.064   0.504   1.489
 5683TIP3   OH217012   0.175   6.305   0.955
 5683TIP3    H117013   0.227   6.384   0.939
 5683TIP3    H217014   0.126   6.325   1.035
 5684TIP3   OH217015   5.757   4.210   4.513
 5684TIP3    H117016   5.779   4.253   4.430
 5684TIP3    H217017   5.839   4.172   4.543
 5685TIP3   OH217018   3.616   2.075   4.921
 5685TIP3    H117019   3.581   1.987   4.935
 5685TIP3    H217020   3.636   2.079   4.828
 5686TIP3   OH217021   4.538   0.738   2.770
 5686TIP3    H117022   4.539   0.761   2.863
 5686TIP3    H217023   4.447   0.752   2.743
 5687TIP3   OH217024   3.312   2.918   5.296
 5687TIP3    H117025   3.403   2.930   5.323
 5687TIP3    H217026   3.298   2.823   5.300
 5688TIP3   OH217027   3.897   2.956   4.031
 5688TIP3    H117028   3.938   2.925   4.111
 5688TIP3    H217029   3.814   2.994   4.059
 5689TIP3   OH217030   2.674   2.132   1.780
 5689TIP3    H117031   2.687   2.202   1.716
 5689TIP3    H217032   2.622   2.066   1.734
 5690TIP3   OH217033   6.925   6.058   1.218
 5690TIP3    H117034   6.895   6.144   1.190
 5690TIP3    H217035   6.959   6.017   1.139
 5691TIP3   OH217036   6.644   3.607   4.545
 5691TIP3    H117037   6.705   3.557   4.492
 5691TIP3    H217038   6.631   3.689   4.496
 5692TIP3   OH217039   0.427   2.357   3.711
 5692TIP3    H117040   0.508   2.310   3.688
 5692TIP3    H217041   0.391   2.384   3.627
 5693TIP3   OH217042   0.952   0.583   5.208
 5693TIP3    H117043   1.037   0.605   5.246
 5693TIP3    H217044   0.888   0.621   5.269
 5694TIP3   OH217045   3.961   5.040   3.971
 5694TIP3    H117046   3.905   5.085   4.035
 5694TIP3    H217047   3.951   4.947   3.992
 5695TIP3   OH217048   0.038   0.316   1.774
 5695TIP3    H117049   0.115   0.367   1.802
 5695TIP3    H217050  -0.036   0.359   1.818
 5696TIP3   OH217051   4.197   2.047  -0.008
 5696TIP3    H117052   4.288   2.049   0.023
 5696TIP3    H217053   4.200   2.082  -0.097
 5697TIP3   OH217054   2.868   3.750   0.058
 5697TIP3    H117055   2.838   3.718  -0.027
 5697TIP3    H217056   2.962   3.730   0.059
 5698TIP3   OH217057   7.001   3.506   2.277
 5698TIP3    H117058   6.917   3.462   2.266
 5698TIP3    H217059   7.044   3.457   2.348
 5699TIP3   OH217060   0.276   3.216   0.290
 5699TIP3    H117061   0.221   3.150   0.333
 5699TIP3    H217062   0.360   3.172   0.276
 5700TIP3   OH217063   6.205   6.034   4.209
 5700TIP3    H117064   6.248   6.086   4.277
 5700TIP3    H217065   6.216   5.943   4.238
 5701TIP3   OH217066   4.089   1.613   0.706
 5701TIP3    H117067   4.076   1.670   0.630
 5701TIP3    H217068   4.124   1.671   0.773
 5702TIP3   OH217069   2.386   5.441   2.195
 5702TIP3    H117070   2.359   5.364   2.145
 5702TIP3    H217071   2.392   5.511   2.130
 5703TIP3   OH217072   3.015   3.753   3.700
 5703TIP3    H117073   3.074   3.779   3.630
 5703TIP3    H217074   3.071   3.707   3.763
 5704TIP3   OH217075   2.553   6.393   1.974
 5704TIP3    H117076   2.580   6.485   1.970
 5704TIP3    H217077   2.590   6.362   2.056
 5705TIP3   OH217078   0.617   3.660   1.371
 5705TIP3    H117079   0.612   3.630   1.461
 5705TIP3    H217080   0.705   3.694   1.362
 5706TIP3   OH217081   1.072   6.556   4.848
 5706TIP3    H117082   0.978   6.573   4.844
 5706TIP3    H217083   1.082   6.487   4.914
 5707TIP3   OH217084   3.266   5.031   5.574
 5707TIP3    H117085   3.200   5.099   5.562
 5707TIP3    H217086   3.219   4.949   5.559
 5708TIP3   OH217087   4.000   5.457   5.448
 5708TIP3    H117088   3.946   5.507   5.387
 5708TIP3    H217089   4.059   5.406   5.391
 5709TIP3   OH217090   1.932   0.876   0.407
 5709TIP3    H117091   1.981   0.829   0.340
 5709TIP3    H217092   1.942   0.968   0.384
 5710TIP3   OH217093   1.636   1.381   1.065
 5710TIP3    H117094   1.638   1.407   0.973
 5710TIP3    H217095   1.728   1.375   1.090
 5711TIP3   OH217096   0.168   0.491   0.907
 5711TIP3    H117097   0.196   0.478   0.817
 5711TIP3    H217098   0.073   0.500   0.903
 5712TIP3   OH217099   3.847   5.262   3.169
 5712TIP3    H117100   3.837   5.205   3.245
 5712TIP3    H217101   3.937   5.248   3.140
 5713TIP3   OH217102   2.638   1.145   3.322
 5713TIP3    H117103   2.648   1.083   3.250
 5713TIP3    H217104   2.580   1.213   3.288
 5714TIP3   OH217105   4.410   2.489   0.237
 5714TIP3    H117106   4.330   2.511   0.285
 5714TIP3    H217107   4.447   2.415   0.284
 5715TIP3   OH217108   4.149   5.938   5.650
 5715TIP3    H117109   4.119   6.029   5.645
 5715TIP3    H217110   4.089   5.890   5.593
 5716TIP3   OH217111   4.253   0.375   4.196
 5716TIP3    H117112   4.262   0.407   4.106
 5716TIP3    H217113   4.250   0.280   4.188
 5717TIP3   OH217114   6.748   6.341   5.665
 5717TIP3    H117115   6.783   6.338   5.576
 5717TIP3    H217116   6.808   6.400   5.712
 5718TIP3   OH217117   6.233   3.456   1.171
 5718TIP3    H117118   6.179   3.513   1.227
 5718TIP3    H217119   6.277   3.398   1.232
 5719TIP3   OH217120   0.693   3.150   2.479
 5719TIP3    H117121   0.704   3.063   2.439
 5719TIP3    H217122   0.732   3.141   2.566
 5720TIP3   OH217123   0.627   6.091   2.904
 5720TIP3    H117124   0.709   6.101   2.856
 5720TIP3    H217125   0.568   6.050   2.841
 5721TIP3   OH217126   1.838   0.502   5.271
 5721TIP3    H117127   1.917   0.556   5.280
 5721TIP3    H217128   1.766   0.562   5.290
 5722TIP3   OH217129   5.075   3.794   5.771
 5722TIP3    H117130   5.150   3.788   5.831
 5722TIP3    H217131   5.054   3.887   5.768
 5723TIP3   OH217132   1.716   5.239   3.524
 5723TIP3    H117133   1.739   5.182   3.597
 5723TIP3    H217134   1.737   5.188   3.446
 5724TIP3   OH217135   5.276   4.813   4.907
 5724TIP3    H117136   5.267   4.772   4.821
 5724TIP3    H217137   5.256   4.743   4.969
 5725TIP3   OH217138   1.901   0.863   2.198
 5725TIP3    H117139   1.854   0.913   2.264
 5725TIP3    H217140   1.855   0.779   2.194
 5726TIP3   OH217141   2.239   5.685   5.278
 5726TIP3    H117142   2.210   5.678   5.187
 5726TIP3    H217143   2.164   5.721   5.325
 5727TIP3   OH217144   7.139   6.332   3.943
 5727TIP3    H117145   7.223   6.360   3.908
 5727TIP3    H217146   7.156   6.312   4.035
 5728TIP3   OH217147   6.091   0.949   3.552
 5728TIP3    H117148   6.152   0.918   3.484
 5728TIP3    H217149   6.021   0.992   3.503
 5729TIP3   OH217150   2.880   1.447   3.723
 5729TIP3    H117151   2.842   1.528   3.758
 5729TIP3    H217152   2.805   1.388   3.716
 5730TIP3   OH217153   7.088   0.474   2.343
 5730TIP3    H117154   7.176   0.495   2.312
 5730TIP3    H217155   7.072   0.537   2.413
 5731TIP3   OH217156   1.134   5.689   3.494
 5731TIP3    H117157   1.221   5.682   3.454
 5731TIP3    H217158   1.150   5.682   3.588
 5732TIP3   OH217159   6.812   4.844   1.964
 5732TIP3    H117160   6.794   4.847   1.870
 5732TIP3    H217161   6.758   4.914   2.001
 5733TIP3   OH217162   6.544   3.144   0.393
 5733TIP3    H117163   6.615   3.091   0.430
 5733TIP3    H217164   6.589   3.215   0.348
 5734TIP3   OH217165   6.735   2.898   1.537
 5734TIP3    H117166   6.806   2.872   1.596
 5734TIP3    H217167   6.776   2.906   1.451
 5735TIP3   OH217168   5.350   5.481   0.446
 5735TIP3    H117169   5.329   5.526   0.528
 5735TIP3    H217170   5.395   5.548   0.394
 5736TIP3   OH217171   5.937   1.721   5.162
 5736TIP3    H117172   5.881   1.662   5.112
 5736TIP3    H217173   5.932   1.804   5.115
 5737TIP3   OH217174   0.196   2.834   4.593
 5737TIP3    H117175   0.120   2.787   4.558
 5737TIP3    H217176   0.260   2.832   4.522
 5738TIP3   OH217177   6.760   2.550   2.945
 5738TIP3    H117178   6.831   2.497   2.981
 5738TIP3    H217179   6.794   2.639   2.945
 5739TIP3   OH217180   4.434   5.113   3.356
 5739TIP3    H117181   4.380   5.114   3.435
 5739TIP3    H217182   4.395   5.045   3.301
 5740TIP3   OH217183   0.929   0.726   3.056
 5740TIP3    H117184   0.888   0.810   3.034
 5740TIP3    H217185   1.019   0.749   3.078
 5741TIP3   OH217186   2.525   3.843   0.946
 5741TIP3    H117187   2.540   3.753   0.916
 5741TIP3    H217188   2.506   3.892   0.866
 5742TIP3   OH217189   4.249   3.387   2.663
 5742TIP3    H117190   4.223   3.315   2.721
 5742TIP3    H217191   4.172   3.442   2.657
 5743TIP3   OH217192   4.500   4.489   2.926
 5743TIP3    H117193   4.473   4.507   2.836
 5743TIP3    H217194   4.517   4.395   2.928
 5744TIP3   OH217195   0.435   0.195   1.501
 5744TIP3    H117196   0.472   0.167   1.585
 5744TIP3    H217197   0.487   0.150   1.435
 5745TIP3   OH217198   6.881   5.695   4.051
 5745TIP3    H117199   6.950   5.629   4.047
 5745TIP3    H217200   6.826   5.679   3.975
 5746TIP3   OH217201   1.859   6.400   2.045
 5746TIP3    H117202   1.926   6.373   1.983
 5746TIP3    H217203   1.786   6.340   2.030
 5747TIP3   OH217204   5.872   2.271   5.307
 5747TIP3    H117205   5.840   2.182   5.325
 5747TIP3    H217206   5.802   2.311   5.256
 5748TIP3   OH217207   1.966   5.755   1.781
 5748TIP3    H117208   1.887   5.713   1.746
 5748TIP3    H217209   1.932   5.822   1.840
 5749TIP3   OH217210   5.661   6.203   0.702
 5749TIP3    H117211   5.620   6.117   0.710
 5749TIP3    H217212   5.750   6.185   0.673
 5750TIP3   OH217213   4.485   5.251   2.264
 5750TIP3    H117214   4.406   5.209   2.230
 5750TIP3    H217215   4.521   5.188   2.326
 5751TIP3   OH217216   6.277   5.818   0.253
 5751TIP3    H117217   6.294   5.840   0.345
 5751TIP3    H217218   6.199   5.762   0.256
 5752TIP3   OH217219   4.359   4.502   5.212
 5752TIP3    H117220   4.397   4.498   5.125
 5752TIP3    H217221   4.358   4.411   5.242
 5753TIP3   OH217222   1.995   4.616   4.975
 5753TIP3    H117223   2.082   4.595   5.008
 5753TIP3    H217224   1.999   4.710   4.956
 5754TIP3   OH217225   4.013   6.289   4.605
 5754TIP3    H117226   3.985   6.210   4.652
 5754TIP3    H217227   3.931   6.330   4.577
 5755TIP3   OH217228   6.015   4.441   0.455
 5755TIP3    H117229   6.060   4.525   0.447
 5755TIP3    H217230   6.064   4.394   0.523
 5756TIP3   OH217231   4.640   1.109   0.133
 5756TIP3    H117232   4.546   1.124   0.141
 5756TIP3    H217233   4.680   1.191   0.161
 5757TIP3   OH217234   4.386   5.509   5.301
 5757TIP3    H117235   4.377   5.591   5.351
 5757TIP3    H217236   4.296   5.484   5.281
 5758TIP3   OH217237   4.644   5.182   0.556
 5758TIP3    H117238   4.665   5.275   0.555
 5758TIP3    H217239   4.706   5.144   0.618
 5759TIP3   OH217240   2.574   2.449   1.242
 5759TIP3    H117241   2.503   2.420   1.184
 5759TIP3    H217242   2.630   2.503   1.187
 5760TIP3   OH217243   3.908   4.243   5.434
 5760TIP3    H117244   3.973   4.268   5.368
 5760TIP3    H217245   3.890   4.151   5.417
 5761TIP3   OH217246   4.404   2.925   0.453
 5761TIP3    H117247   4.494   2.907   0.481
 5761TIP3    H217248   4.349   2.889   0.523
 5762TIP3   OH217249   3.124   5.288   5.687
 5762TIP3    H117250   3.046   5.237   5.711
 5762TIP3    H217251   3.167   5.308   5.771
 5763TIP3   OH217252   5.367   0.488   0.992
 5763TIP3    H117253   5.292   0.428   0.999
 5763TIP3    H217254   5.444   0.432   1.006
 5764TIP3   OH217255   5.546   5.173   0.657
 5764TIP3    H117256   5.635   5.191   0.629
 5764TIP3    H217257   5.530   5.082   0.633
 5765TIP3   OH217258   1.948   6.464   4.059
 5765TIP3    H117259   2.020   6.525   4.070
 5765TIP3    H217260   1.874   6.518   4.031
 5766TIP3   OH217261   4.955   3.936   1.431
 5766TIP3    H117262   4.876   3.960   1.382
 5766TIP3    H217263   5.010   4.014   1.427
 5767TIP3   OH217264   1.795   0.977   3.099
 5767TIP3    H117265   1.725   0.927   3.140
 5767TIP3    H217266   1.770   0.984   3.007
 5768TIP3   OH217267   1.866   3.143   0.989
 5768TIP3    H117268   1.794   3.167   1.047
 5768TIP3    H217269   1.853   3.050   0.972
 5769TIP3   OH217270   1.589   5.234   4.365
 5769TIP3    H117271   1.641   5.306   4.329
 5769TIP3    H217272   1.556   5.187   4.289
 5770TIP3   OH217273   2.528   1.319   3.043
 5770TIP3    H117274   2.549   1.388   2.981
 5770TIP3    H217275   2.523   1.363   3.128
 5771TIP3   OH217276   6.118   3.396   0.459
 5771TIP3    H117277   6.206   3.366   0.483
 5771TIP3    H217278   6.120   3.491   0.475
 5772TIP3   OH217279   4.599   3.443   5.742
 5772TIP3    H117280   4.657   3.442   5.666
 5772TIP3    H217281   4.653   3.481   5.812
 5773TIP3   OH217282   5.910   4.595   5.486
 5773TIP3    H117283   5.847   4.543   5.537
 5773TIP3    H217284   5.934   4.667   5.545
 5774TIP3   OH217285   3.639   2.512   1.772
 5774TIP3    H117286   3.668   2.472   1.855
 5774TIP3    H217287   3.544   2.500   1.772
 5775TIP3   OH217288   4.713   5.432   2.297
 5775TIP3    H117289   4.624   5.434   2.260
 5775TIP3    H217290   4.770   5.455   2.224
 5776TIP3   OH217291   6.818   3.419   4.076
 5776TIP3    H117292   6.890   3.457   4.127
 5776TIP3    H217293   6.856   3.401   3.990
 5777TIP3   OH217294   1.344   0.036   2.199
 5777TIP3    H117295   1.336   0.048   2.294
 5777TIP3    H217296   1.438   0.024   2.184
 5778TIP3   OH217297   3.901   4.222   3.748
 5778TIP3    H117298   3.954   4.300   3.730
 5778TIP3    H217299   3.811   4.250   3.729
 5779TIP3   OH217300   3.989   1.833   1.839
 5779TIP3    H117301   3.941   1.765   1.887
 5779TIP3    H217302   3.923   1.870   1.779
 5780TIP3   OH217303   0.986   0.366   2.700
 5780TIP3    H117304   0.970   0.409   2.784
 5780TIP3    H217305   1.076   0.391   2.677
 5781TIP3   OH217306   3.912   3.718   0.906
 5781TIP3    H117307   3.901   3.749   0.997
 5781TIP3    H217308   3.872   3.787   0.853
 5782TIP3   OH217309   1.143   2.614   3.303
 5782TIP3    H117310   1.165   2.584   3.391
 5782TIP3    H217311   1.051   2.637   3.307
 5783TIP3   OH217312   4.921   6.687   0.832
 5783TIP3    H117313   4.888   6.741   0.904
 5783TIP3    H217314   4.853   6.621   0.819
 5784TIP3   OH217315   3.252   6.533   1.125
 5784TIP3    H117316   3.166   6.540   1.084
 5784TIP3    H217317   3.307   6.490   1.060
 5785TIP3   OH217318   0.577   2.818   1.263
 5785TIP3    H117319   0.615   2.900   1.293
 5785TIP3    H217320   0.627   2.749   1.307
 5786TIP3   OH217321   1.873   6.161   3.106
 5786TIP3    H117322   1.852   6.069   3.122
 5786TIP3    H217323   1.862   6.172   3.012
 5787TIP3   OH217324   6.742   6.093   4.216
 5787TIP3    H117325   6.810   6.029   4.238
 5787TIP3    H217326   6.729   6.142   4.297
 5788TIP3   OH217327   1.788   3.333   4.396
 5788TIP3    H117328   1.866   3.388   4.403
 5788TIP3    H217329   1.720   3.392   4.363
 5789TIP3   OH217330   1.470   4.014   1.424
 5789TIP3    H117331   1.489   4.081   1.490
 5789TIP3    H217332   1.377   3.996   1.434
 5790TIP3   OH217333   0.708   2.524   1.586
 5790TIP3    H117334   0.797   2.552   1.562
 5790TIP3    H217335   0.657   2.537   1.506
 5791TIP3   OH217336   6.014   3.179   3.949
 5791TIP3    H117337   6.071   3.102   3.954
 5791TIP3    H217338   6.065   3.243   3.900
 5792TIP3   OH217339   6.456   5.032   4.754
 5792TIP3    H117340   6.391   5.028   4.685
 5792TIP3    H217341   6.486   5.123   4.754
 5793TIP3   OH217342   5.597   1.926   0.225
 5793TIP3    H117343   5.625   1.936   0.134
 5793TIP3    H217344   5.629   2.005   0.268
 5794TIP3   OH217345   4.087   6.093   0.025
 5794TIP3    H117346   4.076   6.000   0.002
 5794TIP3    H217347   4.000   6.130   0.016
 5795TIP3   OH217348   0.035   6.387   3.644
 5795TIP3    H117349   0.002   6.473   3.668
 5795TIP3    H217350   0.114   6.376   3.698
 5796TIP3   OH217351   5.567   6.562   4.176
 5796TIP3    H117352   5.602   6.480   4.141
 5796TIP3    H217353   5.478   6.566   4.142
 5797TIP3   OH217354   0.321   4.947   5.862
 5797TIP3    H117355   0.271   4.865   5.861
 5797TIP3    H217356   0.410   4.922   5.838
 5798TIP3   OH217357   5.883   0.309   5.044
 5798TIP3    H117358   5.928   0.358   4.976
 5798TIP3    H217359   5.909   0.218   5.029
 5799TIP3   OH217360   1.903   1.216   1.187
 5799TIP3    H117361   1.882   1.229   1.279
 5799TIP3    H217362   1.933   1.125   1.182
 5800TIP3   OH217363   0.301   0.828   3.076
 5800TIP3    H117364   0.301   0.824   2.981
 5800TIP3    H217365   0.209   0.813   3.101
 5801TIP3   OH217366   3.038   2.325   4.743
 5801TIP3    H117367   3.099   2.303   4.812
 5801TIP3    H217368   3.090   2.325   4.663
 5802TIP3   OH217369   5.851   4.758   2.430
 5802TIP3    H117370   5.882   4.849   2.430
 5802TIP3    H217371   5.758   4.765   2.407
 5803TIP3   OH217372   2.368   5.877   3.952
 5803TIP3    H117373   2.293   5.915   3.997
 5803TIP3    H217374   2.435   5.869   4.019
 5804TIP3   OH217375   1.784   3.573   1.470
 5804TIP3    H117376   1.878   3.593   1.477
 5804TIP3    H217377   1.741   3.649   1.508
 5805TIP3   OH217378   4.006   6.314   2.823
 5805TIP3    H117379   3.957   6.392   2.798
 5805TIP3    H217380   3.938   6.248   2.840
 5806TIP3   OH217381   4.166   6.214   2.614
 5806TIP3    H117382   4.229   6.149   2.646
 5806TIP3    H217383   4.130   6.253   2.694
 5807TIP3   OH217384   1.506   2.813   1.398
 5807TIP3    H117385   1.583   2.756   1.396
 5807TIP3    H217386   1.539   2.899   1.374
 5808TIP3   OH217387   4.388   2.396   4.006
 5808TIP3    H117388   4.463   2.454   3.998
 5808TIP3    H217389   4.345   2.422   4.087
 5809TIP3   OH217390   5.872   3.369   1.457
 5809TIP3    H117391   5.967   3.361   1.459
 5809TIP3    H217392   5.848   3.389   1.547
 5810TIP3   OH217393   4.682   4.226   0.094
 5810TIP3    H117394   4.614   4.208   0.158
 5810TIP3    H217395   4.648   4.298   0.041
 5811TIP3   OH217396   5.777   2.136   1.412
 5811TIP3    H117397   5.769   2.061   1.352
 5811TIP3    H217398   5.710   2.198   1.382
 5812TIP3   OH217399   7.044   2.053   5.372
 5812TIP3    H117400   7.000   1.973   5.402
 5812TIP3    H217401   7.073   2.096   5.453
 5813TIP3   OH217402   0.993   1.889   4.289
 5813TIP3    H117403   1.022   1.800   4.304
 5813TIP3    H217404   1.009   1.904   4.195
 5814TIP3   OH217405   5.763   5.391   1.684
 5814TIP3    H117406   5.687   5.360   1.734
 5814TIP3    H217407   5.768   5.484   1.705
 5815TIP3   OH217408   2.143   6.696   2.918
 5815TIP3    H117409   2.128   6.693   2.824
 5815TIP3    H217410   2.065   6.738   2.953
 5816TIP3   OH217411   0.483   2.323   4.433
 5816TIP3    H117412   0.572   2.353   4.449
 5816TIP3    H217413   0.462   2.270   4.510
 5817TIP3   OH217414   5.219   2.333   2.985
 5817TIP3    H117415   5.267   2.289   3.055
 5817TIP3    H217416   5.273   2.321   2.907
 5818TIP3   OH217417   2.450   2.574   1.847
 5818TIP3    H117418   2.530   2.626   1.843
 5818TIP3    H217419   2.423   2.564   1.756
 5819TIP3   OH217420   2.564   6.234   2.427
 5819TIP3    H117421   2.504   6.292   2.475
 5819TIP3    H217422   2.604   6.180   2.495
 5820TIP3   OH217423   2.840   1.420   3.313
 5820TIP3    H117424   2.757   1.374   3.325
 5820TIP3    H217425   2.904   1.349   3.300
 5821TIP3   OH217426  -0.021   2.745   5.514
 5821TIP3    H117427   0.016   2.759   5.601
 5821TIP3    H217428  -0.043   2.832   5.482
 5822TIP3   OH217429   1.838   1.972   0.360
 5822TIP3    H117430   1.747   1.942   0.364
 5822TIP3    H217431   1.856   1.978   0.266
 5823TIP3   OH217432   0.102   1.749   3.644
 5823TIP3    H117433   0.191   1.738   3.610
 5823TIP3    H217434   0.107   1.827   3.700
 5824TIP3   OH217435   2.384   6.187   1.595
 5824TIP3    H117436   2.312   6.249   1.604
 5824TIP3    H217437   2.423   6.183   1.682
 5825TIP3   OH217438   1.546   2.658   2.573
 5825TIP3    H117439   1.543   2.730   2.636
 5825TIP3    H217440   1.625   2.610   2.596
 5826TIP3   OH217441   5.234   2.231   4.453
 5826TIP3    H117442   5.324   2.200   4.462
 5826TIP3    H217443   5.180   2.152   4.460
 5827TIP3   OH217444   1.946   6.290   3.322
 5827TIP3    H117445   1.928   6.280   3.229
 5827TIP3    H217446   1.864   6.262   3.365
 5828TIP3   OH217447   3.809   5.126   0.424
 5828TIP3    H117448   3.729   5.135   0.372
 5828TIP3    H217449   3.788   5.059   0.489
 5829TIP3   OH217450   0.646   2.674   2.606
 5829TIP3    H117451   0.651   2.693   2.513
 5829TIP3    H217452   0.670   2.582   2.614
 5830TIP3   OH217453   5.591   0.512   1.902
 5830TIP3    H117454   5.616   0.553   1.985
 5830TIP3    H217455   5.607   0.580   1.836
 5831TIP3   OH217456   5.735   4.502   0.777
 5831TIP3    H117457   5.712   4.430   0.719
 5831TIP3    H217458   5.653   4.550   0.790
 5832TIP3   OH217459   2.618   6.411   0.075
 5832TIP3    H117460   2.664   6.351   0.134
 5832TIP3    H217461   2.579   6.477   0.133
 5833TIP3   OH217462   3.518   4.243   1.866
 5833TIP3    H117463   3.489   4.330   1.841
 5833TIP3    H217464   3.582   4.219   1.799
 5834TIP3   OH217465   1.242   4.902   1.917
 5834TIP3    H117466   1.211   4.823   1.962
 5834TIP3    H217467   1.246   4.968   1.986
 5835TIP3   OH217468   1.000   1.076   3.223
 5835TIP3    H117469   1.044   1.110   3.145
 5835TIP3    H217470   1.054   1.002   3.250
 5836TIP3   OH217471   0.928   2.841   2.996
 5836TIP3    H117472   0.974   2.781   2.937
 5836TIP3    H217473   0.842   2.802   3.007
 5837TIP3   OH217474   3.837   5.533   3.251
 5837TIP3    H117475   3.917   5.533   3.197
 5837TIP3    H217476   3.802   5.445   3.241
 5838TIP3   OH217477   5.629   5.854   0.910
 5838TIP3    H117478   5.584   5.867   0.826
 5838TIP3    H217479   5.720   5.839   0.887
 5839TIP3   OH217480   4.984   4.554   5.666
 5839TIP3    H117481   4.892   4.557   5.640
 5839TIP3    H217482   4.998   4.464   5.697
 5840TIP3   OH217483   2.547   3.653   4.984
 5840TIP3    H117484   2.507   3.650   5.071
 5840TIP3    H217485   2.540   3.745   4.958
 5841TIP3   OH217486   4.368   1.476   3.626
 5841TIP3    H117487   4.381   1.401   3.567
 5841TIP3    H217488   4.406   1.447   3.709
 5842TIP3   OH217489   3.030   2.776   4.973
 5842TIP3    H117490   3.009   2.797   5.064
 5842TIP3    H217491   3.003   2.854   4.923
 5843TIP3   OH217492   4.616   4.810   1.556
 5843TIP3    H117493   4.644   4.790   1.645
 5843TIP3    H217494   4.661   4.892   1.534
 5844TIP3   OH217495   4.848   5.770   3.900
 5844TIP3    H117496   4.809   5.686   3.876
 5844TIP3    H217497   4.942   5.753   3.906
 5845TIP3   OH217498   3.161   4.304   2.541
 5845TIP3    H117499   3.109   4.298   2.460
 5845TIP3    H217500   3.098   4.284   2.611
 5846TIP3   OH217501   5.653   2.984   4.801
 5846TIP3    H117502   5.725   3.046   4.793
 5846TIP3    H217503   5.649   2.963   4.895
 5847TIP3   OH217504   4.101   5.296   0.276
 5847TIP3    H117505   4.085   5.202   0.284
 5847TIP3    H217506   4.046   5.336   0.344
 5848TIP3   OH217507   1.432   3.829   5.638
 5848TIP3    H117508   1.371   3.833   5.565
 5848TIP3    H217509   1.379   3.802   5.713
 5849TIP3   OH217510   5.807   5.817   4.314
 5849TIP3    H117511   5.801   5.912   4.304
 5849TIP3    H217512   5.797   5.802   4.408
 5850TIP3   OH217513   1.552   2.067   5.392
 5850TIP3    H117514   1.612   1.995   5.372
 5850TIP3    H217515   1.471   2.043   5.347
 5851TIP3   OH217516   6.703   3.430   5.238
 5851TIP3    H117517   6.617   3.408   5.204
 5851TIP3    H217518   6.689   3.508   5.291
 5852TIP3   OH217519   5.720   5.157   2.604
 5852TIP3    H117520   5.724   5.249   2.632
 5852TIP3    H217521   5.649   5.155   2.540
 5853TIP3   OH217522   1.689   4.322   1.330
 5853TIP3    H117523   1.620   4.306   1.395
 5853TIP3    H217524   1.769   4.294   1.373
 5854TIP3   OH217525   4.972   0.873   3.874
 5854TIP3    H117526   4.975   0.947   3.812
 5854TIP3    H217527   4.920   0.906   3.947
 5855TIP3   OH217528   2.053   5.100   0.692
 5855TIP3    H117529   2.047   5.095   0.788
 5855TIP3    H217530   2.142   5.070   0.672
 5856TIP3   OH217531   4.683   5.494   5.292
 5856TIP3    H117532   4.600   5.447   5.298
 5856TIP3    H217533   4.723   5.462   5.211
 5857TIP3   OH217534   5.075   2.162   2.742
 5857TIP3    H117535   5.024   2.242   2.753
 5857TIP3    H217536   5.029   2.098   2.797
 5858TIP3   OH217537   6.802   3.205   0.872
 5858TIP3    H117538   6.882   3.154   0.887
 5858TIP3    H217539   6.815   3.285   0.924
 5859TIP3   OH217540   1.703   2.633   3.123
 5859TIP3    H117541   1.665   2.712   3.086
 5859TIP3    H217542   1.695   2.644   3.218
 5860TIP3   OH217543   2.415   2.918   1.203
 5860TIP3    H117544   2.438   2.844   1.146
 5860TIP3    H217545   2.496   2.969   1.209
 5861TIP3   OH217546   6.233   0.249   1.188
 5861TIP3    H117547   6.304   0.308   1.214
 5861TIP3    H217548   6.260   0.163   1.221
 5862TIP3   OH217549   0.487   1.018   2.794
 5862TIP3    H117550   0.400   0.981   2.787
 5862TIP3    H217551   0.540   0.970   2.730
 5863TIP3   OH217552   4.276   4.403   4.187
 5863TIP3    H117553   4.253   4.429   4.098
 5863TIP3    H217554   4.242   4.473   4.242
 5864TIP3   OH217555   1.344   6.688   1.749
 5864TIP3    H117556   1.323   6.646   1.832
 5864TIP3    H217557   1.370   6.777   1.773
 5865TIP3   OH217558   2.543   1.765   2.487
 5865TIP3    H117559   2.532   1.859   2.501
 5865TIP3    H217560   2.523   1.753   2.394
 5866TIP3   OH217561   3.567   2.904   5.399
 5866TIP3    H117562   3.595   2.981   5.448
 5866TIP3    H217563   3.622   2.833   5.432
 5867TIP3   OH217564   6.913   2.029   3.388
 5867TIP3    H117565   6.964   2.012   3.467
 5867TIP3    H217566   6.979   2.043   3.319
 5868TIP3   OH217567   0.326   6.535   0.877
 5868TIP3    H117568   0.417   6.541   0.906
 5868TIP3    H217569   0.332   6.490   0.792
 5869TIP3   OH217570   1.540   5.869   4.362
 5869TIP3    H117571   1.506   5.881   4.273
 5869TIP3    H217572   1.616   5.927   4.367
 5870TIP3   OH217573   4.506   1.985   2.722
 5870TIP3    H117574   4.525   1.895   2.698
 5870TIP3    H217575   4.589   2.031   2.707
 5871TIP3   OH217576   0.380   1.020   3.829
 5871TIP3    H117577   0.371   1.090   3.894
 5871TIP3    H217578   0.317   1.043   3.760
 5872TIP3   OH217579   1.276   2.098   3.817
 5872TIP3    H117580   1.246   2.114   3.728
 5872TIP3    H217581   1.371   2.094   3.809
 5873TIP3   OH217582   0.685   4.636   4.793
 5873TIP3    H117583   0.776   4.665   4.790
 5873TIP3    H217584   0.689   4.543   4.768
 5874TIP3   OH217585   0.355   0.162   4.624
 5874TIP3    H117586   0.378   0.129   4.710
 5874TIP3    H217587   0.262   0.186   4.632
 5875TIP3   OH217588   1.510   4.255   1.621
 5875TIP3    H117589   1.422   4.294   1.623
 5875TIP3    H217590   1.532   4.241   1.714
 5876TIP3   OH217591   4.595   1.183   0.780
 5876TIP3    H117592   4.654   1.186   0.855
 5876TIP3    H217593   4.653   1.177   0.704
 5877TIP3   OH217594   2.812   4.526   5.288
 5877TIP3    H117595   2.852   4.598   5.337
 5877TIP3    H217596   2.808   4.454   5.351
 5878TIP3   OH217597   3.135   3.871   2.562
 5878TIP3    H117598   3.042   3.870   2.540
 5878TIP3    H217599   3.167   3.955   2.529
 5879TIP3   OH217600   0.021   4.348   2.451
 5879TIP3    H117601  -0.034   4.393   2.515
 5879TIP3    H217602   0.079   4.293   2.505
 5880TIP3   OH217603   5.218   4.211   4.458
 5880TIP3    H117604   5.185   4.279   4.400
 5880TIP3    H217605   5.311   4.231   4.468
 5881TIP3   OH217606   2.090   6.494   4.984
 5881TIP3    H117607   2.149   6.564   5.013
 5881TIP3    H217608   2.137   6.452   4.912
 5882TIP3   OH217609   5.811   0.829   0.588
 5882TIP3    H117610   5.824   0.809   0.681
 5882TIP3    H217611   5.886   0.789   0.544
 5883TIP3   OH217612   2.020   5.806   3.012
 5883TIP3    H117613   1.932   5.837   3.032
 5883TIP3    H217614   2.077   5.879   3.040
 5884TIP3   OH217615   3.642   3.929   0.991
 5884TIP3    H117616   3.693   4.005   0.961
 5884TIP3    H217617   3.702   3.883   1.050
 5885TIP3   OH217618   4.237   3.204   2.885
 5885TIP3    H117619   4.268   3.222   2.974
 5885TIP3    H217620   4.306   3.152   2.846
 5886TIP3   OH217621   1.707   1.249   5.090
 5886TIP3    H117622   1.680   1.190   5.020
 5886TIP3    H217623   1.800   1.231   5.103
 5887TIP3   OH217624   3.255   2.608   5.370
 5887TIP3    H117625   3.297   2.594   5.456
 5887TIP3    H217626   3.171   2.649   5.391
 5888TIP3   OH217627   0.053   4.705   5.773
 5888TIP3    H117628   0.116   4.730   5.705
 5888TIP3    H217629   0.100   4.718   5.855
 5889TIP3   OH217630   2.599   2.068   4.969
 5889TIP3    H117631   2.512   2.030   4.983
 5889TIP3    H217632   2.607   2.136   5.035
 5890TIP3   OH217633   6.941   1.338   2.764
 5890TIP3    H117634   7.030   1.328   2.732
 5890TIP3    H217635   6.908   1.416   2.719
 5891TIP3   OH217636   4.222   2.564   3.536
 5891TIP3    H117637   4.287   2.592   3.472
 5891TIP3    H217638   4.268   2.503   3.593
 5892TIP3   OH217639   5.643   2.161   3.615
 5892TIP3    H117640   5.613   2.136   3.528
 5892TIP3    H217641   5.717   2.219   3.600
 5893TIP3   OH217642   1.367   4.775   5.010
 5893TIP3    H117643   1.397   4.866   5.011
 5893TIP3    H217644   1.353   4.755   4.918
 5894TIP3   OH217645   2.069   0.638   3.203
 5894TIP3    H117646   2.146   0.591   3.235
 5894TIP3    H217647   2.042   0.591   3.124
 5895TIP3   OH217648   0.432   5.787   2.034
 5895TIP3    H117649   0.483   5.868   2.030
 5895TIP3    H217650   0.491   5.723   2.074
 5896TIP3   OH217651   3.128   5.034   2.908
 5896TIP3    H117652   3.059   5.096   2.932
 5896TIP3    H217653   3.162   5.066   2.825
 5897TIP3   OH217654   2.705   6.235   4.260
 5897TIP3    H117655   2.749   6.319   4.272
 5897TIP3    H217656   2.731   6.207   4.172
 5898TIP3   OH217657   0.272   5.299   4.259
 5898TIP3    H117658   0.261   5.213   4.299
 5898TIP3    H217659   0.302   5.355   4.330
 5899TIP3   OH217660   4.616   5.909   5.387
 5899TIP3    H117661   4.605   5.921   5.481
 5899TIP3    H217662   4.526   5.902   5.353
 5900TIP3   OH217663   1.268   0.341   1.524
 5900TIP3    H117664   1.184   0.364   1.483
 5900TIP3    H217665   1.258   0.249   1.549
 5901TIP3   OH217666   7.089   3.995   1.245
 5901TIP3    H117667   7.015   3.936   1.230
 5901TIP3    H217668   7.164   3.936   1.255
 5902TIP3   OH217669   6.833   5.969   3.643
 5902TIP3    H117670   6.892   5.894   3.640
 5902TIP3    H217671   6.804   5.972   3.735
 5903TIP3   OH217672   4.395   0.905   0.227
 5903TIP3    H117673   4.348   0.894   0.144
 5903TIP3    H217674   4.449   0.983   0.215
 5904TIP3   OH217675   6.673   6.748   5.671
 5904TIP3    H117676   6.757   6.715   5.641
 5904TIP3    H217677   6.651   6.818   5.610
 5905TIP3   OH217678   7.057   3.556   1.393
 5905TIP3    H117679   7.046   3.475   1.343
 5905TIP3    H217680   7.005   3.543   1.472
 5906TIP3   OH217681   4.177   1.374   4.885
 5906TIP3    H117682   4.237   1.402   4.954
 5906TIP3    H217683   4.186   1.279   4.882
 5907TIP3   OH217684   5.940   1.007   0.814
 5907TIP3    H117685   6.003   0.941   0.785
 5907TIP3    H217686   5.970   1.031   0.902
 5908TIP3   OH217687   5.535   0.925   3.097
 5908TIP3    H117688   5.561   0.996   3.039
 5908TIP3    H217689   5.578   0.945   3.180
 5909TIP3   OH217690   2.165   1.075   4.563
 5909TIP3    H117691   2.233   1.040   4.621
 5909TIP3    H217692   2.208   1.146   4.516
 5910TIP3   OH217693   6.387   1.579   4.442
 5910TIP3    H117694   6.342   1.496   4.460
 5910TIP3    H217695   6.318   1.645   4.447
 5911TIP3   OH217696   6.352   5.864   0.556
 5911TIP3    H117697   6.399   5.888   0.636
 5911TIP3    H217698   6.272   5.918   0.559
 5912TIP3   OH217699   6.971   0.249   1.641
 5912TIP3    H117700   6.990   0.200   1.721
 5912TIP3    H217701   6.960   0.182   1.573
 5913TIP3   OH217702   5.989   2.546   5.553
 5913TIP3    H117703   5.906   2.584   5.583
 5913TIP3    H217704   6.054   2.575   5.617
 5914TIP3   OH217705   6.337   0.960   2.743
 5914TIP3    H117706   6.345   1.028   2.677
 5914TIP3    H217707   6.300   1.005   2.819
 5915TIP3   OH217708   3.690   5.290   1.404
 5915TIP3    H117709   3.609   5.330   1.371
 5915TIP3    H217710   3.759   5.323   1.347
 5916TIP3   OH217711   1.641   3.682   5.358
 5916TIP3    H117712   1.595   3.762   5.335
 5916TIP3    H217713   1.733   3.707   5.360
 5917TIP3   OH217714   4.707   1.894   0.360
 5917TIP3    H117715   4.691   1.805   0.391
 5917TIP3    H217716   4.622   1.938   0.370
 5918TIP3   OH217717   3.459   0.321   5.627
 5918TIP3    H117718   3.426   0.410   5.642
 5918TIP3    H217719   3.526   0.331   5.559
 5919TIP3   OH217720   3.993   1.304   4.330
 5919TIP3    H117721   4.009   1.291   4.424
 5919TIP3    H217722   3.971   1.217   4.298
 5920TIP3   OH217723   3.980   1.595   4.295
 5920TIP3    H117724   3.993   1.500   4.298
 5920TIP3    H217725   3.921   1.607   4.220
 5921TIP3   OH217726   3.269   6.338   4.235
 5921TIP3    H117727   3.185   6.292   4.232
 5921TIP3    H217728   3.280   6.362   4.327
 5922TIP3   OH217729   5.429   4.992   1.593
 5922TIP3    H117730   5.464   4.945   1.669
 5922TIP3    H217731   5.457   4.941   1.517
 5923TIP3   OH217732   3.311   4.483   4.769
 5923TIP3    H117733   3.371   4.461   4.698
 5923TIP3    H217734   3.354   4.452   4.848
 5924TIP3   OH217735   1.831   6.674   3.344
 5924TIP3    H117736   1.921   6.685   3.375
 5924TIP3    H217737   1.777   6.720   3.408
 5925TIP3   OH217738   3.671   0.453   4.388
 5925TIP3    H117739   3.752   0.471   4.436
 5925TIP3    H217740   3.621   0.397   4.447
 5926TIP3   OH217741   5.744   3.174   4.358
 5926TIP3    H117742   5.811   3.213   4.301
 5926TIP3    H217743   5.790   3.104   4.404
 5927TIP3   OH217744   0.187   4.167   5.421
 5927TIP3    H117745   0.282   4.161   5.424
 5927TIP3    H217746   0.166   4.184   5.329
 5928TIP3   OH217747   2.184   1.644   2.239
 5928TIP3    H117748   2.101   1.690   2.228
 5928TIP3    H217749   2.190   1.588   2.162
 5929TIP3   OH217750   6.999   3.781   0.650
 5929TIP3    H117751   7.021   3.827   0.569
 5929TIP3    H217752   6.941   3.840   0.697
 5930TIP3   OH217753   4.686   4.335   3.475
 5930TIP3    H117754   4.608   4.348   3.528
 5930TIP3    H217755   4.655   4.331   3.385
 5931TIP3   OH217756   4.784   3.574   2.991
 5931TIP3    H117757   4.690   3.559   2.980
 5931TIP3    H217758   4.798   3.662   2.956
 5932TIP3   OH217759   6.107   1.223   0.667
 5932TIP3    H117760   6.186   1.211   0.718
 5932TIP3    H217761   6.048   1.153   0.696
 5933TIP3   OH217762   1.992   6.124   1.100
 5933TIP3    H117763   2.083   6.155   1.095
 5933TIP3    H217764   2.000   6.032   1.128
 5934TIP3   OH217765   3.743   5.919   2.050
 5934TIP3    H117766   3.779   5.994   2.097
 5934TIP3    H217767   3.767   5.844   2.103
 5935TIP3   OH217768   0.270   3.775   3.116
 5935TIP3    H117769   0.220   3.723   3.179
 5935TIP3    H217770   0.361   3.747   3.129
 5936TIP3   OH217771   1.867   1.423   2.983
 5936TIP3    H117772   1.889   1.495   2.924
 5936TIP3    H217773   1.795   1.457   3.036
 5937TIP3   OH217774   1.177   6.793   4.778
 5937TIP3    H117775   1.174   6.703   4.809
 5937TIP3    H217776   1.096   6.804   4.728
 5938TIP3   OH217777   0.062   6.056   5.467
 5938TIP3    H117778   0.154   6.047   5.441
 5938TIP3    H217779   0.065   6.067   5.562
 5939TIP3   OH217780   1.340   1.396   1.149
 5939TIP3    H117781   1.287   1.329   1.193
 5939TIP3    H217782   1.419   1.349   1.121
 5940TIP3   OH217783   2.362   6.541   3.954
 5940TIP3    H117784   2.323   6.605   4.013
 5940TIP3    H217785   2.289   6.508   3.902
 5941TIP3   OH217786   3.318   2.612   3.413
 5941TIP3    H117787   3.283   2.578   3.331
 5941TIP3    H217788   3.266   2.570   3.481
 5942TIP3   OH217789   1.798   0.585   2.209
 5942TIP3    H117790   1.789   0.513   2.272
 5942TIP3    H217791   1.845   0.546   2.135
 5943TIP3   OH217792   5.648   5.408   0.252
 5943TIP3    H117793   5.596   5.335   0.218
 5943TIP3    H217794   5.738   5.387   0.228
 5944TIP3   OH217795   1.589   5.161   4.107
 5944TIP3    H117796   1.619   5.235   4.055
 5944TIP3    H217797   1.668   5.110   4.124
 5945TIP3   OH217798   6.372   1.719   0.523
 5945TIP3    H117799   6.437   1.764   0.577
 5945TIP3    H217800   6.328   1.790   0.476
 5946TIP3   OH217801   0.689   0.644   0.561
 5946TIP3    H117802   0.726   0.629   0.474
 5946TIP3    H217803   0.709   0.564   0.609
 5947TIP3   OH217804   5.987   6.207   1.066
 5947TIP3    H117805   6.031   6.292   1.061
 5947TIP3    H217806   6.022   6.157   0.992
 5948TIP3   OH217807   5.037   3.245   3.098
 5948TIP3    H117808   5.003   3.305   3.032
 5948TIP3    H217809   4.977   3.171   3.096
 5949TIP3   OH217810   1.975   6.394   2.283
 5949TIP3    H117811   1.919   6.455   2.331
 5949TIP3    H217812   1.933   6.385   2.197
 5950TIP3   OH217813   6.010   5.754   0.104
 5950TIP3    H117814   6.032   5.661   0.099
 5950TIP3    H217815   5.969   5.774   0.020
 5951TIP3   OH217816   1.349   0.932   1.206
 5951TIP3    H117817   1.418   0.995   1.185
 5951TIP3    H217818   1.369   0.856   1.152
 5952TIP3   OH217819   5.094   0.665   4.191
 5952TIP3    H117820   5.065   0.586   4.237
 5952TIP3    H217821   5.014   0.717   4.180
 5953TIP3   OH217822   4.720   5.211   1.979
 5953TIP3    H117823   4.710   5.194   1.885
 5953TIP3    H217824   4.811   5.187   1.998
 5954TIP3   OH217825   7.135   1.341   4.656
 5954TIP3    H117826   7.197   1.272   4.680
 5954TIP3    H217827   7.088   1.361   4.738
 5955TIP3   OH217828   7.068   2.389   3.335
 5955TIP3    H117829   7.090   2.298   3.356
 5955TIP3    H217830   7.100   2.439   3.410
 5956TIP3   OH217831   1.959   3.263   3.632
 5956TIP3    H117832   1.924   3.351   3.649
 5956TIP3    H217833   1.929   3.211   3.706
 5957TIP3   OH217834   6.127   6.142   0.114
 5957TIP3    H117835   6.169   6.225   0.135
 5957TIP3    H217836   6.166   6.115   0.031
 5958TIP3   OH217837   2.889   3.909   4.038
 5958TIP3    H117838   2.907   3.821   4.072
 5958TIP3    H217839   2.968   3.959   4.059
 5959TIP3   OH217840   0.496   3.522   2.503
 5959TIP3    H117841   0.455   3.606   2.523
 5959TIP3    H217842   0.453   3.493   2.422
 5960TIP3   OH217843   4.544   2.818   3.928
 5960TIP3    H117844   4.479   2.851   3.867
 5960TIP3    H217845   4.610   2.887   3.933
 5961TIP3   OH217846   5.126   0.320   2.266
 5961TIP3    H117847   5.047   0.373   2.261
 5961TIP3    H217848   5.167   0.330   2.180
 5962TIP3   OH217849   3.587   0.319   4.628
 5962TIP3    H117850   3.663   0.369   4.659
 5962TIP3    H217851   3.519   0.334   4.693
 5963TIP3   OH217852   0.261   3.084   2.207
 5963TIP3    H117853   0.255   3.083   2.112
 5963TIP3    H217854   0.342   3.131   2.226
 5964TIP3   OH217855   2.810   5.402   5.744
 5964TIP3    H117856   2.837   5.310   5.754
 5964TIP3    H217857   2.827   5.422   5.652
 5965TIP3   OH217858   4.764   6.545   1.719
 5965TIP3    H117859   4.770   6.638   1.695
 5965TIP3    H217860   4.812   6.538   1.801
 5966TIP3   OH217861   5.132   2.979   0.144
 5966TIP3    H117862   5.130   2.884   0.156
 5966TIP3    H217863   5.175   3.012   0.223
 5967TIP3   OH217864   6.380   1.851   4.046
 5967TIP3    H117865   6.392   1.836   4.140
 5967TIP3    H217866   6.303   1.908   4.040
 5968TIP3   OH217867   1.069   4.038   2.075
 5968TIP3    H117868   1.128   3.981   2.125
 5968TIP3    H217869   1.036   3.981   2.005
 5969TIP3   OH217870   1.152   2.928   4.711
 5969TIP3    H117871   1.081   2.986   4.682
 5969TIP3    H217872   1.230   2.963   4.668
 5970TIP3   OH217873   1.213   1.476   5.662
 5970TIP3    H117874   1.147   1.411   5.639
 5970TIP3    H217875   1.166   1.543   5.711
 5971TIP3   OH217876   5.212   1.599   3.712
 5971TIP3    H117877   5.272   1.673   3.701
 5971TIP3    H217878   5.139   1.634   3.762
 5972TIP3   OH217879   6.710   6.167   2.611
 5972TIP3    H117880   6.754   6.087   2.641
 5972TIP3    H217881   6.653   6.192   2.683
 5973TIP3   OH217882   0.526   4.109   4.610
 5973TIP3    H117883   0.543   4.189   4.560
 5973TIP3    H217884   0.550   4.038   4.550
 5974TIP3   OH217885   4.249   2.840   0.247
 5974TIP3    H117886   4.293   2.886   0.318
 5974TIP3    H217887   4.189   2.780   0.291
 5975TIP3   OH217888   0.392   1.703   5.676
 5975TIP3    H117889   0.393   1.762   5.751
 5975TIP3    H217890   0.306   1.717   5.636
 5976TIP3   OH217891   6.374   6.682   1.392
 5976TIP3    H117892   6.424   6.601   1.401
 5976TIP3    H217893   6.286   6.653   1.370
 5977TIP3   OH217894   2.654   4.007   1.130
 5977TIP3    H117895   2.723   3.946   1.157
 5977TIP3    H217896   2.604   3.959   1.065
 5978TIP3   OH217897   5.425   6.044   4.889
 5978TIP3    H117898   5.471   6.092   4.957
 5978TIP3    H217899   5.336   6.081   4.889
 5979TIP3   OH217900   0.379   0.430   4.495
 5979TIP3    H117901   0.353   0.384   4.575
 5979TIP3    H217902   0.365   0.366   4.425
 5980TIP3   OH217903   1.981   2.097   0.802
 5980TIP3    H117904   1.970   2.003   0.789
 5980TIP3    H217905   1.964   2.136   0.716
 5981TIP3   OH217906   4.763   6.496   3.070
 5981TIP3    H117907   4.785   6.520   2.980
 5981TIP3    H217908   4.787   6.403   3.077
 5982TIP3   OH217909   6.504   5.920   3.422
 5982TIP3    H117910   6.436   5.895   3.485
 5982TIP3    H217911   6.509   5.846   3.362
 5983TIP3   OH217912   4.636   0.673   3.226
 5983TIP3    H117913   4.723   0.643   3.201
 5983TIP3    H217914   4.621   0.751   3.174
 5984TIP3   OH217915   5.231   1.755   3.040
 5984TIP3    H117916   5.292   1.734   3.110
 5984TIP3    H217917   5.159   1.801   3.083
 5985TIP3   OH217918   2.202   4.840   0.968
 5985TIP3    H117919   2.220   4.783   1.044
 5985TIP3    H217920   2.256   4.803   0.898
 5986TIP3   OH217921   3.918   2.348   0.707
 5986TIP3    H117922   3.849   2.409   0.680
 5986TIP3    H217923   3.873   2.287   0.765
 5987TIP3   OH217924   4.360   0.276   5.165
 5987TIP3    H117925   4.413   0.229   5.101
 5987TIP3    H217926   4.276   0.231   5.165
 5988TIP3   OH217927   2.351   3.997   5.601
 5988TIP3    H117928   2.403   4.076   5.615
 5988TIP3    H217929   2.407   3.926   5.633
 5989TIP3   OH217930   3.360   5.370   4.264
 5989TIP3    H117931   3.364   5.382   4.359
 5989TIP3    H217932   3.276   5.328   4.249
 5990TIP3   OH217933   1.824   3.082   3.811
 5990TIP3    H117934   1.863   3.121   3.889
 5990TIP3    H217935   1.833   2.987   3.824
 5991TIP3   OH217936   0.975   0.517   1.951
 5991TIP3    H117937   1.053   0.485   1.996
 5991TIP3    H217938   1.009   0.570   1.879
 5992TIP3   OH217939   2.240   2.214   2.801
 5992TIP3    H117940   2.327   2.176   2.787
 5992TIP3    H217941   2.180   2.140   2.797
 5993TIP3   OH217942   6.481   2.730   2.000
 5993TIP3    H117943   6.571   2.747   1.974
 5993TIP3    H217944   6.488   2.692   2.088
 5994TIP3   OH217945   6.367   1.579   0.258
 5994TIP3    H117946   6.275   1.555   0.247
 5994TIP3    H217947   6.369   1.626   0.342
 5995TIP3   OH217948   6.845   2.803   5.854
 5995TIP3    H117949   6.787   2.869   5.892
 5995TIP3    H217950   6.793   2.764   5.784
 5996TIP3   OH217951   5.275   6.206   0.797
 5996TIP3    H117952   5.199   6.248   0.837
 5996TIP3    H217953   5.239   6.157   0.723
 5997TIP3   OH217954   3.355   0.539   3.787
 5997TIP3    H117955   3.367   0.526   3.692
 5997TIP3    H217956   3.434   0.587   3.813
 5998TIP3   OH217957   6.471   0.665   2.126
 5998TIP3    H117958   6.536   0.735   2.126
 5998TIP3    H217959   6.387   0.710   2.141
 5999TIP3   OH217960   1.123   0.046   1.353
 5999TIP3    H117961   1.069  -0.032   1.361
 5999TIP3    H217962   1.092   0.089   1.274
 6000TIP3   OH217963   4.661   0.191   5.767
 6000TIP3    H117964   4.667   0.211   5.673
 6000TIP3    H217965   4.750   0.166   5.792
 6001TIP3   OH217966   0.855   5.183   3.795
 6001TIP3    H117967   0.909   5.110   3.764
 6001TIP3    H217968   0.907   5.223   3.864
 6002TIP3   OH217969   1.809   4.132   0.459
 6002TIP3    H117970   1.760   4.127   0.542
 6002TIP3    H217971   1.802   4.043   0.423
 6003TIP3   OH217972   1.476   0.454   4.089
 6003TIP3    H117973   1.381   0.453   4.081
 6003TIP3    H217974   1.492   0.487   4.177
 6004TIP3   OH217975   0.434   4.255   2.369
 6004TIP3    H117976   0.515   4.214   2.401
 6004TIP3    H217977   0.380   4.182   2.340
 6005TIP3   OH217978   5.849   2.994   4.550
 6005TIP3    H117979   5.938   3.014   4.523
 6005TIP3    H217980   5.827   3.062   4.614
 6006TIP3   OH217981   6.230   3.008   3.998
 6006TIP3    H117982   6.254   2.924   3.959
 6006TIP3    H217983   6.197   2.985   4.085
 6007TIP3   OH217984   5.404   1.934   4.258
 6007TIP3    H117985   5.314   1.944   4.287
 6007TIP3    H217986   5.450   2.009   4.297
 6008TIP3   OH217987   4.429   0.507   1.880
 6008TIP3    H117988   4.455   0.419   1.909
 6008TIP3    H217989   4.347   0.524   1.926
 6009TIP3   OH217990   5.569   1.586   5.812
 6009TIP3    H117991   5.522   1.661   5.846
 6009TIP3    H217992   5.507   1.513   5.819
 6010TIP3   OH217993   4.203   5.302   5.921
 6010TIP3    H117994   4.291   5.298   5.884
 6010TIP3    H217995   4.163   5.219   5.897
 6011TIP3   OH217996   4.878   0.355   5.151
 6011TIP3    H117997   4.823   0.410   5.207
 6011TIP3    H217998   4.958   0.343   5.202
 6012TIP3   OH217999   6.156   3.416   3.055
 6012TIP3    H118000   6.122   3.385   3.139
 6012TIP3    H218001   6.080   3.415   2.997
 6013TIP3   OH218002   5.358   0.550   0.107
 6013TIP3    H118003   5.299   0.492   0.059
 6013TIP3    H218004   5.391   0.612   0.041
 6014TIP3   OH218005   0.591   4.210   4.020
 6014TIP3    H118006   0.656   4.149   4.055
 6014TIP3    H218007   0.609   4.293   4.066
 6015TIP3   OH218008   3.626   4.335   5.455
 6015TIP3    H118009   3.712   4.303   5.482
 6015TIP3    H218010   3.625   4.426   5.484
 6016TIP3   OH218011   4.375   4.665   5.492
 6016TIP3    H118012   4.411   4.600   5.432
 6016TIP3    H218013   4.378   4.747   5.444
 6017TIP3   OH218014   5.448   5.141   2.903
 6017TIP3    H118015   5.394   5.150   2.982
 6017TIP3    H218016   5.453   5.047   2.888
 6018TIP3   OH218017   5.294   3.418   0.784
 6018TIP3    H118018   5.223   3.353   0.787
 6018TIP3    H218019   5.291   3.461   0.869
 6019TIP3   OH218020   6.978   1.461   1.382
 6019TIP3    H118021   7.026   1.498   1.308
 6019TIP3    H218022   6.988   1.366   1.372
 6020TIP3   OH218023   7.015   4.772   5.829
 6020TIP3    H118024   6.971   4.793   5.747
 6020TIP3    H218025   7.105   4.751   5.804
 6021TIP3   OH218026   4.234   0.485   4.986
 6021TIP3    H118027   4.268   0.409   5.033
 6021TIP3    H218028   4.167   0.521   5.045
 6022TIP3   OH218029   5.292   4.123   0.892
 6022TIP3    H118030   5.310   4.067   0.967
 6022TIP3    H218031   5.302   4.067   0.815
 6023TIP3   OH218032   4.174   1.103   1.770
 6023TIP3    H118033   4.201   1.187   1.807
 6023TIP3    H218034   4.127   1.126   1.689
 6024TIP3   OH218035   2.379   1.966   3.405
 6024TIP3    H118036   2.324   2.015   3.466
 6024TIP3    H218037   2.464   2.010   3.409
 6025TIP3   OH218038   1.962   5.563   5.754
 6025TIP3    H118039   1.985   5.555   5.847
 6025TIP3    H218040   1.882   5.616   5.754
 6026TIP3   OH218041   4.047   6.039   5.225
 6026TIP3    H118042   4.071   5.951   5.253
 6026TIP3    H218043   3.955   6.032   5.199
 6027TIP3   OH218044   0.891   3.179   2.893
 6027TIP3    H118045   0.797   3.173   2.878
 6027TIP3    H218046   0.916   3.263   2.854
 6028TIP3   OH218047   1.901   5.916   5.030
 6028TIP3    H118048   1.927   5.925   4.938
 6028TIP3    H218049   1.861   5.829   5.034
 6029TIP3   OH218050   0.487   1.469   2.752
 6029TIP3    H118051   0.488   1.393   2.694
 6029TIP3    H218052   0.533   1.440   2.831
 6030TIP3   OH218053   6.790   2.857   1.018
 6030TIP3    H118054   6.759   2.859   0.928
 6030TIP3    H218055   6.715   2.827   1.069
 6031TIP3   OH218056   3.289   1.416   5.641
 6031TIP3    H118057   3.247   1.383   5.562
 6031TIP3    H218058   3.301   1.338   5.696
 6032TIP3   OH218059   4.792   3.762   0.553
 6032TIP3    H118060   4.821   3.844   0.593
 6032TIP3    H218061   4.750   3.789   0.471
 6033TIP3   OH218062   4.013   5.622   2.595
 6033TIP3    H118063   3.971   5.705   2.572
 6033TIP3    H218064   4.107   5.641   2.595
 6034TIP3   OH218065   1.026   6.654   2.991
 6034TIP3    H118066   1.013   6.564   2.962
 6034TIP3    H218067   1.009   6.652   3.085
 6035TIP3   OH218068   3.741   0.521   4.802
 6035TIP3    H118069   3.832   0.541   4.782
 6035TIP3    H218070   3.745   0.437   4.850
 6036TIP3   OH218071   2.128   3.184   2.026
 6036TIP3    H118072   2.041   3.224   2.035
 6036TIP3    H218073   2.159   3.173   2.116
 6037TIP3   OH218074   6.096   0.367   3.872
 6037TIP3    H118075   6.094   0.454   3.911
 6037TIP3    H218076   6.005   0.349   3.848
 6038TIP3   OH218077   4.261   4.319   2.454
 6038TIP3    H118078   4.310   4.400   2.469
 6038TIP3    H218079   4.317   4.268   2.395
 6039TIP3   OH218080   0.496   0.311   3.566
 6039TIP3    H118081   0.405   0.295   3.540
 6039TIP3    H218082   0.491   0.326   3.661
 6040TIP3   OH218083   0.177   5.357   1.510
 6040TIP3    H118084   0.267   5.351   1.544
 6040TIP3    H218085   0.177   5.435   1.455
 6041TIP3   OH218086   0.099   3.770   0.987
 6041TIP3    H118087   0.131   3.843   0.935
 6041TIP3    H218088   0.116   3.797   1.078
 6042TIP3   OH218089   4.255   3.630   5.361
 6042TIP3    H118090   4.174   3.616   5.313
 6042TIP3    H218091   4.265   3.725   5.365
 6043TIP3   OH218092   1.638   0.632   5.704
 6043TIP3    H118093   1.705   0.651   5.769
 6043TIP3    H218094   1.555   0.642   5.751
 6044TIP3   OH218095   5.770   6.057   4.555
 6044TIP3    H118096   5.699   6.095   4.503
 6044TIP3    H218097   5.850   6.090   4.514
 6045TIP3   OH218098   5.022   4.762   3.686
 6045TIP3    H118099   4.934   4.748   3.723
 6045TIP3    H218100   5.051   4.674   3.659
 6046TIP3   OH218101   5.764   3.939   1.129
 6046TIP3    H118102   5.730   4.021   1.095
 6046TIP3    H218103   5.687   3.883   1.140
 6047TIP3   OH218104   6.487   2.717   4.150
 6047TIP3    H118105   6.545   2.682   4.218
 6047TIP3    H218106   6.472   2.808   4.176
 6048TIP3   OH218107   0.410   2.746   1.559
 6048TIP3    H118108   0.426   2.731   1.652
 6048TIP3    H218109   0.445   2.833   1.542
 6049TIP3   OH218110   3.604   5.145   1.032
 6049TIP3    H118111   3.516   5.107   1.024
 6049TIP3    H218112   3.625   5.173   0.943
 6050TIP3   OH218113   2.587   6.461   0.564
 6050TIP3    H118114   2.673   6.476   0.526
 6050TIP3    H218115   2.555   6.382   0.521
 6051TIP3   OH218116   0.478   6.540   2.520
 6051TIP3    H118117   0.477   6.635   2.534
 6051TIP3    H218118   0.396   6.509   2.557
 6052TIP3   OH218119   0.185   0.889   0.407
 6052TIP3    H118120   0.178   0.960   0.471
 6052TIP3    H218121   0.138   0.816   0.447
 6053TIP3   OH218122   5.414   5.683   2.604
 6053TIP3    H118123   5.328   5.645   2.586
 6053TIP3    H218124   5.453   5.626   2.670
 6054TIP3   OH218125   5.118   0.777   1.444
 6054TIP3    H118126   5.145   0.828   1.520
 6054TIP3    H218127   5.028   0.807   1.426
 6055TIP3   OH218128   3.273   2.154   0.735
 6055TIP3    H118129   3.360   2.143   0.698
 6055TIP3    H218130   3.267   2.087   0.803
 6056TIP3   OH218131   1.489   4.271   2.473
 6056TIP3    H118132   1.418   4.291   2.412
 6056TIP3    H218133   1.461   4.191   2.517
 6057TIP3   OH218134   2.286   2.295   3.056
 6057TIP3    H118135   2.269   2.279   2.963
 6057TIP3    H218136   2.348   2.226   3.080
 6058TIP3   OH218137   0.136   6.376   0.532
 6058TIP3    H118138   0.129   6.317   0.457
 6058TIP3    H218139   0.087   6.332   0.601
 6059TIP3   OH218140   2.164   1.598   3.472
 6059TIP3    H118141   2.255   1.627   3.478
 6059TIP3    H218142   2.113   1.679   3.476
 6060TIP3   OH218143   4.731   3.159   1.977
 6060TIP3    H118144   4.743   3.238   1.924
 6060TIP3    H218145   4.802   3.101   1.951
 6061TIP3   OH218146   4.140   2.239   2.503
 6061TIP3    H118147   4.163   2.184   2.577
 6061TIP3    H218148   4.143   2.180   2.427
 6062TIP3   OH218149   3.783   1.135   0.534
 6062TIP3    H118150   3.697   1.106   0.505
 6062TIP3    H218151   3.806   1.206   0.474
 6063TIP3   OH218152   4.468   2.484   5.060
 6063TIP3    H118153   4.415   2.563   5.050
 6063TIP3    H218154   4.521   2.501   5.138
 6064TIP3   OH218155   2.367   2.346   1.994
 6064TIP3    H118156   2.384   2.426   1.944
 6064TIP3    H218157   2.359   2.376   2.085
 6065TIP3   OH218158   4.259   5.452   0.126
 6065TIP3    H118159   4.205   5.386   0.167
 6065TIP3    H218160   4.240   5.444   0.032
 6066TIP3   OH218161   3.752   2.893   2.009
 6066TIP3    H118162   3.843   2.899   2.040
 6066TIP3    H218163   3.718   2.813   2.049
 6067TIP3   OH218164   1.625   0.974   3.797
 6067TIP3    H118165   1.617   0.981   3.892
 6067TIP3    H218166   1.718   0.988   3.779
 6068TIP3   OH218167   1.016   6.473   0.859
 6068TIP3    H118168   1.109   6.472   0.882
 6068TIP3    H218169   1.000   6.563   0.831
 6069TIP3   OH218170   7.093   5.383   0.493
 6069TIP3    H118171   7.077   5.289   0.503
 6069TIP3    H218172   7.006   5.420   0.476
 6070TIP3   OH218173   0.498   5.218   0.323
 6070TIP3    H118174   0.499   5.298   0.270
 6070TIP3    H218175   0.463   5.244   0.407
 6071TIP3   OH218176   3.929   0.134   0.434
 6071TIP3    H118177   3.992   0.098   0.496
 6071TIP3    H218178   3.974   0.134   0.350
 6072TIP3   OH218179   3.931   1.231   1.893
 6072TIP3    H118180   3.840   1.203   1.897
 6072TIP3    H218181   3.970   1.174   1.826
 6073TIP3   OH218182   6.581   6.556   2.537
 6073TIP3    H118183   6.608   6.544   2.629
 6073TIP3    H218184   6.608   6.475   2.494
 6074TIP3   OH218185   4.311   0.964   0.985
 6074TIP3    H118186   4.392   0.916   0.970
 6074TIP3    H218187   4.340   1.050   1.015
 6075TIP3   OH218188   2.781   0.723   0.444
 6075TIP3    H118189   2.685   0.721   0.453
 6075TIP3    H218190   2.800   0.812   0.414
 6076TIP3   OH218191   3.113   2.409   0.371
 6076TIP3    H118192   3.168   2.487   0.361
 6076TIP3    H218193   3.174   2.335   0.359
 6077TIP3   OH218194   2.883   5.046   3.557
 6077TIP3    H118195   2.848   5.030   3.469
 6077TIP3    H218196   2.881   4.961   3.599
 6078TIP3   OH218197   3.819   0.879   4.551
 6078TIP3    H118198   3.812   0.882   4.456
 6078TIP3    H218199   3.912   0.896   4.568
 6079TIP3   OH218200   2.551   4.417   1.019
 6079TIP3    H118201   2.595   4.358   0.958
 6079TIP3    H218202   2.619   4.445   1.080
 6080TIP3   OH218203   0.410   2.420   1.200
 6080TIP3    H118204   0.358   2.349   1.162
 6080TIP3    H218205   0.366   2.500   1.170
 6081TIP3   OH218206   1.776   0.760   4.681
 6081TIP3    H118207   1.763   0.855   4.678
 6081TIP3    H218208   1.692   0.724   4.652
 6082TIP3   OH218209   2.698   2.864   5.728
 6082TIP3    H118210   2.606   2.883   5.744
 6082TIP3    H218211   2.728   2.819   5.807
 6083TIP3   OH218212   1.737   3.893   5.647
 6083TIP3    H118213   1.743   3.980   5.606
 6083TIP3    H218214   1.651   3.860   5.620
 6084TIP3   OH218215   0.820   6.585  -0.027
 6084TIP3    H118216   0.745   6.529  -0.007
 6084TIP3    H218217   0.870   6.588   0.054
 6085TIP3   OH218218   3.782   1.497   4.493
 6085TIP3    H118219   3.747   1.586   4.499
 6085TIP3    H218220   3.857   1.497   4.554
 6086TIP3   OH218221   0.679   6.392   1.525
 6086TIP3    H118222   0.692   6.425   1.614
 6086TIP3    H218223   0.768   6.380   1.491
 6087TIP3   OH218224   5.186   5.684   1.537
 6087TIP3    H118225   5.225   5.657   1.621
 6087TIP3    H218226   5.261   5.715   1.485
 6088TIP3   OH218227   4.392   4.912   1.753
 6088TIP3    H118228   4.458   4.886   1.689
 6088TIP3    H218229   4.357   4.995   1.720
 6089TIP3   OH218230   0.113   3.371   4.725
 6089TIP3    H118231   0.125   3.282   4.690
 6089TIP3    H218232   0.200   3.395   4.757
 6090TIP3   OH218233   0.900   4.517   4.025
 6090TIP3    H118234   0.913   4.562   4.109
 6090TIP3    H218235   0.922   4.583   3.959
 6091TIP3   OH218236   7.005   2.405   4.837
 6091TIP3    H118237   7.025   2.324   4.791
 6091TIP3    H218238   7.090   2.435   4.870
 6092TIP3   OH218239   5.471   2.068   2.954
 6092TIP3    H118240   5.481   1.977   2.982
 6092TIP3    H218241   5.558   2.094   2.926
 6093TIP3   OH218242   3.472   5.145   0.567
 6093TIP3    H118243   3.378   5.156   0.551
 6093TIP3    H218244   3.508   5.122   0.481
 6094TIP3   OH218245   4.269   3.629   2.849
 6094TIP3    H118246   4.196   3.583   2.808
 6094TIP3    H218247   4.270   3.598   2.940
 6095TIP3   OH218248   1.814   5.318   5.685
 6095TIP3    H118249   1.772   5.379   5.745
 6095TIP3    H218250   1.771   5.234   5.703
 6096TIP3   OH218251   3.391   4.488   3.412
 6096TIP3    H118252   3.319   4.428   3.431
 6096TIP3    H218253   3.349   4.571   3.392
 6097TIP3   OH218254   5.178   3.572   0.599
 6097TIP3    H118255   5.218   3.504   0.653
 6097TIP3    H218256   5.222   3.653   0.625
 6098TIP3   OH218257   5.465   4.934   3.609
 6098TIP3    H118258   5.532   4.867   3.620
 6098TIP3    H218259   5.449   4.938   3.514
 6099TIP3   OH218260   1.849   3.318   2.662
 6099TIP3    H118261   1.927   3.306   2.608
 6099TIP3    H218262   1.800   3.237   2.653
 6100TIP3   OH218263   0.714   3.047   1.343
 6100TIP3    H118264   0.696   3.132   1.301
 6100TIP3    H218265   0.713   3.066   1.437
 6101TIP3   OH218266   1.383   5.476   1.570
 6101TIP3    H118267   1.417   5.416   1.636
 6101TIP3    H218268   1.333   5.540   1.620
 6102TIP3   OH218269   5.054   0.078   3.123
 6102TIP3    H118270   5.149   0.070   3.124
 6102TIP3    H218271   5.037   0.163   3.082
 6103TIP3   OH218272   2.887   2.877   4.011
 6103TIP3    H118273   2.908   2.799   3.960
 6103TIP3    H218274   2.945   2.945   3.976
 6104TIP3   OH218275   6.136   1.630   1.485
 6104TIP3    H118276   6.057   1.683   1.477
 6104TIP3    H218277   6.147   1.590   1.399
 6105TIP3   OH218278   2.085   1.877   3.519
 6105TIP3    H118279   2.001   1.893   3.477
 6105TIP3    H218280   2.132   1.960   3.511
 6106TIP3   OH218281   0.309   5.571   2.690
 6106TIP3    H118282   0.285   5.509   2.621
 6106TIP3    H218283   0.389   5.535   2.728
 6107TIP3   OH218284   4.446   5.018   2.837
 6107TIP3    H118285   4.444   4.928   2.806
 6107TIP3    H218286   4.355   5.047   2.832
 6108TIP3   OH218287   0.843   0.972   0.491
 6108TIP3    H118288   0.750   0.994   0.482
 6108TIP3    H218289   0.845   0.905   0.559
 6109TIP3   OH218290   5.844   5.074   3.979
 6109TIP3    H118291   5.788   5.146   3.950
 6109TIP3    H218292   5.812   5.054   4.067
 6110TIP3   OH218293   1.376   6.363   1.398
 6110TIP3    H118294   1.423   6.349   1.481
 6110TIP3    H218295   1.427   6.314   1.334
 6111TIP3   OH218296   1.987   4.721   1.171
 6111TIP3    H118297   2.030   4.635   1.170
 6111TIP3    H218298   1.909   4.707   1.226
 6112TIP3   OH218299   2.701   3.383   3.747
 6112TIP3    H118300   2.623   3.434   3.728
 6112TIP3    H218301   2.708   3.384   3.843
 6113TIP3   OH218302   2.209   5.867   0.470
 6113TIP3    H118303   2.157   5.787   0.481
 6113TIP3    H218304   2.247   5.883   0.556
 6114TIP3   OH218305   2.432   5.181   5.431
 6114TIP3    H118306   2.360   5.155   5.489
 6114TIP3    H218307   2.420   5.275   5.419
 6115TIP3   OH218308   1.897   3.586   2.018
 6115TIP3    H118309   1.931   3.632   2.095
 6115TIP3    H218310   1.946   3.623   1.945
 6116TIP3   OH218311   5.391   4.916   0.603
 6116TIP3    H118312   5.447   4.896   0.678
 6116TIP3    H218313   5.333   4.840   0.595
 6117TIP3   OH218314   6.191   2.677   4.187
 6117TIP3    H118315   6.144   2.747   4.232
 6117TIP3    H218316   6.284   2.696   4.203
 6118TIP3   OH218317   1.680   2.256   4.983
 6118TIP3    H118318   1.667   2.293   4.895
 6118TIP3    H218319   1.684   2.333   5.040
 6119TIP3   OH218320   0.131   3.990   0.747
 6119TIP3    H118321   0.068   3.990   0.675
 6119TIP3    H218322   0.210   4.029   0.709
 6120TIP3   OH218323   2.536   1.409   1.524
 6120TIP3    H118324   2.518   1.468   1.598
 6120TIP3    H218325   2.561   1.326   1.565
 6121TIP3   OH218326   0.561   1.849   1.394
 6121TIP3    H118327   0.633   1.854   1.457
 6121TIP3    H218328   0.483   1.872   1.443
 6122TIP3   OH218329   1.874   1.578   5.092
 6122TIP3    H118330   1.795   1.575   5.145
 6122TIP3    H218331   1.848   1.627   5.014
 6123TIP3   OH218332   6.921   6.598   0.781
 6123TIP3    H118333   6.851   6.612   0.845
 6123TIP3    H218334   6.878   6.556   0.707
 6124TIP3   OH218335   1.108   5.379   4.805
 6124TIP3    H118336   1.158   5.429   4.740
 6124TIP3    H218337   1.153   5.295   4.811
 6125TIP3   OH218338   2.989   5.922   5.230
 6125TIP3    H118339   3.043   5.909   5.152
 6125TIP3    H218340   3.043   5.890   5.302
 6126TIP3   OH218341   0.406   6.549   5.814
 6126TIP3    H118342   0.473   6.481   5.817
 6126TIP3    H218343   0.436   6.610   5.746
 6127TIP3   OH218344   5.296   2.972   0.434
 6127TIP3    H118345   5.351   2.990   0.358
 6127TIP3    H218346   5.237   3.047   0.440
 6128TIP3   OH218347   4.467   3.518   4.454
 6128TIP3    H118348   4.386   3.561   4.425
 6128TIP3    H218349   4.438   3.453   4.518
 6129TIP3   OH218350   4.493   0.256   2.008
 6129TIP3    H118351   4.445   0.174   1.998
 6129TIP3    H218352   4.554   0.240   2.080
 6130TIP3   OH218353   3.690   1.383   4.246
 6130TIP3    H118354   3.761   1.397   4.308
 6130TIP3    H218355   3.627   1.453   4.266
 6131TIP3   OH218356   4.034   3.277   2.448
 6131TIP3    H118357   4.106   3.337   2.425
 6131TIP3    H218358   3.967   3.333   2.486
 6132TIP3   OH218359   5.118   6.144   3.426
 6132TIP3    H118360   5.062   6.156   3.503
 6132TIP3    H218361   5.141   6.051   3.428
 6133TIP3   OH218362   0.819   6.003   0.116
 6133TIP3    H118363   0.861   6.082   0.082
 6133TIP3    H218364   0.725   6.019   0.106
 6134TIP3   OH218365   3.769   0.572   1.787
 6134TIP3    H118366   3.842   0.591   1.727
 6134TIP3    H218367   3.741   0.658   1.818
 6135TIP3   OH218368   5.498   1.782   1.407
 6135TIP3    H118369   5.486   1.763   1.500
 6135TIP3    H218370   5.572   1.728   1.380
 6136TIP3   OH218371   5.297   5.589   5.359
 6136TIP3    H118372   5.367   5.652   5.375
 6136TIP3    H218373   5.324   5.542   5.280
 6137TIP3   OH218374   6.739   5.543   2.542
 6137TIP3    H118375   6.694   5.459   2.527
 6137TIP3    H218376   6.736   5.555   2.636
 6138TIP3   OH218377   1.664   3.495   2.224
 6138TIP3    H118378   1.688   3.518   2.314
 6138TIP3    H218379   1.672   3.578   2.176
 6139TIP3   OH218380   5.330   3.488   3.571
 6139TIP3    H118381   5.275   3.461   3.497
 6139TIP3    H218382   5.398   3.543   3.532
 6140TIP3   OH218383   3.655   6.258   1.526
 6140TIP3    H118384   3.596   6.194   1.567
 6140TIP3    H218385   3.710   6.289   1.597
 6141TIP3   OH218386   2.271   5.018   4.817
 6141TIP3    H118387   2.364   4.999   4.829
 6141TIP3    H218388   2.268   5.084   4.748
 6142TIP3   OH218389   2.475   5.533   3.408
 6142TIP3    H118390   2.392   5.581   3.412
 6142TIP3    H218391   2.536   5.595   3.369
 6143TIP3   OH218392   2.861   3.559   5.527
 6143TIP3    H118393   2.934   3.520   5.575
 6143TIP3    H218394   2.877   3.536   5.435
 6144TIP3   OH218395   1.616   5.329   0.661
 6144TIP3    H118396   1.672   5.398   0.697
 6144TIP3    H218397   1.608   5.351   0.568
 6145TIP3   OH218398   6.439   2.981   1.281
 6145TIP3    H118399   6.469   3.054   1.226
 6145TIP3    H218400   6.349   3.004   1.304
 6146TIP3   OH218401   6.547   3.327   4.711
 6146TIP3    H118402   6.498   3.380   4.774
 6146TIP3    H218403   6.601   3.391   4.664
 6147TIP3   OH218404   6.488   1.423   5.690
 6147TIP3    H118405   6.462   1.492   5.629
 6147TIP3    H218406   6.412   1.413   5.748
 6148TIP3   OH218407   4.503   4.817   1.003
 6148TIP3    H118408   4.521   4.723   1.013
 6148TIP3    H218409   4.441   4.822   0.931
 6149TIP3   OH218410   0.326   2.560   2.363
 6149TIP3    H118411   0.274   2.498   2.311
 6149TIP3    H218412   0.317   2.643   2.317
 6150TIP3   OH218413   4.195   6.502   2.965
 6150TIP3    H118414   4.145   6.423   2.947
 6150TIP3    H218415   4.130   6.572   2.962
 6151TIP3   OH218416   4.899   2.507   0.556
 6151TIP3    H118417   4.925   2.595   0.582
 6151TIP3    H218418   4.862   2.468   0.636
 6152TIP3   OH218419   0.541   1.914   3.542
 6152TIP3    H118420   0.625   1.883   3.507
 6152TIP3    H218421   0.561   1.936   3.634
 6153TIP3   OH218422   0.746   3.935   1.534
 6153TIP3    H118423   0.667   3.882   1.551
 6153TIP3    H218424   0.758   3.986   1.614
 6154TIP3   OH218425   1.673   3.022   1.370
 6154TIP3    H118426   1.696   3.112   1.395
 6154TIP3    H218427   1.748   2.969   1.398
 6155TIP3   OH218428   3.414   0.075   3.232
 6155TIP3    H118429   3.482   0.110   3.175
 6155TIP3    H218430   3.356   0.150   3.248
 6156TIP3   OH218431   6.399   3.880   3.122
 6156TIP3    H118432   6.390   3.836   3.206
 6156TIP3    H218433   6.431   3.967   3.144
 6157TIP3   OH218434   3.408   4.830   2.546
 6157TIP3    H118435   3.431   4.807   2.456
 6157TIP3    H218436   3.323   4.787   2.560
 6158TIP3   OH218437   5.370   0.115   5.569
 6158TIP3    H118438   5.344   0.208   5.573
 6158TIP3    H218439   5.465   0.117   5.564
 6159TIP3   OH218440   3.467   4.298   5.679
 6159TIP3    H118441   3.481   4.366   5.613
 6159TIP3    H218442   3.376   4.311   5.708
 6160TIP3   OH218443   4.892   3.884   2.263
 6160TIP3    H118444   4.829   3.951   2.237
 6160TIP3    H218445   4.891   3.822   2.190
 6161TIP3   OH218446   3.306   1.188   4.113
 6161TIP3    H118447   3.262   1.267   4.080
 6161TIP3    H218448   3.263   1.170   4.197
 6162TIP3   OH218449   6.060   0.270   5.588
 6162TIP3    H118450   6.050   0.356   5.627
 6162TIP3    H218451   6.155   0.254   5.589
 6163TIP3   OH218452   1.621   1.574   1.314
 6163TIP3    H118453   1.675   1.552   1.238
 6163TIP3    H218454   1.572   1.652   1.286
 6164TIP3   OH218455   6.072   1.359   1.525
 6164TIP3    H118456   6.083   1.349   1.431
 6164TIP3    H218457   6.095   1.450   1.543
 6165TIP3   OH218458   2.484   3.130   5.593
 6165TIP3    H118459   2.423   3.116   5.666
 6165TIP3    H218460   2.480   3.049   5.542
 6166TIP3   OH218461   6.917   1.119   3.838
 6166TIP3    H118462   6.874   1.062   3.774
 6166TIP3    H218463   6.845   1.155   3.889
 6167TIP3   OH218464   3.436   3.410   2.731
 6167TIP3    H118465   3.385   3.468   2.674
 6167TIP3    H218466   3.388   3.410   2.814
 6168TIP3   OH218467   2.569   6.380   5.844
 6168TIP3    H118468   2.490   6.326   5.833
 6168TIP3    H218469   2.587   6.413   5.757
 6169TIP3   OH218470   0.755   2.382   4.496
 6169TIP3    H118471   0.812   2.348   4.426
 6169TIP3    H218472   0.812   2.389   4.572
 6170TIP3   OH218473   5.866   4.512   4.025
 6170TIP3    H118474   5.918   4.565   3.965
 6170TIP3    H218475   5.903   4.529   4.112
 6171TIP3   OH218476   5.309   5.107   1.285
 6171TIP3    H118477   5.259   5.047   1.230
 6171TIP3    H218478   5.399   5.097   1.255
 6172TIP3   OH218479   2.900   6.167   2.122
 6172TIP3    H118480   2.855   6.220   2.188
 6172TIP3    H218481   2.993   6.187   2.135
 6173TIP3   OH218482   3.212   5.142   2.673
 6173TIP3    H118483   3.132   5.164   2.625
 6173TIP3    H218484   3.282   5.148   2.607
 6174TIP3   OH218485   6.296   2.045   4.396
 6174TIP3    H118486   6.287   1.950   4.408
 6174TIP3    H218487   6.212   2.081   4.422
 6175TIP3   OH218488   3.580   1.689   2.525
 6175TIP3    H118489   3.594   1.596   2.541
 6175TIP3    H218490   3.668   1.726   2.523
 6176TIP3   OH218491   3.209   3.632   3.883
 6176TIP3    H118492   3.203   3.591   3.969
 6176TIP3    H218493   3.290   3.682   3.885
 6177TIP3   OH218494   5.578   3.696   1.678
 6177TIP3    H118495   5.536   3.683   1.763
 6177TIP3    H218496   5.630   3.775   1.689
 6178TIP3   OH218497   6.796   2.439   1.385
 6178TIP3    H118498   6.858   2.485   1.442
 6178TIP3    H218499   6.710   2.462   1.419
 6179TIP3   OH218500   6.202   1.392   4.405
 6179TIP3    H118501   6.203   1.383   4.310
 6179TIP3    H218502   6.122   1.348   4.433
 6180TIP3   OH218503   4.627   5.920   4.553
 6180TIP3    H118504   4.572   5.905   4.630
 6180TIP3    H218505   4.646   5.832   4.519
 6181TIP3   OH218506   4.134   6.228   3.485
 6181TIP3    H118507   4.176   6.303   3.527
 6181TIP3    H218508   4.054   6.215   3.535
 6182TIP3   OH218509   4.696   5.438   0.665
 6182TIP3    H118510   4.645   5.519   0.664
 6182TIP3    H218511   4.688   5.407   0.755
 6183TIP3   OH218512   6.538   4.612   0.333
 6183TIP3    H118513   6.494   4.568   0.261
 6183TIP3    H218514   6.514   4.704   0.324
 6184TIP3   OH218515   2.490   4.096   5.100
 6184TIP3    H118516   2.442   4.176   5.079
 6184TIP3    H218517   2.423   4.036   5.134
 6185TIP3   OH218518   3.497   1.075   3.420
 6185TIP3    H118519   3.547   1.034   3.490
 6185TIP3    H218520   3.429   1.125   3.464
 6186TIP3   OH218521   2.988   2.971   4.784
 6186TIP3    H118522   3.079   2.983   4.758
 6186TIP3    H218523   2.942   3.044   4.743
 6187TIP3   OH218524   3.474   2.286   2.216
 6187TIP3    H118525   3.485   2.304   2.122
 6187TIP3    H218526   3.501   2.366   2.259
 6188TIP3   OH218527   2.391   1.447   0.645
 6188TIP3    H118528   2.301   1.420   0.661
 6188TIP3    H218529   2.442   1.403   0.712
 6189TIP3   OH218530   3.565   6.249   4.471
 6189TIP3    H118531   3.473   6.229   4.452
 6189TIP3    H218532   3.578   6.338   4.437
 6190TIP3   OH218533   3.383   6.463   1.705
 6190TIP3    H118534   3.441   6.499   1.637
 6190TIP3    H218535   3.438   6.401   1.753
 6191TIP3   OH218536   2.040   2.753   1.541
 6191TIP3    H118537   2.002   2.725   1.625
 6191TIP3    H218538   1.975   2.812   1.503
 6192TIP3   OH218539   5.836   4.704   1.102
 6192TIP3    H118540   5.783   4.777   1.134
 6192TIP3    H218541   5.866   4.733   1.016
 6193TIP3   OH218542   1.159   3.549   2.149
 6193TIP3    H118543   1.207   3.551   2.232
 6193TIP3    H218544   1.207   3.487   2.095
 6194TIP3   OH218545   5.196   3.549   5.742
 6194TIP3    H118546   5.148   3.631   5.733
 6194TIP3    H218547   5.275   3.560   5.689
 6195TIP3   OH218548   2.195   3.868   3.004
 6195TIP3    H118549   2.119   3.878   2.946
 6195TIP3    H218550   2.207   3.773   3.010
 6196TIP3   OH218551   3.607   6.451   0.654
 6196TIP3    H118552   3.515   6.424   0.651
 6196TIP3    H218553   3.637   6.442   0.563
 6197TIP3   OH218554   1.504   2.768   4.428
 6197TIP3    H118555   1.452   2.729   4.357
 6197TIP3    H218556   1.498   2.862   4.413
 6198TIP3   OH218557   0.317   5.943   3.648
 6198TIP3    H118558   0.305   5.854   3.682
 6198TIP3    H218559   0.319   5.932   3.553
 6199TIP3   OH218560   6.829   4.625   0.645
 6199TIP3    H118561   6.906   4.599   0.594
 6199TIP3    H218562   6.783   4.543   0.662
 6200TIP3   OH218563   6.299   5.916   2.154
 6200TIP3    H118564   6.227   5.976   2.173
 6200TIP3    H218565   6.370   5.946   2.211
 6201TIP3   OH218566   6.328   2.268   2.028
 6201TIP3    H118567   6.399   2.301   1.973
 6201TIP3    H218568   6.372   2.218   2.097
 6202TIP3   OH218569   6.769   5.903   2.689
 6202TIP3    H118570   6.699   5.847   2.724
 6202TIP3    H218571   6.849   5.855   2.706
 6203TIP3   OH218572   4.829   6.509   2.727
 6203TIP3    H118573   4.781   6.589   2.752
 6203TIP3    H218574   4.920   6.529   2.749
 6204TIP3   OH218575   6.134   6.138   0.746
 6204TIP3    H118576   6.130   6.224   0.786
 6204TIP3    H218577   6.061   6.137   0.683
 6205TIP3   OH218578   3.297   5.850   4.468
 6205TIP3    H118579   3.250   5.784   4.519
 6205TIP3    H218580   3.321   5.805   4.387
 6206TIP3   OH218581   6.237   4.460   3.037
 6206TIP3    H118582   6.156   4.413   3.057
 6206TIP3    H218583   6.286   4.458   3.119
 6207TIP3   OH218584   4.867   5.641   3.508
 6207TIP3    H118585   4.829   5.620   3.594
 6207TIP3    H218586   4.956   5.608   3.513
 6208TIP3   OH218587   4.692   1.387   1.090
 6208TIP3    H118588   4.669   1.316   1.149
 6208TIP3    H218589   4.761   1.351   1.035
 6209TIP3   OH218590   1.359   3.628   1.811
 6209TIP3    H118591   1.366   3.562   1.880
 6209TIP3    H218592   1.302   3.588   1.746
 6210TIP3   OH218593   2.335   4.768   1.661
 6210TIP3    H118594   2.361   4.682   1.693
 6210TIP3    H218595   2.351   4.827   1.735
 6211TIP3   OH218596   6.011   0.705   1.568
 6211TIP3    H118597   6.072   0.735   1.635
 6211TIP3    H218598   6.044   0.744   1.487
 6212TIP3   OH218599   5.703   2.596   4.645
 6212TIP3    H118600   5.767   2.584   4.574
 6212TIP3    H218601   5.622   2.561   4.610
 6213TIP3   OH218602   4.511   2.331   4.817
 6213TIP3    H118603   4.509   2.394   4.889
 6213TIP3    H218604   4.544   2.250   4.857
 6214TIP3   OH218605   0.432   4.972   3.187
 6214TIP3    H118606   0.367   4.913   3.225
 6214TIP3    H218607   0.398   5.060   3.205
 6215TIP3   OH218608   6.731   3.147   2.408
 6215TIP3    H118609   6.657   3.146   2.469
 6215TIP3    H218610   6.806   3.117   2.460
 6216TIP3   OH218611   4.656   4.755   5.302
 6216TIP3    H118612   4.661   4.843   5.264
 6216TIP3    H218613   4.593   4.764   5.373
 6217TIP3   OH218614   1.752   4.756   2.283
 6217TIP3    H118615   1.840   4.793   2.270
 6217TIP3    H218616   1.758   4.668   2.245
 6218TIP3   OH218617   2.494   2.508   1.504
 6218TIP3    H118618   2.464   2.597   1.486
 6218TIP3    H218619   2.538   2.481   1.424
 6219TIP3   OH218620   5.289   0.972   1.612
 6219TIP3    H118621   5.256   1.049   1.657
 6219TIP3    H218622   5.282   0.902   1.678
 6220TIP3   OH218623   0.985   5.257   1.021
 6220TIP3    H118624   0.983   5.170   1.061
 6220TIP3    H218625   0.905   5.261   0.968
 6221TIP3   OH218626   2.264   4.665   0.649
 6221TIP3    H118627   2.183   4.634   0.689
 6221TIP3    H218628   2.250   4.654   0.555
 6222TIP3   OH218629   4.607   3.134   4.488
 6222TIP3    H118630   4.536   3.167   4.434
 6222TIP3    H218631   4.667   3.092   4.425
 6223TIP3   OH218632   2.691   5.961   0.335
 6223TIP3    H118633   2.662   5.878   0.374
 6223TIP3    H218634   2.771   5.937   0.288
 6224TIP3   OH218635   5.063   3.979   0.097
 6224TIP3    H118636   5.000   3.909   0.081
 6224TIP3    H218637   5.010   4.052   0.131
 6225TIP3   OH218638   0.893   6.311   4.328
 6225TIP3    H118639   0.916   6.337   4.417
 6225TIP3    H218640   0.963   6.348   4.273
 6226TIP3   OH218641   2.308   0.006   2.148
 6226TIP3    H118642   2.296  -0.083   2.181
 6226TIP3    H218643   2.245   0.013   2.076
 6227TIP3   OH218644   1.805   1.059   3.976
 6227TIP3    H118645   1.843   1.053   3.889
 6227TIP3    H218646   1.805   1.153   3.996
 6228TIP3   OH218647   4.123   6.571   5.781
 6228TIP3    H118648   4.154   6.639   5.721
 6228TIP3    H218649   4.153   6.489   5.742
 6229TIP3   OH218650   0.403   0.508   0.688
 6229TIP3    H118651   0.331   0.572   0.695
 6229TIP3    H218652   0.480   0.561   0.667
 6230TIP3   OH218653   5.215   1.660   4.819
 6230TIP3    H118654   5.178   1.608   4.891
 6230TIP3    H218655   5.310   1.651   4.830
 6231TIP3   OH218656   7.223   3.727   4.670
 6231TIP3    H118657   7.200   3.681   4.588
 6231TIP3    H218658   7.292   3.673   4.709
 6232TIP3   OH218659   0.582   2.675   0.567
 6232TIP3    H118660   0.597   2.592   0.522
 6232TIP3    H218661   0.592   2.741   0.499
 6233TIP3   OH218662   1.892   3.710   4.153
 6233TIP3    H118663   1.970   3.763   4.141
 6233TIP3    H218664   1.882   3.703   4.248
 6234TIP3   OH218665   6.267   3.509   2.390
 6234TIP3    H118666   6.198   3.480   2.330
 6234TIP3    H218667   6.224   3.509   2.476
 6235TIP3   OH218668   4.557   5.665   2.170
 6235TIP3    H118669   4.563   5.602   2.099
 6235TIP3    H218670   4.490   5.630   2.229
 6236TIP3   OH218671   4.150   4.483   0.321
 6236TIP3    H118672   4.102   4.416   0.272
 6236TIP3    H218673   4.142   4.457   0.412
 6237TIP3   OH218674   4.842   2.328   2.553
 6237TIP3    H118675   4.828   2.411   2.598
 6237TIP3    H218676   4.813   2.344   2.464
 6238TIP3   OH218677   2.921   4.093   1.450
 6238TIP3    H118678   2.971   4.045   1.516
 6238TIP3    H218679   2.830   4.066   1.466
 6239TIP3   OH218680   6.686   1.710   1.065
 6239TIP3    H118681   6.641   1.664   0.995
 6239TIP3    H218682   6.634   1.790   1.078
 6240TIP3   OH218683   7.220   0.769   0.846
 6240TIP3    H118684   7.292   0.822   0.812
 6240TIP3    H218685   7.229   0.684   0.803
 6241TIP3   OH218686   3.507   5.882   2.899
 6241TIP3    H118687   3.455   5.811   2.935
 6241TIP3    H218688   3.549   5.923   2.975
 6242TIP3   OH218689   4.748   0.876   2.639
 6242TIP3    H118690   4.673   0.829   2.674
 6242TIP3    H218691   4.816   0.867   2.706
 6243TIP3   OH218692   6.825   4.410   0.410
 6243TIP3    H118693   6.810   4.354   0.485
 6243TIP3    H218694   6.905   4.458   0.430
 6244TIP3   OH218695   5.643   5.830   0.485
 6244TIP3    H118696   5.730   5.862   0.463
 6244TIP3    H218697   5.619   5.773   0.412
 6245TIP3   OH218698   5.242   6.203   2.806
 6245TIP3    H118699   5.324   6.248   2.787
 6245TIP3    H218700   5.198   6.195   2.722
 6246TIP3   OH218701   5.913   4.391   3.559
 6246TIP3    H118702   5.963   4.331   3.616
 6246TIP3    H218703   5.824   4.389   3.594
 6247TIP3   OH218704   3.387   0.342   3.558
 6247TIP3    H118705   3.359   0.275   3.620
 6247TIP3    H218706   3.481   0.329   3.549
 6248TIP3   OH218707   0.563   1.240   4.264
 6248TIP3    H118708   0.603   1.236   4.178
 6248TIP3    H218709   0.554   1.333   4.283
 6249TIP3   OH218710   1.541   0.794   2.543
 6249TIP3    H118711   1.469   0.743   2.505
 6249TIP3    H218712   1.614   0.733   2.547
 6250TIP3   OH218713   5.980   5.348   1.843
 6250TIP3    H118714   5.909   5.366   1.781
 6250TIP3    H218715   6.043   5.296   1.793
 6251TIP3   OH218716   4.260   6.484   4.085
 6251TIP3    H118717   4.174   6.505   4.049
 6251TIP3    H218718   4.268   6.389   4.073
 6252TIP3   OH218719   6.895   3.415   1.027
 6252TIP3    H118720   6.942   3.373   1.099
 6252TIP3    H218721   6.958   3.476   0.989
 6253TIP3   OH218722   3.809   6.418   1.716
 6253TIP3    H118723   3.778   6.478   1.785
 6253TIP3    H218724   3.844   6.476   1.649
 6254TIP3   OH218725   2.740   1.565   1.192
 6254TIP3    H118726   2.814   1.616   1.226
 6254TIP3    H218727   2.771   1.475   1.193
 6255TIP3   OH218728   7.115   3.387   2.497
 6255TIP3    H118729   7.196   3.339   2.478
 6255TIP3    H218730   7.111   3.391   2.593
 6256TIP3   OH218731   4.761   3.332   4.839
 6256TIP3    H118732   4.806   3.257   4.879
 6256TIP3    H218733   4.668   3.315   4.854
 6257TIP3   OH218734   2.000   5.349   2.971
 6257TIP3    H118735   2.054   5.280   2.933
 6257TIP3    H218736   2.059   5.394   3.033
 6258TIP3   OH218737   3.458   2.300   1.927
 6258TIP3    H118738   3.418   2.378   1.890
 6258TIP3    H218739   3.460   2.237   1.854
 6259TIP3   OH218740   6.231   0.998   4.191
 6259TIP3    H118741   6.322   0.968   4.186
 6259TIP3    H218742   6.230   1.079   4.141
 6260TIP3   OH218743   0.648   2.140   4.594
 6260TIP3    H118744   0.701   2.215   4.568
 6260TIP3    H218745   0.680   2.068   4.540
 6261TIP3   OH218746   1.316   3.851   2.877
 6261TIP3    H118747   1.318   3.854   2.782
 6261TIP3    H218748   1.386   3.790   2.901
 6262TIP3   OH218749   6.792   3.664   0.499
 6262TIP3    H118750   6.740   3.619   0.565
 6262TIP3    H218751   6.870   3.694   0.547
 6263TIP3   OH218752   4.174   6.222   4.079
 6263TIP3    H118753   4.227   6.176   4.143
 6263TIP3    H218754   4.205   6.190   3.994
 6264TIP3   OH218755   3.527   4.968   2.277
 6264TIP3    H118756   3.470   4.894   2.254
 6264TIP3    H218757   3.615   4.936   2.262
 6265TIP3   OH218758   3.503   5.992   1.645
 6265TIP3    H118759   3.595   5.967   1.651
 6265TIP3    H218760   3.476   6.005   1.736
 6266TIP3   OH218761   1.170   5.807   4.117
 6266TIP3    H118762   1.185   5.844   4.030
 6266TIP3    H218763   1.105   5.865   4.157
 6267TIP3   OH218764   5.897   0.688   1.103
 6267TIP3    H118765   5.960   0.664   1.171
 6267TIP3    H218766   5.816   0.645   1.130
 6268TIP3   OH218767   2.307   0.113   3.999
 6268TIP3    H118768   2.262   0.031   3.978
 6268TIP3    H218769   2.237   0.174   4.023
 6269TIP3   OH218770   6.442   0.130   5.854
 6269TIP3    H118771   6.473   0.140   5.945
 6269TIP3    H218772   6.503   0.068   5.815
 6270TIP3   OH218773   3.931   4.804   5.904
 6270TIP3    H118774   3.841   4.790   5.933
 6270TIP3    H218775   3.974   4.719   5.919
 6271TIP3   OH218776   6.450   0.920   4.918
 6271TIP3    H118777   6.539   0.886   4.928
 6271TIP3    H218778   6.429   0.959   5.003
 6272TIP3   OH218779   1.931   5.654   1.448
 6272TIP3    H118780   1.961   5.742   1.427
 6272TIP3    H218781   1.848   5.667   1.494
 6273TIP3   OH218782   4.847   0.200   0.344
 6273TIP3    H118783   4.932   0.155   0.344
 6273TIP3    H218784   4.869   0.292   0.354
 6274TIP3   OH218785   2.216   3.750   4.807
 6274TIP3    H118786   2.254   3.828   4.768
 6274TIP3    H218787   2.136   3.780   4.849
 6275TIP3   OH218788   5.261   4.185   0.165
 6275TIP3    H118789   5.229   4.217   0.249
 6275TIP3    H218790   5.210   4.106   0.148
 6276TIP3   OH218791   1.981   1.713   2.490
 6276TIP3    H118792   2.057   1.660   2.513
 6276TIP3    H218793   1.906   1.666   2.527
 6277TIP3   OH218794   0.849   2.777   1.172
 6277TIP3    H118795   0.773   2.720   1.184
 6277TIP3    H218796   0.813   2.854   1.128
 6278TIP3   OH218797   2.693   3.244   4.686
 6278TIP3    H118798   2.694   3.302   4.762
 6278TIP3    H218799   2.769   3.186   4.699
 6279TIP3   OH218800   4.241   5.171   2.203
 6279TIP3    H118801   4.177   5.135   2.264
 6279TIP3    H218802   4.201   5.252   2.170
 6280TIP3   OH218803   2.872   1.056   4.919
 6280TIP3    H118804   2.892   1.001   4.843
 6280TIP3    H218805   2.777   1.064   4.918
 6281TIP3   OH218806   3.345   3.823   1.513
 6281TIP3    H118807   3.281   3.868   1.567
 6281TIP3    H218808   3.355   3.737   1.554
 6282TIP3   OH218809   2.862   2.348   3.675
 6282TIP3    H118810   2.906   2.432   3.687
 6282TIP3    H218811   2.788   2.367   3.618
 6283TIP3   OH218812   1.880   5.690   2.525
 6283TIP3    H118813   1.975   5.687   2.519
 6283TIP3    H218814   1.860   5.773   2.567
 6284TIP3   OH218815   2.287   5.608   0.002
 6284TIP3    H118816   2.311   5.550  -0.070
 6284TIP3    H218817   2.230   5.555   0.057
 6285TIP3   OH218818   3.554   0.060   0.838
 6285TIP3    H118819   3.575   0.002   0.911
 6285TIP3    H218820   3.638   0.094   0.809
 6286TIP3   OH218821   6.455   1.075   1.361
 6286TIP3    H118822   6.539   1.107   1.328
 6286TIP3    H218823   6.472   1.055   1.453
 6287TIP3   OH218824   0.513   5.597   5.816
 6287TIP3    H118825   0.597   5.588   5.860
 6287TIP3    H218826   0.493   5.690   5.821
 6288TIP3   OH218827   0.479   1.331   1.834
 6288TIP3    H118828   0.526   1.385   1.898
 6288TIP3    H218829   0.423   1.274   1.886
 6289TIP3   OH218830   0.495   6.693   1.255
 6289TIP3    H118831   0.475   6.604   1.227
 6289TIP3    H218832   0.544   6.730   1.181
 6290TIP3   OH218833   1.802   6.670   5.821
 6290TIP3    H118834   1.839   6.593   5.777
 6290TIP3    H218835   1.841   6.668   5.909
 6291TIP3   OH218836   4.454   6.124   1.194
 6291TIP3    H118837   4.443   6.179   1.272
 6291TIP3    H218838   4.418   6.177   1.123
 6292TIP3   OH218839   4.094   2.533   0.013
 6292TIP3    H118840   4.029   2.561   0.077
 6292TIP3    H218841   4.112   2.611  -0.039
 6293TIP3   OH218842   3.965   4.487   4.212
 6293TIP3    H118843   3.962   4.505   4.306
 6293TIP3    H218844   3.920   4.403   4.201
 6294TIP3   OH218845   1.808   0.270   1.379
 6294TIP3    H118846   1.716   0.278   1.402
 6294TIP3    H218847   1.852   0.337   1.431
 6295TIP3   OH218848   4.483   2.657   1.097
 6295TIP3    H118849   4.494   2.749   1.075
 6295TIP3    H218850   4.542   2.642   1.170
 6296TIP3   OH218851   1.583   6.146   0.052
 6296TIP3    H118852   1.672   6.122   0.076
 6296TIP3    H218853   1.542   6.063   0.028
 6297TIP3   OH218854   4.312   0.524   3.531
 6297TIP3    H118855   4.391   0.534   3.583
 6297TIP3    H218856   4.331   0.571   3.450
 6298TIP3   OH218857   7.051   4.224   3.952
 6298TIP3    H118858   7.066   4.211   4.046
 6298TIP3    H218859   7.138   4.223   3.913
 6299TIP3   OH218860   2.148   3.351   1.376
 6299TIP3    H118861   2.181   3.279   1.430
 6299TIP3    H218862   2.097   3.308   1.307
 6300TIP3   OH218863   5.638   3.644   4.737
 6300TIP3    H118864   5.588   3.630   4.657
 6300TIP3    H218865   5.613   3.731   4.766
 6301TIP3   OH218866   0.902   4.161   0.813
 6301TIP3    H118867   0.985   4.129   0.779
 6301TIP3    H218868   0.925   4.241   0.861
 6302TIP3   OH218869   2.015   5.555   1.218
 6302TIP3    H118870   1.983   5.559   1.308
 6302TIP3    H218871   2.101   5.514   1.225
 6303TIP3   OH218872   3.543   1.558   2.792
 6303TIP3    H118873   3.526   1.525   2.880
 6303TIP3    H218874   3.469   1.616   2.773
 6304TIP3   OH218875   1.862   3.607   0.705
 6304TIP3    H118876   1.877   3.522   0.747
 6304TIP3    H218877   1.915   3.668   0.756
 6305TIP3   OH218878   6.244   4.119   0.842
 6305TIP3    H118879   6.224   4.028   0.821
 6305TIP3    H218880   6.334   4.117   0.874
 6306TIP3   OH218881   4.119   0.302   0.612
 6306TIP3    H118882   4.042   0.356   0.593
 6306TIP3    H218883   4.171   0.355   0.672
 6307TIP3   OH218884   1.606   5.956   4.978
 6307TIP3    H118885   1.656   6.035   4.958
 6307TIP3    H218886   1.646   5.922   5.059
 6308TIP3   OH218887   3.099   3.439   2.762
 6308TIP3    H118888   3.018   3.490   2.757
 6308TIP3    H218889   3.129   3.433   2.671
 6309TIP3   OH218890   6.799   5.157   2.051
 6309TIP3    H118891   6.741   5.172   1.976
 6309TIP3    H218892   6.769   5.219   2.117
 6310TIP3   OH218893   0.366   0.059   0.374
 6310TIP3    H118894   0.457   0.037   0.393
 6310TIP3    H218895   0.370   0.143   0.328
 6311TIP3   OH218896   4.759   4.828   2.881
 6311TIP3    H118897   4.679   4.817   2.828
 6311TIP3    H218898   4.805   4.901   2.840
 6312TIP3   OH218899   5.537   3.667   3.493
 6312TIP3    H118900   5.509   3.757   3.480
 6312TIP3    H218901   5.598   3.671   3.566
 6313TIP3   OH218902   1.891   3.046   0.245
 6313TIP3    H118903   1.979   3.024   0.214
 6313TIP3    H218904   1.870   2.976   0.307
 6314TIP3   OH218905   3.175   5.687   5.572
 6314TIP3    H118906   3.183   5.738   5.491
 6314TIP3    H218907   3.088   5.708   5.605
 6315TIP3   OH218908   0.368   4.860   0.057
 6315TIP3    H118909   0.450   4.842   0.011
 6315TIP3    H218910   0.300   4.836  -0.005
 6316TIP3   OH218911   6.177   4.749   4.726
 6316TIP3    H118912   6.136   4.836   4.724
 6316TIP3    H218913   6.249   4.758   4.788
 6317TIP3   OH218914   2.345   3.380   2.463
 6317TIP3    H118915   2.431   3.338   2.460
 6317TIP3    H218916   2.311   3.371   2.374
 6318TIP3   OH218917   3.477   5.556   2.628
 6318TIP3    H118918   3.527   5.631   2.660
 6318TIP3    H218919   3.463   5.501   2.705
 6319TIP3   OH218920   0.661   6.459   4.495
 6319TIP3    H118921   0.733   6.446   4.432
 6319TIP3    H218922   0.653   6.554   4.502
 6320TIP3   OH218923   4.331   3.917   0.985
 6320TIP3    H118924   4.254   3.961   0.948
 6320TIP3    H218925   4.399   3.928   0.918
 6321TIP3   OH218926   4.506   5.179   0.991
 6321TIP3    H118927   4.488   5.130   0.911
 6321TIP3    H218928   4.461   5.129   1.059
 6322TIP3   OH218929   1.870   1.089   3.374
 6322TIP3    H118930   1.943   1.041   3.335
 6322TIP3    H218931   1.803   1.022   3.388
 6323TIP3   OH218932   0.319   0.681   1.052
 6323TIP3    H118933   0.271   0.618   0.997
 6323TIP3    H218934   0.251   0.731   1.096
 6324TIP3   OH218935   4.243   3.304   3.480
 6324TIP3    H118936   4.164   3.270   3.438
 6324TIP3    H218937   4.223   3.306   3.573
 6325TIP3   OH218938   4.550   2.904   0.068
 6325TIP3    H118939   4.519   2.813   0.073
 6325TIP3    H218940   4.579   2.924   0.157
 6326TIP3   OH218941   0.542   3.036   5.327
 6326TIP3    H118942   0.491   3.108   5.290
 6326TIP3    H218943   0.562   2.979   5.252
 6327TIP3   OH218944   6.741   3.452   1.891
 6327TIP3    H118945   6.688   3.514   1.841
 6327TIP3    H218946   6.814   3.503   1.924
 6328TIP3   OH218947   0.183   3.836   0.041
 6328TIP3    H118948   0.278   3.839   0.056
 6328TIP3    H218949   0.146   3.826   0.129
 6329TIP3   OH218950   4.292   4.700   0.550
 6329TIP3    H118951   4.345   4.767   0.508
 6329TIP3    H218952   4.261   4.741   0.631
 6330TIP3   OH218953   2.834   2.509   2.372
 6330TIP3    H118954   2.903   2.450   2.403
 6330TIP3    H218955   2.881   2.585   2.338
 6331TIP3   OH218956   2.634   1.716   1.797
 6331TIP3    H118957   2.693   1.694   1.869
 6331TIP3    H218958   2.689   1.718   1.720
 6332TIP3   OH218959   5.155   4.045   5.620
 6332TIP3    H118960   5.160   4.136   5.591
 6332TIP3    H218961   5.099   4.002   5.555
 6333TIP3   OH218962   1.004   5.506   1.177
 6333TIP3    H118963   0.986   5.421   1.217
 6333TIP3    H218964   1.082   5.491   1.124
 6334TIP3   OH218965   1.147   3.724   1.217
 6334TIP3    H118966   1.236   3.730   1.251
 6334TIP3    H218967   1.129   3.811   1.181
 6335TIP3   OH218968   0.069   0.545   1.268
 6335TIP3    H118969   0.139   0.482   1.286
 6335TIP3    H218970   0.008   0.497   1.212
 6336TIP3   OH218971   3.830   2.754   4.936
 6336TIP3    H118972   3.861   2.762   4.846
 6336TIP3    H218973   3.782   2.671   4.938
 6337TIP3   OH218974   1.039   4.251   5.699
 6337TIP3    H118975   0.990   4.334   5.697
 6337TIP3    H218976   0.977   4.186   5.667
 6338TIP3   OH218977   4.186   4.878   1.026
 6338TIP3    H118978   4.164   4.959   0.980
 6338TIP3    H218979   4.191   4.812   0.957
 6339TIP3   OH218980   5.831   2.637   2.076
 6339TIP3    H118981   5.784   2.702   2.127
 6339TIP3    H218982   5.764   2.572   2.052
 6340TIP3   OH218983   6.804   4.528   4.087
 6340TIP3    H118984   6.835   4.517   3.997
 6340TIP3    H218985   6.873   4.488   4.141
 6341TIP3   OH218986   5.499   5.575   0.791
 6341TIP3    H118987   5.559   5.639   0.753
 6341TIP3    H218988   5.413   5.600   0.758
 6342TIP3   OH218989   4.046   4.343   2.836
 6342TIP3    H118990   4.079   4.263   2.795
 6342TIP3    H218991   4.031   4.319   2.927
 6343TIP3   OH218992   2.961   1.177   1.548
 6343TIP3    H118993   2.940   1.092   1.587
 6343TIP3    H218994   2.934   1.170   1.457
 6344TIP3   OH218995   3.877   1.217   3.284
 6344TIP3    H118996   3.840   1.272   3.354
 6344TIP3    H218997   3.968   1.245   3.277
 6345TIP3   OH218998   1.860   5.265   1.326
 6345TIP3    H118999   1.870   5.183   1.278
 6345TIP3    H219000   1.813   5.322   1.266
 6346TIP3   OH219001   1.232   1.453   3.348
 6346TIP3    H119002   1.238   1.393   3.275
 6346TIP3    H219003   1.145   1.438   3.385
 6347TIP3   OH219004   1.648   2.853   5.144
 6347TIP3    H119005   1.618   2.801   5.070
 6347TIP3    H219006   1.651   2.943   5.111
 6348TIP3   OH219007   2.869   3.843   5.209
 6348TIP3    H119008   2.823   3.787   5.147
 6348TIP3    H219009   2.920   3.782   5.263
 6349TIP3   OH219010   0.843   1.272   1.515
 6349TIP3    H119011   0.874   1.329   1.586
 6349TIP3    H219012   0.896   1.297   1.439
 6350TIP3   OH219013   4.804   3.414   3.842
 6350TIP3    H119014   4.890   3.454   3.823
 6350TIP3    H219015   4.753   3.485   3.880
 6351TIP3   OH219016   0.726   4.179   2.774
 6351TIP3    H119017   0.785   4.208   2.843
 6351TIP3    H219018   0.784   4.145   2.706
 6352TIP3   OH219019   1.668   3.599   3.494
 6352TIP3    H119020   1.749   3.639   3.462
 6352TIP3    H219021   1.611   3.596   3.417
 6353TIP3   OH219022   2.399   6.340   0.362
 6353TIP3    H119023   2.314   6.335   0.317
 6353TIP3    H219024   2.439   6.420   0.328
 6354TIP3   OH219025   6.102   5.271   0.595
 6354TIP3    H119026   6.168   5.212   0.631
 6354TIP3    H219027   6.057   5.218   0.529
 6355TIP3   OH219028   3.496   5.598   1.536
 6355TIP3    H119029   3.476   5.670   1.477
 6355TIP3    H219030   3.512   5.640   1.621
 6356TIP3   OH219031   4.470   0.976   2.294
 6356TIP3    H119032   4.407   0.936   2.234
 6356TIP3    H219033   4.429   0.967   2.380
 6357TIP3   OH219034   3.504   2.282   5.413
 6357TIP3    H119035   3.496   2.224   5.337
 6357TIP3    H219036   3.515   2.223   5.488
 6358TIP3   OH219037   3.551   5.094   0.301
 6358TIP3    H119038   3.484   5.138   0.249
 6358TIP3    H219039   3.567   5.012   0.255
 6359TIP3   OH219040   4.412   4.764   2.730
 6359TIP3    H119041   4.357   4.688   2.750
 6359TIP3    H219042   4.412   4.769   2.635
 6360TIP3   OH219043   5.310   2.094   3.196
 6360TIP3    H119044   5.382   2.101   3.259
 6360TIP3    H219045   5.351   2.060   3.116
 6361TIP3   OH219046   5.758   1.789   5.587
 6361TIP3    H119047   5.670   1.752   5.598
 6361TIP3    H219048   5.798   1.781   5.674
 6362TIP3   OH219049   0.344   2.191   2.967
 6362TIP3    H119050   0.388   2.108   2.987
 6362TIP3    H219051   0.411   2.257   2.982
 6363TIP3   OH219052   3.024   3.343   5.843
 6363TIP3    H119053   3.078   3.417   5.873
 6363TIP3    H219054   3.057   3.323   5.755
 6364TIP3   OH219055   7.022   0.876   2.997
 6364TIP3    H119056   6.980   0.952   3.036
 6364TIP3    H219057   7.067   0.910   2.920
 6365TIP3   OH219058   1.738   2.268   5.793
 6365TIP3    H119059   1.733   2.259   5.698
 6365TIP3    H219060   1.819   2.316   5.808
 6366TIP3   OH219061   5.729   6.143   2.723
 6366TIP3    H119062   5.823   6.155   2.708
 6366TIP3    H219063   5.696   6.106   2.641
 6367TIP3   OH219064   4.578   5.260   1.736
 6367TIP3    H119065   4.505   5.240   1.795
 6367TIP3    H219066   4.553   5.342   1.694
 6368TIP3   OH219067   1.780   4.573   2.645
 6368TIP3    H119068   1.778   4.596   2.738
 6368TIP3    H219069   1.694   4.532   2.629
 6369TIP3   OH219070   3.298   1.036   4.783
 6369TIP3    H119071   3.373   0.986   4.752
 6369TIP3    H219072   3.267   0.988   4.860
 6370TIP3   OH219073   5.596   0.091   3.574
 6370TIP3    H119074   5.668   0.029   3.585
 6370TIP3    H219075   5.617   0.163   3.634
 6371TIP3   OH219076   3.562   5.947   5.008
 6371TIP3    H119077   3.581   5.987   5.092
 6371TIP3    H219078   3.535   5.857   5.030
 6372TIP3   OH219079   1.024   3.719   5.512
 6372TIP3    H119080   0.985   3.722   5.600
 6372TIP3    H219081   0.950   3.699   5.454
 6373TIP3   OH219082   6.236   6.241   3.166
 6373TIP3    H119083   6.222   6.220   3.258
 6373TIP3    H219084   6.169   6.307   3.146
 6374TIP3   OH219085   1.676   6.757   4.467
 6374TIP3    H119086   1.614   6.737   4.537
 6374TIP3    H219087   1.623   6.797   4.399
 6375TIP3   OH219088   6.793   5.565   2.230
 6375TIP3    H119089   6.760   5.522   2.150
 6375TIP3    H219090   6.837   5.644   2.198
 6376TIP3   OH219091   4.017   2.104   3.949
 6376TIP3    H119092   4.093   2.082   4.004
 6376TIP3    H219093   3.979   2.181   3.991
 6377TIP3   OH219094   3.646   3.028   3.390
 6377TIP3    H119095   3.650   2.933   3.401
 6377TIP3    H219096   3.701   3.045   3.313
 6378TIP3   OH219097   5.249   0.893   2.798
 6378TIP3    H119098   5.288   0.980   2.800
 6378TIP3    H219099   5.321   0.835   2.771
 6379TIP3   OH219100   4.244   3.650   4.415
 6379TIP3    H119101   4.207   3.602   4.341
 6379TIP3    H219102   4.213   3.740   4.404
 6380TIP3   OH219103   5.010   6.198   1.813
 6380TIP3    H119104   4.940   6.149   1.771
 6380TIP3    H219105   4.966   6.252   1.879
 6381TIP3   OH219106   1.241   1.981   1.924
 6381TIP3    H119107   1.187   2.051   1.960
 6381TIP3    H219108   1.211   1.971   1.833
 6382TIP3   OH219109   1.524   3.399   0.275
 6382TIP3    H119110   1.596   3.432   0.329
 6382TIP3    H219111   1.557   3.316   0.240
 6383TIP3   OH219112   2.128   3.704   1.811
 6383TIP3    H119113   2.172   3.685   1.894
 6383TIP3    H219114   2.105   3.618   1.776
 6384TIP3   OH219115   0.993   3.244   5.595
 6384TIP3    H119116   0.918   3.304   5.599
 6384TIP3    H219117   0.982   3.187   5.672
 6385TIP3   OH219118   2.477   2.147   4.338
 6385TIP3    H119119   2.410   2.137   4.270
 6385TIP3    H219120   2.560   2.127   4.294
 6386TIP3   OH219121   5.555   2.782   5.273
 6386TIP3    H119122   5.502   2.746   5.202
 6386TIP3    H219123   5.561   2.711   5.336
 6387TIP3   OH219124   1.823   6.330   1.359
 6387TIP3    H119125   1.915   6.308   1.370
 6387TIP3    H219126   1.823   6.418   1.321
 6388TIP3   OH219127   2.808   2.447   5.386
 6388TIP3    H119128   2.791   2.385   5.315
 6388TIP3    H219129   2.779   2.402   5.465
 6389TIP3   OH219130   3.337   6.312   0.184
 6389TIP3    H119131   3.432   6.309   0.192
 6389TIP3    H219132   3.311   6.222   0.166
 6390TIP3   OH219133   1.282   6.315   5.886
 6390TIP3    H119134   1.186   6.316   5.887
 6390TIP3    H219135   1.306   6.404   5.859
 6391TIP3   OH219136   0.329   3.108   4.959
 6391TIP3    H119137   0.344   3.013   4.965
 6391TIP3    H219138   0.361   3.142   5.043
 6392TIP3   OH219139   1.863   2.805   3.500
 6392TIP3    H119140   1.954   2.828   3.517
 6392TIP3    H219141   1.847   2.836   3.411
 6393TIP3   OH219142   1.418   0.333   2.094
 6393TIP3    H119143   1.490   0.294   2.144
 6393TIP3    H219144   1.460   0.365   2.014
 6394TIP3   OH219145   5.733   3.756   0.028
 6394TIP3    H119146   5.792   3.719  -0.038
 6394TIP3    H219147   5.774   3.734   0.112
 6395TIP3   OH219148   5.360   6.371   5.756
 6395TIP3    H119149   5.372   6.348   5.664
 6395TIP3    H219150   5.356   6.467   5.756
 6396TIP3   OH219151   1.161   2.389   5.091
 6396TIP3    H119152   1.228   2.362   5.027
 6396TIP3    H219153   1.200   2.464   5.136
 6397TIP3   OH219154   1.562   2.312   3.985
 6397TIP3    H119155   1.519   2.335   3.903
 6397TIP3    H219156   1.558   2.393   4.037
 6398TIP3   OH219157   5.216   4.248   0.426
 6398TIP3    H119158   5.265   4.194   0.488
 6398TIP3    H219159   5.245   4.338   0.443
 6399TIP3   OH219160   6.001   5.113   0.404
 6399TIP3    H119161   6.029   5.037   0.455
 6399TIP3    H219162   6.040   5.100   0.318
 6400TIP3   OH219163   0.640   2.610   2.083
 6400TIP3    H119164   0.608   2.700   2.079
 6400TIP3    H219165   0.561   2.556   2.079
 6401TIP3   OH219166   3.758   5.372   3.788
 6401TIP3    H119167   3.797   5.437   3.847
 6401TIP3    H219168   3.676   5.347   3.830
 6402TIP3   OH219169   2.448   0.148   1.002
 6402TIP3    H119170   2.515   0.137   0.935
 6402TIP3    H219171   2.495   0.141   1.085
 6403TIP3   OH219172   6.966   5.374   3.348
 6403TIP3    H119173   6.914   5.390   3.269
 6403TIP3    H219174   6.902   5.369   3.419
 6404TIP3   OH219175   3.444   5.285   5.774
 6404TIP3    H119176   3.533   5.266   5.743
 6404TIP3    H219177   3.414   5.358   5.720
 6405TIP3   OH219178   0.727   3.016   0.556
 6405TIP3    H119179   0.817   2.985   0.555
 6405TIP3    H219180   0.687   2.975   0.479
 6406TIP3   OH219181   1.201   2.343   1.226
 6406TIP3    H119182   1.154   2.362   1.145
 6406TIP3    H219183   1.154   2.268   1.263
 6407TIP3   OH219184   0.798   3.598   2.504
 6407TIP3    H119185   0.793   3.519   2.451
 6407TIP3    H219186   0.881   3.638   2.480
 6408TIP3   OH219187   6.176   3.724   1.004
 6408TIP3    H119188   6.198   3.807   1.047
 6408TIP3    H219189   6.249   3.666   1.024
 6409TIP3   OH219190   0.095   6.197   0.337
 6409TIP3    H119191   0.150   6.120   0.329
 6409TIP3    H219192   0.006   6.163   0.339
 6410TIP3   OH219193   6.898   3.652   2.539
 6410TIP3    H119194   6.818   3.671   2.489
 6410TIP3    H219195   6.967   3.646   2.473
 6411TIP3   OH219196   6.922   0.059   5.253
 6411TIP3    H119197   6.897  -0.018   5.305
 6411TIP3    H219198   6.976   0.111   5.313
 6412TIP3   OH219199   1.887   0.715   5.837
 6412TIP3    H119200   1.935   0.634   5.822
 6412TIP3    H219201   1.877   0.720   5.932
 6413TIP3   OH219202   0.189   0.956   3.618
 6413TIP3    H119203   0.141   1.003   3.551
 6413TIP3    H219204   0.266   0.921   3.573
 6414TIP3   OH219205   6.247   6.264   0.504
 6414TIP3    H119206   6.217   6.355   0.508
 6414TIP3    H219207   6.277   6.244   0.593
 6415TIP3   OH219208   5.882   1.665   3.354
 6415TIP3    H119209   5.854   1.719   3.280
 6415TIP3    H219210   5.869   1.721   3.431
 6416TIP3   OH219211   6.112   2.688   1.750
 6416TIP3    H119212   6.120   2.602   1.793
 6416TIP3    H219213   6.179   2.687   1.682
 6417TIP3   OH219214   3.288   6.371   3.786
 6417TIP3    H119215   3.263   6.463   3.782
 6417TIP3    H219216   3.382   6.373   3.804
 6418TIP3   OH219217   4.818   1.343   2.805
 6418TIP3    H119218   4.907   1.306   2.806
 6418TIP3    H219219   4.768   1.283   2.751
 6419TIP3   OH219220   7.195   2.679   2.205
 6419TIP3    H119221   7.222   2.670   2.297
 6419TIP3    H219222   7.112   2.727   2.210
 6420TIP3   OH219223   5.094   5.997   4.021
 6420TIP3    H119224   5.038   5.967   4.092
 6420TIP3    H219225   5.074   6.090   4.013
 6421TIP3   OH219226   0.520   6.602   0.538
 6421TIP3    H119227   0.501   6.597   0.445
 6421TIP3    H219228   0.481   6.522   0.575
 6422TIP3   OH219229   6.454   2.190   3.808
 6422TIP3    H119230   6.429   2.169   3.718
 6422TIP3    H219231   6.531   2.136   3.825
 6423TIP3   OH219232   1.612   4.274   5.739
 6423TIP3    H119233   1.521   4.292   5.762
 6423TIP3    H219234   1.636   4.345   5.680
 6424TIP3   OH219235   5.819   3.370   2.108
 6424TIP3    H119236   5.770   3.446   2.139
 6424TIP3    H219237   5.869   3.402   2.033
 6425TIP3   OH219238   5.619   1.108   3.549
 6425TIP3    H119239   5.673   1.080   3.622
 6425TIP3    H219240   5.529   1.101   3.581
 6426TIP3   OH219241   4.180   1.361   5.406
 6426TIP3    H119242   4.240   1.330   5.338
 6426TIP3    H219243   4.237   1.387   5.478
 6427TIP3   OH219244   4.519   3.065   2.922
 6427TIP3    H119245   4.550   2.991   2.870
 6427TIP3    H219246   4.520   3.139   2.860
 6428TIP3   OH219247   3.387   5.191   2.372
 6428TIP3    H119248   3.472   5.196   2.415
 6428TIP3    H219249   3.377   5.100   2.347
 6429TIP3   OH219250   6.164   5.948   1.041
 6429TIP3    H119251   6.241   5.983   0.997
 6429TIP3    H219252   6.163   5.992   1.126
 6430TIP3   OH219253   0.716   6.611   2.278
 6430TIP3    H119254   0.703   6.694   2.232
 6430TIP3    H219255   0.771   6.559   2.218
 6431TIP3   OH219256   3.789   0.391   0.364
 6431TIP3    H119257   3.781   0.296   0.374
 6431TIP3    H219258   3.842   0.419   0.439
 6432TIP3   OH219259   5.252   0.407   2.027
 6432TIP3    H119260   5.247   0.404   1.931
 6432TIP3    H219261   5.308   0.483   2.045
 6433TIP3   OH219262   2.115   2.029   0.056
 6433TIP3    H119263   2.186   2.032   0.121
 6433TIP3    H219264   2.104   2.121   0.030
 6434TIP3   OH219265   6.563   5.484   1.399
 6434TIP3    H119266   6.532   5.571   1.373
 6434TIP3    H219267   6.513   5.464   1.479
 6435TIP3   OH219268   1.972   6.800   0.439
 6435TIP3    H119269   1.955   6.893   0.459
 6435TIP3    H219270   2.064   6.787   0.463
 6436TIP3   OH219271   0.227   4.247   3.691
 6436TIP3    H119272   0.308   4.268   3.738
 6436TIP3    H219273   0.221   4.152   3.696
 6437TIP3   OH219274   5.941   1.547   2.672
 6437TIP3    H119275   6.011   1.587   2.621
 6437TIP3    H219276   5.921   1.466   2.626
 6438TIP3   OH219277   1.634   2.695   0.111
 6438TIP3    H119278   1.717   2.654   0.087
 6438TIP3    H219279   1.570   2.624   0.103
 6439TIP3   OH219280   6.502   1.959   1.487
 6439TIP3    H119281   6.453   1.909   1.552
 6439TIP3    H219282   6.545   1.892   1.433
 6440TIP3   OH219283   0.109   5.415   3.668
 6440TIP3    H119284   0.104   5.320   3.680
 6440TIP3    H219285   0.095   5.451   3.756
 6441TIP3   OH219286   7.072   3.878   4.942
 6441TIP3    H119287   7.033   3.797   4.908
 6441TIP3    H219288   7.057   3.942   4.873
 6442TIP3   OH219289   4.898   2.685   3.082
 6442TIP3    H119290   4.883   2.622   3.153
 6442TIP3    H219291   4.928   2.765   3.126
 6443TIP3   OH219292   5.887   5.108   2.063
 6443TIP3    H119293   5.813   5.060   2.100
 6443TIP3    H219294   5.867   5.116   1.970
 6444TIP3   OH219295   0.074   4.349   4.200
 6444TIP3    H119296   0.160   4.388   4.212
 6444TIP3    H219297   0.078   4.266   4.247
 6445TIP3   OH219298   3.555   6.481   3.820
 6445TIP3    H119299   3.579   6.557   3.874
 6445TIP3    H219300   3.565   6.406   3.879
 6446TIP3   OH219301   4.298   3.794   5.679
 6446TIP3    H119302   4.347   3.799   5.597
 6446TIP3    H219303   4.216   3.840   5.662
 6447TIP3   OH219304   3.398   3.797   2.247
 6447TIP3    H119305   3.455   3.734   2.203
 6447TIP3    H219306   3.441   3.815   2.331
 6448TIP3   OH219307   5.242   5.609   1.814
 6448TIP3    H119308   5.197   5.683   1.855
 6448TIP3    H219309   5.308   5.582   1.878
 6449TIP3   OH219310   6.373   0.303   4.933
 6449TIP3    H119311   6.309   0.350   4.987
 6449TIP3    H219312   6.351   0.328   4.843
 6450TIP3   OH219313   3.138   0.716   5.544
 6450TIP3    H119314   3.043   0.726   5.531
 6450TIP3    H219315   3.145   0.642   5.604
 6451TIP3   OH219316   5.524   6.107   0.986
 6451TIP3    H119317   5.588   6.155   1.038
 6451TIP3    H219318   5.558   6.017   0.982
 6452TIP3   OH219319   2.217   3.183   0.560
 6452TIP3    H119320   2.287   3.167   0.497
 6452TIP3    H219321   2.190   3.096   0.588
 6453TIP3   OH219322   0.300   5.932   2.552
 6453TIP3    H119323   0.359   5.917   2.478
 6453TIP3    H219324   0.272   5.844   2.579
 6454TIP3   OH219325   3.869   6.398   5.777
 6454TIP3    H119326   3.923   6.467   5.816
 6454TIP3    H219327   3.779   6.426   5.792
 6455TIP3   OH219328   6.899   2.150   4.511
 6455TIP3    H119329   6.839   2.193   4.572
 6455TIP3    H219330   6.965   2.110   4.567
 6456TIP3   OH219331   2.003   1.727   1.876
 6456TIP3    H119332   1.958   1.724   1.960
 6456TIP3    H219333   2.086   1.682   1.892
 6457TIP3   OH219334   6.055   6.179   1.694
 6457TIP3    H119335   6.045   6.095   1.740
 6457TIP3    H219336   5.971   6.192   1.650
 6458TIP3   OH219337   3.892   1.726   1.104
 6458TIP3    H119338   3.907   1.645   1.055
 6458TIP3    H219339   3.900   1.796   1.039
 6459TIP3   OH219340   2.087   0.360   3.463
 6459TIP3    H119341   2.116   0.448   3.440
 6459TIP3    H219342   2.162   0.304   3.444
 6460TIP3   OH219343   3.557   0.996   0.553
 6460TIP3    H119344   3.492   1.053   0.513
 6460TIP3    H219345   3.518   0.968   0.636
 6461TIP3   OH219346   6.368   2.311   0.383
 6461TIP3    H119347   6.398   2.401   0.379
 6461TIP3    H219348   6.385   2.275   0.296
 6462TIP3   OH219349   0.987   3.988   3.535
 6462TIP3    H119350   0.900   3.971   3.502
 6462TIP3    H219351   1.002   3.919   3.600
 6463TIP3   OH219352   0.656   3.120   1.605
 6463TIP3    H119353   0.627   3.211   1.609
 6463TIP3    H219354   0.665   3.094   1.697
 6464TIP3   OH219355   6.450   2.305   0.123
 6464TIP3    H119356   6.500   2.313   0.042
 6464TIP3    H219357   6.361   2.330   0.099
 6465TIP3   OH219358   2.445   3.244   2.748
 6465TIP3    H119359   2.532   3.274   2.720
 6465TIP3    H219360   2.463   3.166   2.801
 6466TIP3   OH219361   3.091   2.902   2.018
 6466TIP3    H119362   3.019   2.916   2.078
 6466TIP3    H219363   3.054   2.851   1.946
 6467TIP3   OH219364   2.553   4.522   0.014
 6467TIP3    H119365   2.564   4.605   0.060
 6467TIP3    H219366   2.631   4.471   0.039
 6468TIP3   OH219367   0.143   2.530   4.306
 6468TIP3    H119368   0.132   2.441   4.338
 6468TIP3    H219369   0.237   2.540   4.292
 6469TIP3   OH219370   2.617   5.942   2.050
 6469TIP3    H119371   2.605   5.854   2.016
 6469TIP3    H219372   2.710   5.960   2.039
 6470TIP3   OH219373   0.720   2.525   2.352
 6470TIP3    H119374   0.726   2.473   2.432
 6470TIP3    H219375   0.647   2.486   2.304
 6471TIP3   OH219376   1.671   0.706   5.422
 6471TIP3    H119377   1.699   0.795   5.398
 6471TIP3    H219378   1.663   0.709   5.517
 6472TIP3   OH219379   6.503   4.998   0.741
 6472TIP3    H119380   6.536   4.983   0.652
 6472TIP3    H219381   6.566   4.954   0.798
 6473TIP3   OH219382   5.900   4.182   0.710
 6473TIP3    H119383   5.876   4.095   0.678
 6473TIP3    H219384   5.983   4.202   0.666
 6474TIP3   OH219385   5.898   4.080   1.587
 6474TIP3    H119386   5.950   4.057   1.510
 6474TIP3    H219387   5.816   4.115   1.552
 6475TIP3   OH219388   4.503   3.275   2.759
 6475TIP3    H119389   4.414   3.296   2.731
 6475TIP3    H219390   4.553   3.269   2.678
 6476TIP3   OH219391   3.153   2.249   0.056
 6476TIP3    H119392   3.224   2.311   0.038
 6476TIP3    H219393   3.188   2.191   0.123
 6477TIP3   OH219394   6.353   3.253   0.023
 6477TIP3    H119395   6.438   3.267  -0.017
 6477TIP3    H219396   6.365   3.176   0.079
 6478TIP3   OH219397   6.490   0.950   4.149
 6478TIP3    H119398   6.524   0.861   4.143
 6478TIP3    H219399   6.559   1.005   4.110
 6479TIP3   OH219400   5.998   3.620   4.005
 6479TIP3    H119401   5.934   3.589   4.069
 6479TIP3    H219402   6.040   3.541   3.971
 6480TIP3   OH219403   1.953   3.045   5.655
 6480TIP3    H119404   1.881   3.013   5.600
 6480TIP3    H219405   1.918   3.126   5.693
 6481TIP3   OH219406   1.392   2.600   3.871
 6481TIP3    H119407   1.474   2.638   3.905
 6481TIP3    H219408   1.341   2.676   3.844
 6482TIP3   OH219409   0.944   3.337   0.096
 6482TIP3    H119410   1.024   3.374   0.132
 6482TIP3    H219411   0.877   3.357   0.161
 6483TIP3   OH219412   6.590   1.644   3.947
 6483TIP3    H119413   6.548   1.691   3.875
 6483TIP3    H219414   6.595   1.708   4.018
 6484TIP3   OH219415   3.225   5.219   5.294
 6484TIP3    H119416   3.142   5.190   5.258
 6484TIP3    H219417   3.279   5.140   5.297
 6485TIP3   OH219418   4.712   3.966   1.299
 6485TIP3    H119419   4.645   4.012   1.351
 6485TIP3    H219420   4.664   3.897   1.253
 6486TIP3   OH219421   0.629   4.977   2.990
 6486TIP3    H119422   0.648   5.069   2.970
 6486TIP3    H219423   0.550   4.981   3.044
 6487TIP3   OH219424   2.712   4.403   1.249
 6487TIP3    H119425   2.687   4.317   1.284
 6487TIP3    H219426   2.681   4.466   1.315
 6488TIP3   OH219427   2.641   3.566   5.668
 6488TIP3    H119428   2.720   3.567   5.614
 6488TIP3    H219429   2.569   3.555   5.605
 6489TIP3   OH219430   6.056   2.254   5.550
 6489TIP3    H119431   6.034   2.296   5.467
 6489TIP3    H219432   6.063   2.327   5.612
 6490TIP3   OH219433   0.226   4.533   1.066
 6490TIP3    H119434   0.207   4.441   1.087
 6490TIP3    H219435   0.143   4.568   1.035
 6491TIP3   OH219436   2.421   1.671   3.394
 6491TIP3    H119437   2.401   1.764   3.395
 6491TIP3    H219438   2.514   1.665   3.417
 6492TIP3   OH219439   4.634   3.312   5.158
 6492TIP3    H119440   4.633   3.234   5.215
 6492TIP3    H219441   4.548   3.313   5.118
 6493TIP3   OH219442   0.475   3.409   1.628
 6493TIP3    H119443   0.530   3.471   1.677
 6493TIP3    H219444   0.386   3.439   1.642
 6494TIP3   OH219445   6.352   4.994   3.310
 6494TIP3    H119446   6.260   4.991   3.284
 6494TIP3    H219447   6.400   4.979   3.229
 6495TIP3   OH219448   6.158   2.524   5.333
 6495TIP3    H119449   6.108   2.536   5.414
 6495TIP3    H219450   6.092   2.521   5.264
 6496TIP3   OH219451   0.632   4.794   4.336
 6496TIP3    H119452   0.714   4.783   4.289
 6496TIP3    H219453   0.658   4.822   4.424
 6497TIP3   OH219454   5.652   0.086   5.094
 6497TIP3    H119455   5.580   0.042   5.139
 6497TIP3    H219456   5.626   0.178   5.090
 6498TIP3   OH219457   2.037   4.926   3.017
 6498TIP3    H119458   2.037   4.899   2.926
 6498TIP3    H219459   1.988   5.008   3.018
 6499TIP3   OH219460   2.582   4.543   5.114
 6499TIP3    H119461   2.524   4.527   5.189
 6499TIP3    H219462   2.668   4.557   5.153
 6500TIP3   OH219463   1.602   4.163   5.175
 6500TIP3    H119464   1.561   4.196   5.255
 6500TIP3    H219465   1.647   4.239   5.138
 6501TIP3   OH219466   2.556   3.602   2.527
 6501TIP3    H119467   2.535   3.567   2.614
 6501TIP3    H219468   2.516   3.540   2.466
 6502TIP3   OH219469   6.936   6.737   5.464
 6502TIP3    H119470   6.961   6.792   5.538
 6502TIP3    H219471   6.993   6.766   5.392
 6503TIP3   OH219472   6.440   3.031   0.173
 6503TIP3    H119473   6.512   2.998   0.119
 6503TIP3    H219474   6.479   3.046   0.259
 6504TIP3   OH219475   3.012   2.186   0.975
 6504TIP3    H119476   3.024   2.165   0.882
 6504TIP3    H219477   2.989   2.103   1.016
 6505TIP3   OH219478   2.727   0.173   4.787
 6505TIP3    H119479   2.747   0.083   4.812
 6505TIP3    H219480   2.750   0.178   4.694
 6506TIP3   OH219481   2.215   1.699   2.990
 6506TIP3    H119482   2.160   1.677   3.065
 6506TIP3    H219483   2.297   1.732   3.029
 6507TIP3   OH219484   4.857   5.355   1.469
 6507TIP3    H119485   4.894   5.302   1.399
 6507TIP3    H219486   4.769   5.379   1.438
 6508TIP3   OH219487   4.081   1.414   2.534
 6508TIP3    H119488   4.124   1.367   2.463
 6508TIP3    H219489   4.028   1.349   2.578
 6509TIP3   OH219490   4.053   3.848   1.412
 6509TIP3    H119491   3.996   3.783   1.370
 6509TIP3    H219492   4.122   3.795   1.453
 6510TIP3   OH219493   1.030   1.149   3.642
 6510TIP3    H119494   0.980   1.071   3.616
 6510TIP3    H219495   1.105   1.149   3.584
 6511TIP3   OH219496   1.895   1.215   0.420
 6511TIP3    H119497   1.909   1.230   0.327
 6511TIP3    H219498   1.907   1.301   0.461
 6512TIP3   OH219499   1.591   2.159   1.730
 6512TIP3    H119500   1.581   2.222   1.802
 6512TIP3    H219501   1.679   2.122   1.743
 6513TIP3   OH219502   3.454   2.378   4.205
 6513TIP3    H119503   3.364   2.412   4.207
 6513TIP3    H219504   3.450   2.297   4.256
 6514TIP3   OH219505   6.389   6.782   2.920
 6514TIP3    H119506   6.367   6.831   2.840
 6514TIP3    H219507   6.472   6.819   2.949
 6515TIP3   OH219508   7.120   6.024   0.722
 6515TIP3    H119509   7.147   6.115   0.721
 6515TIP3    H219510   7.105   6.002   0.630
 6516TIP3   OH219511   6.786   4.870   4.205
 6516TIP3    H119512   6.801   4.958   4.171
 6516TIP3    H219513   6.873   4.840   4.232
 6517TIP3   OH219514   1.144   0.352   3.166
 6517TIP3    H119515   1.216   0.346   3.103
 6517TIP3    H219516   1.109   0.263   3.172
 6518TIP3   OH219517   2.975   5.096   0.971
 6518TIP3    H119518   2.989   5.024   1.033
 6518TIP3    H219519   3.020   5.068   0.891
 6519TIP3   OH219520   6.539   2.317   1.849
 6519TIP3    H119521   6.604   2.300   1.917
 6519TIP3    H219522   6.587   2.365   1.781
 6520TIP3   OH219523   1.843   1.751   4.865
 6520TIP3    H119524   1.770   1.733   4.807
 6520TIP3    H219525   1.902   1.806   4.813
 6521TIP3   OH219526   4.863   5.073   5.349
 6521TIP3    H119527   4.941   5.079   5.293
 6521TIP3    H219528   4.852   5.162   5.384
 6522TIP3   OH219529   5.469   3.014   0.211
 6522TIP3    H119530   5.444   3.016   0.119
 6522TIP3    H219531   5.551   3.063   0.216
 6523TIP3   OH219532   2.740   4.442   2.100
 6523TIP3    H119533   2.760   4.363   2.151
 6523TIP3    H219534   2.689   4.410   2.026
 6524TIP3   OH219535   3.407   1.212   5.828
 6524TIP3    H119536   3.467   1.138   5.829
 6524TIP3    H219537   3.321   1.173   5.848
 6525TIP3   OH219538   0.055   5.164   1.350
 6525TIP3    H119539  -0.023   5.219   1.361
 6525TIP3    H219540   0.119   5.201   1.411
 6526TIP3   OH219541   1.506   6.177   0.413
 6526TIP3    H119542   1.588   6.173   0.462
 6526TIP3    H219543   1.531   6.205   0.325
 6527TIP3   OH219544   3.239   1.645   0.189
 6527TIP3    H119545   3.180   1.572   0.170
 6527TIP3    H219546   3.209   1.715   0.132
 6528TIP3   OH219547   0.583   6.615   1.000
 6528TIP3    H119548   0.610   6.702   0.971
 6528TIP3    H219549   0.662   6.577   1.039
 6529TIP3   OH219550   2.360   1.891   5.603
 6529TIP3    H119551   2.413   1.961   5.566
 6529TIP3    H219552   2.318   1.850   5.528
 6530TIP3   OH219553   2.213   2.050   5.137
 6530TIP3    H119554   2.176   2.129   5.098
 6530TIP3    H219555   2.136   1.995   5.156
 6531TIP3   OH219556   6.528   5.566   0.169
 6531TIP3    H119557   6.445   5.520   0.183
 6531TIP3    H219558   6.565   5.577   0.257
 6532TIP3   OH219559   6.548   1.904   3.059
 6532TIP3    H119560   6.588   1.876   3.141
 6532TIP3    H219561   6.620   1.900   2.995
 6533TIP3   OH219562   1.242   6.778   5.518
 6533TIP3    H119563   1.316   6.716   5.525
 6533TIP3    H219564   1.267   6.837   5.447
 6534TIP3   OH219565   3.884   1.590   5.654
 6534TIP3    H119566   3.879   1.685   5.640
 6534TIP3    H219567   3.873   1.553   5.567
 6535TIP3   OH219568   4.979   2.549   3.941
 6535TIP3    H119569   4.966   2.597   3.858
 6535TIP3    H219570   4.948   2.609   4.008
 6536TIP3   OH219571   2.222   2.090   1.219
 6536TIP3    H119572   2.275   2.011   1.221
 6536TIP3    H219573   2.285   2.162   1.230
 6537TIP3   OH219574   2.140   2.511   5.551
 6537TIP3    H119575   2.085   2.581   5.587
 6537TIP3    H219576   2.125   2.515   5.456
 6538TIP3   OH219577   5.044   0.501   4.759
 6538TIP3    H119578   5.113   0.543   4.811
 6538TIP3    H219579   5.010   0.432   4.816
 6539TIP3   OH219580   4.380   5.921   0.274
 6539TIP3    H119581   4.411   5.845   0.225
 6539TIP3    H219582   4.285   5.907   0.281
 6540TIP3   OH219583   4.729   4.387   0.812
 6540TIP3    H119584   4.650   4.416   0.857
 6540TIP3    H219585   4.753   4.305   0.855
 6541TIP3   OH219586   1.352   2.826   5.534
 6541TIP3    H119587   1.296   2.903   5.538
 6541TIP3    H219588   1.430   2.856   5.487
 6542TIP3   OH219589   4.332   2.878   5.802
 6542TIP3    H119590   4.237   2.877   5.800
 6542TIP3    H219591   4.354   2.914   5.888
 6543TIP3   OH219592   0.723   0.323   2.384
 6543TIP3    H119593   0.752   0.349   2.297
 6543TIP3    H219594   0.701   0.230   2.376
 6544TIP3   OH219595   3.688   3.645   3.454
 6544TIP3    H119596   3.617   3.581   3.460
 6544TIP3    H219597   3.657   3.710   3.391
 6545TIP3   OH219598   5.112   3.426   0.115
 6545TIP3    H119599   5.079   3.462   0.033
 6545TIP3    H219600   5.062   3.346   0.128
 6546TIP3   OH219601   3.468   0.635   4.127
 6546TIP3    H119602   3.553   0.642   4.170
 6546TIP3    H219603   3.488   0.607   4.038
 6547TIP3   OH219604   6.473   2.835   3.004
 6547TIP3    H119605   6.476   2.813   3.097
 6547TIP3    H219606   6.383   2.862   2.987
 6548TIP3   OH219607   5.926   3.912   0.880
 6548TIP3    H119608   5.879   3.962   0.947
 6548TIP3    H219609   5.925   3.822   0.913
 6549TIP3   OH219610   4.788   5.530   3.781
 6549TIP3    H119611   4.853   5.466   3.754
 6549TIP3    H219612   4.737   5.486   3.849
 6550TIP3   OH219613   4.394   6.109   5.067
 6550TIP3    H119614   4.397   6.074   4.978
 6550TIP3    H219615   4.415   6.034   5.123
 6551TIP3   OH219616   6.178   0.832   5.861
 6551TIP3    H119617   6.248   0.774   5.831
 6551TIP3    H219618   6.124   0.776   5.917
 6552TIP3   OH219619   3.664   5.747   2.697
 6552TIP3    H119620   3.637   5.808   2.766
 6552TIP3    H219621   3.658   5.798   2.616
 6553TIP3   OH219622   1.465   1.064   4.044
 6553TIP3    H119623   1.377   1.083   4.077
 6553TIP3    H219624   1.470   0.969   4.043
 6554TIP3   OH219625   5.641   2.926   1.478
 6554TIP3    H119626   5.610   2.846   1.436
 6554TIP3    H219627   5.736   2.920   1.473
 6555TIP3   OH219628   0.373   3.190   1.797
 6555TIP3    H119629   0.425   3.192   1.717
 6555TIP3    H219630   0.411   3.258   1.852
 6556TIP3   OH219631   1.072   5.009   3.321
 6556TIP3    H119632   1.080   5.104   3.330
 6556TIP3    H219633   1.017   4.997   3.244
 6557TIP3   OH219634   6.725   0.345   0.927
 6557TIP3    H119635   6.812   0.334   0.888
 6557TIP3    H219636   6.680   0.406   0.868
 6558TIP3   OH219637   6.769   5.155   5.165
 6558TIP3    H119638   6.714   5.105   5.105
 6558TIP3    H219639   6.709   5.221   5.201
 6559TIP3   OH219640   5.997   3.288   5.676
 6559TIP3    H119641   6.035   3.204   5.703
 6559TIP3    H219642   5.972   3.330   5.758
 6560TIP3   OH219643   6.962   0.701   0.241
 6560TIP3    H119644   6.881   0.651   0.243
 6560TIP3    H219645   7.014   0.661   0.171
 6561TIP3   OH219646   7.109   4.949   3.385
 6561TIP3    H119647   7.038   5.013   3.373
 6561TIP3    H219648   7.119   4.942   3.480
 6562TIP3   OH219649   5.127   3.988   4.768
 6562TIP3    H119650   5.097   3.962   4.681
 6562TIP3    H219651   5.099   4.079   4.778
 6563TIP3   OH219652   3.425   5.806   2.290
 6563TIP3    H119653   3.386   5.736   2.237
 6563TIP3    H219654   3.381   5.798   2.375
 6564TIP3   OH219655   0.586   6.758   0.243
 6564TIP3    H119656   0.531   6.680   0.252
 6564TIP3    H219657   0.528   6.823   0.203
 6565TIP3   OH219658   3.979   3.212   0.686
 6565TIP3    H119659   4.004   3.296   0.725
 6565TIP3    H219660   3.978   3.151   0.760
 6566TIP3   OH219661   3.468   4.973   4.145
 6566TIP3    H119662   3.494   4.887   4.112
 6566TIP3    H219663   3.403   5.004   4.083
 6567TIP3   OH219664   0.400   5.448   4.455
 6567TIP3    H119665   0.473   5.510   4.451
 6567TIP3    H219666   0.423   5.389   4.527
 6568TIP3   OH219667   2.199   6.147   2.368
 6568TIP3    H119668   2.194   6.198   2.286
 6568TIP3    H219669   2.259   6.076   2.349
 6569TIP3   OH219670   5.287   5.227   1.540
 6569TIP3    H119671   5.262   5.201   1.451
 6569TIP3    H219672   5.346   5.157   1.569
 6570TIP3   OH219673   5.553   5.289   5.152
 6570TIP3    H119674   5.492   5.222   5.184
 6570TIP3    H219675   5.509   5.325   5.075
 6571TIP3   OH219676   2.359   3.793   3.982
 6571TIP3    H119677   2.404   3.769   4.063
 6571TIP3    H219678   2.267   3.777   4.000
 6572TIP3   OH219679   3.931   3.880   4.034
 6572TIP3    H119680   3.846   3.924   4.026
 6572TIP3    H219681   3.909   3.786   4.035
 6573TIP3   OH219682   4.733   2.729   0.776
 6573TIP3    H119683   4.733   2.634   0.773
 6573TIP3    H219684   4.779   2.751   0.857
 6574TIP3   OH219685   5.914   3.991   0.497
 6574TIP3    H119686   5.968   4.063   0.464
 6574TIP3    H219687   5.963   3.912   0.476
 6575TIP3   OH219688   5.557   1.274   0.051
 6575TIP3    H119689   5.541   1.272   0.145
 6575TIP3    H219690   5.473   1.300   0.013
 6576TIP3   OH219691   5.061   1.109   5.138
 6576TIP3    H119692   5.080   1.173   5.207
 6576TIP3    H219693   5.096   1.026   5.173
 6577TIP3   OH219694   2.966   3.246   1.016
 6577TIP3    H119695   2.984   3.196   1.096
 6577TIP3    H219696   3.051   3.278   0.989
 6578TIP3   OH219697   5.273   0.678   2.420
 6578TIP3    H119698   5.278   0.583   2.413
 6578TIP3    H219699   5.187   0.695   2.459
 6579TIP3   OH219700   0.159   0.193   1.350
 6579TIP3    H119701   0.246   0.157   1.367
 6579TIP3    H219702   0.170   0.244   1.270
 6580TIP3   OH219703   2.851   0.642   1.609
 6580TIP3    H119704   2.930   0.604   1.647
 6580TIP3    H219705   2.860   0.628   1.515
 6581TIP3   OH219706   5.372   6.293   1.992
 6581TIP3    H119707   5.377   6.363   1.928
 6581TIP3    H219708   5.427   6.323   2.065
 6582TIP3   OH219709   1.391   6.356   2.838
 6582TIP3    H119710   1.314   6.411   2.822
 6582TIP3    H219711   1.465   6.418   2.837
 6583TIP3   OH219712   2.367   4.005   3.423
 6583TIP3    H119713   2.330   4.034   3.507
 6583TIP3    H219714   2.347   4.076   3.362
 6584TIP3   OH219715   4.220   6.850   5.629
 6584TIP3    H119716   4.237   6.940   5.601
 6584TIP3    H219717   4.217   6.800   5.548
 6585TIP3   OH219718   4.653   6.259   3.581
 6585TIP3    H119719   4.688   6.335   3.536
 6585TIP3    H219720   4.668   6.277   3.674
 6586TIP3   OH219721   6.511   1.275   2.717
 6586TIP3    H119722   6.442   1.253   2.654
 6586TIP3    H219723   6.464   1.304   2.795
 6587TIP3   OH219724   1.623   4.004   1.800
 6587TIP3    H119725   1.652   3.921   1.837
 6587TIP3    H219726   1.539   3.984   1.757
 6588TIP3   OH219727   2.468   5.254   1.756
 6588TIP3    H119728   2.501   5.268   1.667
 6588TIP3    H219729   2.547   5.255   1.811
 6589TIP3   OH219730   0.589   3.207   3.730
 6589TIP3    H119731   0.586   3.258   3.650
 6589TIP3    H219732   0.595   3.116   3.700
 6590TIP3   OH219733   6.092   1.866   4.190
 6590TIP3    H119734   6.112   1.813   4.267
 6590TIP3    H219735   6.015   1.917   4.215
 6591TIP3   OH219736   2.416   0.113   4.267
 6591TIP3    H119737   2.370   0.073   4.194
 6591TIP3    H219738   2.407   0.207   4.252
 6592TIP3   OH219739   4.043   0.603   3.143
 6592TIP3    H119740   3.995   0.658   3.204
 6592TIP3    H219741   3.976   0.573   3.081
 6593TIP3   OH219742   6.170   6.364   0.899
 6593TIP3    H119743   6.235   6.397   0.961
 6593TIP3    H219744   6.107   6.436   0.889
 6594TIP3   OH219745   6.454   0.523   3.050
 6594TIP3    H119746   6.440   0.598   3.107
 6594TIP3    H219747   6.366   0.496   3.024
 6595TIP3   OH219748   4.422   5.087   0.738
 6595TIP3    H119749   4.486   5.132   0.683
 6595TIP3    H219750   4.339   5.131   0.720
 6596TIP3   OH219751   1.214   3.324   1.122
 6596TIP3    H119752   1.234   3.232   1.138
 6596TIP3    H219753   1.300   3.365   1.106
 6597TIP3   OH219754   4.531   6.088   2.868
 6597TIP3    H119755   4.585   6.045   2.934
 6597TIP3    H219756   4.586   6.158   2.834
 6598TIP3   OH219757   6.139   2.045   2.034
 6598TIP3    H119758   6.223   2.081   2.061
 6598TIP3    H219759   6.147   2.030   1.940
 6599TIP3   OH219760   0.116   6.790   0.742
 6599TIP3    H119761   0.170   6.764   0.667
 6599TIP3    H219762   0.027   6.796   0.708
 6600TIP3   OH219763   6.267   3.961   1.094
 6600TIP3    H119764   6.355   3.959   1.057
 6600TIP3    H219765   6.234   4.049   1.072
 6601TIP3   OH219766   6.565   0.549   1.876
 6601TIP3    H119767   6.647   0.500   1.869
 6601TIP3    H219768   6.552   0.560   1.970
 6602TIP3   OH219769   6.773   6.649   3.366
 6602TIP3    H119770   6.732   6.705   3.432
 6602TIP3    H219771   6.836   6.707   3.321
 6603TIP3   OH219772   1.580   0.532   0.139
 6603TIP3    H119773   1.550   0.581   0.216
 6603TIP3    H219774   1.651   0.477   0.172
 6604TIP3   OH219775   2.443   3.789   5.746
 6604TIP3    H119776   2.386   3.715   5.724
 6604TIP3    H219777   2.532   3.755   5.738
 6605TIP3   OH219778   2.940   1.590   0.936
 6605TIP3    H119779   2.980   1.522   0.881
 6605TIP3    H219780   2.921   1.547   1.019
 6606TIP3   OH219781   4.890   2.835   5.075
 6606TIP3    H119782   4.863   2.881   5.154
 6606TIP3    H219783   4.935   2.756   5.107
 6607TIP3   OH219784   0.759   6.512   3.036
 6607TIP3    H119785   0.727   6.597   3.005
 6607TIP3    H219786   0.702   6.490   3.110
 6608TIP3   OH219787   2.418   2.387   2.250
 6608TIP3    H119788   2.413   2.305   2.299
 6608TIP3    H219789   2.479   2.442   2.300
 6609TIP3   OH219790   1.366   0.853   2.062
 6609TIP3    H119791   1.452   0.817   2.042
 6609TIP3    H219792   1.304   0.792   2.020
 6610TIP3   OH219793   4.520   4.040   3.336
 6610TIP3    H119794   4.588   4.027   3.401
 6610TIP3    H219795   4.506   3.953   3.298
 6611TIP3   OH219796   4.869   3.902   4.629
 6611TIP3    H119797   4.883   3.812   4.598
 6611TIP3    H219798   4.839   3.949   4.552
 6612TIP3   OH219799   4.112   1.372   3.190
 6612TIP3    H119800   4.131   1.451   3.240
 6612TIP3    H219801   4.098   1.403   3.100
 6613TIP3   OH219802   1.228   5.945   5.385
 6613TIP3    H119803   1.199   5.854   5.394
 6613TIP3    H219804   1.291   5.942   5.313
 6614TIP3   OH219805   0.978   0.309   1.507
 6614TIP3    H119806   0.960   0.245   1.576
 6614TIP3    H219807   0.918   0.284   1.436
 6615TIP3   OH219808   1.587   1.109   0.015
 6615TIP3    H119809   1.549   1.060  -0.058
 6615TIP3    H219810   1.554   1.064   0.093
 6616TIP3   OH219811   6.137   5.423   4.030
 6616TIP3    H119812   6.063   5.391   4.082
 6616TIP3    H219813   6.151   5.512   4.061
 6617TIP3   OH219814   6.996   3.270   1.778
 6617TIP3    H119815   6.999   3.351   1.829
 6617TIP3    H219816   6.909   3.271   1.738
 6618TIP3   OH219817   5.076   3.165   4.503
 6618TIP3    H119818   5.146   3.176   4.439
 6618TIP3    H219819   5.112   3.105   4.568
 6619TIP3   OH219820   7.174   1.034   1.703
 6619TIP3    H119821   7.269   1.024   1.700
 6619TIP3    H219822   7.148   1.036   1.610
 6620TIP3   OH219823   4.788   2.119   3.026
 6620TIP3    H119824   4.752   2.180   2.962
 6620TIP3    H219825   4.838   2.056   2.972
 6621TIP3   OH219826   4.387   3.355   3.140
 6621TIP3    H119827   4.426   3.290   3.199
 6621TIP3    H219828   4.459   3.384   3.085
 6622TIP3   OH219829   3.711   6.092   4.826
 6622TIP3    H119830   3.650   6.046   4.884
 6622TIP3    H219831   3.756   6.154   4.882
 6623TIP3   OH219832   1.099   2.437   0.949
 6623TIP3    H119833   1.028   2.375   0.966
 6623TIP3    H219834   1.113   2.432   0.854
 6624TIP3   OH219835   6.666   2.944   0.060
 6624TIP3    H119836   6.737   2.973   0.117
 6624TIP3    H219837   6.692   2.975  -0.027
 6625TIP3   OH219838   0.977   1.233   2.061
 6625TIP3    H119839   0.933   1.314   2.032
 6625TIP3    H219840   0.947   1.167   1.998
 6626TIP3   OH219841   4.040   3.300   5.609
 6626TIP3    H119842   4.031   3.278   5.516
 6626TIP3    H219843   4.115   3.359   5.613
 6627TIP3   OH219844   4.193   2.262   0.350
 6627TIP3    H119845   4.141   2.228   0.423
 6627TIP3    H219846   4.167   2.354   0.343
 6628TIP3   OH219847   2.853   2.854   1.562
 6628TIP3    H119848   2.813   2.855   1.475
 6628TIP3    H219849   2.890   2.942   1.572
 6629TIP3   OH219850   1.019   2.327   0.240
 6629TIP3    H119851   1.026   2.292   0.151
 6629TIP3    H219852   1.013   2.422   0.227
 6630TIP3   OH219853   5.214   2.373   4.773
 6630TIP3    H119854   5.273   2.378   4.698
 6630TIP3    H219855   5.260   2.318   4.837
 6631TIP3   OH219856   4.428   6.755   4.826
 6631TIP3    H119857   4.342   6.783   4.859
 6631TIP3    H219858   4.409   6.711   4.743
 6632TIP3   OH219859   2.278   5.460   1.857
 6632TIP3    H119860   2.230   5.501   1.785
 6632TIP3    H219861   2.333   5.531   1.892
 6633TIP3   OH219862   0.867   2.570   0.372
 6633TIP3    H119863   0.948   2.574   0.321
 6633TIP3    H219864   0.799   2.546   0.309
 6634TIP3   OH219865   1.646   3.805   1.575
 6634TIP3    H119866   1.584   3.798   1.648
 6634TIP3    H219867   1.600   3.859   1.510
 6635TIP3   OH219868   3.957   4.889   1.837
 6635TIP3    H119869   3.977   4.967   1.785
 6635TIP3    H219870   3.871   4.908   1.875
 6636TIP3   OH219871   4.315   5.347   0.673
 6636TIP3    H119872   4.329   5.416   0.609
 6636TIP3    H219873   4.256   5.385   0.738
 6637TIP3   OH219874   1.447   6.453   2.552
 6637TIP3    H119875   1.481   6.539   2.526
 6637TIP3    H219876   1.520   6.393   2.539
 6638TIP3   OH219877   0.672   4.581   3.717
 6638TIP3    H119878   0.730   4.506   3.727
 6638TIP3    H219879   0.725   4.646   3.670
 6639TIP3   OH219880   6.442   3.591   2.762
 6639TIP3    H119881   6.398   3.665   2.721
 6639TIP3    H219882   6.436   3.609   2.856
 6640TIP3   OH219883   5.112   3.678   3.381
 6640TIP3    H119884   5.149   3.727   3.308
 6640TIP3    H219885   5.043   3.625   3.342
 6641TIP3   OH219886   6.155   3.074   5.805
 6641TIP3    H119887   6.073   3.042   5.844
 6641TIP3    H219888   6.195   2.996   5.766
 6642TIP3   OH219889   7.096   3.128   4.736
 6642TIP3    H119890   7.170   3.139   4.677
 6642TIP3    H219891   7.135   3.119   4.823
 6643TIP3   OH219892   0.978   4.186   1.634
 6643TIP3    H119893   0.988   4.092   1.643
 6643TIP3    H219894   0.927   4.199   1.555
 6644TIP3   OH219895   2.036   3.889   1.415
 6644TIP3    H119896   2.120   3.857   1.446
 6644TIP3    H219897   1.992   3.920   1.495
 6645TIP3   OH219898   0.750   3.398   5.590
 6645TIP3    H119899   0.657   3.404   5.610
 6645TIP3    H219900   0.767   3.473   5.533
 6646TIP3   OH219901   1.389   0.448   4.665
 6646TIP3    H119902   1.319   0.436   4.728
 6646TIP3    H219903   1.365   0.394   4.590
 6647TIP3   OH219904   3.406   4.359   0.317
 6647TIP3    H119905   3.313   4.340   0.330
 6647TIP3    H219906   3.431   4.409   0.395
 6648TIP3   OH219907   4.948   0.733   0.566
 6648TIP3    H119908   4.856   0.742   0.589
 6648TIP3    H219909   4.991   0.807   0.609
 6649TIP3   OH219910   2.945   5.754   2.198
 6649TIP3    H119911   2.992   5.675   2.170
 6649TIP3    H219912   2.994   5.826   2.158
 6650TIP3   OH219913   4.039   4.602   2.073
 6650TIP3    H119914   4.031   4.581   1.980
 6650TIP3    H219915   4.133   4.607   2.089
 6651TIP3   OH219916   0.722   2.808   2.288
 6651TIP3    H119917   0.704   2.714   2.284
 6651TIP3    H219918   0.812   2.816   2.257
 6652TIP3   OH219919   4.994   2.072   2.358
 6652TIP3    H119920   5.062   2.125   2.400
 6652TIP3    H219921   5.033   2.046   2.274
 6653TIP3   OH219922   0.313   1.451   3.363
 6653TIP3    H119923   0.373   1.438   3.289
 6653TIP3    H219924   0.226   1.436   3.325
 6654TIP3   OH219925   3.376   1.762   3.788
 6654TIP3    H119926   3.348   1.844   3.828
 6654TIP3    H219927   3.410   1.788   3.702
 6655TIP3   OH219928   3.041   1.276   4.951
 6655TIP3    H119929   2.985   1.198   4.950
 6655TIP3    H219930   3.067   1.288   4.860
 6656TIP3   OH219931   2.674   1.646   4.589
 6656TIP3    H119932   2.697   1.730   4.548
 6656TIP3    H219933   2.599   1.666   4.645
 6657TIP3   OH219934   1.604   4.284   4.463
 6657TIP3    H119935   1.681   4.284   4.406
 6657TIP3    H219936   1.638   4.303   4.550
 6658TIP3   OH219937   3.197   5.167   1.475
 6658TIP3    H119938   3.226   5.258   1.482
 6658TIP3    H219939   3.240   5.133   1.397
 6659TIP3   OH219940   3.760   0.392   1.133
 6659TIP3    H119941   3.686   0.417   1.079
 6659TIP3    H219942   3.722   0.339   1.203
 6660TIP3   OH219943   4.076   6.093   0.507
 6660TIP3    H119944   4.066   6.015   0.452
 6660TIP3    H219945   4.102   6.058   0.593
 6661TIP3   OH219946   0.421   2.343   3.417
 6661TIP3    H119947   0.409   2.251   3.395
 6661TIP3    H219948   0.336   2.384   3.400
 6662TIP3   OH219949   5.762   6.422   4.408
 6662TIP3    H119950   5.851   6.457   4.414
 6662TIP3    H219951   5.729   6.454   4.324
 6663TIP3   OH219952   5.036   3.858   2.519
 6663TIP3    H119953   5.004   3.771   2.544
 6663TIP3    H219954   5.037   3.857   2.424
 6664TIP3   OH219955   6.544   0.300   0.449
 6664TIP3    H119956   6.573   0.270   0.535
 6664TIP3    H219957   6.573   0.232   0.388
 6665TIP3   OH219958   0.326   5.749   1.514
 6665TIP3    H119959   0.327   5.687   1.588
 6665TIP3    H219960   0.376   5.824   1.546
 6666TIP3   OH219961   2.193   2.144   3.513
 6666TIP3    H119962   2.169   2.160   3.422
 6666TIP3    H219963   2.218   2.230   3.547
 6667TIP3   OH219964   0.832   0.069   4.780
 6667TIP3    H119965   0.744   0.105   4.785
 6667TIP3    H219966   0.825  -0.005   4.720
 6668TIP3   OH219967   0.553   4.659   3.240
 6668TIP3    H119968   0.601   4.739   3.263
 6668TIP3    H219969   0.536   4.616   3.324
 6669TIP3   OH219970   2.731   4.195   0.960
 6669TIP3    H119971   2.722   4.136   0.885
 6669TIP3    H219972   2.698   4.145   1.034
 6670TIP3   OH219973   0.057   4.755   1.491
 6670TIP3    H119974   0.091   4.759   1.580
 6670TIP3    H219975   0.057   4.662   1.469
 6671TIP3   OH219976   0.121   3.039   1.540
 6671TIP3    H119977   0.089   2.963   1.590
 6671TIP3    H219978   0.216   3.029   1.540
 6672TIP3   OH219979   0.110   2.187   3.493
 6672TIP3    H119980   0.162   2.151   3.565
 6672TIP3    H219981   0.135   2.134   3.417
 6673TIP3   OH219982   1.447   4.579   0.873
 6673TIP3    H119983   1.444   4.578   0.777
 6673TIP3    H219984   1.372   4.525   0.899
 6674TIP3   OH219985   5.255   2.610   2.367
 6674TIP3    H119986   5.299   2.579   2.446
 6674TIP3    H219987   5.327   2.638   2.309
 6675TIP3   OH219988   1.494   1.836   4.124
 6675TIP3    H119989   1.564   1.890   4.160
 6675TIP3    H219990   1.536   1.786   4.054
 6676TIP3   OH219991   5.789   5.321   5.651
 6676TIP3    H119992   5.726   5.294   5.718
 6676TIP3    H219993   5.736   5.369   5.587
 6677TIP3   OH219994   2.280   5.982   5.272
 6677TIP3    H119995   2.307   5.922   5.342
 6677TIP3    H219996   2.316   5.943   5.192
 6678TIP3   OH219997   3.097   0.739   1.260
 6678TIP3    H119998   3.056   0.705   1.181
 6678TIP3    H219999   3.080   0.672   1.327
 6679TIP3   OH220000   0.279   2.959   1.925
 6679TIP3    H120001   0.311   3.024   1.863
 6679TIP3    H220002   0.355   2.903   1.942
 6680TIP3   OH220003   5.354   1.516   3.922
 6680TIP3    H120004   5.324   1.523   3.832
 6680TIP3    H220005   5.276   1.532   3.975
 6681TIP3   OH220006   0.496   4.708   2.750
 6681TIP3    H120007   0.531   4.764   2.819
 6681TIP3    H220008   0.543   4.625   2.760
 6682TIP3   OH220009   3.114   4.857   5.168
 6682TIP3    H120010   3.183   4.878   5.105
 6682TIP3    H220011   3.049   4.808   5.117
 6683TIP3   OH220012   6.195   5.047   4.587
 6683TIP3    H120013   6.207   5.109   4.515
 6683TIP3    H220014   6.199   4.961   4.545
 6684TIP3   OH220015   6.945   2.957   3.902
 6684TIP3    H120016   7.029   2.911   3.897
 6684TIP3    H220017   6.955   3.031   3.842
 6685TIP3   OH220018   3.220   3.462   2.475
 6685TIP3    H120019   3.293   3.450   2.415
 6685TIP3    H220020   3.180   3.545   2.449
 6686TIP3   OH220021   5.356   4.886   1.075
 6686TIP3    H120022   5.401   4.882   0.990
 6686TIP3    H220023   5.284   4.823   1.066
 6687TIP3   OH220024   7.057   1.006   2.518
 6687TIP3    H120025   7.042   1.096   2.489
 6687TIP3    H220026   7.102   0.964   2.445
 6688TIP3   OH220027   0.414   3.916   1.986
 6688TIP3    H120028   0.496   3.929   1.938
 6688TIP3    H220029   0.353   3.880   1.922
 6689TIP3   OH220030   6.354   2.618   1.151
 6689TIP3    H120031   6.343   2.561   1.228
 6689TIP3    H220032   6.265   2.641   1.126
 6690TIP3   OH220033   4.667   4.007   5.158
 6690TIP3    H120034   4.731   3.969   5.098
 6690TIP3    H220035   4.686   3.965   5.242
 6691TIP3   OH220036   1.588   1.680   3.889
 6691TIP3    H120037   1.542   1.697   3.807
 6691TIP3    H220038   1.675   1.717   3.875
 6692TIP3   OH220039   6.455   5.297   0.914
 6692TIP3    H120040   6.366   5.268   0.928
 6692TIP3    H220041   6.510   5.224   0.943
 6693TIP3   OH220042   6.876   1.184   3.002
 6693TIP3    H120043   6.792   1.148   2.973
 6693TIP3    H220044   6.922   1.205   2.921
 6694TIP3   OH220045   2.189   2.389   4.082
 6694TIP3    H120046   2.133   2.464   4.064
 6694TIP3    H220047   2.276   2.427   4.095
 6695TIP3   OH220048   3.635   2.514   2.331
 6695TIP3    H120049   3.667   2.600   2.357
 6695TIP3    H220050   3.711   2.457   2.339
 6696TIP3   OH220051   0.329   6.700   4.502
 6696TIP3    H120052   0.302   6.711   4.594
 6696TIP3    H220053   0.321   6.606   4.487
 6697TIP3   OH220054   4.870   1.195   0.848
 6697TIP3    H120055   4.915   1.232   0.773
 6697TIP3    H220056   4.892   1.254   0.921
 6698TIP3   OH220057   0.967   1.498   2.231
 6698TIP3    H120058   0.891   1.501   2.289
 6698TIP3    H220059   0.929   1.496   2.143
 6699TIP3   OH220060   5.182   0.288   0.968
 6699TIP3    H120061   5.221   0.206   0.937
 6699TIP3    H220062   5.088   0.277   0.952
 6700TIP3   OH220063   7.062   6.170   4.190
 6700TIP3    H120064   7.045   6.237   4.256
 6700TIP3    H220065   7.034   6.088   4.230
 6701TIP3   OH220066   4.927   2.549   2.154
 6701TIP3    H120067   5.013   2.519   2.125
 6701TIP3    H220068   4.944   2.633   2.197
 6702TIP3   OH220069   0.872   6.198   2.552
 6702TIP3    H120070   0.786   6.218   2.589
 6702TIP3    H220071   0.917   6.150   2.622
 6703TIP3   OH220072   4.650   5.113   3.024
 6703TIP3    H120073   4.624   5.174   3.093
 6703TIP3    H220074   4.572   5.105   2.968
 6704TIP3   OH220075   3.715   2.548   4.648
 6704TIP3    H120076   3.621   2.551   4.629
 6704TIP3    H220077   3.724   2.484   4.717
 6705TIP3   OH220078   5.137   5.893   3.047
 6705TIP3    H120079   5.121   5.813   3.097
 6705TIP3    H220080   5.222   5.879   3.005
 6706TIP3   OH220081   5.036   3.185   5.120
 6706TIP3    H120082   4.985   3.145   5.050
 6706TIP3    H220083   4.984   3.259   5.149
 6707TIP3   OH220084   5.155   5.420   2.461
 6707TIP3    H120085   5.078   5.370   2.433
 6707TIP3    H220086   5.129   5.460   2.544
 6708TIP3   OH220087   1.832   0.438   5.548
 6708TIP3    H120088   1.833   0.464   5.456
 6708TIP3    H220089   1.750   0.475   5.582
 6709TIP3   OH220090   0.842   4.436   3.287
 6709TIP3    H120091   0.933   4.436   3.259
 6709TIP3    H220092   0.831   4.517   3.336
 6710TIP3   OH220093   0.895   5.512   4.510
 6710TIP3    H120094   0.990   5.502   4.504
 6710TIP3    H220095   0.859   5.435   4.466
 6711TIP3   OH220096   3.976   3.491   3.819
 6711TIP3    H120097   3.993   3.583   3.801
 6711TIP3    H220098   4.057   3.446   3.796
 6712TIP3   OH220099   3.229   4.248   5.116
 6712TIP3    H120100   3.255   4.161   5.084
 6712TIP3    H220101   3.148   4.268   5.069
 6713TIP3   OH220102   6.179   6.521   0.599
 6713TIP3    H120103   6.230   6.538   0.679
 6713TIP3    H220104   6.092   6.496   0.631
 6714TIP3   OH220105   1.864   3.628   5.641
 6714TIP3    H120106   1.915   3.609   5.563
 6714TIP3    H220107   1.817   3.709   5.619
 6715TIP3   OH220108   1.509   6.168   5.204
 6715TIP3    H120109   1.598   6.134   5.212
 6715TIP3    H220110   1.477   6.132   5.121
 6716TIP3   OH220111   4.925   2.213   3.257
 6716TIP3    H120112   4.860   2.189   3.190
 6716TIP3    H220113   4.938   2.133   3.308
 6717TIP3   OH220114   0.116   1.397   2.034
 6717TIP3    H120115   0.158   1.338   1.972
 6717TIP3    H220116   0.173   1.473   2.037
 6718TIP3   OH220117   3.174   1.106   2.393
 6718TIP3    H120118   3.143   1.031   2.444
 6718TIP3    H220119   3.182   1.176   2.456
 6719TIP3   OH220120   2.838   2.826   2.108
 6719TIP3    H120121   2.771   2.873   2.157
 6719TIP3    H220122   2.795   2.744   2.082
 6720TIP3   OH220123   0.245   6.428   4.613
 6720TIP3    H120124   0.158   6.439   4.575
 6720TIP3    H220125   0.272   6.340   4.586
 6721TIP3   OH220126   2.618   6.714   1.244
 6721TIP3    H120127   2.623   6.618   1.244
 6721TIP3    H220128   2.562   6.736   1.170
 6722TIP3   OH220129   1.650   5.495   3.160
 6722TIP3    H120130   1.700   5.523   3.084
 6722TIP3    H220131   1.580   5.441   3.124
 6723TIP3   OH220132   5.047   2.121   0.531
 6723TIP3    H120133   5.123   2.173   0.554
 6723TIP3    H220134   5.081   2.055   0.470
 6724TIP3   OH220135   2.900   0.869   2.143
 6724TIP3    H120136   2.807   0.885   2.158
 6724TIP3    H220137   2.937   0.858   2.231
 6725TIP3   OH220138   2.510   3.157   5.001
 6725TIP3    H120139   2.500   3.075   4.953
 6725TIP3    H220140   2.587   3.142   5.056
 6726TIP3   OH220141   5.799   1.164   0.085
 6726TIP3    H120142   5.711   1.180   0.119
 6726TIP3    H220143   5.787   1.103   0.013
 6727TIP3   OH220144   1.835   5.103   0.549
 6727TIP3    H120145   1.771   5.053   0.598
 6727TIP3    H220146   1.914   5.102   0.603
 6728TIP3   OH220147   0.503   2.911   5.586
 6728TIP3    H120148   0.509   2.868   5.500
 6728TIP3    H220149   0.575   2.975   5.585
 6729TIP3   OH220150   3.157   2.845   2.818
 6729TIP3    H120151   3.245   2.841   2.858
 6729TIP3    H220152   3.174   2.861   2.725
 6730TIP3   OH220153   3.956   6.158   5.698
 6730TIP3    H120154   3.927   6.087   5.755
 6730TIP3    H220155   3.907   6.234   5.726
 6731TIP3   OH220156   2.748   0.825   3.669
 6731TIP3    H120157   2.809   0.896   3.687
 6731TIP3    H220158   2.686   0.862   3.607
 6732TIP3   OH220159   2.284   3.358   4.100
 6732TIP3    H120160   2.295   3.264   4.089
 6732TIP3    H220161   2.329   3.379   4.181
 6733TIP3   OH220162   1.364   5.879   4.862
 6733TIP3    H120163   1.363   5.832   4.779
 6733TIP3    H220164   1.456   5.896   4.879
 6734TIP3   OH220165   2.068   5.511   0.884
 6734TIP3    H120166   2.076   5.495   0.978
 6734TIP3    H220167   2.140   5.462   0.845
 6735TIP3   OH220168   5.336   4.005   2.806
 6735TIP3    H120169   5.291   4.065   2.865
 6735TIP3    H220170   5.328   4.045   2.719
 6736TIP3   OH220171   0.708   6.512   4.097
 6736TIP3    H120172   0.753   6.466   4.025
 6736TIP3    H220173   0.642   6.450   4.127
 6737TIP3   OH220174   6.436   2.381   5.161
 6737TIP3    H120175   6.472   2.467   5.182
 6737TIP3    H220176   6.376   2.363   5.233
 6738TIP3   OH220177   1.965   2.190   4.767
 6738TIP3    H120178   1.884   2.240   4.771
 6738TIP3    H220179   1.982   2.180   4.673
 6739TIP3   OH220180   7.128   1.517   3.706
 6739TIP3    H120181   7.172   1.502   3.790
 6739TIP3    H220182   7.169   1.596   3.671
 6740TIP3   OH220183   4.735   6.064   1.191
 6740TIP3    H120184   4.647   6.085   1.223
 6740TIP3    H220185   4.721   5.999   1.123
 6741TIP3   OH220186   0.852   3.418   1.777
 6741TIP3    H120187   0.919   3.433   1.711
 6741TIP3    H220188   0.777   3.470   1.748
 6742TIP3   OH220189   5.666   2.348   4.846
 6742TIP3    H120190   5.701   2.437   4.844
 6742TIP3    H220191   5.599   2.347   4.777
 6743TIP3   OH220192   6.543   2.469   2.454
 6743TIP3    H120193   6.462   2.517   2.469
 6743TIP3    H220194   6.515   2.386   2.414
 6744TIP3   OH220195   6.977   3.766   2.219
 6744TIP3    H120196   6.925   3.765   2.138
 6744TIP3    H220197   6.978   3.676   2.249
 6745TIP3   OH220198   6.625   3.441   3.008
 6745TIP3    H120199   6.662   3.473   2.926
 6745TIP3    H220200   6.541   3.485   3.015
 6746TIP3   OH220201   5.894   6.113   5.846
 6746TIP3    H120202   5.893   6.168   5.924
 6746TIP3    H220203   5.919   6.173   5.775
 6747TIP3   OH220204   5.041   3.049   0.852
 6747TIP3    H120205   4.968   3.029   0.792
 6747TIP3    H220206   5.119   3.022   0.804
 6748TIP3   OH220207   4.062   5.215   3.769
 6748TIP3    H120208   4.018   5.200   3.852
 6748TIP3    H220209   3.990   5.235   3.708
 6749TIP3   OH220210   3.020   6.216   0.186
 6749TIP3    H120211   3.089   6.156   0.157
 6749TIP3    H220212   2.986   6.254   0.104
 6750TIP3   OH220213   3.111   1.108  -0.016
 6750TIP3    H120214   3.171   1.062   0.043
 6750TIP3    H220215   3.024   1.073   0.007
 6751TIP3   OH220216   4.554   4.618   2.258
 6751TIP3    H120217   4.472   4.617   2.209
 6751TIP3    H220218   4.529   4.599   2.348
 6752TIP3   OH220219   7.005   5.349   1.704
 6752TIP3    H120220   7.013   5.444   1.709
 6752TIP3    H220221   6.988   5.331   1.611
 6753TIP3   OH220222   3.165   5.812   2.752
 6753TIP3    H120223   3.182   5.736   2.808
 6753TIP3    H220224   3.081   5.846   2.782
 6754TIP3   OH220225   4.024   2.079   4.264
 6754TIP3    H120226   3.971   2.158   4.255
 6754TIP3    H220227   4.106   2.109   4.303
 6755TIP3   OH220228   6.332   0.515   1.711
 6755TIP3    H120229   6.400   0.510   1.779
 6755TIP3    H220230   6.255   0.550   1.757
 6756TIP3   OH220231   5.230   3.316   4.351
 6756TIP3    H120232   5.235   3.393   4.295
 6756TIP3    H220233   5.320   3.285   4.358
 6757TIP3   OH220234   0.874   3.976   3.048
 6757TIP3    H120235   0.944   4.021   2.999
 6757TIP3    H220236   0.921   3.920   3.110
 6758TIP3   OH220237   1.387   2.228   0.884
 6758TIP3    H120238   1.323   2.183   0.939
 6758TIP3    H220239   1.408   2.308   0.932
 6759TIP3   OH220240   1.122   4.223   3.585
 6759TIP3    H120241   1.169   4.238   3.503
 6759TIP3    H220242   1.063   4.150   3.566
 6760TIP3   OH220243   0.680   2.589   4.310
 6760TIP3    H120244   0.623   2.559   4.381
 6760TIP3    H220245   0.762   2.541   4.323
 6761TIP3   OH220246   4.035   3.580   2.688
 6761TIP3    H120247   4.068   3.611   2.604
 6761TIP3    H220248   3.969   3.644   2.713
 6762TIP3   OH220249   0.852   6.707   3.976
 6762TIP3    H120250   0.769   6.750   3.953
 6762TIP3    H220251   0.827   6.639   4.038
 6763TIP3   OH220252   2.058   3.903   3.854
 6763TIP3    H120253   2.005   3.824   3.856
 6763TIP3    H220254   2.092   3.912   3.943
 6764TIP3   OH220255   3.551   2.277   3.946
 6764TIP3    H120256   3.607   2.200   3.932
 6764TIP3    H220257   3.586   2.318   4.025
 6765TIP3   OH220258   4.141   1.394   2.903
 6765TIP3    H120259   4.096   1.330   2.847
 6765TIP3    H220260   4.234   1.382   2.883
 6766TIP3   OH220261   0.881   2.632   3.508
 6766TIP3    H120262   0.805   2.575   3.500
 6766TIP3    H220263   0.844   2.720   3.518
 6767TIP3   OH220264   3.115   2.382   2.470
 6767TIP3    H120265   3.207   2.408   2.467
 6767TIP3    H220266   3.090   2.393   2.561
 6768TIP3   OH220267   0.044   4.735   0.667
 6768TIP3    H120268  -0.004   4.796   0.723
 6768TIP3    H220269   0.109   4.789   0.622
 6769TIP3   OH220270   6.900   1.105   4.504
 6769TIP3    H120271   6.859   1.038   4.448
 6769TIP3    H220272   6.829   1.137   4.559
 6770TIP3   OH220273   1.513   2.847   0.507
 6770TIP3    H120274   1.577   2.883   0.568
 6770TIP3    H220275   1.447   2.916   0.498
 6771TIP3   OH220276   4.461   5.899   2.194
 6771TIP3    H120277   4.472   5.924   2.102
 6771TIP3    H220278   4.502   5.812   2.200
 6772TIP3   OH220279   3.369   3.310   4.921
 6772TIP3    H120280   3.334   3.228   4.956
 6772TIP3    H220281   3.314   3.378   4.959
 6773TIP3   OH220282   4.449   0.118   3.181
 6773TIP3    H120283   4.478   0.209   3.183
 6773TIP3    H220284   4.529   0.067   3.192
 6774TIP3   OH220285   6.510   5.209   4.532
 6774TIP3    H120286   6.585   5.217   4.591
 6774TIP3    H220287   6.532   5.266   4.458
 6775TIP3   OH220288   6.198   2.393   4.207
 6775TIP3    H120289   6.246   2.377   4.288
 6775TIP3    H220290   6.201   2.488   4.195
 6776TIP3   OH220291   1.617   4.786   0.754
 6776TIP3    H120292   1.680   4.761   0.686
 6776TIP3    H220293   1.598   4.878   0.736
 6777TIP3   OH220294   5.971   2.904   4.983
 6777TIP3    H120295   6.060   2.871   4.998
 6777TIP3    H220296   5.952   2.882   4.892
 6778TIP3   OH220297   1.103   0.077   3.741
 6778TIP3    H120298   1.186   0.050   3.780
 6778TIP3    H220299   1.066   0.138   3.804
 6779TIP3   OH220300   6.955   5.921   4.225
 6779TIP3    H120301   6.987   5.873   4.302
 6779TIP3    H220302   6.941   5.853   4.159
 6780TIP3   OH220303   2.815   2.876   2.565
 6780TIP3    H120304   2.814   2.795   2.615
 6780TIP3    H220305   2.895   2.870   2.512
 6781TIP3   OH220306   2.884   5.518   1.030
 6781TIP3    H120307   2.936   5.448   1.069
 6781TIP3    H220308   2.850   5.568   1.104
 6782TIP3   OH220309   4.179   2.433   0.781
 6782TIP3    H120310   4.163   2.408   0.872
 6782TIP3    H220311   4.096   2.416   0.736
 6783TIP3   OH220312   0.349   5.184   0.849
 6783TIP3    H120313   0.304   5.120   0.904
 6783TIP3    H220314   0.317   5.269   0.879
 6784TIP3   OH220315   5.884   1.180   1.306
 6784TIP3    H120316   5.939   1.257   1.319
 6784TIP3    H220317   5.933   1.125   1.245
 6785TIP3   OH220318   3.712   6.583   3.081
 6785TIP3    H120319   3.755   6.499   3.089
 6785TIP3    H220320   3.622   6.562   3.056
 6786TIP3   OH220321   5.210   6.532   2.553
 6786TIP3    H120322   5.175   6.463   2.496
 6786TIP3    H220323   5.134   6.565   2.600
 6787TIP3   OH220324   4.528   6.751   3.137
 6787TIP3    H120325   4.468   6.825   3.132
 6787TIP3    H220326   4.471   6.674   3.140
 6788TIP3   OH220327   0.369   0.091   2.842
 6788TIP3    H120328   0.463   0.074   2.844
 6788TIP3    H220329   0.361   0.170   2.788
 6789TIP3   OH220330   3.933   5.956   3.146
 6789TIP3    H120331   4.015   6.004   3.157
 6789TIP3    H220332   3.959   5.869   3.118
 6790TIP3   OH220333   6.326   6.177   5.880
 6790TIP3    H120334   6.268   6.251   5.896
 6790TIP3    H220335   6.414   6.214   5.888
 6791TIP3   OH220336   1.962   1.927   2.217
 6791TIP3    H120337   1.920   1.841   2.212
 6791TIP3    H220338   1.921   1.979   2.149
 6792TIP3   OH220339   3.225   4.931   3.178
 6792TIP3    H120340   3.206   4.987   3.102
 6792TIP3    H220341   3.246   4.846   3.140
 6793TIP3   OH220342   3.953   5.099   2.063
 6793TIP3    H120343   3.885   5.102   1.996
 6793TIP3    H220344   3.994   5.186   2.060
 6794TIP3   OH220345   6.242   4.546   5.177
 6794TIP3    H120346   6.223   4.623   5.230
 6794TIP3    H220347   6.282   4.582   5.097
 6795TIP3   OH220348   3.930   6.631   4.306
 6795TIP3    H120349   3.948   6.564   4.240
 6795TIP3    H220350   3.997   6.617   4.373
 6796TIP3   OH220351   5.869   0.661   3.101
 6796TIP3    H120352   5.945   0.658   3.043
 6796TIP3    H220353   5.817   0.584   3.077
 6797TIP3   OH220354   7.028   0.521   4.352
 6797TIP3    H120355   7.036   0.591   4.286
 6797TIP3    H220356   6.997   0.445   4.303
 6798TIP3   OH220357   6.526   6.566   3.556
 6798TIP3    H120358   6.572   6.503   3.612
 6798TIP3    H220359   6.450   6.517   3.523
 6799TIP3   OH220360   4.261   5.896   4.013
 6799TIP3    H120361   4.214   5.936   3.940
 6799TIP3    H220362   4.303   5.969   4.058
 6800TIP3   OH220363   4.821   1.250   5.342
 6800TIP3    H120364   4.747   1.239   5.402
 6800TIP3    H220365   4.854   1.161   5.328
 6801TIP3   OH220366   2.750   2.072   1.373
 6801TIP3    H120367   2.671   2.083   1.426
 6801TIP3    H220368   2.760   1.977   1.365
 6802TIP3   OH220369   3.659   3.098   5.565
 6802TIP3    H120370   3.628   3.176   5.611
 6802TIP3    H220371   3.745   3.081   5.602
 6803TIP3   OH220372   1.650   3.485   1.872
 6803TIP3    H120373   1.592   3.482   1.796
 6803TIP3    H220374   1.712   3.413   1.856
 6804TIP3   OH220375   5.980   3.228   4.237
 6804TIP3    H120376   6.055   3.287   4.232
 6804TIP3    H220377   6.000   3.158   4.174
 6805TIP3   OH220378   3.363   5.713   4.250
 6805TIP3    H120379   3.340   5.670   4.168
 6805TIP3    H220380   3.378   5.641   4.311
 6806TIP3   OH220381   0.598   0.537   3.454
 6806TIP3    H120382   0.557   0.460   3.492
 6806TIP3    H220383   0.592   0.523   3.359
 6807TIP3   OH220384   3.190   2.435   3.593
 6807TIP3    H120385   3.272   2.403   3.631
 6807TIP3    H220386   3.144   2.477   3.666
 6808TIP3   OH220387   0.511   4.513   5.336
 6808TIP3    H120388   0.506   4.607   5.320
 6808TIP3    H220389   0.497   4.473   5.249
 6809TIP3   OH220390   4.821   4.034   0.596
 6809TIP3    H120391   4.861   4.040   0.682
 6809TIP3    H220392   4.754   4.103   0.596
 6810TIP3   OH220393   1.124   2.669   0.723
 6810TIP3    H120394   1.097   2.581   0.698
 6810TIP3    H220395   1.220   2.665   0.726
 6811TIP3   OH220396   4.142   2.144   1.638
 6811TIP3    H120397   4.162   2.181   1.724
 6811TIP3    H220398   4.112   2.219   1.587
 6812TIP3   OH220399   4.017   6.493   0.043
 6812TIP3    H120400   3.961   6.438   0.098
 6812TIP3    H220401   3.974   6.493  -0.043
 6813TIP3   OH220402   5.602   5.836   2.441
 6813TIP3    H120403   5.527   5.795   2.484
 6813TIP3    H220404   5.676   5.816   2.498
 6814TIP3   OH220405   1.672   1.686   0.637
 6814TIP3    H120406   1.766   1.701   0.625
 6814TIP3    H220407   1.631   1.732   0.564
 6815TIP3   OH220408   3.849   1.228   4.993
 6815TIP3    H120409   3.919   1.191   4.939
 6815TIP3    H220410   3.783   1.159   4.998
 6816TIP3   OH220411   6.957  -0.040   2.348
 6816TIP3    H120412   6.995  -0.007   2.266
 6816TIP3    H220413   6.868  -0.065   2.324
 6817TIP3   OH220414   5.835   1.295   2.597
 6817TIP3    H120415   5.801   1.272   2.510
 6817TIP3    H220416   5.757   1.306   2.651
 6818TIP3   OH220417   2.847   0.406   3.958
 6818TIP3    H120418   2.846   0.492   4.000
 6818TIP3    H220419   2.786   0.353   4.010
 6819TIP3   OH220420  -0.014   4.623   4.144
 6819TIP3    H120421  -0.013   4.625   4.049
 6819TIP3    H220422   0.016   4.534   4.167
 6820TIP3   OH220423   0.201   2.032   1.797
 6820TIP3    H120424   0.238   1.944   1.802
 6820TIP3    H220425   0.181   2.054   1.887
 6821TIP3   OH220426   4.218   0.369   3.770
 6821TIP3    H120427   4.205   0.410   3.684
 6821TIP3    H220428   4.284   0.424   3.812
 6822TIP3   OH220429   1.173   1.786   3.582
 6822TIP3    H120430   1.132   1.840   3.650
 6822TIP3    H220431   1.115   1.711   3.572
 6823TIP3   OH220432   6.519   2.476   3.543
 6823TIP3    H120433   6.530   2.473   3.638
 6823TIP3    H220434   6.605   2.452   3.508
 6824TIP3   OH220435   6.685   0.437   1.531
 6824TIP3    H120436   6.643   0.436   1.617
 6824TIP3    H220437   6.753   0.503   1.538
 6825TIP3   OH220438   0.834   0.184   0.196
 6825TIP3    H120439   0.805   0.128   0.268
 6825TIP3    H220440   0.753   0.206   0.149
 6826TIP3   OH220441   2.666   1.262   1.753
 6826TIP3    H120442   2.643   1.218   1.835
 6826TIP3    H220443   2.719   1.337   1.780
 6827TIP3   OH220444   6.058   2.315   1.124
 6827TIP3    H120445   6.003   2.252   1.078
 6827TIP3    H220446   6.039   2.301   1.217
 6828TIP3   OH220447   5.368   6.253   0.353
 6828TIP3    H120448   5.430   6.307   0.402
 6828TIP3    H220449   5.401   6.256   0.263
 6829TIP3   OH220450   3.905   4.846   1.086
 6829TIP3    H120451   3.887   4.772   1.144
 6829TIP3    H220452   3.998   4.865   1.098
 6830TIP3   OH220453   1.116   1.962   1.693
 6830TIP3    H120454   1.077   1.879   1.666
 6830TIP3    H220455   1.162   1.994   1.616
 6831TIP3   OH220456   5.918   5.586   3.199
 6831TIP3    H120457   5.916   5.524   3.272
 6831TIP3    H220458   5.970   5.542   3.132
 6832TIP3   OH220459   2.353   5.176   5.097
 6832TIP3    H120460   2.359   5.234   5.173
 6832TIP3    H220461   2.303   5.101   5.128
 6833TIP3   OH220462   3.035   4.582   3.562
 6833TIP3    H120463   3.099   4.634   3.515
 6833TIP3    H220464   2.994   4.527   3.495
 6834TIP3   OH220465   5.981   4.132   4.082
 6834TIP3    H120466   5.973   4.063   4.148
 6834TIP3    H220467   6.060   4.110   4.034
 6835TIP3   OH220468   3.179   5.558   1.296
 6835TIP3    H120469   3.219   5.636   1.255
 6835TIP3    H220470   3.103   5.592   1.342
 6836TIP3   OH220471   4.458   4.227   0.877
 6836TIP3    H120472   4.412   4.234   0.960
 6836TIP3    H220473   4.390   4.232   0.810
 6837TIP3   OH220474   0.338   6.200   0.006
 6837TIP3    H120475   0.429   6.196  -0.026
 6837TIP3    H220476   0.339   6.147   0.085
 6838TIP3   OH220477   4.263   5.855   1.221
 6838TIP3    H120478   4.171   5.880   1.218
 6838TIP3    H220479   4.309   5.936   1.241
 6839TIP3   OH220480   1.102   5.179   0.266
 6839TIP3    H120481   1.192   5.169   0.296
 6839TIP3    H220482   1.097   5.129   0.185
 6840TIP3   OH220483   6.255   4.252   5.806
 6840TIP3    H120484   6.261   4.163   5.839
 6840TIP3    H220485   6.192   4.247   5.734
 6841TIP3   OH220486   2.867   3.361   1.577
 6841TIP3    H120487   2.883   3.455   1.564
 6841TIP3    H220488   2.870   3.324   1.488
 6842TIP3   OH220489   2.987   6.671   1.960
 6842TIP3    H120490   2.935   6.731   1.906
 6842TIP3    H220491   3.068   6.657   1.910
 6843TIP3   OH220492   3.057   0.893   1.482
 6843TIP3    H120493   3.143   0.879   1.522
 6843TIP3    H220494   3.063   0.849   1.397
 6844TIP3   OH220495   6.126   4.086   2.571
 6844TIP3    H120496   6.097   4.140   2.497
 6844TIP3    H220497   6.188   4.142   2.618
 6845TIP3   OH220498   6.012   4.059   1.317
 6845TIP3    H120499   6.064   4.117   1.261
 6845TIP3    H220500   5.932   4.043   1.267
 6846TIP3   OH220501   2.506   4.228   5.652
 6846TIP3    H120502   2.560   4.267   5.583
 6846TIP3    H220503   2.537   4.269   5.732
 6847TIP3   OH220504   0.061   3.984   1.548
 6847TIP3    H120505   0.065   3.971   1.642
 6847TIP3    H220506  -0.015   3.933   1.520
 6848TIP3   OH220507   2.595   6.662   3.643
 6848TIP3    H120508   2.641   6.742   3.618
 6848TIP3    H220509   2.606   6.604   3.567
 6849TIP3   OH220510   3.466   5.382   3.443
 6849TIP3    H120511   3.511   5.298   3.445
 6849TIP3    H220512   3.514   5.437   3.504
 6850TIP3   OH220513   5.239   3.014   4.196
 6850TIP3    H120514   5.208   2.925   4.176
 6850TIP3    H220515   5.280   3.006   4.282
 6851TIP3   OH220516   6.665   1.368   4.336
 6851TIP3    H120517   6.736   1.377   4.399
 6851TIP3    H220518   6.673   1.278   4.304
 6852TIP3   OH220519   2.723   1.853   5.404
 6852TIP3    H120520   2.818   1.852   5.398
 6852TIP3    H220521   2.695   1.776   5.355
 6853TIP3   OH220522   2.455   2.544   0.097
 6853TIP3    H120523   2.543   2.521   0.065
 6853TIP3    H220524   2.460   2.531   0.192
 6854TIP3   OH220525   1.098   1.584   4.628
 6854TIP3    H120526   1.034   1.530   4.675
 6854TIP3    H220527   1.139   1.524   4.565
 6855TIP3   OH220528   7.224   0.372   4.970
 6855TIP3    H120529   7.152   0.435   4.969
 6855TIP3    H220530   7.239   0.351   4.878
 6856TIP3   OH220531   1.305   5.350   4.283
 6856TIP3    H120532   1.375   5.290   4.311
 6856TIP3    H220533   1.248   5.296   4.228
 6857TIP3   OH220534   2.594   1.988   0.683
 6857TIP3    H120535   2.636   2.025   0.606
 6857TIP3    H220536   2.538   1.919   0.650
 6858TIP3   OH220537   5.874   1.097   2.053
 6858TIP3    H120538   5.955   1.071   2.010
 6858TIP3    H220539   5.889   1.078   2.146
 6859TIP3   OH220540   6.884   6.376   4.327
 6859TIP3    H120541   6.912   6.460   4.364
 6859TIP3    H220542   6.828   6.338   4.394
 6860TIP3   OH220543   2.445   1.348   5.376
 6860TIP3    H120544   2.467   1.358   5.468
 6860TIP3    H220545   2.512   1.289   5.341
 6861TIP3   OH220546   6.875   0.647   5.736
 6861TIP3    H120547   6.844   0.559   5.711
 6861TIP3    H220548   6.859   0.653   5.830
 6862TIP3   OH220549   3.889   2.106   3.701
 6862TIP3    H120550   3.892   2.197   3.674
 6862TIP3    H220551   3.937   2.104   3.784
 6863TIP3   OH220552   4.251   5.221   4.271
 6863TIP3    H120553   4.267   5.159   4.200
 6863TIP3    H220554   4.338   5.247   4.301
 6864TIP3   OH220555   0.468   1.393   0.189
 6864TIP3    H120556   0.403   1.440   0.242
 6864TIP3    H220557   0.519   1.343   0.252
 6865TIP3   OH220558   1.639   4.490   5.551
 6865TIP3    H120559   1.705   4.503   5.483
 6865TIP3    H220560   1.562   4.538   5.519
 6866TIP3   OH220561   2.837   2.069   5.199
 6866TIP3    H120562   2.869   2.029   5.118
 6866TIP3    H220563   2.874   2.015   5.269
 6867TIP3   OH220564   1.774   5.002   0.976
 6867TIP3    H120565   1.834   4.971   0.908
 6867TIP3    H220566   1.789   5.097   0.979
 6868TIP3   OH220567   7.079   0.437   1.974
 6868TIP3    H120568   7.063   0.510   2.035
 6868TIP3    H220569   7.106   0.365   2.030
 6869TIP3   OH220570   6.799   4.052   0.403
 6869TIP3    H120571   6.721   4.050   0.347
 6869TIP3    H220572   6.764   4.067   0.491
 6870TIP3   OH220573   1.957   6.406   0.903
 6870TIP3    H120574   1.898   6.405   0.828
 6870TIP3    H220575   1.928   6.334   0.958
 6871TIP3   OH220576   6.100   1.843   0.914
 6871TIP3    H120577   6.005   1.838   0.908
 6871TIP3    H220578   6.126   1.892   0.837
 6872TIP3   OH220579   0.210   2.285   5.779
 6872TIP3    H120580   0.158   2.206   5.796
 6872TIP3    H220581   0.173   2.351   5.837
 6873TIP3   OH220582   6.930   5.712   5.244
 6873TIP3    H120583   6.977   5.759   5.312
 6873TIP3    H220584   6.904   5.779   5.181
 6874TIP3   OH220585   5.842   5.668   3.857
 6874TIP3    H120586   5.753   5.702   3.848
 6874TIP3    H220587   5.843   5.589   3.804
 6875TIP3   OH220588   6.984   2.018   2.975
 6875TIP3    H120589   6.938   1.956   3.031
 6875TIP3    H220590   7.060   2.046   3.026
 6876TIP3   OH220591   4.318   2.788   4.423
 6876TIP3    H120592   4.340   2.732   4.348
 6876TIP3    H220593   4.371   2.866   4.411
 6877TIP3   OH220594   3.323   0.768   1.076
 6877TIP3    H120595   3.272   0.790   0.998
 6877TIP3    H220596   3.257   0.748   1.143
 6878TIP3   OH220597   2.303   0.035   1.844
 6878TIP3    H120598   2.287   0.124   1.812
 6878TIP3    H220599   2.388   0.011   1.808
 6879TIP3   OH220600   0.665   4.009   4.830
 6879TIP3    H120601   0.631   4.064   4.760
 6879TIP3    H220602   0.707   4.070   4.891
 6880TIP3   OH220603   1.860   6.150   2.835
 6880TIP3    H120604   1.794   6.106   2.782
 6880TIP3    H220605   1.912   6.200   2.772
 6881TIP3   OH220606   5.122   5.665   3.916
 6881TIP3    H120607   5.207   5.674   3.874
 6881TIP3    H220608   5.115   5.571   3.935
 6882TIP3   OH220609   3.143   3.451   2.143
 6882TIP3    H120610   3.137   3.356   2.141
 6882TIP3    H220611   3.215   3.470   2.203
 6883TIP3   OH220612   1.651   1.965   5.672
 6883TIP3    H120613   1.734   1.920   5.652
 6883TIP3    H220614   1.677   2.053   5.698
 6884TIP3   OH220615   5.844   3.139   5.493
 6884TIP3    H120616   5.779   3.175   5.433
 6884TIP3    H220617   5.889   3.215   5.528
 6885TIP3   OH220618   0.230   3.043   3.118
 6885TIP3    H120619   0.177   3.107   3.071
 6885TIP3    H220620   0.166   2.985   3.160
 6886TIP3   OH220621   4.758   0.439   5.383
 6886TIP3    H120622   4.712   0.518   5.414
 6886TIP3    H220623   4.699   0.367   5.405
 6887TIP3   OH220624   1.004   4.270   5.126
 6887TIP3    H120625   1.063   4.305   5.060
 6887TIP3    H220626   1.060   4.255   5.202
 6888TIP3   OH220627   2.179   1.140   2.860
 6888TIP3    H120628   2.210   1.230   2.873
 6888TIP3    H220629   2.223   1.111   2.780
 6889TIP3   OH220630   1.586   5.072   3.047
 6889TIP3    H120631   1.580   4.984   3.085
 6889TIP3    H220632   1.678   5.082   3.025
 6890TIP3   OH220633   4.079   0.096   2.043
 6890TIP3    H120634   4.003   0.144   2.074
 6890TIP3    H220635   4.045   0.011   2.016
 6891TIP3   OH220636   6.173   0.213   5.948
 6891TIP3    H120637   6.236   0.148   5.977
 6891TIP3    H220638   6.216   0.258   5.875
 6892TIP3   OH220639   4.133   1.576   3.396
 6892TIP3    H120640   4.049   1.595   3.437
 6892TIP3    H220641   4.185   1.654   3.411
 6893TIP3   OH220642   6.429   5.108   0.239
 6893TIP3    H120643   6.396   5.158   0.163
 6893TIP3    H220644   6.392   5.154   0.315
 6894TIP3   OH220645   0.430   1.685   0.908
 6894TIP3    H120646   0.462   1.724   0.826
 6894TIP3    H220647   0.501   1.628   0.936
 6895TIP3   OH220648   3.672   0.992   5.001
 6895TIP3    H120649   3.677   0.937   4.923
 6895TIP3    H220650   3.614   0.944   5.060
 6896TIP3   OH220651  -0.022   4.094   0.003
 6896TIP3    H120652  -0.048   4.161   0.065
 6896TIP3    H220653   0.072   4.110  -0.012
 6897TIP3   OH220654   0.695   2.880   3.349
 6897TIP3    H120655   0.763   2.947   3.339
 6897TIP3    H220656   0.615   2.921   3.316
 6898TIP3   OH220657   2.882   0.067   3.334
 6898TIP3    H120658   2.939   0.124   3.387
 6898TIP3    H220659   2.854   0.122   3.261
 6899TIP3   OH220660   1.749   0.149   3.933
 6899TIP3    H120661   1.769   0.106   4.016
 6899TIP3    H220662   1.655   0.166   3.936
 6900TIP3   OH220663   4.063   6.419   1.015
 6900TIP3    H120664   4.085   6.501   1.058
 6900TIP3    H220665   4.137   6.361   1.034
 6901TIP3   OH220666   5.664   0.577   1.162
 6901TIP3    H120667   5.613   0.503   1.194
 6901TIP3    H220668   5.623   0.654   1.203
 6902TIP3   OH220669   2.517   4.185   4.608
 6902TIP3    H120670   2.515   4.280   4.624
 6902TIP3    H220671   2.598   4.156   4.649
 6903TIP3   OH220672   3.901   2.569   4.433
 6903TIP3    H120673   3.829   2.559   4.372
 6903TIP3    H220674   3.871   2.526   4.514
 6904TIP3   OH220675   4.742   1.654   5.180
 6904TIP3    H120676   4.723   1.560   5.169
 6904TIP3    H220677   4.745   1.666   5.275
 6905TIP3   OH220678   7.131   1.282   0.573
 6905TIP3    H120679   7.121   1.223   0.647
 6905TIP3    H220680   7.220   1.316   0.580
 6906TIP3   OH220681   1.497   1.369   2.164
 6906TIP3    H120682   1.401   1.369   2.165
 6906TIP3    H220683   1.520   1.421   2.087
 6907TIP3   OH220684   0.958   6.236   0.002
 6907TIP3    H120685   1.044   6.194   0.010
 6907TIP3    H220686   0.977   6.321  -0.037
 6908TIP3   OH220687   2.640   0.615   2.935
 6908TIP3    H120688   2.567   0.603   2.874
 6908TIP3    H220689   2.633   0.541   2.995
 6909TIP3   OH220690   6.519   4.778   4.268
 6909TIP3    H120691   6.607   4.808   4.244
 6909TIP3    H220692   6.493   4.834   4.341
 6910TIP3   OH220693   5.854   4.740   2.111
 6910TIP3    H120694   5.827   4.659   2.154
 6910TIP3    H220695   5.906   4.786   2.177
 6911TIP3   OH220696   7.014   0.711   5.518
 6911TIP3    H120697   6.956   0.694   5.592
 6911TIP3    H220698   7.047   0.799   5.533
 6912TIP3   OH220699   0.990   5.569   4.986
 6912TIP3    H120700   1.027   5.490   4.947
 6912TIP3    H220701   0.922   5.596   4.924
 6913TIP3   OH220702   6.030   4.673   3.126
 6913TIP3    H120703   5.985   4.600   3.084
 6913TIP3    H220704   6.123   4.648   3.124
 6914TIP3   OH220705   6.145   2.729   2.778
 6914TIP3    H120706   6.177   2.639   2.782
 6914TIP3    H220707   6.091   2.739   2.857
 6915TIP3   OH220708   0.222   1.367   2.545
 6915TIP3    H120709   0.186   1.405   2.465
 6915TIP3    H220710   0.314   1.349   2.524
 6916TIP3   OH220711   2.548   5.885   0.075
 6916TIP3    H120712   2.497   5.896   0.155
 6916TIP3    H220713   2.625   5.941   0.088
 6917TIP3   OH220714   6.522   4.609   0.943
 6917TIP3    H120715   6.441   4.651   0.973
 6917TIP3    H220716   6.570   4.680   0.899
 6918TIP3   OH220717   1.925   0.791   1.475
 6918TIP3    H120718   1.850   0.785   1.534
 6918TIP3    H220719   1.951   0.700   1.460
 6919TIP3   OH220720   6.488   2.980   4.673
 6919TIP3    H120721   6.491   2.887   4.695
 6919TIP3    H220722   6.558   2.992   4.609
 6920TIP3   OH220723   4.797   1.884   1.823
 6920TIP3    H120724   4.707   1.865   1.849
 6920TIP3    H220725   4.833   1.798   1.799
 6921TIP3   OH220726   6.614   5.154   1.072
 6921TIP3    H120727   6.649   5.221   1.131
 6921TIP3    H220728   6.582   5.085   1.131
 6922TIP3   OH220729   6.473   4.056   1.948
 6922TIP3    H120730   6.465   4.010   2.031
 6922TIP3    H220731   6.567   4.053   1.928
 6923TIP3   OH220732   1.914   2.535   3.484
 6923TIP3    H120733   1.989   2.541   3.424
 6923TIP3    H220734   1.883   2.625   3.492
 6924TIP3   OH220735   6.517   2.456   3.815
 6924TIP3    H120736   6.489   2.365   3.823
 6924TIP3    H220737   6.519   2.489   3.905
 6925TIP3   OH220738   3.131   1.508   4.739
 6925TIP3    H120739   3.151   1.419   4.711
 6925TIP3    H220740   3.036   1.514   4.737
 6926TIP3   OH220741   1.962   5.748   5.378
 6926TIP3    H120742   1.932   5.827   5.423
 6926TIP3    H220743   1.884   5.716   5.331
 6927TIP3   OH220744   0.366   5.475   3.002
 6927TIP3    H120745   0.323   5.474   3.087
 6927TIP3    H220746   0.389   5.567   2.987
 6928TIP3   OH220747   1.513   1.318   3.475
 6928TIP3    H120748   1.595   1.314   3.524
 6928TIP3    H220749   1.467   1.395   3.509
 6929TIP3   OH220750   4.985   0.428   0.674
 6929TIP3    H120751   4.989   0.422   0.578
 6929TIP3    H220752   5.016   0.516   0.694
 6930TIP3   OH220753   3.321   0.058   4.644
 6930TIP3    H120754   3.267   0.111   4.585
 6930TIP3    H220755   3.268   0.050   4.724
 6931TIP3   OH220756   3.044   5.032   2.230
 6931TIP3    H120757   3.112   5.067   2.173
 6931TIP3    H220758   2.969   5.019   2.172
 6932TIP3   OH220759   4.073   3.637   0.363
 6932TIP3    H120760   4.159   3.678   0.363
 6932TIP3    H220761   4.055   3.618   0.455
 6933TIP3   OH220762   6.385   4.315   2.185
 6933TIP3    H120763   6.372   4.333   2.279
 6933TIP3    H220764   6.362   4.398   2.142
 6934TIP3   OH220765   1.694   1.923   1.188
 6934TIP3    H120766   1.631   1.931   1.116
 6934TIP3    H220767   1.772   1.970   1.157
 6935TIP3   OH220768   4.203   2.677   3.197
 6935TIP3    H120769   4.226   2.696   3.106
 6935TIP3    H220770   4.107   2.682   3.198
 6936TIP3   OH220771   3.702   4.553   0.288
 6936TIP3    H120772   3.656   4.484   0.334
 6936TIP3    H220773   3.753   4.598   0.356
 6937TIP3   OH220774   6.897   1.852   2.581
 6937TIP3    H120775   6.951   1.899   2.645
 6937TIP3    H220776   6.872   1.919   2.518
 6938TIP3   OH220777   6.252   3.502   4.520
 6938TIP3    H120778   6.241   3.423   4.573
 6938TIP3    H220779   6.278   3.570   4.582
 6939TIP3   OH220780   1.970   4.821   0.542
 6939TIP3    H120781   1.919   4.794   0.466
 6939TIP3    H220782   2.060   4.827   0.510
 6940TIP3   OH220783   2.415   2.661   5.279
 6940TIP3    H120784   2.506   2.673   5.251
 6940TIP3    H220785   2.363   2.702   5.210
 6941TIP3   OH220786   4.748   0.056   4.097
 6941TIP3    H120787   4.817   0.009   4.145
 6941TIP3    H220788   4.765   0.148   4.117
 6942TIP3   OH220789   3.011   6.198   1.350
 6942TIP3    H120790   2.972   6.141   1.417
 6942TIP3    H220791   3.024   6.281   1.395
 6943TIP3   OH220792   6.201   6.047   5.425
 6943TIP3    H120793   6.246   6.039   5.509
 6943TIP3    H220794   6.219   5.964   5.380
 6944TIP3   OH220795   6.037   4.582   2.316
 6944TIP3    H120796   6.035   4.630   2.234
 6944TIP3    H220797   5.981   4.632   2.375
 6945TIP3   OH220798   3.147   2.328   1.189
 6945TIP3    H120799   3.230   2.281   1.185
 6945TIP3    H220800   3.086   2.274   1.138
 6946TIP3   OH220801   2.093   2.540   1.380
 6946TIP3    H120802   2.014   2.490   1.398
 6946TIP3    H220803   2.083   2.620   1.432
 6947TIP3   OH220804   2.025   2.662   3.999
 6947TIP3    H120805   2.006   2.601   3.927
 6947TIP3    H220806   2.052   2.742   3.955
 6948TIP3   OH220807   2.614   4.805   3.572
 6948TIP3    H120808   2.559   4.883   3.584
 6948TIP3    H220809   2.704   4.837   3.582
 6949TIP3   OH220810   5.891   0.288   5.871
 6949TIP3    H120811   5.984   0.281   5.888
 6949TIP3    H220812   5.885   0.341   5.791
 6950TIP3   OH220813   5.195   1.255   2.284
 6950TIP3    H120814   5.157   1.167   2.281
 6950TIP3    H220815   5.128   1.308   2.328
 6951TIP3   OH220816   6.133   3.017   4.496
 6951TIP3    H120817   6.200   2.952   4.477
 6951TIP3    H220818   6.181   3.094   4.526
 6952TIP3   OH220819   6.875   0.177   5.752
 6952TIP3    H120820   6.915   0.102   5.709
 6952TIP3    H220821   6.946   0.240   5.761
 6953TIP3   OH220822   2.642   6.537   2.240
 6953TIP3    H120823   2.668   6.613   2.188
 6953TIP3    H220824   2.724   6.492   2.260
 6954TIP3   OH220825   3.063   0.489   5.368
 6954TIP3    H120826   3.073   0.487   5.273
 6954TIP3    H220827   3.106   0.571   5.395
 6955TIP3   OH220828   1.802   0.496   4.420
 6955TIP3    H120829   1.796   0.484   4.515
 6955TIP3    H220830   1.830   0.587   4.409
 6956TIP3   OH220831   1.834   1.852   2.865
 6956TIP3    H120832   1.761   1.799   2.835
 6956TIP3    H220833   1.911   1.812   2.824
 6957TIP3   OH220834   6.324   4.013   4.953
 6957TIP3    H120835   6.283   3.931   4.981
 6957TIP3    H220836   6.315   4.013   4.858
 6958TIP3   OH220837   0.207   0.447   2.989
 6958TIP3    H120838   0.115   0.461   2.969
 6958TIP3    H220839   0.212   0.356   3.017
 6959TIP3   OH220840   5.624   5.771   2.175
 6959TIP3    H120841   5.617   5.785   2.270
 6959TIP3    H220842   5.619   5.858   2.137
 6960TIP3   OH220843   2.044   2.451   4.851
 6960TIP3    H120844   1.967   2.462   4.906
 6960TIP3    H220845   2.031   2.366   4.808
 6961TIP3   OH220846   3.531   0.871   0.313
 6961TIP3    H120847   3.471   0.796   0.322
 6961TIP3    H220848   3.556   0.893   0.403
 6962TIP3   OH220849   4.182   0.170   3.094
 6962TIP3    H120850   4.143   0.084   3.076
 6962TIP3    H220851   4.270   0.150   3.125
 6963TIP3   OH220852   6.613   1.359   1.180
 6963TIP3    H120853   6.609   1.422   1.108
 6963TIP3    H220854   6.562   1.400   1.250
 6964TIP3   OH220855   6.705   4.694   2.383
 6964TIP3    H120856   6.763   4.690   2.307
 6964TIP3    H220857   6.674   4.604   2.395
 6965TIP3   OH220858   0.570   4.900   4.824
 6965TIP3    H120859   0.598   4.809   4.827
 6965TIP3    H220860   0.647   4.948   4.791
 6966TIP3   OH220861   7.207   2.463   5.133
 6966TIP3    H120862   7.228   2.454   5.040
 6966TIP3    H220863   7.163   2.548   5.140
 6967TIP3   OH220864   2.371   4.882   2.537
 6967TIP3    H120865   2.372   4.883   2.441
 6967TIP3    H220866   2.367   4.975   2.562
 6968TIP3   OH220867   4.740   1.313   0.289
 6968TIP3    H120868   4.730   1.236   0.345
 6968TIP3    H220869   4.741   1.387   0.351
 6969TIP3   OH220870   4.414   2.108   3.969
 6969TIP3    H120871   4.393   2.199   3.945
 6969TIP3    H220872   4.333   2.075   4.007
 6970TIP3   OH220873   3.247   1.298   1.532
 6970TIP3    H120874   3.315   1.231   1.531
 6970TIP3    H220875   3.165   1.250   1.541
 6971TIP3   OH220876   2.575   1.238   4.521
 6971TIP3    H120877   2.649   1.292   4.492
 6971TIP3    H220878   2.498   1.294   4.510
 6972TIP3   OH220879   4.499   2.422   4.527
 6972TIP3    H120880   4.546   2.392   4.449
 6972TIP3    H220881   4.514   2.353   4.592
 6973TIP3   OH220882   0.895   3.531   2.045
 6973TIP3    H120883   0.928   3.475   1.975
 6973TIP3    H220884   0.973   3.565   2.089
 6974TIP3   OH220885   2.731   4.228   5.239
 6974TIP3    H120886   2.654   4.191   5.194
 6974TIP3    H220887   2.777   4.277   5.171
 6975TIP3   OH220888   0.584   6.370   4.786
 6975TIP3    H120889   0.563   6.396   4.696
 6975TIP3    H220890   0.541   6.286   4.797
 6976TIP3   OH220891   2.156   3.148   2.320
 6976TIP3    H120892   2.247   3.140   2.351
 6976TIP3    H220893   2.120   3.060   2.328
 6977TIP3   OH220894   4.153   3.522   4.174
 6977TIP3    H120895   4.101   3.446   4.201
 6977TIP3    H220896   4.187   3.499   4.088
 6978TIP3   OH220897   0.352   1.911   1.570
 6978TIP3    H120898   0.310   1.994   1.592
 6978TIP3    H220899   0.392   1.882   1.652
 6979TIP3   OH220900   4.734   5.368   5.757
 6979TIP3    H120901   4.664   5.362   5.822
 6979TIP3    H220902   4.694   5.412   5.682
 6980TIP3   OH220903   3.805   2.371   1.326
 6980TIP3    H120904   3.854   2.295   1.295
 6980TIP3    H220905   3.815   2.369   1.421
 6981TIP3   OH220906   2.165   3.502   3.014
 6981TIP3    H120907   2.123   3.541   2.937
 6981TIP3    H220908   2.108   3.526   3.087
 6982TIP3   OH220909   0.137   3.862   2.375
 6982TIP3    H120910   0.080   3.928   2.415
 6982TIP3    H220911   0.103   3.778   2.407
 6983TIP3   OH220912   6.781   1.207   4.963
 6983TIP3    H120913   6.754   1.227   5.053
 6983TIP3    H220914   6.851   1.270   4.944
 6984TIP3   OH220915   4.848   0.448   2.352
 6984TIP3    H120916   4.793   0.370   2.351
 6984TIP3    H220917   4.803   0.509   2.293
 6985TIP3   OH220918   4.261   4.986   4.558
 6985TIP3    H120919   4.242   4.917   4.622
 6985TIP3    H220920   4.198   4.971   4.488
 6986TIP3   OH220921   0.723   4.222   3.405
 6986TIP3    H120922   0.643   4.239   3.355
 6986TIP3    H220923   0.773   4.304   3.398
 6987TIP3   OH220924   2.775   0.424   3.373
 6987TIP3    H120925   2.738   0.427   3.285
 6987TIP3    H220926   2.867   0.402   3.359
 6988TIP3   OH220927   6.852   6.230   0.802
 6988TIP3    H120928   6.798   6.218   0.880
 6988TIP3    H220929   6.942   6.224   0.833
 6989TIP3   OH220930   4.920   0.992   4.436
 6989TIP3    H120931   4.965   1.051   4.495
 6989TIP3    H220932   4.917   0.909   4.483
 6990TIP3   OH220933   2.536   4.012   2.204
 6990TIP3    H120934   2.472   4.069   2.161
 6990TIP3    H220935   2.496   3.925   2.200
 6991TIP3   OH220936   1.410   6.768   3.570
 6991TIP3    H120937   1.319   6.781   3.542
 6991TIP3    H220938   1.403   6.748   3.663
 6992TIP3   OH220939   6.928   3.277   2.793
 6992TIP3    H120940   6.882   3.208   2.746
 6992TIP3    H220941   6.876   3.356   2.777
 6993TIP3   OH220942   4.475   4.292   3.686
 6993TIP3    H120943   4.497   4.381   3.713
 6993TIP3    H220944   4.395   4.303   3.633
 6994TIP3   OH220945   3.166   2.484   5.946
 6994TIP3    H120946   3.189   2.405   5.995
 6994TIP3    H220947   3.134   2.451   5.862
 6995TIP3   OH220948   1.042   0.110   5.528
 6995TIP3    H120949   1.094   0.066   5.596
 6995TIP3    H220950   1.100   0.178   5.494
 6996TIP3   OH220951   5.306   6.344   1.048
 6996TIP3    H120952   5.237   6.323   1.111
 6996TIP3    H220953   5.337   6.431   1.073
 6997TIP3   OH220954   0.925   0.341   5.334
 6997TIP3    H120955   0.855   0.386   5.381
 6997TIP3    H220956   0.937   0.392   5.254
 6998TIP3   OH220957   0.414   2.965   0.093
 6998TIP3    H120958   0.350   2.973   0.164
 6998TIP3    H220959   0.360   2.961   0.014
 6999TIP3   OH220960   5.794   0.670   4.694
 6999TIP3    H120961   5.790   0.585   4.650
 6999TIP3    H220962   5.886   0.680   4.718
 7000TIP3   OH220963   5.726   0.401   3.385
 7000TIP3    H120964   5.742   0.307   3.381
 7000TIP3    H220965   5.793   0.434   3.446
 7001TIP3   OH220966   5.421   5.745   1.100
 7001TIP3    H120967   5.496   5.763   1.043
 7001TIP3    H220968   5.347   5.787   1.056
 7002TIP3   OH220969   0.379   4.879   1.478
 7002TIP3    H120970   0.363   4.945   1.546
 7002TIP3    H220971   0.373   4.928   1.396
 7003TIP3   OH220972   3.617   0.903   4.718
 7003TIP3    H120973   3.684   0.868   4.660
 7003TIP3    H220974   3.634   0.997   4.722
 7004TIP3   OH220975   0.831   4.637   1.894
 7004TIP3    H120976   0.748   4.640   1.942
 7004TIP3    H220977   0.815   4.686   1.814
 7005TIP3   OH220978   1.600   6.548   1.685
 7005TIP3    H120979   1.599   6.563   1.591
 7005TIP3    H220980   1.518   6.502   1.703
 7006TIP3   OH220981   5.214   1.109   4.885
 7006TIP3    H120982   5.303   1.080   4.902
 7006TIP3    H220983   5.177   1.128   4.971
 7007TIP3   OH220984   2.995   5.561   3.073
 7007TIP3    H120985   3.072   5.619   3.074
 7007TIP3    H220986   2.920   5.620   3.068
 7008TIP3   OH220987   4.486   1.679   4.328
 7008TIP3    H120988   4.493   1.770   4.299
 7008TIP3    H220989   4.397   1.653   4.304
 7009TIP3   OH220990   4.817   6.761   1.428
 7009TIP3    H120991   4.841   6.766   1.521
 7009TIP3    H220992   4.862   6.836   1.388
 7010TIP3   OH220993   6.483  -0.002   0.396
 7010TIP3    H120994   6.426   0.014   0.321
 7010TIP3    H220995   6.555  -0.054   0.361
 7011TIP3   OH220996   5.646   4.511   5.007
 7011TIP3    H120997   5.591   4.545   4.936
 7011TIP3    H220998   5.708   4.582   5.025
 7012TIP3   OH220999   3.407   0.263   4.426
 7012TIP3    H121000   3.378   0.354   4.428
 7012TIP3    H221001   3.469   0.256   4.499
 7013TIP3   OH221002   2.094   5.517   0.167
 7013TIP3    H121003   2.002   5.509   0.191
 7013TIP3    H221004   2.128   5.428   0.173
 7014TIP3   OH221005   4.289   2.689   4.690
 7014TIP3    H121006   4.305   2.718   4.600
 7014TIP3    H221007   4.276   2.594   4.682
 7015TIP3   OH221008   5.790   2.700   5.660
 7015TIP3    H121009   5.786   2.747   5.743
 7015TIP3    H221010   5.790   2.769   5.593
 7016TIP3   OH221011   4.733   6.489   0.800
 7016TIP3    H121012   4.794   6.435   0.749
 7016TIP3    H221013   4.678   6.425   0.845
 7017TIP3   OH221014   2.423   5.844   0.950
 7017TIP3    H121015   2.365   5.907   0.992
 7017TIP3    H221016   2.400   5.760   0.990
 7018TIP3   OH221017   6.631   1.895   3.322
 7018TIP3    H121018   6.714   1.933   3.292
 7018TIP3    H221019   6.644   1.882   3.416
 7019TIP3   OH221020   5.822   0.648   0.820
 7019TIP3    H121021   5.740   0.600   0.834
 7019TIP3    H221022   5.846   0.679   0.907
 7020TIP3   OH221023   0.026   5.825   3.829
 7020TIP3    H121024   0.073   5.807   3.910
 7020TIP3    H221025  -0.009   5.913   3.840
 7021TIP3   OH221026   4.598   2.559   1.783
 7021TIP3    H121027   4.686   2.563   1.821
 7021TIP3    H221028   4.572   2.650   1.774
 7022TIP3   OH221029   3.511   6.528   1.476
 7022TIP3    H121030   3.533   6.590   1.407
 7022TIP3    H221031   3.589   6.473   1.484
 7023TIP3   OH221032   6.505   2.704   4.929
 7023TIP3    H121033   6.423   2.662   4.955
 7023TIP3    H221034   6.548   2.726   5.011
 7024TIP3   OH221035   5.595   1.385   0.695
 7024TIP3    H121036   5.645   1.306   0.716
 7024TIP3    H221037   5.522   1.384   0.757
 7025TIP3   OH221038   3.763   0.342   2.618
 7025TIP3    H121039   3.683   0.335   2.671
 7025TIP3    H221040   3.782   0.435   2.615
 7026TIP3   OH221041   0.398   0.398   5.364
 7026TIP3    H121042   0.317   0.379   5.318
 7026TIP3    H221043   0.388   0.489   5.393
 7027TIP3   OH221044   5.878   1.216   4.078
 7027TIP3    H121045   5.813   1.286   4.071
 7027TIP3    H221046   5.861   1.175   4.163
 7028TIP3   OH221047   2.634   2.559   4.150
 7028TIP3    H121048   2.692   2.596   4.216
 7028TIP3    H221049   2.596   2.635   4.107
 7029TIP3   OH221050   3.317   3.852   0.893
 7029TIP3    H121051   3.398   3.813   0.861
 7029TIP3    H221052   3.274   3.887   0.814
 7030TIP3   OH221053   7.170   3.038   1.311
 7030TIP3    H121054   7.217   3.046   1.395
 7030TIP3    H221055   7.231   2.994   1.253
 7031TIP3   OH221056   3.153   0.763   0.865
 7031TIP3    H121057   3.081   0.795   0.811
 7031TIP3    H221058   3.120   0.682   0.904
 7032TIP3   OH221059   6.295   2.023   2.631
 7032TIP3    H121060   6.223   1.967   2.660
 7032TIP3    H221061   6.272   2.111   2.662
 7033TIP3   OH221062   1.763   3.885   0.988
 7033TIP3    H121063   1.852   3.851   0.994
 7033TIP3    H221064   1.731   3.886   1.078
 7034TIP3   OH221065   5.380   0.604   2.151
 7034TIP3    H121066   5.474   0.596   2.134
 7034TIP3    H221067   5.363   0.698   2.147
 7035TIP3   OH221068   5.960   6.695   5.681
 7035TIP3    H121069   6.029   6.668   5.741
 7035TIP3    H221070   5.936   6.616   5.633
 7036TIP3   OH221071   4.735   0.581   4.499
 7036TIP3    H121072   4.812   0.524   4.492
 7036TIP3    H221073   4.755   0.639   4.573
 7037TIP3   OH221074   5.644   1.618   5.252
 7037TIP3    H121075   5.667   1.568   5.174
 7037TIP3    H221076   5.585   1.560   5.301
 7038TIP3   OH221077   4.369   0.075   5.591
 7038TIP3    H121078   4.451   0.116   5.563
 7038TIP3    H221079   4.368   0.086   5.686
 7039TIP3   OH221080   4.421   0.116   1.299
 7039TIP3    H121081   4.458   0.110   1.211
 7039TIP3    H221082   4.332   0.148   1.286
 7040TIP3   OH221083   5.388   5.585   3.141
 7040TIP3    H121084   5.363   5.501   3.102
 7040TIP3    H221085   5.418   5.562   3.229
 7041TIP3   OH221086   6.996   0.165   3.702
 7041TIP3    H121087   7.074   0.207   3.740
 7041TIP3    H221088   7.028   0.126   3.621
 7042TIP3   OH221089   0.425   0.207   3.083
 7042TIP3    H121090   0.405   0.188   2.991
 7042TIP3    H221091   0.506   0.259   3.079
 7043TIP3   OH221092   4.092   6.802   5.349
 7043TIP3    H121093   4.051   6.798   5.263
 7043TIP3    H221094   4.044   6.737   5.401
 7044TIP3   OH221095   5.619   4.667   4.453
 7044TIP3    H121096   5.678   4.597   4.482
 7044TIP3    H221097   5.657   4.747   4.489
 7045TIP3   OH221098   5.306   2.238   2.166
 7045TIP3    H121099   5.248   2.172   2.128
 7045TIP3    H221100   5.330   2.203   2.252
 7046TIP3   OH221101   5.487   1.790   3.632
 7046TIP3    H121102   5.543   1.835   3.696
 7046TIP3    H221103   5.515   1.825   3.547
 7047TIP3   OH221104   5.580   3.702   4.466
 7047TIP3    H121105   5.548   3.787   4.434
 7047TIP3    H221106   5.500   3.653   4.488
 7048TIP3   OH221107   0.551   2.353   2.151
 7048TIP3    H121108   0.520   2.266   2.126
 7048TIP3    H221109   0.641   2.356   2.118
 7049TIP3   OH221110   0.311   5.205   3.830
 7049TIP3    H121111   0.332   5.256   3.751
 7049TIP3    H221112   0.216   5.196   3.828
 7050TIP3   OH221113   6.803   2.956   5.569
 7050TIP3    H121114   6.818   2.938   5.662
 7050TIP3    H221115   6.815   3.051   5.562
 7051TIP3   OH221116   1.800   5.098   4.556
 7051TIP3    H121117   1.892   5.120   4.542
 7051TIP3    H221118   1.770   5.069   4.469
 7052TIP3   OH221119   2.680   2.001   3.280
 7052TIP3    H121120   2.745   2.067   3.260
 7052TIP3    H221121   2.710   1.962   3.362
 7053TIP3   OH221122   0.419   0.830   2.402
 7053TIP3    H121123   0.414   0.783   2.485
 7053TIP3    H221124   0.511   0.822   2.376
 7054TIP3   OH221125   6.766   2.805   0.723
 7054TIP3    H121126   6.855   2.771   0.708
 7054TIP3    H221127   6.763   2.886   0.672
 7055TIP3   OH221128   2.162   0.265   0.517
 7055TIP3    H121129   2.072   0.241   0.540
 7055TIP3    H221130   2.216   0.211   0.576
 7056TIP3   OH221131   3.383   6.767   4.245
 7056TIP3    H121132   3.408   6.784   4.336
 7056TIP3    H221133   3.417   6.680   4.227
 7057TIP3   OH221134   5.790   1.450   1.541
 7057TIP3    H121135   5.738   1.421   1.616
 7057TIP3    H221136   5.880   1.452   1.575
 7058TIP3   OH221137   3.732   6.479   0.415
 7058TIP3    H121138   3.817   6.510   0.446
 7058TIP3    H221139   3.732   6.496   0.321
 7059TIP3   OH221140   6.689   0.765   4.649
 7059TIP3    H121141   6.644   0.831   4.595
 7059TIP3    H221142   6.685   0.685   4.596
 7060TIP3   OH221143   3.379   5.607   0.846
 7060TIP3    H121144   3.294   5.607   0.891
 7060TIP3    H221145   3.390   5.516   0.818
 7061TIP3   OH221146   2.016   3.782   0.845
 7061TIP3    H121147   2.086   3.720   0.863
 7061TIP3    H221148   2.059   3.867   0.845
 7062TIP3   OH221149   6.177   0.970   2.344
 7062TIP3    H121150   6.084   0.965   2.363
 7062TIP3    H221151   6.191   0.905   2.276
 7063TIP3   OH221152   6.788   2.298   1.993
 7063TIP3    H121153   6.774   2.361   2.063
 7063TIP3    H221154   6.882   2.298   1.978
 7064TIP3   OH221155   3.961   6.149   1.206
 7064TIP3    H121156   3.961   6.093   1.284
 7064TIP3    H221157   3.904   6.222   1.229
 7065TIP3   OH221158   2.046   0.931   5.429
 7065TIP3    H121159   2.106   1.005   5.431
 7065TIP3    H221160   2.068   0.880   5.506
 7066TIP3   OH221161   4.089   1.807   0.496
 7066TIP3    H121162   4.011   1.862   0.499
 7066TIP3    H221163   4.160   1.867   0.476
 7067TIP3   OH221164   4.096   2.858   3.806
 7067TIP3    H121165   4.028   2.839   3.742
 7067TIP3    H221166   4.048   2.878   3.887
 7068TIP3   OH221167   5.755   3.781   4.270
 7068TIP3    H121168   5.719   3.810   4.354
 7068TIP3    H221169   5.817   3.712   4.294
 7069TIP3   OH221170   3.581   5.194   4.286
 7069TIP3    H121171   3.528   5.274   4.288
 7069TIP3    H221172   3.518   5.124   4.267
 7070TIP3   OH221173   4.371   1.374   2.758
 7070TIP3    H121174   4.392   1.434   2.687
 7070TIP3    H221175   4.449   1.373   2.813
 7071TIP3   OH221176   6.536   1.538   3.191
 7071TIP3    H121177   6.587   1.588   3.127
 7071TIP3    H221178   6.569   1.449   3.184
 7072TIP3   OH221179   2.082   2.332   0.434
 7072TIP3    H121180   2.164   2.289   0.457
 7072TIP3    H221181   2.104   2.389   0.360
 7073TIP3   OH221182   2.666   5.653   2.186
 7073TIP3    H121183   2.620   5.659   2.270
 7073TIP3    H221184   2.745   5.705   2.197
 7074TIP3   OH221185   2.912   4.683   0.756
 7074TIP3    H121186   2.913   4.599   0.710
 7074TIP3    H221187   2.982   4.675   0.821
 7075TIP3   OH221188   0.946   2.935   2.416
 7075TIP3    H121189   0.916   2.925   2.506
 7075TIP3    H221190   1.024   2.990   2.422
 7076TIP3   OH221191   2.751   1.631   4.192
 7076TIP3    H121192   2.673   1.680   4.219
 7076TIP3    H221193   2.797   1.612   4.274
 7077TIP3   OH221194   2.987   4.043   5.466
 7077TIP3    H121195   2.923   3.992   5.516
 7077TIP3    H221196   2.944   4.056   5.381
 7078TIP3   OH221197   6.224   5.700   0.911
 7078TIP3    H121198   6.264   5.778   0.949
 7078TIP3    H221199   6.172   5.663   0.982
 7079TIP3   OH221200   5.443   4.666   4.246
 7079TIP3    H121201   5.464   4.691   4.156
 7079TIP3    H221202   5.524   4.681   4.294
 7080TIP3   OH221203   3.216   2.702   3.900
 7080TIP3    H121204   3.253   2.627   3.853
 7080TIP3    H221205   3.123   2.701   3.878
 7081TIP3   OH221206   1.476   4.957   5.778
 7081TIP3    H121207   1.490   4.880   5.834
 7081TIP3    H221208   1.547   5.017   5.804
 7082TIP3   OH221209   5.851   0.234   1.093
 7082TIP3    H121210   5.865   0.273   1.180
 7082TIP3    H221211   5.755   0.229   1.086
 7083TIP3   OH221212   5.321   3.087   4.898
 7083TIP3    H121213   5.400   3.089   4.952
 7083TIP3    H221214   5.265   3.156   4.933
 7084TIP3   OH221215   0.798   5.860   5.111
 7084TIP3    H121216   0.788   5.876   5.017
 7084TIP3    H221217   0.715   5.821   5.138
 7085TIP3   OH221218   5.875   3.492   2.918
 7085TIP3    H121219   5.931   3.437   2.864
 7085TIP3    H221220   5.789   3.450   2.916
 7086TIP3   OH221221   1.364   0.275   4.455
 7086TIP3    H121222   1.452   0.260   4.491
 7086TIP3    H221223   1.371   0.248   4.363
 7087TIP3   OH221224   0.250   5.047   4.362
 7087TIP3    H121225   0.167   5.062   4.407
 7087TIP3    H221226   0.233   4.974   4.303
 7088TIP3   OH221227   2.116   1.353   3.535
 7088TIP3    H121228   2.075   1.350   3.448
 7088TIP3    H221229   2.161   1.437   3.538
 7089TIP3   OH221230   6.237   5.443   5.689
 7089TIP3    H121231   6.272   5.379   5.627
 7089TIP3    H221232   6.250   5.404   5.775
 7090TIP3   OH221233   1.833   5.118   2.943
 7090TIP3    H121234   1.848   5.212   2.950
 7090TIP3    H221235   1.854   5.097   2.852
 7091TIP3   OH221236   5.810   3.485   0.426
 7091TIP3    H121237   5.854   3.482   0.510
 7091TIP3    H221238   5.806   3.394   0.397
 7092TIP3   OH221239   2.227   1.458   2.043
 7092TIP3    H121240   2.243   1.471   1.950
 7092TIP3    H221241   2.237   1.363   2.056
 7093TIP3   OH221242   2.100   3.213   1.114
 7093TIP3    H121243   2.124   3.122   1.131
 7093TIP3    H221244   2.019   3.207   1.063
 7094TIP3   OH221245   5.223   1.985   0.913
 7094TIP3    H121246   5.160   1.958   0.979
 7094TIP3    H221247   5.244   1.904   0.866
 7095TIP3   OH221248   3.563   6.385   3.563
 7095TIP3    H121249   3.573   6.465   3.511
 7095TIP3    H221250   3.554   6.416   3.653
 7096TIP3   OH221251   4.983   3.155   3.492
 7096TIP3    H121252   4.931   3.198   3.560
 7096TIP3    H221253   5.032   3.087   3.538
 7097TIP3   OH221254   4.844   2.046   1.621
 7097TIP3    H121255   4.938   2.038   1.607
 7097TIP3    H221256   4.824   1.981   1.689
 7098TIP3   OH221257   0.477   5.228   3.295
 7098TIP3    H121258   0.563   5.200   3.325
 7098TIP3    H221259   0.483   5.324   3.293
 7099TIP3   OH221260   2.610   0.977   4.526
 7099TIP3    H121261   2.678   0.952   4.464
 7099TIP3    H221262   2.610   1.073   4.526
 7100TIP3   OH221263   2.841   5.304  -0.029
 7100TIP3    H121264   2.905   5.283   0.040
 7100TIP3    H221265   2.872   5.387  -0.065
 7101TIP3   OH221266   6.715   3.588   0.770
 7101TIP3    H121267   6.750   3.633   0.847
 7101TIP3    H221268   6.621   3.583   0.786
 7102TIP3   OH221269   5.030   1.090   1.185
 7102TIP3    H121270   5.115   1.115   1.221
 7102TIP3    H221271   5.050   1.053   1.099
 7103TIP3   OH221272   1.297   5.729   1.625
 7103TIP3    H121273   1.239   5.699   1.555
 7103TIP3    H221274   1.306   5.823   1.609
 7104TIP3   OH221275   6.551   3.445   2.488
 7104TIP3    H121276   6.492   3.377   2.455
 7104TIP3    H221277   6.495   3.502   2.542
 7105TIP3   OH221278   3.376   2.484   1.748
 7105TIP3    H121279   3.313   2.528   1.804
 7105TIP3    H221280   3.326   2.455   1.672
 7106TIP3   OH221281   6.351   2.976   2.214
 7106TIP3    H121282   6.269   2.929   2.203
 7106TIP3    H221283   6.417   2.918   2.176
 7107TIP3   OH221284   0.543   4.229   3.182
 7107TIP3    H121285   0.591   4.147   3.165
 7107TIP3    H221286   0.451   4.205   3.171
 7108TIP3   OH221287   1.119   1.624   4.313
 7108TIP3    H121288   1.154   1.555   4.370
 7108TIP3    H221289   1.169   1.615   4.232
 7109TIP3   OH221290   1.348   5.280   5.345
 7109TIP3    H121291   1.412   5.335   5.299
 7109TIP3    H221292   1.376   5.282   5.437
 7110TIP3   OH221293   3.758   4.191   3.071
 7110TIP3    H121294   3.839   4.189   3.121
 7110TIP3    H221295   3.707   4.118   3.105
 7111TIP3   OH221296   1.957   5.670   2.232
 7111TIP3    H121297   1.995   5.586   2.204
 7111TIP3    H221298   2.028   5.713   2.280
 7112TIP3   OH221299   4.289   6.020   1.959
 7112TIP3    H121300   4.282   6.115   1.952
 7112TIP3    H221301   4.199   5.990   1.968
 7113TIP3   OH221302   1.111   1.859   1.264
 7113TIP3    H121303   1.133   1.862   1.171
 7113TIP3    H221304   1.175   1.798   1.302
 7114TIP3   OH221305   7.206   5.339   2.172
 7114TIP3    H121306   7.216   5.245   2.155
 7114TIP3    H221307   7.296   5.370   2.183
 7115TIP3   OH221308   0.466  -0.008   1.046
 7115TIP3    H121309   0.398   0.049   1.011
 7115TIP3    H221310   0.539   0.001   0.985
 7116TIP3   OH221311   5.165   4.759   0.712
 7116TIP3    H121312   5.199   4.686   0.764
 7116TIP3    H221313   5.112   4.717   0.644
 7117TIP3   OH221314   6.714   3.067   3.263
 7117TIP3    H121315   6.796   3.050   3.217
 7117TIP3    H221316   6.646   3.036   3.204
 7118TIP3   OH221317   4.832   1.720   2.876
 7118TIP3    H121318   4.737   1.708   2.876
 7118TIP3    H221319   4.858   1.702   2.966
 7119TIP3   OH221320   1.268   2.013   3.096
 7119TIP3    H121321   1.323   1.939   3.120
 7119TIP3    H221322   1.229   2.042   3.178
 7120TIP3   OH221323   4.867   2.033   2.055
 7120TIP3    H121324   4.842   2.115   2.014
 7120TIP3    H221325   4.806   1.968   2.019
 7121TIP3   OH221326   0.642   3.691   0.558
 7121TIP3    H121327   0.710   3.688   0.491
 7121TIP3    H221328   0.685   3.660   0.638
 7122TIP3   OH221329   4.906   5.277   2.397
 7122TIP3    H121330   4.844   5.212   2.431
 7122TIP3    H221331   4.851   5.339   2.349
 7123TIP3   OH221332   2.342   4.742   3.307
 7123TIP3    H121333   2.368   4.662   3.263
 7123TIP3    H221334   2.331   4.717   3.399
 7124TIP3   OH221335   3.466   0.460   5.053
 7124TIP3    H121336   3.528   0.407   5.102
 7124TIP3    H221337   3.503   0.549   5.056
 7125TIP3   OH221338   6.963   0.752   4.719
 7125TIP3    H121339   6.978   0.823   4.782
 7125TIP3    H221340   6.875   0.768   4.686
 7126TIP3   OH221341   0.251   4.557   3.591
 7126TIP3    H121342   0.235   4.576   3.683
 7126TIP3    H221343   0.174   4.591   3.545
 7127TIP3   OH221344   1.397   4.776   0.507
 7127TIP3    H121345   1.492   4.782   0.514
 7127TIP3    H221346   1.372   4.704   0.564
 7128TIP3   OH221347   2.499   6.364   4.609
 7128TIP3    H121348   2.488   6.284   4.559
 7128TIP3    H221349   2.586   6.356   4.648
 7129TIP3   OH221350   4.453   0.980   1.257
 7129TIP3    H121351   4.363   0.987   1.290
 7129TIP3    H221352   4.502   1.043   1.309
 7130TIP3   OH221353   0.403   2.125   4.271
 7130TIP3    H121354   0.494   2.152   4.285
 7130TIP3    H221355   0.352   2.179   4.331
 7131TIP3   OH221356   5.748   3.386   3.527
 7131TIP3    H121357   5.746   3.481   3.527
 7131TIP3    H221358   5.839   3.364   3.549
 7132TIP3   OH221359   6.751   5.670   1.047
 7132TIP3    H121360   6.665   5.630   1.043
 7132TIP3    H221361   6.733   5.764   1.056
 7133TIP3   OH221362   7.112   1.441   5.526
 7133TIP3    H121363   7.046   1.419   5.592
 7133TIP3    H221364   7.178   1.372   5.534
 7134TIP3   OH221365   0.038   4.989   0.357
 7134TIP3    H121366   0.015   5.016   0.445
 7134TIP3    H221367   0.131   5.008   0.349
 7135TIP3   OH221368   4.487   3.773   3.278
 7135TIP3    H121369   4.430   3.699   3.254
 7135TIP3    H221370   4.519   3.750   3.366
 7136TIP3   OH221371   0.933   1.581   4.902
 7136TIP3    H121372   0.922   1.519   4.830
 7136TIP3    H221373   0.851   1.631   4.904
 7137TIP3   OH221374   2.840   4.932   4.050
 7137TIP3    H121375   2.779   4.922   4.123
 7137TIP3    H221376   2.917   4.882   4.075
 7138TIP3   OH221377   1.396   2.533   1.647
 7138TIP3    H121378   1.389   2.526   1.742
 7138TIP3    H221379   1.410   2.627   1.631
 7139TIP3   OH221380   5.368   0.411   5.573
 7139TIP3    H121381   5.344   0.477   5.639
 7139TIP3    H221382   5.385   0.462   5.493
 7140TIP3   OH221383   3.637   0.341   1.860
 7140TIP3    H121384   3.649   0.412   1.798
 7140TIP3    H221385   3.677   0.374   1.941
 7141TIP3   OH221386   1.235   5.460   3.881
 7141TIP3    H121387   1.312   5.452   3.824
 7141TIP3    H221388   1.186   5.379   3.866
 7142TIP3   OH221389   1.753   5.410   4.652
 7142TIP3    H121390   1.756   5.357   4.572
 7142TIP3    H221391   1.845   5.424   4.674
 7143TIP3   OH221392   5.916   5.839   0.949
 7143TIP3    H121393   6.003   5.872   0.971
 7143TIP3    H221394   5.920   5.746   0.972
 7144TIP3   OH221395   2.281   0.308   3.229
 7144TIP3    H121396   2.233   0.282   3.151
 7144TIP3    H221397   2.373   0.311   3.202
 7145TIP3   OH221398   2.173   6.745   1.950
 7145TIP3    H121399   2.250   6.774   1.999
 7145TIP3    H221400   2.206   6.677   1.891
 7146TIP3   OH221401   6.010   2.301   4.635
 7146TIP3    H121402   5.966   2.244   4.698
 7146TIP3    H221403   6.016   2.248   4.555
 7147TIP3   OH221404   5.994   3.118   3.482
 7147TIP3    H121405   5.990   3.200   3.531
 7147TIP3    H221406   5.923   3.064   3.518
 7148TIP3   OH221407   6.170   2.877   0.648
 7148TIP3    H121408   6.083   2.841   0.631
 7148TIP3    H221409   6.152   2.962   0.690
 7149TIP3   OH221410   4.583   0.983   1.518
 7149TIP3    H121411   4.615   0.941   1.598
 7149TIP3    H221412   4.509   1.036   1.547
 7150TIP3   OH221413   2.682   5.355   1.931
 7150TIP3    H121414   2.617   5.423   1.948
 7150TIP3    H221415   2.658   5.283   1.990
 7151TIP3   OH221416   4.892   0.571   1.463
 7151TIP3    H121417   4.860   0.526   1.541
 7151TIP3    H221418   4.878   0.664   1.482
 7152TIP3   OH221419   0.921   4.054   1.348
 7152TIP3    H121420   0.863   4.021   1.416
 7152TIP3    H221421   0.894   4.145   1.335
 7153TIP3   OH221422   5.982   2.149   2.772
 7153TIP3    H121423   6.014   2.125   2.685
 7153TIP3    H221424   6.051   2.119   2.831
 7154TIP3   OH221425   4.392   2.016   2.140
 7154TIP3    H121426   4.321   1.969   2.097
 7154TIP3    H221427   4.377   2.002   2.233
 7155TIP3   OH221428   2.248   3.174   5.314
 7155TIP3    H121429   2.252   3.244   5.248
 7155TIP3    H221430   2.160   3.180   5.349
 7156TIP3   OH221431   2.921   5.351   0.359
 7156TIP3    H121432   2.845   5.295   0.376
 7156TIP3    H221433   2.885   5.428   0.315
 7157TIP3   OH221434   1.574   3.087   0.901
 7157TIP3    H121435   1.536   3.034   0.970
 7157TIP3    H221436   1.634   3.028   0.855
 7158TIP3   OH221437   5.111   5.400   0.720
 7158TIP3    H121438   5.143   5.488   0.698
 7158TIP3    H221439   5.188   5.355   0.754
 7159TIP3   OH221440   3.290   0.693   2.107
 7159TIP3    H121441   3.250   0.735   2.031
 7159TIP3    H221442   3.381   0.679   2.082
 7160TIP3   OH221443   7.010   1.195   2.303
 7160TIP3    H121444   7.088   1.248   2.320
 7160TIP3    H221445   6.938   1.259   2.306
 7161TIP3   OH221446   3.827   6.509   5.114
 7161TIP3    H121447   3.862   6.598   5.105
 7161TIP3    H221448   3.820   6.496   5.209
 7162TIP3   OH221449   4.085   4.759   0.390
 7162TIP3    H121450   4.075   4.681   0.336
 7162TIP3    H221451   4.165   4.743   0.440
 7163TIP3   OH221452   1.596   1.699   4.385
 7163TIP3    H121453   1.596   1.642   4.309
 7163TIP3    H221454   1.512   1.681   4.429
 7164TIP3   OH221455   4.523   0.182   4.413
 7164TIP3    H121456   4.533   0.087   4.415
 7164TIP3    H221457   4.444   0.199   4.464
 7165TIP3   OH221458   4.805   5.723   5.329
 7165TIP3    H121459   4.734   5.787   5.333
 7165TIP3    H221460   4.760   5.639   5.325
 7166TIP3   OH221461   2.596   6.197   1.400
 7166TIP3    H121462   2.514   6.182   1.447
 7166TIP3    H221463   2.659   6.222   1.468
 7167TIP3   OH221464   4.559   5.133   1.386
 7167TIP3    H121465   4.580   5.223   1.360
 7167TIP3    H221466   4.467   5.122   1.362
 7168TIP3   OH221467   3.662   6.568   5.863
 7168TIP3    H121468   3.668   6.627   5.938
 7168TIP3    H221469   3.636   6.624   5.790
 7169TIP3   OH221470   5.822   2.921   4.140
 7169TIP3    H121471   5.740   2.970   4.134
 7169TIP3    H221472   5.838   2.891   4.051
 7170TIP3   OH221473   7.237   3.068   3.370
 7170TIP3    H121474   7.213   2.995   3.427
 7170TIP3    H221475   7.194   3.049   3.287
 7171TIP3   OH221476   7.072   1.484   2.026
 7171TIP3    H121477   7.016   1.412   1.998
 7171TIP3    H221478   7.158   1.443   2.038
 7172TIP3   OH221479   5.838   3.435   3.871
 7172TIP3    H121480   5.797   3.453   3.956
 7172TIP3    H221481   5.865   3.343   3.877
 7173TIP3   OH221482   7.108   0.309   5.711
 7173TIP3    H121483   7.175   0.253   5.672
 7173TIP3    H221484   7.150   0.395   5.717
 7174TIP3   OH221485   3.554   6.211   3.908
 7174TIP3    H121486   3.528   6.213   4.000
 7174TIP3    H221487   3.537   6.121   3.881
 7175TIP3   OH221488   4.363   1.985   2.994
 7175TIP3    H121489   4.423   1.989   2.919
 7175TIP3    H221490   4.363   1.894   3.020
 7176TIP3   OH221491   0.959   3.967   3.981
 7176TIP3    H121492   0.943   4.062   3.977
 7176TIP3    H221493   0.901   3.935   4.050
 7177TIP3   OH221494   3.018   2.927   0.408
 7177TIP3    H121495   2.987   2.985   0.338
 7177TIP3    H221496   2.947   2.925   0.472
 7178TIP3   OH221497   2.094   6.203   2.622
 7178TIP3    H121498   2.063   6.292   2.607
 7178TIP3    H221499   2.138   6.179   2.540
 7179TIP3   OH221500   5.566   5.549   2.788
 7179TIP3    H121501   5.572   5.542   2.883
 7179TIP3    H221502   5.646   5.508   2.755
 7180TIP3   OH221503   2.064   4.664   3.132
 7180TIP3    H121504   2.030   4.670   3.222
 7180TIP3    H221505   2.068   4.754   3.102
 7181TIP3   OH221506   2.935   0.416   2.880
 7181TIP3    H121507   2.901   0.505   2.881
 7181TIP3    H221508   2.970   0.405   2.792
 7182TIP3   OH221509   3.796   6.403   3.253
 7182TIP3    H121510   3.888   6.397   3.279
 7182TIP3    H221511   3.765   6.484   3.292
 7183TIP3   OH221512   2.276   4.015   1.963
 7183TIP3    H121513   2.333   4.083   2.000
 7183TIP3    H221514   2.205   4.006   2.027
 7184TIP3   OH221515   0.722   0.283   1.931
 7184TIP3    H121516   0.760   0.268   2.018
 7184TIP3    H221517   0.795   0.313   1.878
 7185TIP3   OH221518   5.427   5.512   2.004
 7185TIP3    H121519   5.517   5.502   2.033
 7185TIP3    H221520   5.382   5.553   2.078
 7186TIP3   OH221521   3.206   1.724   4.262
 7186TIP3    H121522   3.216   1.650   4.202
 7186TIP3    H221523   3.186   1.684   4.347
 7187TIP3   OH221524   1.225   4.176   2.540
 7187TIP3    H121525   1.215   4.174   2.635
 7187TIP3    H221526   1.222   4.269   2.517
 7188TIP3   OH221527   1.816   2.760   3.791
 7188TIP3    H121528   1.814   2.785   3.699
 7188TIP3    H221529   1.848   2.670   3.792
 7189TIP3   OH221530   6.293   3.867   1.832
 7189TIP3    H121531   6.309   3.848   1.740
 7189TIP3    H221532   6.356   3.936   1.854
 7190TIP3   OH221533   2.735   0.877   5.791
 7190TIP3    H121534   2.671   0.902   5.858
 7190TIP3    H221535   2.813   0.851   5.840
 7191TIP3   OH221536   2.865   3.074   2.932
 7191TIP3    H121537   2.844   3.105   2.844
 7191TIP3    H221538   2.805   3.123   2.989
 7192TIP3   OH221539   2.364   2.274   1.589
 7192TIP3    H121540   2.293   2.311   1.641
 7192TIP3    H221541   2.407   2.351   1.551
 7193TIP3   OH221542   0.170   0.501   5.579
 7193TIP3    H121543   0.142   0.577   5.528
 7193TIP3    H221544   0.263   0.517   5.598
 7194TIP3   OH221545   0.422   3.582   3.363
 7194TIP3    H121546   0.432   3.569   3.269
 7194TIP3    H221547   0.488   3.648   3.385
 7195TIP3   OH221548   2.713   4.596   3.301
 7195TIP3    H121549   2.754   4.511   3.288
 7195TIP3    H221550   2.780   4.659   3.273
 7196TIP3   OH221551   4.613   6.719   5.688
 7196TIP3    H121552   4.537   6.665   5.665
 7196TIP3    H221553   4.640   6.688   5.774
 7197TIP3   OH221554   6.574   6.748   0.190
 7197TIP3    H121555   6.551   6.823   0.135
 7197TIP3    H221556   6.649   6.709   0.146
 7198TIP3   OH221557   3.441   2.333   4.892
 7198TIP3    H121558   3.349   2.307   4.899
 7198TIP3    H221559   3.490   2.252   4.905
 7199TIP3   OH221560   4.118   2.907   4.237
 7199TIP3    H121561   4.142   2.847   4.307
 7199TIP3    H221562   4.193   2.965   4.228
 7200TIP3   OH221563   6.958   4.886   0.035
 7200TIP3    H121564   6.952   4.791   0.048
 7200TIP3    H221565   7.052   4.904   0.035
 7201TIP3   OH221566   2.497   2.526   3.435
 7201TIP3    H121567   2.586   2.494   3.419
 7201TIP3    H221568   2.497   2.615   3.399
 7202TIP3   OH221569   6.283   6.496   1.102
 7202TIP3    H121570   6.245   6.566   1.155
 7202TIP3    H221571   6.375   6.520   1.093
 7203TIP3   OH221572   1.473   3.344   0.961
 7203TIP3    H121573   1.469   3.271   1.023
 7203TIP3    H221574   1.544   3.321   0.901
 7204TIP3   OH221575   3.575   0.625   2.676
 7204TIP3    H121576   3.578   0.538   2.716
 7204TIP3    H221577   3.664   0.659   2.685
 7205TIP3   OH221578   2.462   0.300   2.850
 7205TIP3    H121579   2.375   0.310   2.889
 7205TIP3    H221580   2.523   0.332   2.917
 7206TIP3   OH221581   0.798   4.885   5.561
 7206TIP3    H121582   0.778   4.804   5.514
 7206TIP3    H221583   0.888   4.904   5.537
 7207TIP3   OH221584   4.419   4.018   0.342
 7207TIP3    H121585   4.348   3.980   0.290
 7207TIP3    H221586   4.483   3.947   0.351
 7208TIP3   OH221587   0.797   4.143   5.310
 7208TIP3    H121588   0.872   4.183   5.265
 7208TIP3    H221589   0.769   4.210   5.372
 7209TIP3   OH221590   6.723   6.579   1.733
 7209TIP3    H121591   6.757   6.500   1.775
 7209TIP3    H221592   6.776   6.589   1.654
 7210TIP3   OH221593   1.640   1.920   2.006
 7210TIP3    H121594   1.583   1.996   1.994
 7210TIP3    H221595   1.726   1.956   2.024
 7211TIP3   OH221596   2.953   3.077   2.309
 7211TIP3    H121597   2.880   3.106   2.364
 7211TIP3    H221598   3.011   3.030   2.368
 7212TIP3   OH221599   1.391   5.763   4.609
 7212TIP3    H121600   1.371   5.799   4.522
 7212TIP3    H221601   1.356   5.674   4.606
 7213TIP3   OH221602   6.428   0.509   4.687
 7213TIP3    H121603   6.497   0.546   4.744
 7213TIP3    H221604   6.393   0.585   4.640
 7214TIP3   OH221605   0.837   2.345   1.365
 7214TIP3    H121606   0.873   2.426   1.400
 7214TIP3    H221607   0.878   2.276   1.418
 7215TIP3   OH221608   7.034   5.068   3.692
 7215TIP3    H121609   7.018   5.007   3.763
 7215TIP3    H221610   6.960   5.057   3.633
 7216TIP3   OH221611   2.960   2.946   0.858
 7216TIP3    H121612   2.909   3.026   0.844
 7216TIP3    H221613   3.049   2.977   0.874
 7217TIP3   OH221614   1.163   4.789   4.598
 7217TIP3    H121615   1.239   4.825   4.642
 7217TIP3    H221616   1.199   4.730   4.531
 7218TIP3   OH221617   1.886   4.955   1.845
 7218TIP3    H121618   1.867   4.861   1.844
 7218TIP3    H221619   1.867   4.985   1.756
 7219TIP3   OH221620   4.960   4.637   2.949
 7219TIP3    H121621   4.898   4.702   2.916
 7219TIP3    H221622   5.027   4.687   2.994
 7220TIP3   OH221623   1.965   3.539   4.442
 7220TIP3    H121624   2.059   3.557   4.450
 7220TIP3    H221625   1.926   3.626   4.428
 7221TIP3   OH221626   1.346   1.697   4.483
 7221TIP3    H121627   1.317   1.702   4.574
 7221TIP3    H221628   1.266   1.707   4.432
 7222TIP3   OH221629   5.357   0.779   3.480
 7222TIP3    H121630   5.419   0.710   3.458
 7222TIP3    H221631   5.286   0.768   3.417
 7223TIP3   OH221632   6.262   5.884   3.571
 7223TIP3    H121633   6.177   5.841   3.576
 7223TIP3    H221634   6.293   5.887   3.662
 7224TIP3   OH221635   2.725   2.043   2.561
 7224TIP3    H121636   2.768   1.995   2.631
 7224TIP3    H221637   2.749   1.996   2.481
 7225TIP3   OH221638   1.358   1.508   2.838
 7225TIP3    H121639   1.315   1.423   2.824
 7225TIP3    H221640   1.324   1.563   2.767
 7226TIP3   OH221641   3.992   5.079   5.326
 7226TIP3    H121642   4.026   5.002   5.281
 7226TIP3    H221643   4.021   5.069   5.417
 7227TIP3   OH221644   0.933   6.018   2.810
 7227TIP3    H121645   1.014   5.985   2.770
 7227TIP3    H221646   0.896   5.942   2.855
 7228TIP3   OH221647   0.038   3.960   3.381
 7228TIP3    H121648   0.060   3.942   3.290
 7228TIP3    H221649  -0.048   3.918   3.394
 7229TIP3   OH221650   0.908   2.945   4.831
 7229TIP3    H121651   0.892   2.922   4.922
 7229TIP3    H221652   0.991   2.904   4.809
 7230TIP3   OH221653   5.202   3.249   1.346
 7230TIP3    H121654   5.216   3.156   1.328
 7230TIP3    H221655   5.139   3.277   1.279
 7231TIP3   OH221656   4.414   3.258   4.637
 7231TIP3    H121657   4.352   3.212   4.580
 7231TIP3    H221658   4.497   3.214   4.622
 7232TIP3   OH221659   6.678   5.742   5.832
 7232TIP3    H121660   6.633   5.824   5.852
 7232TIP3    H221661   6.637   5.710   5.752
 7233TIP3   OH221662   4.841   2.206   4.343
 7233TIP3    H121663   4.753   2.220   4.306
 7233TIP3    H221664   4.900   2.244   4.278
 7234TIP3   OH221665   1.740   6.268   0.544
 7234TIP3    H121666   1.740   6.288   0.637
 7234TIP3    H221667   1.819   6.215   0.531
 7235TIP3   OH221668   7.144   3.195   4.269
 7235TIP3    H121669   7.237   3.208   4.252
 7235TIP3    H221670   7.112   3.281   4.296
 7236TIP3   OH221671   3.560   3.115   2.019
 7236TIP3    H121672   3.465   3.107   2.025
 7236TIP3    H221673   3.594   3.028   2.038
 7237TIP3   OH221674   6.302   0.418   5.824
 7237TIP3    H121675   6.377   0.359   5.813
 7237TIP3    H221676   6.329   0.478   5.893
 7238TIP3   OH221677   0.597   6.162   5.064
 7238TIP3    H121678   0.510   6.124   5.057
 7238TIP3    H221679   0.582   6.255   5.084
 7239TIP3   OH221680   5.387   4.842   2.135
 7239TIP3    H121681   5.361   4.883   2.218
 7239TIP3    H221682   5.323   4.772   2.123
 7240TIP3   OH221683   2.867   0.897   0.857
 7240TIP3    H121684   2.869   0.927   0.948
 7240TIP3    H221685   2.848   0.804   0.863
 7241TIP3   OH221686   1.161   2.163   2.143
 7241TIP3    H121687   1.187   2.117   2.222
 7241TIP3    H221688   1.203   2.249   2.150
 7242TIP3   OH221689   4.419   2.559   2.998
 7242TIP3    H121690   4.496   2.533   2.946
 7242TIP3    H221691   4.375   2.625   2.944
 7243TIP3   OH221692   5.454   1.313   1.571
 7243TIP3    H121693   5.415   1.383   1.623
 7243TIP3    H221694   5.424   1.329   1.482
 7244TIP3   OH221695   0.270   0.998   1.713
 7244TIP3    H121696   0.300   1.028   1.627
 7244TIP3    H221697   0.316   0.916   1.728
 7245TIP3   OH221698   5.313   0.061   0.881
 7245TIP3    H121699   5.405   0.042   0.867
 7245TIP3    H221700   5.269  -0.023   0.868
 7246TIP3   OH221701   3.881   3.771   5.615
 7246TIP3    H121702   3.931   3.699   5.577
 7246TIP3    H221703   3.857   3.740   5.702
 7247TIP3   OH221704   6.805   6.462   1.977
 7247TIP3    H121705   6.744   6.414   2.033
 7247TIP3    H221706   6.872   6.398   1.954
 7248TIP3   OH221707   1.362   3.184   1.947
 7248TIP3    H121708   1.341   3.273   1.975
 7248TIP3    H221709   1.427   3.195   1.877
 7249TIP3   OH221710   4.554   4.440   5.462
 7249TIP3    H121711   4.596   4.451   5.376
 7249TIP3    H221712   4.627   4.437   5.524
 7250TIP3   OH221713   4.036   5.153   5.744
 7250TIP3    H121714   4.023   5.228   5.685
 7250TIP3    H221715   4.058   5.081   5.685
 7251TIP3   OH221716   2.598   0.055   5.734
 7251TIP3    H121717   2.680   0.101   5.717
 7251TIP3    H221718   2.577   0.014   5.650
 7252TIP3   OH221719   3.421   0.052   5.695
 7252TIP3    H121720   3.479  -0.009   5.649
 7252TIP3    H221721   3.440   0.137   5.656
 7253TIP3   OH221722   5.093   1.958   0.299
 7253TIP3    H121723   5.068   1.895   0.231
 7253TIP3    H221724   5.080   2.043   0.257
 7254TIP3   OH221725   0.337   3.802   1.746
 7254TIP3    H121726   0.430   3.786   1.733
 7254TIP3    H221727   0.298   3.714   1.746
 7255TIP3   OH221728   5.728   0.907   5.441
 7255TIP3    H121729   5.632   0.908   5.448
 7255TIP3    H221730   5.749   0.980   5.384
 7256TIP3   OH221731   1.459   3.884   5.223
 7256TIP3    H121732   1.450   3.976   5.197
 7256TIP3    H221733   1.373   3.861   5.258
 7257TIP3   OH221734   0.189   5.335   4.994
 7257TIP3    H121735   0.283   5.328   4.977
 7257TIP3    H221736   0.178   5.304   5.084
 7258TIP3   OH221737   6.204   4.590   5.464
 7258TIP3    H121738   6.110   4.602   5.469
 7258TIP3    H221739   6.241   4.676   5.483
 7259TIP3   OH221740   1.706   5.350   2.027
 7259TIP3    H121741   1.674   5.268   1.991
 7259TIP3    H221742   1.762   5.324   2.100
 7260TIP3   OH221743   3.514   1.982   2.757
 7260TIP3    H121744   3.465   1.964   2.677
 7260TIP3    H221745   3.473   1.926   2.823
 7261TIP3   OH221746   3.592   4.510   2.606
 7261TIP3    H121747   3.545   4.427   2.595
 7261TIP3    H221748   3.672   4.486   2.653
 7262TIP3   OH221749   1.411   5.263   2.577
 7262TIP3    H121750   1.379   5.332   2.635
 7262TIP3    H221751   1.460   5.204   2.634
 7263TIP3   OH221752   1.342   5.404   3.379
 7263TIP3    H121753   1.418   5.345   3.381
 7263TIP3    H221754   1.295   5.378   3.299
 7264TIP3   OH221755   2.261   5.706   4.339
 7264TIP3    H121756   2.329   5.762   4.376
 7264TIP3    H221757   2.184   5.763   4.334
 7265TIP3   OH221758   6.809   0.412   2.505
 7265TIP3    H121759   6.773   0.375   2.586
 7265TIP3    H221760   6.902   0.425   2.523
 7266TIP3   OH221761   0.025   4.561   2.693
 7266TIP3    H121762  -0.051   4.617   2.705
 7266TIP3    H221763   0.099   4.612   2.726
 7267TIP3   OH221764   2.095   5.882   0.900
 7267TIP3    H121765   2.101   5.797   0.857
 7267TIP3    H221766   2.083   5.861   0.993
 7268TIP3   OH221767   4.516   2.062   4.884
 7268TIP3    H121768   4.510   1.978   4.930
 7268TIP3    H221769   4.426   2.083   4.861
 7269TIP3   OH221770   4.960   1.720   1.435
 7269TIP3    H121771   4.915   1.741   1.517
 7269TIP3    H221772   5.053   1.725   1.457
 7270TIP3   OH221773   3.647   3.325   2.232
 7270TIP3    H121774   3.689   3.255   2.282
 7270TIP3    H221775   3.621   3.284   2.150
 7271TIP3   OH221776   1.113   6.322   0.455
 7271TIP3    H121777   1.183   6.341   0.516
 7271TIP3    H221778   1.145   6.354   0.370
 7272TIP3   OH221779   4.541   2.981   3.530
 7272TIP3    H121780   4.493   2.906   3.494
 7272TIP3    H221781   4.632   2.952   3.533
 7273TIP3   OH221782   4.778   1.892   5.710
 7273TIP3    H121783   4.739   1.979   5.719
 7273TIP3    H221784   4.704   1.832   5.719
 7274TIP3   OH221785   2.392   5.920   5.044
 7274TIP3    H121786   2.334   5.981   4.999
 7274TIP3    H221787   2.467   5.910   4.986
 7275TIP3   OH221788   5.897   4.237   3.305
 7275TIP3    H121789   5.909   4.316   3.357
 7275TIP3    H221790   5.802   4.225   3.301
 7276TIP3   OH221791   5.823   5.625   4.817
 7276TIP3    H121792   5.767   5.564   4.866
 7276TIP3    H221793   5.901   5.634   4.871
 7277TIP3   OH221794   5.514   0.130   4.798
 7277TIP3    H121795   5.573   0.159   4.867
 7277TIP3    H221796   5.561   0.148   4.717
 7278TIP3   OH221797   6.750   1.654   0.466
 7278TIP3    H121798   6.660   1.623   0.474
 7278TIP3    H221799   6.751   1.739   0.511
 7279TIP3   OH221800   6.720   0.654   3.025
 7279TIP3    H121801   6.656   0.665   2.955
 7279TIP3    H221802   6.719   0.738   3.071
 7280TIP3   OH221803   6.627   2.188   0.409
 7280TIP3    H121804   6.536   2.215   0.420
 7280TIP3    H221805   6.678   2.262   0.441
 7281TIP3   OH221806   2.465   3.043   4.021
 7281TIP3    H121807   2.399   3.071   4.084
 7281TIP3    H221808   2.547   3.040   4.071
 7282TIP3   OH221809   5.561   0.490   2.359
 7282TIP3    H121810   5.505   0.545   2.415
 7282TIP3    H221811   5.505   0.466   2.285
 7283TIP3   OH221812   5.917   6.002   0.197
 7283TIP3    H121813   5.913   5.918   0.152
 7283TIP3    H221814   5.998   6.042   0.167
 7284TIP3   OH221815   2.516   2.048   1.546
 7284TIP3    H121816   2.463   2.117   1.585
 7284TIP3    H221817   2.465   1.968   1.558
 7285TIP3   OH221818   5.067   3.446   1.544
 7285TIP3    H121819   5.143   3.462   1.488
 7285TIP3    H221820   5.091   3.368   1.595
 7286TIP3   OH221821   7.100   0.078   0.672
 7286TIP3    H121822   7.129   0.086   0.581
 7286TIP3    H221823   7.166   0.022   0.714
 7287TIP3   OH221824   4.943   4.813   2.058
 7287TIP3    H121825   4.970   4.852   1.975
 7287TIP3    H221826   4.853   4.843   2.070
 7288TIP3   OH221827   4.971   1.430   0.936
 7288TIP3    H121828   4.962   1.511   0.886
 7288TIP3    H221829   5.041   1.382   0.892
 7289TIP3   OH221830   4.986   0.767   0.157
 7289TIP3    H121831   4.955   0.677   0.168
 7289TIP3    H221832   5.028   0.768   0.071
 7290TIP3   OH221833   4.965   4.141   4.082
 7290TIP3    H121834   5.046   4.108   4.121
 7290TIP3    H221835   4.922   4.062   4.047
 7291TIP3   OH221836   2.006   5.461   4.560
 7291TIP3    H121837   2.041   5.472   4.649
 7291TIP3    H221838   1.981   5.549   4.533
 7292TIP3   OH221839   1.901   2.179   0.568
 7292TIP3    H121840   1.956   2.244   0.523
 7292TIP3    H221841   1.868   2.124   0.498
 7293TIP3   OH221842   2.472   1.026   5.295
 7293TIP3    H121843   2.402   1.037   5.231
 7293TIP3    H221844   2.427   1.002   5.376
 7294TIP3   OH221845   4.528   3.932   0.787
 7294TIP3    H121846   4.517   4.011   0.734
 7294TIP3    H221847   4.526   3.860   0.723
 7295TIP3   OH221848   5.163   3.870   1.670
 7295TIP3    H121849   5.153   3.895   1.578
 7295TIP3    H221850   5.078   3.888   1.709
 7296TIP3   OH221851   4.778   1.465   0.516
 7296TIP3    H121852   4.855   1.418   0.548
 7296TIP3    H221853   4.814   1.542   0.472
 7297TIP3   OH221854   0.293   2.786   2.216
 7297TIP3    H121855   0.230   2.857   2.225
 7297TIP3    H221856   0.369   2.826   2.175
 7298TIP3   OH221857   3.522   5.933   0.941
 7298TIP3    H121858   3.530   5.957   1.033
 7298TIP3    H221859   3.434   5.961   0.916
 7299TIP3   OH221860   3.404   5.715   5.317
 7299TIP3    H121861   3.324   5.767   5.328
 7299TIP3    H221862   3.374   5.625   5.310
 7300TIP3   OH221863   4.398   6.371   2.419
 7300TIP3    H121864   4.303   6.370   2.430
 7300TIP3    H221865   4.414   6.325   2.337
 7301TIP3   OH221866   5.440   1.514   2.489
 7301TIP3    H121867   5.350   1.517   2.521
 7301TIP3    H221868   5.443   1.578   2.418
 7302TIP3   OH221869   5.270   1.393   0.568
 7302TIP3    H121870   5.323   1.315   0.553
 7302TIP3    H221871   5.333   1.465   0.575
 7303TIP3   OH221872   2.374   5.937   5.545
 7303TIP3    H121873   2.309   5.871   5.567
 7303TIP3    H221874   2.457   5.898   5.573
 7304TIP3   OH221875   3.394   2.159   1.285
 7304TIP3    H121876   3.321   2.100   1.306
 7304TIP3    H221877   3.435   2.120   1.208
 7305TIP3   OH221878   4.959   4.532   2.698
 7305TIP3    H121879   4.935   4.609   2.645
 7305TIP3    H221880   4.966   4.566   2.787
 7306TIP3   OH221881   0.830   1.978   1.975
 7306TIP3    H121882   0.857   2.043   1.909
 7306TIP3    H221883   0.740   2.001   1.995
 7307TIP3   OH221884   5.940   1.159   3.485
 7307TIP3    H121885   5.882   1.141   3.558
 7307TIP3    H221886   5.925   1.251   3.464
 7308TIP3   OH221887   6.283   5.071   1.167
 7308TIP3    H121888   6.236   5.027   1.238
 7308TIP3    H221889   6.375   5.046   1.180
 7309TIP3   OH221890   3.821   5.715   4.783
 7309TIP3    H121891   3.735   5.674   4.781
 7309TIP3    H221892   3.832   5.744   4.874
 7310TIP3   OH221893   3.009   0.079   2.843
 7310TIP3    H121894   3.098   0.055   2.817
 7310TIP3    H221895   3.006   0.174   2.832
 7311TIP3   OH221896   2.718   2.533   0.348
 7311TIP3    H121897   2.704   2.614   0.299
 7311TIP3    H221898   2.630   2.498   0.362
 7312TIP3   OH221899   1.589   2.995   4.751
 7312TIP3    H121900   1.659   3.029   4.695
 7312TIP3    H221901   1.579   3.060   4.820
 7313TIP3   OH221902   6.438   1.286   4.112
 7313TIP3    H121903   6.481   1.337   4.180
 7313TIP3    H221904   6.347   1.316   4.113
 7314TIP3   OH221905   2.975   3.128   5.055
 7314TIP3    H121906   2.924   3.081   5.121
 7314TIP3    H221907   3.047   3.168   5.104
 7315TIP3   OH221908   2.355   4.594   0.197
 7315TIP3    H121909   2.439   4.580   0.241
 7315TIP3    H221910   2.319   4.506   0.184
 7316TIP3   OH221911   4.734   6.039   3.275
 7316TIP3    H121912   4.790   6.115   3.289
 7316TIP3    H221913   4.795   5.967   3.261
 7317TIP3   OH221914   5.130   4.483   3.342
 7317TIP3    H121915   5.181   4.537   3.403
 7317TIP3    H221916   5.062   4.542   3.309
 7318TIP3   OH221917   2.293   3.885   1.091
 7318TIP3    H121918   2.321   3.884   1.000
 7318TIP3    H221919   2.336   3.809   1.131
 7319TIP3   OH221920   2.458   1.498   4.371
 7319TIP3    H121921   2.475   1.528   4.282
 7319TIP3    H221922   2.441   1.578   4.421
 7320TIP3   OH221923   6.932   4.323   4.930
 7320TIP3    H121924   6.938   4.248   4.871
 7320TIP3    H221925   6.860   4.303   4.989
 7321TIP3   OH221926   2.596   4.060   2.482
 7321TIP3    H121927   2.543   4.003   2.538
 7321TIP3    H221928   2.576   4.032   2.393
 7322TIP3   OH221929   2.905   2.204   2.897
 7322TIP3    H121930   2.814   2.224   2.917
 7322TIP3    H221931   2.951   2.219   2.980
 7323TIP3   OH221932   6.239   1.295   3.606
 7323TIP3    H121933   6.158   1.331   3.643
 7323TIP3    H221934   6.298   1.287   3.681
 7324TIP3   OH221935   3.236   5.690   3.984
 7324TIP3    H121936   3.160   5.716   3.932
 7324TIP3    H221937   3.310   5.693   3.923
 7325TIP3   OH221938   3.158   3.218   2.907
 7325TIP3    H121939   3.075   3.170   2.910
 7325TIP3    H221940   3.140   3.293   2.851
 7326TIP3   OH221941   4.910   2.320   4.078
 7326TIP3    H121942   4.939   2.395   4.026
 7326TIP3    H221943   4.962   2.247   4.045
 7327TIP3   OH221944   1.268   5.603   1.891
 7327TIP3    H121945   1.292   5.626   1.801
 7327TIP3    H221946   1.272   5.686   1.939
 7328TIP3   OH221947   3.333   2.616   0.888
 7328TIP3    H121948   3.282   2.678   0.837
 7328TIP3    H221949   3.282   2.535   0.886
 7329TIP3   OH221950   2.322   1.817   0.897
 7329TIP3    H121951   2.412   1.785   0.892
 7329TIP3    H221952   2.330   1.908   0.924
 7330TIP3   OH221953   6.850   4.016   2.305
 7330TIP3    H121954   6.935   4.060   2.313
 7330TIP3    H221955   6.871   3.923   2.316
 7331TIP3   OH221956   1.739   4.253   3.390
 7331TIP3    H121957   1.678   4.274   3.460
 7331TIP3    H221958   1.716   4.313   3.319
 7332TIP3   OH221959   4.054   5.698   5.785
 7332TIP3    H121960   4.068   5.785   5.749
 7332TIP3    H221961   3.981   5.662   5.733
 7333TIP3   OH221962   2.237   6.421   4.763
 7333TIP3    H121963   2.211   6.499   4.714
 7333TIP3    H221964   2.316   6.391   4.720
 7334TIP3   OH221965   3.899   0.596   2.246
 7334TIP3    H121966   3.994   0.606   2.249
 7334TIP3    H221967   3.869   0.625   2.333
 7335TIP3   OH221968   0.537   0.761   0.239
 7335TIP3    H121969   0.442   0.761   0.228
 7335TIP3    H221970   0.564   0.850   0.218
 7336TIP3   OH221971   6.068   2.075   3.604
 7336TIP3    H121972   6.084   2.129   3.681
 7336TIP3    H221973   6.135   2.007   3.608
 7337TIP3   OH221974   3.804   5.598   2.903
 7337TIP3    H121975   3.773   5.646   2.826
 7337TIP3    H221976   3.822   5.666   2.968
 7338TIP3   OH221977   4.300   0.690   1.426
 7338TIP3    H121978   4.301   0.595   1.439
 7338TIP3    H221979   4.226   0.706   1.368
 7339TIP3   OH221980   2.876   0.840   5.554
 7339TIP3    H121981   2.815   0.869   5.485
 7339TIP3    H221982   2.823   0.839   5.634
 7340TIP3   OH221983   1.363   4.151   4.136
 7340TIP3    H121984   1.296   4.106   4.188
 7340TIP3    H221985   1.442   4.099   4.151
 7341TIP3   OH221986   3.767   2.294   2.670
 7341TIP3    H121987   3.766   2.221   2.732
 7341TIP3    H221988   3.695   2.275   2.609
 7342TIP3   OH221989   1.591   4.474   5.131
 7342TIP3    H121990   1.581   4.518   5.047
 7342TIP3    H221991   1.516   4.502   5.183
 7343TIP3   OH221992   5.409   5.598   3.430
 7343TIP3    H121993   5.397   5.517   3.479
 7343TIP3    H221994   5.503   5.617   3.437
 7344TIP3   OH221995   2.038   5.313   5.231
 7344TIP3    H121996   2.037   5.306   5.135
 7344TIP3    H221997   2.022   5.224   5.261
 7345TIP3   OH221998   6.318   2.216   1.713
 7345TIP3    H121999   6.401   2.229   1.759
 7345TIP3    H222000   6.294   2.125   1.733
 7346TIP3   OH222001   1.018   2.115   1.251
 7346TIP3    H122002   0.961   2.116   1.328
 7346TIP3    H222003   1.055   2.027   1.249
 7347TIP3   OH222004   6.709   1.229   3.465
 7347TIP3    H122005   6.617   1.205   3.458
 7347TIP3    H222006   6.708   1.317   3.502
 7348TIP3   OH222007   5.842   3.729   3.537
 7348TIP3    H122008   5.848   3.824   3.523
 7348TIP3    H222009   5.928   3.696   3.509
 7349TIP3   OH222010   4.494   0.420   3.194
 7349TIP3    H122011   4.514   0.417   3.101
 7349TIP3    H222012   4.513   0.510   3.220
 7350TIP3   OH222013   0.257   2.329   0.679
 7350TIP3    H122014   0.275   2.416   0.643
 7350TIP3    H222015   0.186   2.295   0.626
 7351TIP3   OH222016   0.231   4.476   3.968
 7351TIP3    H122017   0.302   4.443   3.913
 7351TIP3    H222018   0.190   4.397   4.003
 7352TIP3   OH222019   4.373   1.291   4.628
 7352TIP3    H122020   4.435   1.258   4.693
 7352TIP3    H222021   4.320   1.215   4.604
 7353TIP3   OH222022   1.171   0.367   4.851
 7353TIP3    H122023   1.137   0.280   4.875
 7353TIP3    H222024   1.107   0.401   4.788
 7354TIP3   OH222025   1.902   5.031   4.276
 7354TIP3    H122026   1.878   5.006   4.187
 7354TIP3    H222027   1.997   5.045   4.273
 7355TIP3   OH222028   2.737   5.873   5.393
 7355TIP3    H122029   2.778   5.787   5.398
 7355TIP3    H222030   2.784   5.919   5.324
 7356TIP3   OH222031   3.383   1.196   2.820
 7356TIP3    H122032   3.408   1.109   2.790
 7356TIP3    H222033   3.436   1.211   2.899
 7357TIP3   OH222034   5.794   2.917   3.161
 7357TIP3    H122035   5.822   2.984   3.224
 7357TIP3    H222036   5.744   2.855   3.213
 7358TIP3   OH222037   2.546   4.839   4.207
 7358TIP3    H122038   2.477   4.878   4.261
 7358TIP3    H222039   2.531   4.744   4.214
 7359TIP3   OH222040   2.853   5.369   4.756
 7359TIP3    H122041   2.931   5.343   4.708
 7359TIP3    H222042   2.790   5.395   4.689
 7360TIP3   OH222043   5.374   5.255   4.085
 7360TIP3    H122044   5.387   5.160   4.074
 7360TIP3    H222045   5.427   5.277   4.162
 7361TIP3   OH222046   0.220   4.644   5.200
 7361TIP3    H122047   0.286   4.712   5.184
 7361TIP3    H222048   0.159   4.652   5.127
 7362TIP3   OH222049   0.807   4.215   4.202
 7362TIP3    H122050   0.842   4.248   4.120
 7362TIP3    H222051   0.859   4.260   4.270
 7363TIP3   OH222052   4.069   0.899   0.097
 7363TIP3    H122053   4.044   0.864   0.011
 7363TIP3    H222054   4.028   0.840   0.160
 7364TIP3   OH222055   6.577   0.810   2.609
 7364TIP3    H122056   6.592   0.787   2.701
 7364TIP3    H222057   6.496   0.764   2.586
 7365TIP3   OH222058   7.103   1.621   0.817
 7365TIP3    H122059   7.080   1.713   0.833
 7365TIP3    H222060   7.105   1.614   0.721
 7366TIP3   OH222061   1.444   3.507   3.310
 7366TIP3    H122062   1.441   3.597   3.278
 7366TIP3    H222063   1.475   3.455   3.235
 7367TIP3   OH222064   0.168   1.424   3.909
 7367TIP3    H122065   0.099   1.358   3.919
 7367TIP3    H222066   0.166   1.473   3.991
 7368TIP3   OH222067   0.590   6.602   3.637
 7368TIP3    H122068   0.500   6.579   3.662
 7368TIP3    H222069   0.640   6.523   3.654
 7369TIP3   OH222070   1.762   4.543   3.953
 7369TIP3    H122071   1.766   4.511   3.863
 7369TIP3    H222072   1.849   4.581   3.968
 7370TIP3   OH222073   1.264   4.541   1.893
 7370TIP3    H122074   1.204   4.582   1.955
 7370TIP3    H222075   1.220   4.549   1.808
 7371TIP3   OH222076   6.923   5.146   0.559
 7371TIP3    H122077   6.969   5.098   0.627
 7371TIP3    H222078   6.830   5.136   0.582
 7372TIP3   OH222079   1.490   6.336   5.597
 7372TIP3    H122080   1.575   6.297   5.614
 7372TIP3    H222081   1.434   6.263   5.569
 7373TIP3   OH222082   6.952   2.649   1.468
 7373TIP3    H122083   6.962   2.714   1.538
 7373TIP3    H222084   7.016   2.676   1.402
 7374TIP3   OH222085   2.274   6.133   4.902
 7374TIP3    H122086   2.213   6.207   4.898
 7374TIP3    H222087   2.318   6.135   4.817
 7375TIP3   OH222088   4.511   2.262   2.057
 7375TIP3    H122089   4.486   2.253   1.965
 7375TIP3    H222090   4.490   2.177   2.096
 7376TIP3   OH222091   6.179   0.052   4.300
 7376TIP3    H122092   6.238  -0.023   4.307
 7376TIP3    H222093   6.192   0.084   4.211
 7377TIP3   OH222094   5.131   0.496   3.326
 7377TIP3    H122095   5.085   0.567   3.371
 7377TIP3    H222096   5.062   0.434   3.303
 7378TIP3   OH222097   4.008   2.821   0.829
 7378TIP3    H122098   3.967   2.903   0.856
 7378TIP3    H222099   4.077   2.806   0.894
 7379TIP3   OH222100   0.159   5.290   0.209
 7379TIP3    H122101   0.207   5.271   0.290
 7379TIP3    H222102   0.226   5.292   0.141
 7380TIP3   OH222103   1.205   0.723   5.755
 7380TIP3    H122104   1.175   0.745   5.843
 7380TIP3    H222105   1.183   0.800   5.702
 7381TIP3   OH222106   4.373   3.024   1.362
 7381TIP3    H122107   4.407   3.109   1.390
 7381TIP3    H222108   4.284   3.042   1.332
 7382TIP3   OH222109   1.938   6.081   0.567
 7382TIP3    H122110   2.010   6.104   0.509
 7382TIP3    H222111   1.911   5.994   0.538
 7383TIP3   OH222112   7.008   1.747   3.539
 7383TIP3    H122113   6.914   1.734   3.526
 7383TIP3    H222114   7.013   1.809   3.612
 7384TIP3   OH222115   5.907   2.794   4.735
 7384TIP3    H122116   5.924   2.702   4.715
 7384TIP3    H222117   5.897   2.836   4.650
 7385TIP3   OH222118   6.357   4.089   4.229
 7385TIP3    H122119   6.292   4.129   4.286
 7385TIP3    H222120   6.415   4.040   4.288
 7386TIP3   OH222121   6.393   5.464   0.694
 7386TIP3    H122122   6.313   5.515   0.682
 7386TIP3    H222123   6.394   5.441   0.787
 7387TIP3   OH222124   6.460   4.500   0.064
 7387TIP3    H122125   6.398   4.466   0.129
 7387TIP3    H222126   6.449   4.443  -0.012
 7388TIP3   OH222127   4.745   6.013   3.834
 7388TIP3    H122128   4.659   5.976   3.813
 7388TIP3    H222129   4.797   5.938   3.862
 7389TIP3   OH222130   6.133   4.386   0.902
 7389TIP3    H122131   6.156   4.305   0.857
 7389TIP3    H222132   6.117   4.449   0.833
 7390TIP3   OH222133   4.147   1.585   1.342
 7390TIP3    H122134   4.231   1.564   1.384
 7390TIP3    H222135   4.106   1.649   1.399
 7391TIP3   OH222136   4.358   4.540   0.867
 7391TIP3    H122137   4.411   4.558   0.790
 7391TIP3    H222138   4.422   4.516   0.935
 7392TIP3   OH222139   0.176   1.878   0.350
 7392TIP3    H122140   0.269   1.900   0.359
 7392TIP3    H222141   0.141   1.947   0.294
 7393TIP3   OH222142   1.349   0.127   0.368
 7393TIP3    H122143   1.288   0.199   0.350
 7393TIP3    H222144   1.420   0.168   0.417
 7394TIP3   OH222145   1.165   0.815   1.011
 7394TIP3    H122146   1.167   0.786   0.920
 7394TIP3    H222147   1.190   0.907   1.008
 7395TIP3   OH222148   3.624   6.609   4.967
 7395TIP3    H122149   3.584   6.657   5.040
 7395TIP3    H222150   3.695   6.560   5.008
 7396TIP3   OH222151   5.778   0.177   5.538
 7396TIP3    H122152   5.834   0.191   5.462
 7396TIP3    H222153   5.742   0.089   5.526
 7397TIP3   OH222154   3.561   2.319   0.682
 7397TIP3    H122155   3.509   2.391   0.649
 7397TIP3    H222156   3.552   2.250   0.617
 7398TIP3   OH222157   5.526   4.623   1.045
 7398TIP3    H122158   5.545   4.601   1.136
 7398TIP3    H222159   5.489   4.543   1.008
 7399TIP3   OH222160   5.232   4.774   4.396
 7399TIP3    H122161   5.311   4.766   4.342
 7399TIP3    H222162   5.252   4.845   4.457
 7400TIP3   OH222163   5.259   5.769   5.090
 7400TIP3    H122164   5.173   5.783   5.129
 7400TIP3    H222165   5.305   5.853   5.102
 7401TIP3   OH222166   0.468   0.606   4.296
 7401TIP3    H122167   0.552   0.648   4.316
 7401TIP3    H222168   0.442   0.566   4.379
 7402TIP3   OH222169   2.099   2.930   2.765
 7402TIP3    H122170   2.032   2.976   2.714
 7402TIP3    H222171   2.180   2.940   2.714
 7403TIP3   OH222172   6.500   0.762   2.869
 7403TIP3    H122173   6.431   0.804   2.817
 7403TIP3    H222174   6.457   0.739   2.951
 7404TIP3   OH222175   0.380   3.148   5.736
 7404TIP3    H122176   0.298   3.108   5.766
 7404TIP3    H222177   0.391   3.117   5.646
 7405TIP3   OH222178   5.619   3.671   4.017
 7405TIP3    H122179   5.580   3.585   4.028
 7405TIP3    H222180   5.654   3.670   3.928
 7406TIP3   OH222181   2.793   1.414   2.037
 7406TIP3    H122182   2.887   1.430   2.042
 7406TIP3    H222183   2.753   1.502   2.036
 7407TIP3   OH222184   4.043   1.015   5.660
 7407TIP3    H122185   4.117   0.985   5.607
 7407TIP3    H222186   3.994   1.072   5.602
 7408TIP3   OH222187   2.722   0.509   1.901
 7408TIP3    H122188   2.748   0.431   1.853
 7408TIP3    H222189   2.802   0.536   1.948
 7409TIP3   OH222190   3.711   3.809   5.224
 7409TIP3    H122191   3.755   3.859   5.292
 7409TIP3    H222192   3.783   3.778   5.168
 7410TIP3   OH222193   4.864   0.976   4.108
 7410TIP3    H122194   4.864   0.893   4.157
 7410TIP3    H222195   4.774   1.006   4.112
 7411TIP3   OH222196   2.807   1.641   3.139
 7411TIP3    H122197   2.862   1.597   3.075
 7411TIP3    H222198   2.825   1.596   3.222
 7412TIP3   OH222199   1.456   3.390   3.920
 7412TIP3    H122200   1.404   3.450   3.866
 7412TIP3    H222201   1.469   3.313   3.865
 7413TIP3   OH222202   3.995   2.499   1.649
 7413TIP3    H122203   3.976   2.587   1.682
 7413TIP3    H222204   3.910   2.457   1.642
 7414TIP3   OH222205   7.029   1.570   2.298
 7414TIP3    H122206   7.041   1.502   2.232
 7414TIP3    H222207   6.934   1.574   2.312
 7415TIP3   OH222208   5.204   2.926   1.878
 7415TIP3    H122209   5.248   3.006   1.849
 7415TIP3    H222210   5.211   2.867   1.803
 7416TIP3   OH222211   6.883   5.318   3.702
 7416TIP3    H122212   6.962   5.281   3.663
 7416TIP3    H222213   6.861   5.259   3.774
 7417TIP3   OH222214   5.175   1.447   0.305
 7417TIP3    H122215   5.182   1.428   0.399
 7417TIP3    H222216   5.234   1.521   0.290
 7418TIP3   OH222217   4.373   1.613   2.346
 7418TIP3    H122218   4.315   1.635   2.420
 7418TIP3    H222219   4.456   1.654   2.367
 7419TIP3   OH222220   0.952   5.730   5.816
 7419TIP3    H122221   0.936   5.808   5.868
 7419TIP3    H222222   0.962   5.762   5.726
 7420TIP3   OH222223   5.449   4.584   0.665
 7420TIP3    H122224   5.408   4.543   0.589
 7420TIP3    H222225   5.393   4.559   0.739
 7421TIP3   OH222226   0.810   1.177   0.951
 7421TIP3    H122227   0.886   1.232   0.931
 7421TIP3    H222228   0.750   1.193   0.878
 7422TIP3   OH222229   2.929   2.648   2.722
 7422TIP3    H122230   2.994   2.687   2.780
 7422TIP3    H222231   2.953   2.555   2.717
 7423TIP3   OH222232   5.967   2.068   0.388
 7423TIP3    H122233   6.007   2.128   0.451
 7423TIP3    H222234   5.982   2.109   0.303
 7424TIP3   OH222235   5.321   6.127   1.705
 7424TIP3    H122236   5.352   6.039   1.686
 7424TIP3    H222237   5.264   6.117   1.782
 7425TIP3   OH222238   6.911   4.824   4.543
 7425TIP3    H122239   6.866   4.743   4.520
 7425TIP3    H222240   6.852   4.868   4.605
 7426TIP3   OH222241   4.093   5.030   0.403
 7426TIP3    H122242   4.119   4.947   0.364
 7426TIP3    H222243   3.998   5.023   0.413
 7427TIP3   OH222244   5.108   6.162   0.418
 7427TIP3    H122245   5.195   6.201   0.407
 7427TIP3    H222246   5.051   6.216   0.364
 7428TIP3   OH222247   5.852   4.961   5.097
 7428TIP3    H122248   5.876   5.042   5.143
 7428TIP3    H222249   5.800   4.991   5.022
 7429TIP3   OH222250   2.881   5.138   5.750
 7429TIP3    H122251   2.878   5.063   5.810
 7429TIP3    H222252   2.861   5.101   5.664
 7430TIP3   OH222253   5.730   2.059   2.865
 7430TIP3    H122254   5.721   2.026   2.776
 7430TIP3    H222255   5.799   2.125   2.860
 7431TIP3   OH222256   6.487   2.977   4.254
 7431TIP3    H122257   6.450   3.049   4.204
 7431TIP3    H222258   6.579   3.002   4.267
 7432TIP3   OH222259   2.699   0.839   4.098
 7432TIP3    H122260   2.654   0.888   4.168
 7432TIP3    H222261   2.650   0.758   4.090
 7433TIP3   OH222262   3.391   2.732   0.477
 7433TIP3    H122263   3.298   2.731   0.498
 7433TIP3    H222264   3.435   2.738   0.562
 7434TIP3   OH222265   0.662   0.509   5.736
 7434TIP3    H122266   0.740   0.557   5.765
 7434TIP3    H222267   0.684   0.417   5.751
 7435TIP3   OH222268   1.291   4.491   0.143
 7435TIP3    H122269   1.374   4.533   0.164
 7435TIP3    H222270   1.315   4.414   0.091
 7436TIP3   OH222271   6.747   4.337   3.714
 7436TIP3    H122272   6.747   4.245   3.685
 7436TIP3    H222273   6.655   4.364   3.706
 7437TIP3   OH222274   1.192   1.396   4.460
 7437TIP3    H122275   1.164   1.318   4.508
 7437TIP3    H222276   1.264   1.365   4.405
 7438TIP3   OH222277   3.134   4.661   1.307
 7438TIP3    H122278   3.154   4.577   1.266
 7438TIP3    H222279   3.178   4.656   1.392
 7439TIP3   OH222280   1.235   3.822   2.143
 7439TIP3    H122281   1.326   3.827   2.174
 7439TIP3    H222282   1.222   3.729   2.124
 7440TIP3   OH222283   4.352   3.247   2.068
 7440TIP3    H122284   4.295   3.304   2.016
 7440TIP3    H222285   4.440   3.282   2.055
 7441TIP3   OH222286   4.100   0.073   0.723
 7441TIP3    H122287   4.109   0.157   0.677
 7441TIP3    H222288   4.165   0.077   0.793
 7442TIP3   OH222289   6.004   0.607   3.998
 7442TIP3    H122290   5.950   0.635   3.924
 7442TIP3    H222291   6.012   0.685   4.053
 7443TIP3   OH222292   5.356   3.437   0.131
 7443TIP3    H122293   5.402   3.465   0.052
 7443TIP3    H222294   5.263   3.447   0.110
 7444TIP3   OH222295   2.794   6.280   2.742
 7444TIP3    H122296   2.758   6.213   2.684
 7444TIP3    H222297   2.884   6.291   2.712
 7445TIP3   OH222298   4.289   0.128   0.904
 7445TIP3    H122299   4.352   0.101   0.972
 7445TIP3    H222300   4.343   0.174   0.839
 7446TIP3   OH222301   6.377   2.698   5.372
 7446TIP3    H122302   6.344   2.788   5.364
 7446TIP3    H222303   6.305   2.643   5.339
 7447TIP3   OH222304   3.802   1.064   5.245
 7447TIP3    H122305   3.751   1.039   5.168
 7447TIP3    H222306   3.736   1.094   5.308
 7448TIP3   OH222307   0.468   5.245   4.636
 7448TIP3    H122308   0.418   5.185   4.690
 7448TIP3    H222309   0.487   5.196   4.556
 7449TIP3   OH222310   3.023   2.687   3.041
 7449TIP3    H122311   2.939   2.674   3.084
 7449TIP3    H222312   3.062   2.762   3.086
 7450TIP3   OH222313   5.677   5.762   3.383
 7450TIP3    H122314   5.726   5.680   3.387
 7450TIP3    H222315   5.704   5.811   3.461
 7451TIP3   OH222316   4.974   4.299   0.164
 7451TIP3    H122317   4.974   4.262   0.252
 7451TIP3    H222318   4.883   4.293   0.135
 7452TIP3   OH222319   4.651   3.573   5.324
 7452TIP3    H122320   4.597   3.519   5.382
 7452TIP3    H222321   4.695   3.509   5.268
 7453TIP3   OH222322   6.829   1.611   0.214
 7453TIP3    H122323   6.740   1.582   0.195
 7453TIP3    H222324   6.824   1.646   0.303
 7454TIP3   OH222325   6.790   6.055   3.931
 7454TIP3    H122326   6.793   6.144   3.966
 7454TIP3    H222327   6.726   6.010   3.986
 7455TIP3   OH222328   1.857   1.052   0.131
 7455TIP3    H122329   1.923   1.115   0.160
 7455TIP3    H222330   1.792   1.104   0.085
 7456TIP3   OH222331   2.312   5.456   0.736
 7456TIP3    H122332   2.398   5.426   0.766
 7456TIP3    H222333   2.304   5.419   0.648
 7457TIP3   OH222334   3.979   5.836   0.047
 7457TIP3    H122335   4.021   5.772  -0.010
 7457TIP3    H222336   3.911   5.787   0.093
 7458TIP3   OH222337   0.169   3.300   1.461
 7458TIP3    H122338   0.257   3.287   1.427
 7458TIP3    H222339   0.136   3.212   1.477
 7459TIP3   OH222340   6.428   3.173   2.019
 7459TIP3    H122341   6.420   3.249   2.076
 7459TIP3    H222342   6.351   3.119   2.041
 7460TIP3   OH222343   5.669   2.097   5.831
 7460TIP3    H122344   5.760   2.104   5.799
 7460TIP3    H222345   5.648   2.186   5.861
 7461TIP3   OH222346   3.046   1.772   2.564
 7461TIP3    H122347   3.037   1.786   2.470
 7461TIP3    H222348   2.958   1.747   2.593
 7462TIP3   OH222349   4.899   4.741   4.894
 7462TIP3    H122350   4.978   4.733   4.841
 7462TIP3    H222351   4.927   4.713   4.982
 7463TIP3   OH222352   6.654   6.783   0.952
 7463TIP3    H122353   6.604   6.728   1.012
 7463TIP3    H222354   6.606   6.779   0.870
 7464TIP3   OH222355   6.597   4.418   2.375
 7464TIP3    H122356   6.667   4.366   2.336
 7464TIP3    H222357   6.554   4.358   2.437
 7465TIP3   OH222358   1.590   0.312   4.890
 7465TIP3    H122359   1.524   0.371   4.852
 7465TIP3    H222360   1.589   0.331   4.984
 7466TIP3   OH222361   5.606   5.314   4.293
 7466TIP3    H122362   5.616   5.350   4.381
 7466TIP3    H222363   5.639   5.383   4.235
 7467TIP3   OH222364   1.169   2.469   1.961
 7467TIP3    H122365   1.161   2.418   1.880
 7467TIP3    H222366   1.082   2.506   1.973
 7468TIP3   OH222367   0.332   4.447   4.651
 7468TIP3    H122368   0.298   4.529   4.616
 7468TIP3    H222369   0.277   4.379   4.611
 7469TIP3   OH222370   6.603   2.586   5.247
 7469TIP3    H122371   6.682   2.637   5.266
 7469TIP3    H222372   6.532   2.634   5.291
 7470TIP3   OH222373   6.779   2.861   3.053
 7470TIP3    H122374   6.807   2.823   2.970
 7470TIP3    H222375   6.689   2.888   3.038
 7471TIP3   OH222376   7.101   5.014   0.861
 7471TIP3    H122377   7.052   4.939   0.826
 7471TIP3    H222378   7.043   5.054   0.925
 7472TIP3   OH222379   0.380   3.862   5.082
 7472TIP3    H122380   0.345   3.905   5.004
 7472TIP3    H222381   0.304   3.824   5.125
 7473TIP3   OH222382   6.086   1.085   3.250
 7473TIP3    H122383   6.034   1.084   3.330
 7473TIP3    H222384   6.128   1.171   3.250
 7474TIP3   OH222385   2.556   2.416   5.806
 7474TIP3    H122386   2.529   2.327   5.832
 7474TIP3    H222387   2.515   2.429   5.720
 7475TIP3   OH222388   2.818   4.691   4.722
 7475TIP3    H122389   2.778   4.616   4.766
 7475TIP3    H222390   2.896   4.655   4.679
 7476TIP3   OH222391   6.078   1.944   3.935
 7476TIP3    H122392   6.070   1.878   4.003
 7476TIP3    H222393   6.136   2.011   3.972
 7477TIP3   OH222394   0.954   3.668   1.574
 7477TIP3    H122395   0.945   3.619   1.493
 7477TIP3    H222396   0.877   3.725   1.577
 7478TIP3   OH222397   5.871   5.009   5.483
 7478TIP3    H122398   5.945   4.956   5.514
 7478TIP3    H222399   5.897   5.039   5.396
 7479TIP3   OH222400   2.623   3.909   3.344
 7479TIP3    H122401   2.567   3.903   3.422
 7479TIP3    H222402   2.582   3.978   3.291
 7480TIP3   OH222403   2.099   3.442   3.497
 7480TIP3    H122404   2.073   3.382   3.567
 7480TIP3    H222405   2.080   3.529   3.531
 7481TIP3   OH222406   5.831   4.298   4.260
 7481TIP3    H122407   5.872   4.384   4.266
 7481TIP3    H222408   5.868   4.259   4.181
 7482TIP3   OH222409   5.043   6.255   4.580
 7482TIP3    H122410   4.952   6.253   4.550
 7482TIP3    H222411   5.079   6.334   4.540
 7483TIP3   OH222412   2.154   5.835   5.638
 7483TIP3    H122413   2.078   5.777   5.638
 7483TIP3    H222414   2.118   5.923   5.634
 7484TIP3   OH222415   2.114   6.221   3.667
 7484TIP3    H122416   2.020   6.199   3.667
 7484TIP3    H222417   2.137   6.228   3.574
 7485TIP3   OH222418   0.880   4.994   3.104
 7485TIP3    H122419   0.940   5.028   3.037
 7485TIP3    H222420   0.793   5.009   3.067
 7486TIP3   OH222421   1.606   1.522   1.580
 7486TIP3    H122422   1.596   1.553   1.490
 7486TIP3    H222423   1.622   1.602   1.631
 7487TIP3   OH222424   6.944   0.994   2.164
 7487TIP3    H122425   6.969   1.078   2.202
 7487TIP3    H222426   6.865   0.969   2.212
 7488TIP3   OH222427   6.262   2.496   5.923
 7488TIP3    H122428   6.177   2.470   5.890
 7488TIP3    H222429   6.320   2.424   5.899
 7489TIP3   OH222430   5.000   0.622   2.731
 7489TIP3    H122431   5.081   0.580   2.763
 7489TIP3    H222432   4.990   0.699   2.788
 7490TIP3   OH222433   4.720   6.481   0.436
 7490TIP3    H122434   4.653   6.416   0.457
 7490TIP3    H222435   4.781   6.477   0.510
 7491TIP3   OH222436   2.550   2.628   0.636
 7491TIP3    H122437   2.629   2.648   0.587
 7491TIP3    H222438   2.561   2.537   0.665
 7492TIP3   OH222439   6.697   6.118   1.377
 7492TIP3    H122440   6.784   6.095   1.346
 7492TIP3    H222441   6.644   6.040   1.360
 7493TIP3   OH222442   0.365   3.337   4.813
 7493TIP3    H122443   0.373   3.253   4.857
 7493TIP3    H222444   0.456   3.366   4.800
 7494TIP3   OH222445   6.006   1.238   4.595
 7494TIP3    H122446   5.936   1.288   4.636
 7494TIP3    H222447   6.076   1.237   4.661
 7495TIP3   OH222448   1.345   1.299   5.431
 7495TIP3    H122449   1.428   1.303   5.384
 7495TIP3    H222450   1.360   1.351   5.510
 7496TIP3   OH222451   5.843   6.136   1.512
 7496TIP3    H122452   5.885   6.082   1.445
 7496TIP3    H222453   5.749   6.119   1.501
 7497TIP3   OH222454   4.999   3.503   0.359
 7497TIP3    H122455   5.061   3.518   0.430
 7497TIP3    H222456   5.051   3.508   0.279
 7498TIP3   OH222457   6.569   1.507   0.932
 7498TIP3    H122458   6.514   1.429   0.929
 7498TIP3    H222459   6.644   1.486   0.876
 7499TIP3   OH222460   0.272   4.930   0.590
 7499TIP3    H122461   0.345   4.918   0.651
 7499TIP3    H222462   0.311   4.915   0.504
 7500TIP3   OH222463   5.416   3.974   3.390
 7500TIP3    H122464   5.463   4.045   3.432
 7500TIP3    H222465   5.327   3.981   3.425
 7501TIP3   OH222466   3.875   2.328   5.338
 7501TIP3    H122467   3.844   2.237   5.341
 7501TIP3    H222468   3.806   2.375   5.291
 7502TIP3   OH222469   5.162   1.499   5.029
 7502TIP3    H122470   5.250   1.486   5.065
 7502TIP3    H222471   5.115   1.548   5.096
 7503TIP3   OH222472   4.432   6.071   4.169
 7503TIP3    H122473   4.399   6.054   4.257
 7503TIP3    H222474   4.496   6.002   4.153
 7504TIP3   OH222475   5.278   2.959   3.882
 7504TIP3    H122476   5.343   2.918   3.939
 7504TIP3    H222477   5.194   2.927   3.915
 7505TIP3   OH222478   2.683   0.393   1.130
 7505TIP3    H122479   2.672   0.413   1.037
 7505TIP3    H222480   2.741   0.316   1.131
 7506TIP3   OH222481   1.998   1.935   3.088
 7506TIP3    H122482   1.993   1.904   3.179
 7506TIP3    H222483   1.916   1.906   3.048
 7507TIP3   OH222484   5.622   1.602   3.302
 7507TIP3    H122485   5.617   1.506   3.302
 7507TIP3    H222486   5.705   1.621   3.259
 7508TIP3   OH222487   5.105   0.232   5.294
 7508TIP3    H122488   5.184   0.281   5.316
 7508TIP3    H222489   5.066   0.211   5.379
 7509TIP3   OH222490   0.513   6.412   1.306
 7509TIP3    H122491   0.584   6.400   1.370
 7509TIP3    H222492   0.437   6.436   1.358
 7510TIP3   OH222493   6.250   4.349   3.933
 7510TIP3    H122494   6.227   4.401   4.010
 7510TIP3    H222495   6.333   4.387   3.903
 7511TIP3   OH222496   1.542   1.930   3.379
 7511TIP3    H122497   1.515   2.021   3.395
 7511TIP3    H222498   1.545   1.923   3.284
 7512TIP3   OH222499   4.814   4.927   3.223
 7512TIP3    H122500   4.783   5.012   3.257
 7512TIP3    H222501   4.786   4.927   3.131
 7513TIP3   OH222502   4.252   1.846   1.968
 7513TIP3    H122503   4.313   1.832   1.895
 7513TIP3    H222504   4.167   1.821   1.933
 7514TIP3   OH222505   5.817   5.115   4.283
 7514TIP3    H122506   5.876   5.191   4.280
 7514TIP3    H222507   5.731   5.153   4.300
 7515TIP3   OH222508   6.421   1.325   2.337
 7515TIP3    H122509   6.451   1.412   2.310
 7515TIP3    H222510   6.500   1.271   2.334
 7516TIP3   OH222511   3.494   3.874   4.787
 7516TIP3    H122512   3.460   3.828   4.711
 7516TIP3    H222513   3.583   3.900   4.761
 7517TIP3   OH222514   2.624   3.743   2.302
 7517TIP3    H122515   2.599   3.715   2.390
 7517TIP3    H222516   2.719   3.753   2.305
 7518TIP3   OH222517   6.176   4.638   1.696
 7518TIP3    H122518   6.176   4.596   1.610
 7518TIP3    H222519   6.094   4.687   1.699
 7519TIP3   OH222520   0.281   5.919   4.671
 7519TIP3    H122521   0.294   5.841   4.616
 7519TIP3    H222522   0.338   5.904   4.747
 7520TIP3   OH222523   1.243   1.665   2.670
 7520TIP3    H122524   1.225   1.739   2.729
 7520TIP3    H222525   1.289   1.704   2.596
 7521TIP3   OH222526   1.863   5.401   2.498
 7521TIP3    H122527   1.889   5.493   2.507
 7521TIP3    H222528   1.817   5.382   2.580
 7522TIP3   OH222529   2.523   3.487   0.748
 7522TIP3    H122530   2.590   3.546   0.782
 7522TIP3    H222531   2.505   3.426   0.820
 7523TIP3   OH222532   2.610   4.022   0.263
 7523TIP3    H122533   2.680   4.005   0.201
 7523TIP3    H222534   2.533   3.979   0.225
 7524TIP3   OH222535   5.834   0.446   4.503
 7524TIP3    H122536   5.801   0.505   4.435
 7524TIP3    H222537   5.928   0.440   4.487
 7525TIP3   OH222538   5.862   4.856   0.576
 7525TIP3    H122539   5.781   4.806   0.576
 7525TIP3    H222540   5.929   4.793   0.605
 7526TIP3   OH222541   2.966   3.334   0.153
 7526TIP3    H122542   3.003   3.417   0.185
 7526TIP3    H222543   2.871   3.348   0.156
 7527TIP3   OH222544   4.771   3.325   1.749
 7527TIP3    H122545   4.710   3.391   1.781
 7527TIP3    H222546   4.794   3.355   1.660
 7528TIP3   OH222547   6.291   3.219   2.844
 7528TIP3    H122548   6.295   3.256   2.756
 7528TIP3    H222549   6.351   3.144   2.842
 7529TIP3   OH222550   4.108   5.977   0.760
 7529TIP3    H122551   4.188   5.925   0.767
 7529TIP3    H222552   4.049   5.922   0.709
 7530TIP3   OH222553   6.851   4.607   3.036
 7530TIP3    H122554   6.896   4.537   2.990
 7530TIP3    H222555   6.911   4.634   3.105
 7531TIP3   OH222556   4.521   5.373   4.306
 7531TIP3    H122557   4.537   5.462   4.276
 7531TIP3    H222558   4.530   5.319   4.228
 7532TIP3   OH222559   3.193   4.715   2.064
 7532TIP3    H122560   3.206   4.652   1.993
 7532TIP3    H222561   3.121   4.678   2.116
 7533TIP3   OH222562   3.037   6.661   4.839
 7533TIP3    H122563   3.029   6.740   4.786
 7533TIP3    H222564   3.035   6.589   4.776
 7534TIP3   OH222565   5.316   0.753   1.152
 7534TIP3    H122566   5.352   0.680   1.101
 7534TIP3    H222567   5.377   0.766   1.224
 7535TIP3   OH222568   2.042   4.397   2.742
 7535TIP3    H122569   2.082   4.446   2.814
 7535TIP3    H222570   1.988   4.462   2.696
 7536TIP3   OH222571   3.844   1.478   5.921
 7536TIP3    H122572   3.794   1.396   5.919
 7536TIP3    H222573   3.864   1.497   5.830
 7537TIP3   OH222574   2.876   6.608   2.493
 7537TIP3    H122575   2.878   6.616   2.397
 7537TIP3    H222576   2.813   6.538   2.509
 7538TIP3   OH222577   1.386   2.763   2.950
 7538TIP3    H122578   1.376   2.832   2.885
 7538TIP3    H222579   1.374   2.682   2.901
 7539TIP3   OH222580   2.130   5.725   5.033
 7539TIP3    H122581   2.209   5.772   5.005
 7539TIP3    H222582   2.063   5.793   5.039
 7540TIP3   OH222583   6.504   1.965   1.098
 7540TIP3    H122584   6.424   1.926   1.134
 7540TIP3    H222585   6.472   2.034   1.039
 7541TIP3   OH222586   0.570   0.817   1.105
 7541TIP3    H122587   0.479   0.788   1.116
 7541TIP3    H222588   0.573   0.901   1.150
 7542TIP3   OH222589   2.029   0.810   4.613
 7542TIP3    H122590   1.973   0.770   4.679
 7542TIP3    H222591   2.077   0.878   4.661
 7543TIP3   OH222592   4.532   4.574   1.876
 7543TIP3    H122593   4.567   4.661   1.858
 7543TIP3    H222594   4.573   4.518   1.810
 7544TIP3   OH222595   4.238   1.556   0.199
 7544TIP3    H122596   4.304   1.525   0.138
 7544TIP3    H222597   4.249   1.501   0.277
 7545TIP3   OH222598   3.145   2.224   2.035
 7545TIP3    H122599   3.114   2.235   1.945
 7545TIP3    H222600   3.122   2.306   2.079
 7546TIP3   OH222601   5.379   6.651   4.600
 7546TIP3    H122602   5.461   6.661   4.553
 7546TIP3    H222603   5.316   6.702   4.549
 7547TIP3   OH222604   5.430   2.602   5.796
 7547TIP3    H122605   5.486   2.568   5.726
 7547TIP3    H222606   5.425   2.696   5.780
 7548TIP3   OH222607   5.912   3.247   0.387
 7548TIP3    H122608   5.960   3.243   0.304
 7548TIP3    H222609   5.969   3.297   0.445
 7549TIP3   OH222610   5.816   1.855   0.922
 7549TIP3    H122611   5.791   1.900   0.841
 7549TIP3    H222612   5.785   1.765   0.910
 7550TIP3   OH222613   5.980   0.016   5.732
 7550TIP3    H122614   5.924  -0.013   5.659
 7550TIP3    H222615   6.001   0.107   5.711
 7551TIP3   OH222616   4.978   3.176   0.467
 7551TIP3    H122617   5.065   3.215   0.462
 7551TIP3    H222618   4.934   3.227   0.536
 7552TIP3   OH222619   3.555   0.050   3.534
 7552TIP3    H122620   3.487   0.041   3.600
 7552TIP3    H222621   3.507   0.052   3.451
 7553TIP3   OH222622   7.094   0.791   2.330
 7553TIP3    H122623   7.058   0.811   2.244
 7553TIP3    H222624   7.158   0.721   2.314
 7554TIP3   OH222625   3.856   2.793   4.680
 7554TIP3    H122626   3.809   2.723   4.634
 7554TIP3    H222627   3.821   2.874   4.642
 7555TIP3   OH222628   1.046   0.548   5.613
 7555TIP3    H122629   0.980   0.609   5.581
 7555TIP3    H222630   1.119   0.603   5.638
 7556TIP3   OH222631   5.351   5.765   2.911
 7556TIP3    H122632   5.344   5.700   2.981
 7556TIP3    H222633   5.331   5.716   2.831
 7557TIP3   OH222634   2.590   2.802   3.946
 7557TIP3    H122635   2.551   2.889   3.939
 7557TIP3    H222636   2.677   2.818   3.983
 7558TIP3   OH222637   4.830   4.587   4.132
 7558TIP3    H122638   4.924   4.585   4.148
 7558TIP3    H222639   4.809   4.499   4.102
 7559TIP3   OH222640   3.797   3.485   0.087
 7559TIP3    H122641   3.786   3.547   0.015
 7559TIP3    H222642   3.796   3.399   0.045
 7560TIP3   OH222643   1.284   1.646   0.573
 7560TIP3    H122644   1.268   1.692   0.490
 7560TIP3    H222645   1.213   1.582   0.579
 7561TIP3   OH222646   3.547   2.045   3.698
 7561TIP3    H122647   3.613   2.059   3.767
 7561TIP3    H222648   3.580   1.970   3.649
 7562TIP3   OH222649   4.371   3.965   3.617
 7562TIP3    H122650   4.433   3.893   3.610
 7562TIP3    H222651   4.312   3.938   3.688
 7563TIP3   OH222652   2.583   2.645   3.700
 7563TIP3    H122653   2.580   2.664   3.794
 7563TIP3    H222654   2.661   2.589   3.690
 7564TIP3   OH222655   1.297   4.662   4.178
 7564TIP3    H122656   1.288   4.578   4.134
 7564TIP3    H222657   1.391   4.678   4.178
 7565TIP3   OH222658   5.418   3.947   1.738
 7565TIP3    H122659   5.328   3.915   1.731
 7565TIP3    H222660   5.442   3.970   1.648
 7566TIP3   OH222661   3.397   4.517   0.531
 7566TIP3    H122662   3.331   4.456   0.563
 7566TIP3    H222663   3.410   4.578   0.604
 7567TIP3   OH222664   0.769   4.879   3.661
 7567TIP3    H122665   0.763   4.893   3.566
 7567TIP3    H222666   0.683   4.904   3.694
 7568TIP3   OH222667   0.196   0.913   4.531
 7568TIP3    H122668   0.111   0.898   4.490
 7568TIP3    H222669   0.259   0.883   4.465
 7569TIP3   OH222670   5.224   4.459   2.209
 7569TIP3    H122671   5.210   4.528   2.275
 7569TIP3    H222672   5.195   4.499   2.127
 7570TIP3   OH222673   2.131   3.271   0.157
 7570TIP3    H122674   2.223   3.296   0.158
 7570TIP3    H222675   2.132   3.177   0.143
 7571TIP3   OH222676   2.189   0.953   0.971
 7571TIP3    H122677   2.130   0.986   0.903
 7571TIP3    H222678   2.195   1.025   1.034
 7572TIP3   OH222679   6.827   6.023   2.986
 7572TIP3    H122680   6.799   6.091   3.047
 7572TIP3    H222681   6.844   6.069   2.904
 7573TIP3   OH222682   0.615   4.440   2.765
 7573TIP3    H122683   0.592   4.459   2.856
 7573TIP3    H222684   0.653   4.351   2.768
 7574TIP3   OH222685   6.742   4.231   5.855
 7574TIP3    H122686   6.798   4.196   5.786
 7574TIP3    H222687   6.657   4.189   5.841
 7575TIP3   OH222688   5.326   0.447   3.876
 7575TIP3    H122689   5.281   0.435   3.792
 7575TIP3    H222690   5.280   0.388   3.936
 7576TIP3   OH222691   2.986   3.016   5.604
 7576TIP3    H122692   2.970   3.054   5.517
 7576TIP3    H222693   2.902   2.977   5.628
 7577TIP3   OH222694   1.771   0.095   4.949
 7577TIP3    H122695   1.798   0.044   5.025
 7577TIP3    H222696   1.738   0.177   4.986
 7578TIP3   OH222697   6.235   0.409   0.227
 7578TIP3    H122698   6.176   0.397   0.153
 7578TIP3    H222699   6.319   0.434   0.188
 7579TIP3   OH222700   3.889   0.156   1.086
 7579TIP3    H122701   3.969   0.204   1.066
 7579TIP3    H222702   3.825   0.223   1.106
 7580TIP3   OH222703   1.600   3.801   3.747
 7580TIP3    H122704   1.642   3.791   3.832
 7580TIP3    H222705   1.518   3.753   3.754
 7581TIP3   OH222706   3.243   1.911   5.241
 7581TIP3    H122707   3.274   1.821   5.250
 7581TIP3    H222708   3.240   1.926   5.146
 7582TIP3   OH222709   4.004   0.428   4.114
 7582TIP3    H122710   4.084   0.376   4.123
 7582TIP3    H222711   4.027   0.497   4.052
 7583TIP3   OH222712   6.233   2.690   4.733
 7583TIP3    H122713   6.262   2.782   4.730
 7583TIP3    H222714   6.150   2.690   4.685
 7584TIP3   OH222715   4.427   6.202   2.197
 7584TIP3    H122716   4.464   6.203   2.108
 7584TIP3    H222717   4.422   6.109   2.219
 7585TIP3   OH222718   0.503   6.138   3.826
 7585TIP3    H122719   0.430   6.114   3.769
 7585TIP3    H222720   0.549   6.056   3.843
 7586TIP3   OH222721   5.371   1.118   1.098
 7586TIP3    H122722   5.360   1.093   1.190
 7586TIP3    H222723   5.463   1.101   1.079
 7587TIP3   OH222724   3.608   5.541   3.598
 7587TIP3    H122725   3.659   5.494   3.664
 7587TIP3    H222726   3.669   5.607   3.564
 7588TIP3   OH222727   2.606   6.698   1.524
 7588TIP3    H122728   2.585   6.713   1.432
 7588TIP3    H222729   2.623   6.785   1.559
 7589TIP3   OH222730   1.416   6.245   1.112
 7589TIP3    H122731   1.416   6.155   1.082
 7589TIP3    H222732   1.494   6.284   1.073
 7590TIP3   OH222733   3.824   0.268   3.109
 7590TIP3    H122734   3.863   0.228   3.032
 7590TIP3    H222735   3.825   0.199   3.175
 7591TIP3   OH222736   2.244   2.454   2.633
 7591TIP3    H122737   2.248   2.380   2.693
 7591TIP3    H222738   2.311   2.515   2.666
 7592TIP3   OH222739   6.980   2.606   0.792
 7592TIP3    H122740   7.006   2.518   0.820
 7592TIP3    H222741   7.032   2.665   0.847
 7593TIP3   OH222742   2.965   0.869   2.423
 7593TIP3    H122743   2.951   0.839   2.513
 7593TIP3    H222744   3.050   0.831   2.398
 7594TIP3   OH222745   6.732   5.359   1.201
 7594TIP3    H122746   6.659   5.380   1.260
 7594TIP3    H222747   6.739   5.435   1.144
 7595TIP3   OH222748   5.751   4.325   2.021
 7595TIP3    H122749   5.750   4.321   1.925
 7595TIP3    H222750   5.840   4.299   2.045
 7596TIP3   OH222751   5.494   3.045   0.639
 7596TIP3    H122752   5.517   3.138   0.636
 7596TIP3    H222753   5.430   3.034   0.569
 7597TIP3   OH222754   3.299   5.811   0.445
 7597TIP3    H122755   3.218   5.855   0.419
 7597TIP3    H222756   3.337   5.779   0.363
 7598TIP3   OH222757   0.508   1.314   5.832
 7598TIP3    H122758   0.557   1.393   5.809
 7598TIP3    H222759   0.489   1.272   5.749
 7599TIP3   OH222760   0.544   2.220   1.528
 7599TIP3    H122761   0.540   2.156   1.599
 7599TIP3    H222762   0.634   2.253   1.530
 7600TIP3   OH222763   2.772   6.232   3.428
 7600TIP3    H122764   2.743   6.162   3.487
 7600TIP3    H222765   2.730   6.310   3.462
 7601TIP3   OH222766   2.295   6.128   2.955
 7601TIP3    H122767   2.279   6.084   3.039
 7601TIP3    H222768   2.330   6.214   2.980
 7602TIP3   OH222769   6.117   2.716   3.883
 7602TIP3    H122770   6.037   2.767   3.877
 7602TIP3    H222771   6.128   2.697   3.976
 7603TIP3   OH222772   1.012   5.292   0.689
 7603TIP3    H122773   1.024   5.386   0.705
 7603TIP3    H222774   0.944   5.265   0.750
 7604TIP3   OH222775   5.961   0.371   2.253
 7604TIP3    H122776   5.939   0.350   2.162
 7604TIP3    H222777   6.055   0.384   2.253
 7605TIP3   OH222778   5.421   4.840   1.345
 7605TIP3    H122779   5.341   4.797   1.374
 7605TIP3    H222780   5.401   4.869   1.255
 7606TIP3   OH222781   0.601   4.212   0.568
 7606TIP3    H122782   0.650   4.294   0.559
 7606TIP3    H222783   0.666   4.143   0.551
 7607TIP3   OH222784   6.738   3.975   3.393
 7607TIP3    H122785   6.829   3.994   3.373
 7607TIP3    H222786   6.719   3.894   3.347
 7608TIP3   OH222787   6.286   3.657   4.736
 7608TIP3    H122788   6.376   3.658   4.769
 7608TIP3    H222789   6.250   3.742   4.760
 7609TIP3   OH222790   2.885   2.406   4.012
 7609TIP3    H122791   2.890   2.475   3.947
 7609TIP3    H222792   2.887   2.325   3.962
 7610TIP3   OH222793   5.233   4.471   2.544
 7610TIP3    H122794   5.247   4.564   2.526
 7610TIP3    H222795   5.152   4.468   2.594
 7611TIP3   OH222796   1.357   1.512   3.593
 7611TIP3    H122797   1.412   1.590   3.585
 7611TIP3    H222798   1.301   1.514   3.516
 7612TIP3   OH222799   4.037   4.800   2.638
 7612TIP3    H122800   4.076   4.713   2.632
 7612TIP3    H222801   3.944   4.783   2.654
 7613TIP3   OH222802   3.145   2.052   0.525
 7613TIP3    H122803   3.072   1.997   0.554
 7613TIP3    H222804   3.200   2.062   0.603
 7614TIP3   OH222805   0.046   0.562   5.839
 7614TIP3    H122806   0.108   0.532   5.772
 7614TIP3    H222807   0.059   0.657   5.842
 7615TIP3   OH222808   0.108   0.294   4.685
 7615TIP3    H122809   0.066   0.342   4.613
 7615TIP3    H222810   0.065   0.209   4.686
 7616TIP3   OH222811   0.351   6.039   0.245
 7616TIP3    H122812   0.379   6.020   0.334
 7616TIP3    H222813   0.288   5.970   0.224
 7617TIP3   OH222814   5.484   4.271   4.549
 7617TIP3    H122815   5.572   4.254   4.515
 7617TIP3    H222816   5.475   4.366   4.547
 7618TIP3   OH222817   7.229   1.090   0.124
 7618TIP3    H122818   7.230   1.184   0.140
 7618TIP3    H222819   7.177   1.054   0.197
 7619TIP3   OH222820   1.814   3.132   3.371
 7619TIP3    H122821   1.896   3.136   3.421
 7619TIP3    H222822   1.790   3.223   3.357
 7620TIP3   OH222823   1.515   0.278   0.510
 7620TIP3    H122824   1.523   0.269   0.605
 7620TIP3    H222825   1.575   0.349   0.488
 7621TIP3   OH222826   5.413   2.712   0.716
 7621TIP3    H122827   5.333   2.668   0.690
 7621TIP3    H222828   5.390   2.759   0.796
 7622TIP3   OH222829   4.206   3.455   1.961
 7622TIP3    H122830   4.144   3.501   2.018
 7622TIP3    H222831   4.234   3.520   1.897
 7623TIP3   OH222832   1.545   2.643   4.674
 7623TIP3    H122833   1.573   2.708   4.610
 7623TIP3    H222834   1.519   2.567   4.622
 7624TIP3   OH222835   3.785   3.669   2.534
 7624TIP3    H122836   3.805   3.701   2.447
 7624TIP3    H222837   3.696   3.633   2.527
 7625TIP3   OH222838   0.393   1.058   0.260
 7625TIP3    H122839   0.326   1.008   0.306
 7625TIP3    H222840   0.358   1.147   0.254
 7626TIP3   OH222841   5.889   4.903   3.035
 7626TIP3    H122842   5.951   4.831   3.027
 7626TIP3    H222843   5.840   4.902   2.953
 7627TIP3   OH222844   3.429   6.633   4.763
 7627TIP3    H122845   3.453   6.671   4.678
 7627TIP3    H222846   3.513   6.617   4.806
 7628TIP3   OH222847   3.841   0.851   3.544
 7628TIP3    H122848   3.926   0.887   3.568
 7628TIP3    H222849   3.835   0.768   3.592
 7629TIP3   OH222850   3.203   6.186   5.121
 7629TIP3    H122851   3.198   6.097   5.086
 7629TIP3    H222852   3.241   6.175   5.208
 7630TIP3   OH222853   3.434   2.282   3.621
 7630TIP3    H122854   3.480   2.204   3.652
 7630TIP3    H222855   3.439   2.277   3.525
 7631TIP3   OH222856   6.356   0.357   3.992
 7631TIP3    H122857   6.335   0.447   4.017
 7631TIP3    H222858   6.277   0.326   3.947
 7632TIP3   OH222859   2.415   2.085   3.141
 7632TIP3    H122860   2.498   2.083   3.188
 7632TIP3    H222861   2.350   2.058   3.207
 7633TIP3   OH222862   5.545   5.266   1.828
 7633TIP3    H122863   5.534   5.297   1.918
 7633TIP3    H222864   5.461   5.286   1.786
 7634TIP3   OH222865   2.673   3.647   1.385
 7634TIP3    H122866   2.654   3.703   1.461
 7634TIP3    H222867   2.768   3.637   1.386
 7635TIP3   OH222868   7.166   1.879   4.700
 7635TIP3    H122869   7.073   1.868   4.682
 7635TIP3    H222870   7.195   1.791   4.724
 7636TIP3   OH222871   0.641   2.665   5.625
 7636TIP3    H122872   0.568   2.723   5.644
 7636TIP3    H222873   0.623   2.630   5.538
 7637TIP3   OH222874   5.775   0.822   1.456
 7637TIP3    H122875   5.811   0.751   1.509
 7637TIP3    H222876   5.804   0.902   1.501
 7638TIP3   OH222877   2.465   6.651   5.610
 7638TIP3    H122878   2.508   6.566   5.598
 7638TIP3    H222879   2.458   6.687   5.521
 7639TIP3   OH222880   3.557   2.651   0.697
 7639TIP3    H122881   3.629   2.642   0.759
 7639TIP3    H222882   3.478   2.634   0.749
 7640TIP3   OH222883   3.936   0.597   4.499
 7640TIP3    H122884   4.011   0.625   4.447
 7640TIP3    H222885   3.870   0.665   4.485
 7641TIP3   OH222886   1.180   2.043   1.018
 7641TIP3    H122887   1.146   1.992   0.944
 7641TIP3    H222888   1.114   2.111   1.032
 7642TIP3   OH222889   0.435   6.376   5.521
 7642TIP3    H122890   0.415   6.293   5.478
 7642TIP3    H222891   0.413   6.362   5.613
 7643TIP3   OH222892   0.194   4.270   1.106
 7643TIP3    H122893   0.214   4.224   1.187
 7643TIP3    H222894   0.274   4.263   1.054
 7644TIP3   OH222895   5.885   6.296   3.509
 7644TIP3    H122896   5.905   6.331   3.596
 7644TIP3    H222897   5.842   6.367   3.463
 7645TIP3   OH222898   0.875   4.432   4.350
 7645TIP3    H122899   0.893   4.508   4.405
 7645TIP3    H222900   0.953   4.423   4.295
 7646TIP3   OH222901   7.124   6.705   0.237
 7646TIP3    H122902   7.209   6.706   0.194
 7646TIP3    H222903   7.121   6.786   0.287
 7647TIP3   OH222904   2.516   3.797   4.632
 7647TIP3    H122905   2.546   3.789   4.723
 7647TIP3    H222906   2.466   3.878   4.631
 7648TIP3   OH222907   0.289   1.399   4.641
 7648TIP3    H122908   0.264   1.307   4.646
 7648TIP3    H222909   0.241   1.434   4.566
 7649TIP3   OH222910   5.710   5.314   3.931
 7649TIP3    H122911   5.710   5.397   3.884
 7649TIP3    H222912   5.620   5.280   3.920
 7650TIP3   OH222913   6.243   3.886   1.356
 7650TIP3    H122914   6.196   3.968   1.371
 7650TIP3    H222915   6.280   3.895   1.268
 7651TIP3   OH222916   3.008   6.740   1.227
 7651TIP3    H122917   2.989   6.726   1.134
 7651TIP3    H222918   2.962   6.821   1.248
 7652TIP3   OH222919   2.906   2.141   3.473
 7652TIP3    H122920   2.898   2.186   3.557
 7652TIP3    H222921   2.949   2.205   3.415
 7653TIP3   OH222922   5.205   4.430   4.298
 7653TIP3    H122923   5.265   4.478   4.241
 7653TIP3    H222924   5.132   4.405   4.241
 7654TIP3   OH222925   1.064   3.907   3.284
 7654TIP3    H122926   1.048   3.960   3.361
 7654TIP3    H222927   1.159   3.890   3.286
 7655TIP3   OH222928   0.109   0.842   1.891
 7655TIP3    H122929   0.134   0.908   1.827
 7655TIP3    H222930   0.148   0.872   1.973
 7656TIP3   OH222931   4.524   6.359   5.137
 7656TIP3    H122932   4.434   6.384   5.158
 7656TIP3    H222933   4.522   6.263   5.136
 7657TIP3   OH222934   3.082  -0.005   0.652
 7657TIP3    H122935   3.007  -0.058   0.624
 7657TIP3    H222936   3.084   0.069   0.590
 7658TIP3   OH222937   4.742   5.909   0.084
 7658TIP3    H122938   4.691   5.946   0.011
 7658TIP3    H222939   4.816   5.866   0.041
 7659TIP3   OH222940   5.552   1.809   3.096
 7659TIP3    H122941   5.620   1.752   3.060
 7659TIP3    H222942   5.490   1.749   3.138
 7660TIP3   OH222943   5.308   0.747   1.835
 7660TIP3    H122944   5.308   0.653   1.855
 7660TIP3    H222945   5.232   0.781   1.881
 7661TIP3   OH222946   6.931   0.115   1.210
 7661TIP3    H122947   6.837   0.131   1.199
 7661TIP3    H222948   6.972   0.198   1.184
 7662TIP3   OH222949   7.013   6.260   1.449
 7662TIP3    H122950   6.934   6.306   1.423
 7662TIP3    H222951   7.077   6.281   1.381
 7663TIP3   OH222952   2.103   6.744   3.425
 7663TIP3    H122953   2.175   6.708   3.477
 7663TIP3    H222954   2.092   6.834   3.457
 7664TIP3   OH222955   4.105   5.198   4.894
 7664TIP3    H122956   4.137   5.210   4.805
 7664TIP3    H222957   4.165   5.134   4.933
 7665TIP3   OH222958   1.211   4.837   5.794
 7665TIP3    H122959   1.269   4.914   5.797
 7665TIP3    H222960   1.266   4.767   5.760
 7666TIP3   OH222961   0.844   5.757   2.926
 7666TIP3    H122962   0.787   5.707   2.867
 7666TIP3    H222963   0.933   5.732   2.901
 7667TIP3   OH222964   2.556   3.379   1.314
 7667TIP3    H122965   2.580   3.361   1.405
 7667TIP3    H222966   2.629   3.428   1.278
 7668TIP3   OH222967   4.155   3.798   3.463
 7668TIP3    H122968   4.235   3.772   3.417
 7668TIP3    H222969   4.087   3.743   3.425
 7669TIP3   OH222970   3.844   2.697   5.301
 7669TIP3    H122971   3.783   2.624   5.291
 7669TIP3    H222972   3.927   2.666   5.266
 7670TIP3   OH222973   3.510   2.909   5.868
 7670TIP3    H122974   3.491   2.937   5.958
 7670TIP3    H222975   3.601   2.880   5.871
 7671TIP3   OH222976   5.956   1.784   0.403
 7671TIP3    H122977   5.954   1.879   0.419
 7671TIP3    H222978   5.925   1.774   0.313
 7672TIP3   OH222979   5.129   2.242   5.241
 7672TIP3    H122980   5.173   2.231   5.326
 7672TIP3    H222981   5.188   2.297   5.190
 7673TIP3   OH222982   2.716   3.742   0.660
 7673TIP3    H122983   2.677   3.691   0.589
 7673TIP3    H222984   2.750   3.677   0.721
 7674TIP3   OH222985   3.343   0.110   2.045
 7674TIP3    H122986   3.357   0.037   1.985
 7674TIP3    H222987   3.264   0.087   2.094
 7675TIP3   OH222988   0.089   2.939   2.615
 7675TIP3    H122989   0.025   2.973   2.552
 7675TIP3    H222990   0.089   2.845   2.601
 7676TIP3   OH222991   0.232   4.721   2.826
 7676TIP3    H122992   0.243   4.712   2.920
 7676TIP3    H222993   0.321   4.730   2.791
 7677TIP3   OH222994   4.813   1.838   5.449
 7677TIP3    H122995   4.785   1.844   5.541
 7677TIP3    H222996   4.908   1.851   5.452
 7678TIP3   OH222997   4.324   3.541   3.384
 7678TIP3    H122998   4.325   3.522   3.290
 7678TIP3    H222999   4.310   3.456   3.425
 7679TIP3   OH223000   0.180   1.382   1.381
 7679TIP3    H123001   0.216   1.403   1.295
 7679TIP3    H223002   0.252   1.399   1.442
 7680TIP3   OH223003   6.854   0.249   4.324
 7680TIP3    H123004   6.933   0.216   4.367
 7680TIP3    H223005   6.784   0.194   4.358
 7681TIP3   OH223006   0.874   3.356   2.422
 7681TIP3    H123007   0.898   3.317   2.339
 7681TIP3    H223008   0.790   3.315   2.445
 7682TIP3   OH223009   1.780   6.153   4.894
 7682TIP3    H123010   1.829   6.176   4.973
 7682TIP3    H223011   1.847   6.144   4.826
 7683TIP3   OH223012   6.592   1.212   0.188
 7683TIP3    H123013   6.653   1.157   0.139
 7683TIP3    H223014   6.618   1.202   0.279
 7684TIP3   OH223015   2.411   1.649   3.713
 7684TIP3    H123016   2.462   1.568   3.713
 7684TIP3    H223017   2.328   1.626   3.754
 7685TIP3   OH223018   7.198   4.251   3.110
 7685TIP3    H123019   7.228   4.262   3.200
 7685TIP3    H223020   7.199   4.157   3.096
 7686TIP3   OH223021   2.257   2.890   0.611
 7686TIP3    H123022   2.336   2.908   0.560
 7686TIP3    H223023   2.232   2.801   0.586
 7687TIP3   OH223024   5.496   4.342   1.611
 7687TIP3    H123025   5.477   4.404   1.540
 7687TIP3    H223026   5.432   4.364   1.679
 7688TIP3   OH223027   6.811   0.392   3.805
 7688TIP3    H123028   6.776   0.332   3.870
 7688TIP3    H223029   6.902   0.365   3.795
 7689TIP3   OH223030   1.796   4.477   0.548
 7689TIP3    H123031   1.762   4.392   0.518
 7689TIP3    H223032   1.718   4.532   0.555
 7690TIP3   OH223033   1.135   3.535   5.758
 7690TIP3    H123034   1.145   3.467   5.825
 7690TIP3    H223035   1.052   3.577   5.778
 7691TIP3   OH223036   5.411   5.330  -0.029
 7691TIP3    H123037   5.428   5.269   0.042
 7691TIP3    H223038   5.405   5.275  -0.107
 7692TIP3   OH223039   6.362   0.006   2.645
 7692TIP3    H123040   6.457  -0.003   2.636
 7692TIP3    H223041   6.328  -0.005   2.557
 7693TIP3   OH223042   1.824   2.969   2.255
 7693TIP3    H123043   1.903   2.922   2.282
 7693TIP3    H223044   1.842   3.060   2.276
 7694TIP3   OH223045   6.846   3.059   2.639
 7694TIP3    H123046   6.751   3.070   2.645
 7694TIP3    H223047   6.862   2.971   2.671
 7695TIP3   OH223048   0.918   1.472   3.051
 7695TIP3    H123049   0.973   1.426   2.988
 7695TIP3    H223050   0.857   1.522   2.997
 7696TIP3   OH223051   2.581   5.419   5.563
 7696TIP3    H123052   2.643   5.377   5.504
 7696TIP3    H223053   2.559   5.502   5.522
 7697TIP3   OH223054   4.909   4.051   2.775
 7697TIP3    H123055   4.861   4.042   2.693
 7697TIP3    H223056   4.948   4.139   2.770
 7698TIP3   OH223057   5.170   3.790   0.289
 7698TIP3    H123058   5.084   3.760   0.258
 7698TIP3    H223059   5.150   3.839   0.369
 7699TIP3   OH223060   4.438   3.507   2.490
 7699TIP3    H123061   4.522   3.470   2.519
 7699TIP3    H223062   4.373   3.461   2.543
 7700TIP3   OH223063   7.286   5.678   4.316
 7700TIP3    H123064   7.277   5.582   4.322
 7700TIP3    H223065   7.205   5.711   4.354
 7701TIP3   OH223066   4.020   4.151   4.886
 7701TIP3    H123067   3.942   4.205   4.885
 7701TIP3    H223068   4.087   4.203   4.842
 7702TIP3   OH223069   4.049   1.760   0.194
 7702TIP3    H123070   4.100   1.682   0.214
 7702TIP3    H223071   4.078   1.825   0.258
 7703TIP3   OH223072   4.535   4.533   1.095
 7703TIP3    H123073   4.628   4.526   1.117
 7703TIP3    H223074   4.489   4.502   1.173
 7704TIP3   OH223075   0.581   4.526   2.514
 7704TIP3    H123076   0.487   4.512   2.525
 7704TIP3    H223077   0.622   4.476   2.585
 7705TIP3   OH223078   4.680   3.300   5.469
 7705TIP3    H123079   4.706   3.222   5.517
 7705TIP3    H223080   4.728   3.371   5.512
 7706TIP3   OH223081   5.028   1.307   4.404
 7706TIP3    H123082   5.033   1.228   4.350
 7706TIP3    H223083   4.945   1.299   4.451
 7707TIP3   OH223084   6.786   4.344   0.133
 7707TIP3    H123085   6.691   4.349   0.128
 7707TIP3    H223086   6.809   4.393   0.212
 7708TIP3   OH223087   3.907   2.501   2.979
 7708TIP3    H123088   3.965   2.512   2.904
 7708TIP3    H223089   3.911   2.407   2.999
 7709TIP3   OH223090   3.569   0.016   4.446
 7709TIP3    H123091   3.538   0.017   4.355
 7709TIP3    H223092   3.492   0.040   4.498
 7710TIP3   OH223093   5.856   5.094   1.621
 7710TIP3    H123094   5.885   5.179   1.654
 7710TIP3    H223095   5.785   5.115   1.559
 7711TIP3   OH223096   0.109   4.159   2.176
 7711TIP3    H123097   0.176   4.112   2.226
 7711TIP3    H223098   0.151   4.242   2.151
 7712TIP3   OH223099   4.041   5.180   2.644
 7712TIP3    H123100   4.000   5.229   2.573
 7712TIP3    H223101   3.974   5.176   2.712
 7713TIP3   OH223102   3.630   1.872   0.053
 7713TIP3    H123103   3.685   1.846  -0.021
 7713TIP3    H223104   3.666   1.824   0.127
 7714TIP3   OH223105   5.582   1.129   4.444
 7714TIP3    H123106   5.661   1.141   4.391
 7714TIP3    H223107   5.613   1.128   4.534
 7715TIP3   OH223108   6.167   0.373   4.631
 7715TIP3    H123109   6.148   0.360   4.538
 7715TIP3    H223110   6.257   0.407   4.632
 7716TIP3   OH223111   3.156   2.387   0.846
 7716TIP3    H123112   3.095   2.348   0.909
 7716TIP3    H223113   3.185   2.313   0.792
 7717TIP3   OH223114   5.531   4.829   0.851
 7717TIP3    H123115   5.517   4.752   0.906
 7717TIP3    H223116   5.612   4.867   0.884
 7718TIP3   OH223117   3.548   2.191   1.517
 7718TIP3    H123118   3.525   2.236   1.436
 7718TIP3    H223119   3.594   2.112   1.487
 7719TIP3   OH223120   4.650   5.820   5.866
 7719TIP3    H123121   4.709   5.754   5.830
 7719TIP3    H223122   4.705   5.871   5.926
 7720TIP3   OH223123   4.613   4.214   0.584
 7720TIP3    H123124   4.590   4.209   0.491
 7720TIP3    H223125   4.560   4.285   0.618
 7721TIP3   OH223126   3.648   2.994   4.165
 7721TIP3    H123127   3.597   3.066   4.202
 7721TIP3    H223128   3.649   2.928   4.234
 7722TIP3   OH223129   4.319   3.041   3.110
 7722TIP3    H123130   4.340   3.022   3.201
 7722TIP3    H223131   4.403   3.063   3.070
 7723TIP3   OH223132   0.729   3.484   0.172
 7723TIP3    H123133   0.786   3.494   0.096
 7723TIP3    H223134   0.641   3.490   0.137
 7724TIP3   OH223135   1.436   3.958   4.951
 7724TIP3    H123136   1.486   4.035   4.976
 7724TIP3    H223137   1.489   3.884   4.982
 7725TIP3   OH223138   2.908   1.008   4.021
 7725TIP3    H123139   2.837   0.947   4.045
 7725TIP3    H223140   2.982   0.951   4.001
 7726TIP3   OH223141   3.327   2.782   1.167
 7726TIP3    H123142   3.334   2.740   1.081
 7726TIP3    H223143   3.233   2.799   1.177
 7727TIP3   OH223144   4.385   0.776   4.778
 7727TIP3    H123145   4.473   0.812   4.791
 7727TIP3    H223146   4.399   0.693   4.733
 7728TIP3   OH223147   0.897   6.271   1.177
 7728TIP3    H123148   0.962   6.270   1.248
 7728TIP3    H223149   0.894   6.362   1.149
 7729TIP3   OH223150   3.575   3.751   3.148
 7729TIP3    H123151   3.516   3.803   3.093
 7729TIP3    H223152   3.527   3.670   3.164
 7730TIP3   OH223153   0.538   1.283   2.523
 7730TIP3    H123154   0.615   1.229   2.537
 7730TIP3    H223155   0.567   1.351   2.462
 7731TIP3   OH223156   4.859   5.228   2.864
 7731TIP3    H123157   4.850   5.133   2.875
 7731TIP3    H223158   4.782   5.264   2.908
 7732TIP3   OH223159   1.739   3.195   5.315
 7732TIP3    H123160   1.692   3.249   5.380
 7732TIP3    H223161   1.692   3.211   5.233
 7733TIP3   OH223162   0.890   3.058   5.823
 7733TIP3    H123163   0.901   3.030   5.914
 7733TIP3    H223164   0.895   2.977   5.773
 7734TIP3   OH223165   2.823   6.552   1.539
 7734TIP3    H123166   2.782   6.467   1.557
 7734TIP3    H223167   2.750   6.611   1.522
 7735TIP3   OH223168   5.114   4.600   1.983
 7735TIP3    H123169   5.151   4.634   1.902
 7735TIP3    H223170   5.077   4.678   2.026
 7736TIP3   OH223171   2.240   3.635   4.515
 7736TIP3    H123172   2.204   3.666   4.598
 7736TIP3    H223173   2.265   3.715   4.468
 7737TIP3   OH223174   0.130   5.857   0.225
 7737TIP3    H123175   0.081   5.894   0.151
 7737TIP3    H223176   0.080   5.780   0.251
 7738TIP3   OH223177   5.974   2.482   1.885
 7738TIP3    H123178   6.010   2.420   1.948
 7738TIP3    H223179   5.958   2.562   1.936
 7739TIP3   OH223180   6.669   6.533   2.785
 7739TIP3    H123181   6.593   6.517   2.841
 7739TIP3    H223182   6.741   6.486   2.829
 7740TIP3   OH223183   6.033   3.948   2.880
 7740TIP3    H123184   6.126   3.929   2.893
 7740TIP3    H223185   6.030   3.992   2.795
 7741TIP3   OH223186   0.301   1.219   4.909
 7741TIP3    H123187   0.225   1.184   4.863
 7741TIP3    H223188   0.376   1.180   4.864
 7742TIP3   OH223189   2.223   2.501   4.399
 7742TIP3    H123190   2.157   2.535   4.338
 7742TIP3    H223191   2.180   2.426   4.440
 7743TIP3   OH223192   4.219   3.051   2.447
 7743TIP3    H123193   4.179   2.992   2.383
 7743TIP3    H223194   4.195   3.138   2.419
 7744TIP3   OH223195   0.267   3.491   1.020
 7744TIP3    H123196   0.225   3.559   0.967
 7744TIP3    H223197   0.325   3.539   1.079
 7745TIP3   OH223198   2.877   4.928   4.430
 7745TIP3    H123199   2.940   4.998   4.414
 7745TIP3    H223200   2.911   4.853   4.381
 7746TIP3   OH223201   2.021   4.845   5.183
 7746TIP3    H123202   2.010   4.843   5.088
 7746TIP3    H223203   2.111   4.876   5.196
 7747TIP3   OH223204   6.080   2.951   4.222
 7747TIP3    H123205   5.990   2.940   4.192
 7747TIP3    H223206   6.072   2.991   4.309
 7748TIP3   OH223207   6.977   2.541   2.065
 7748TIP3    H123208   6.963   2.635   2.081
 7748TIP3    H223209   7.067   2.525   2.094
 7749TIP3   OH223210   5.563   1.065   1.575
 7749TIP3    H123211   5.478   1.022   1.579
 7749TIP3    H223212   5.543   1.158   1.583
 7750TIP3   OH223213   4.429   4.429   0.551
 7750TIP3    H123214   4.362   4.360   0.551
 7750TIP3    H223215   4.380   4.509   0.572
 7751TIP3   OH223216   1.917   3.322   0.370
 7751TIP3    H123217   1.885   3.268   0.298
 7751TIP3    H223218   2.012   3.313   0.367
 7752TIP3   OH223219   2.056   5.182   4.517
 7752TIP3    H123220   2.032   5.275   4.512
 7752TIP3    H223221   2.139   5.182   4.565
 7753TIP3   OH223222   3.368   5.746   3.461
 7753TIP3    H123223   3.459   5.723   3.441
 7753TIP3    H223224   3.374   5.831   3.505
 7754TIP3   OH223225   4.822   3.142   2.778
 7754TIP3    H123226   4.865   3.225   2.797
 7754TIP3    H223227   4.753   3.164   2.715
 7755TIP3   OH223228   4.790   0.910   0.784
 7755TIP3    H123229   4.880   0.880   0.772
 7755TIP3    H223230   4.796   1.005   0.787
 7756TIP3   OH223231   2.186   5.154   1.707
 7756TIP3    H123232   2.094   5.129   1.711
 7756TIP3    H223233   2.214   5.129   1.619
 7757TIP3   OH223234   2.149   0.837   4.898
 7757TIP3    H123235   2.186   0.756   4.863
 7757TIP3    H223236   2.202   0.907   4.858
 7758TIP3   OH223237   4.103   5.240   3.472
 7758TIP3    H123238   4.158   5.175   3.515
 7758TIP3    H223239   4.014   5.218   3.499
 7759TIP3   OH223240   6.475   1.759   2.739
 7759TIP3    H123241   6.547   1.722   2.688
 7759TIP3    H223242   6.514   1.833   2.786
 7760TIP3   OH223243   4.707   0.646   2.235
 7760TIP3    H123244   4.622   0.624   2.273
 7760TIP3    H223245   4.687   0.682   2.149
 7761TIP3   OH223246   1.495   4.228   5.426
 7761TIP3    H123247   1.563   4.171   5.463
 7761TIP3    H223248   1.462   4.277   5.501
 7762TIP3   OH223249   5.343   0.184   3.338
 7762TIP3    H123250   5.317   0.231   3.417
 7762TIP3    H223251   5.337   0.248   3.268
 7763TIP3   OH223252   3.920   6.002   2.808
 7763TIP3    H123253   3.866   6.073   2.846
 7763TIP3    H223254   4.000   6.003   2.860
 7764TIP3   OH223255   4.792   1.569   2.601
 7764TIP3    H123256   4.812   1.546   2.691
 7764TIP3    H223257   4.849   1.645   2.583
 7765TIP3   OH223258   5.323   6.653   5.730
 7765TIP3    H123259   5.294   6.711   5.659
 7765TIP3    H223260   5.375   6.709   5.788
 7766TIP3   OH223261   4.440   1.911   5.127
 7766TIP3    H123262   4.400   1.882   5.209
 7766TIP3    H223263   4.457   2.004   5.140
 7767TIP3   OH223264   1.170   5.788  -0.028
 7767TIP3    H123265   1.125   5.797   0.055
 7767TIP3    H223266   1.154   5.697  -0.054
 7768TIP3   OH223267   3.530   5.642   1.810
 7768TIP3    H123268   3.581   5.621   1.889
 7768TIP3    H223269   3.439   5.627   1.836
 7769TIP3   OH223270   5.842   6.221   2.334
 7769TIP3    H123271   5.925   6.259   2.363
 7769TIP3    H223272   5.819   6.269   2.255
 7770TIP3   OH223273   6.993   4.383   4.660
 7770TIP3    H123274   6.922   4.331   4.621
 7770TIP3    H223275   6.976   4.380   4.754
 7771TIP3   OH223276   3.158   6.593   2.823
 7771TIP3    H123277   3.202   6.511   2.800
 7771TIP3    H223278   3.069   6.583   2.789
 7772TIP3   OH223279   2.822   6.208   5.309
 7772TIP3    H123280   2.822   6.279   5.245
 7772TIP3    H223281   2.731   6.203   5.339
 7773TIP3   OH223282   6.660   1.056   2.876
 7773TIP3    H123283   6.588   1.094   2.825
 7773TIP3    H223284   6.653   0.962   2.860
 7774TIP3   OH223285   6.729   6.343   4.725
 7774TIP3    H123286   6.766   6.419   4.770
 7774TIP3    H223287   6.668   6.305   4.788
 7775TIP3   OH223288   1.258   6.328   5.274
 7775TIP3    H123289   1.352   6.315   5.264
 7775TIP3    H223290   1.233   6.274   5.349
 7776TIP3   OH223291   0.792   5.454   4.054
 7776TIP3    H123292   0.748   5.402   4.121
 7776TIP3    H223293   0.885   5.432   4.063
 7777TIP3   OH223294   0.750   5.853   3.581
 7777TIP3    H123295   0.829   5.805   3.555
 7777TIP3    H223296   0.685   5.785   3.598
 7778TIP3   OH223297   0.854   3.637   0.399
 7778TIP3    H123298   0.783   3.583   0.364
 7778TIP3    H223299   0.915   3.574   0.438
 7779TIP3   OH223300   5.844   1.170   4.360
 7779TIP3    H123301   5.899   1.228   4.413
 7779TIP3    H223302   5.872   1.081   4.384
 7780TIP3   OH223303   6.901   1.894   1.639
 7780TIP3    H123304   6.869   1.964   1.695
 7780TIP3    H223305   6.895   1.930   1.550
 7781TIP3   OH223306   1.673   0.416   3.236
 7781TIP3    H123307   1.628   0.338   3.202
 7781TIP3    H223308   1.671   0.405   3.331
 7782TIP3   OH223309   6.814   6.375   3.423
 7782TIP3    H123310   6.755   6.313   3.466
 7782TIP3    H223311   6.768   6.459   3.427
 7783TIP3   OH223312   1.305   5.391   0.746
 7783TIP3    H123313   1.265   5.444   0.677
 7783TIP3    H223314   1.398   5.415   0.744
 7784TIP3   OH223315   6.331   5.237   4.147
 7784TIP3    H123316   6.425   5.239   4.131
 7784TIP3    H223317   6.298   5.315   4.103
 7785TIP3   OH223318   3.781   6.476   4.701
 7785TIP3    H123319   3.853   6.449   4.758
 7785TIP3    H223320   3.702   6.453   4.749
 7786TIP3   OH223321   0.455   0.856   5.305
 7786TIP3    H123322   0.390   0.859   5.234
 7786TIP3    H223323   0.404   0.859   5.385
 7787TIP3   OH223324   1.701   4.089   2.173
 7787TIP3    H123325   1.677   4.138   2.094
 7787TIP3    H223326   1.741   4.154   2.230
 7788TIP3   OH223327   6.684   6.762   3.815
 7788TIP3    H123328   6.682   6.838   3.873
 7788TIP3    H223329   6.637   6.693   3.862
 7789TIP3   OH223330   6.330   6.671   2.409
 7789TIP3    H123331   6.414   6.644   2.445
 7789TIP3    H223332   6.267   6.608   2.445
 7790TIP3   OH223333   4.431   0.465   4.677
 7790TIP3    H123334   4.356   0.406   4.671
 7790TIP3    H223335   4.452   0.467   4.770
 7791TIP3   OH223336   5.927   6.678   5.274
 7791TIP3    H123337   6.017   6.711   5.268
 7791TIP3    H223338   5.937   6.583   5.278
 7792TIP3   OH223339   3.001   0.428   4.786
 7792TIP3    H123340   3.052   0.499   4.747
 7792TIP3    H223341   2.926   0.418   4.728
 7793TIP3   OH223342   2.644   6.662   1.859
 7793TIP3    H123343   2.683   6.708   1.784
 7793TIP3    H223344   2.657   6.722   1.933
 7794TIP3   OH223345   7.176   3.397   2.798
 7794TIP3    H123346   7.092   3.352   2.810
 7794TIP3    H223347   7.242   3.334   2.827
 7795TIP3   OH223348   2.006   1.139   4.998
 7795TIP3    H123349   1.979   1.185   4.919
 7795TIP3    H223350   2.046   1.206   5.053
 7796TIP3   OH223351   1.000   0.119   3.116
 7796TIP3    H123352   1.070   0.070   3.073
 7796TIP3    H223353   0.921   0.067   3.101
 7797TIP3   OH223354   4.488   0.080   4.716
 7797TIP3    H123355   4.561   0.139   4.734
 7797TIP3    H223356   4.418   0.110   4.773
 7798TIP3   OH223357   0.072   4.495   0.769
 7798TIP3    H123358   0.141   4.461   0.713
 7798TIP3    H223359   0.058   4.585   0.738
 7799TIP3   OH223360   2.329   5.264   4.645
 7799TIP3    H123361   2.354   5.304   4.728
 7799TIP3    H223362   2.410   5.261   4.595
 7800TIP3   OH223363   1.359   0.646   0.598
 7800TIP3    H123364   1.264   0.637   0.598
 7800TIP3    H223365   1.380   0.687   0.682
 7801TIP3   OH223366   5.146   0.954   4.119
 7801TIP3    H123367   5.075   0.978   4.178
 7801TIP3    H223368   5.103   0.931   4.037
 7802TIP3   OH223369   2.779   4.994   2.956
 7802TIP3    H123370   2.728   4.944   2.893
 7802TIP3    H223371   2.833   4.929   3.001
 7803TIP3   OH223372   3.633   6.279   0.997
 7803TIP3    H123373   3.681   6.354   0.962
 7803TIP3    H223374   3.663   6.271   1.087
 7804TIP3   OH223375   3.853   1.531   4.977
 7804TIP3    H123376   3.832   1.469   4.908
 7804TIP3    H223377   3.905   1.599   4.933
 7805TIP3   OH223378   4.233   5.410   4.029
 7805TIP3    H123379   4.198   5.336   4.078
 7805TIP3    H223380   4.240   5.481   4.093
 7806TIP3   OH223381   5.703   0.991   3.310
 7806TIP3    H123382   5.772   0.941   3.355
 7806TIP3    H223383   5.653   1.031   3.381
 7807TIP3   OH223384   4.498   6.428   2.851
 7807TIP3    H123385   4.568   6.375   2.813
 7807TIP3    H223386   4.484   6.499   2.788
 7808TIP3   OH223387   4.835   2.413   5.042
 7808TIP3    H123388   4.751   2.451   5.015
 7808TIP3    H223389   4.824   2.319   5.029
 7809TIP3   OH223390   3.089   3.415   3.228
 7809TIP3    H123391   3.041   3.417   3.145
 7809TIP3    H223392   3.053   3.489   3.278
 7810TIP3   OH223393   0.359   3.967   4.838
 7810TIP3    H123394   0.276   3.979   4.792
 7810TIP3    H223395   0.425   3.971   4.769
 7811TIP3   OH223396   6.523   0.893   2.336
 7811TIP3    H123397   6.521   0.986   2.360
 7811TIP3    H223398   6.527   0.847   2.420
 7812TIP3   OH223399   5.366   1.359   5.597
 7812TIP3    H123400   5.456   1.328   5.606
 7812TIP3    H223401   5.313   1.292   5.640
 7813TIP3   OH223402   3.418   2.745   4.649
 7813TIP3    H123403   3.360   2.704   4.714
 7813TIP3    H223404   3.434   2.676   4.585
 7814TIP3   OH223405   1.809   5.545   2.942
 7814TIP3    H123406   1.870   5.472   2.952
 7814TIP3    H223407   1.806   5.560   2.847
 7815TIP3   OH223408   5.334   3.765   4.168
 7815TIP3    H123409   5.396   3.700   4.136
 7815TIP3    H223410   5.281   3.718   4.233
 7816TIP3   OH223411   4.690  -0.005  -0.004
 7816TIP3    H123412   4.649   0.030   0.075
 7816TIP3    H223413   4.772   0.043  -0.012
 7817TIP3   OH223414   3.093   4.652   4.649
 7817TIP3    H123415   3.127   4.666   4.561
 7817TIP3    H223416   3.159   4.597   4.691
 7818TIP3   OH223417   0.957   5.544   1.900
 7818TIP3    H123418   0.954   5.625   1.950
 7818TIP3    H223419   1.049   5.532   1.878
 7819TIP3   OH223420   0.691   4.917   3.324
 7819TIP3    H123421   0.611   4.935   3.274
 7819TIP3    H223422   0.762   4.950   3.269
 7820TIP3   OH223423   4.417   5.572   2.753
 7820TIP3    H123424   4.425   5.509   2.825
 7820TIP3    H223425   4.494   5.556   2.699
 7821TIP3   OH223426   6.212   0.647   3.449
 7821TIP3    H123427   6.201   0.565   3.497
 7821TIP3    H223428   6.130   0.658   3.401
 7822TIP3   OH223429   0.443   2.781   4.091
 7822TIP3    H123430   0.369   2.834   4.120
 7822TIP3    H223431   0.443   2.706   4.150
 7823TIP3   OH223432   6.269   3.268   1.770
 7823TIP3    H123433   6.213   3.337   1.804
 7823TIP3    H223434   6.314   3.233   1.847
 7824TIP3   OH223435   3.918   2.603   0.208
 7824TIP3    H123436   3.831   2.601   0.169
 7824TIP3    H223437   3.912   2.668   0.278
 7825TIP3   OH223438   0.542   1.706   4.200
 7825TIP3    H123439   0.589   1.785   4.174
 7825TIP3    H223440   0.451   1.722   4.176
 7826TIP3   OH223441   0.387   6.762   5.108
 7826TIP3    H123442   0.467   6.710   5.119
 7826TIP3    H223443   0.347   6.728   5.028
 7827TIP3   OH223444   3.148   5.609   5.271
 7827TIP3    H123445   3.103   5.547   5.328
 7827TIP3    H223446   3.155   5.564   5.187
 7828TIP3   OH223447   7.157   4.647   3.883
 7828TIP3    H123448   7.099   4.582   3.844
 7828TIP3    H223449   7.232   4.650   3.824
 7829TIP3   OH223450   6.773   1.846   0.664
 7829TIP3    H123451   6.834   1.880   0.730
 7829TIP3    H223452   6.713   1.791   0.713
 7830TIP3   OH223453   1.482   3.893   0.607
 7830TIP3    H123454   1.528   3.829   0.662
 7830TIP3    H223455   1.524   3.977   0.628
 7831TIP3   OH223456   5.196   5.395   1.256
 7831TIP3    H123457   5.137   5.413   1.182
 7831TIP3    H223458   5.205   5.300   1.256
 7832TIP3   OH223459   5.689   4.841   5.764
 7832TIP3    H123460   5.763   4.897   5.787
 7832TIP3    H223461   5.647   4.884   5.690
 7833TIP3   OH223462   0.552   1.231   2.944
 7833TIP3    H123463   0.647   1.230   2.937
 7833TIP3    H223464   0.523   1.164   2.882
 7834TIP3   OH223465   1.694   0.615   4.059
 7834TIP3    H123466   1.609   0.572   4.071
 7834TIP3    H223467   1.685   0.698   4.105
 7835TIP3   OH223468   3.937   2.065   5.808
 7835TIP3    H123469   4.029   2.081   5.788
 7835TIP3    H223470   3.904   2.149   5.839
 7836TIP3   OH223471   1.342   0.092   3.235
 7836TIP3    H123472   1.425   0.090   3.282
 7836TIP3    H223473   1.276   0.101   3.304
 7837TIP3   OH223474   4.696   2.274   1.541
 7837TIP3    H123475   4.740   2.196   1.574
 7837TIP3    H223476   4.608   2.246   1.518
 7838TIP3   OH223477   0.721   0.903   2.945
 7838TIP3    H123478   0.644   0.947   2.911
 7838TIP3    H223479   0.727   0.932   3.036
 7839TIP3   OH223480   5.004   3.688   4.014
 7839TIP3    H123481   5.088   3.730   4.030
 7839TIP3    H223482   5.025   3.595   4.007
 7840TIP3   OH223483   6.399   2.799   0.545
 7840TIP3    H123484   6.460   2.792   0.618
 7840TIP3    H223485   6.316   2.826   0.585
 7841TIP3   OH223486   3.666   1.706   5.185
 7841TIP3    H123487   3.756   1.717   5.152
 7841TIP3    H223488   3.672   1.726   5.279
 7842TIP3   OH223489   0.528   3.852   4.421
 7842TIP3    H123490   0.592   3.920   4.402
 7842TIP3    H223491   0.557   3.776   4.370
 7843TIP3   OH223492   7.017   5.478   3.995
 7843TIP3    H123493   7.108   5.496   3.974
 7843TIP3    H223494   7.014   5.383   4.011
 7844TIP3   OH223495   2.460   1.916   3.717
 7844TIP3    H123496   2.489   1.931   3.627
 7844TIP3    H223497   2.485   1.825   3.735
 7845TIP3   OH223498   3.437   4.455   2.277
 7845TIP3    H123499   3.486   4.528   2.315
 7845TIP3    H223500   3.449   4.383   2.339
 7846TIP3   OH223501   3.438   4.087   2.795
 7846TIP3    H123502   3.500   4.157   2.820
 7846TIP3    H223503   3.479   4.045   2.719
 7847TIP3   OH223504   3.271   0.842   4.983
 7847TIP3    H123505   3.337   0.786   4.942
 7847TIP3    H223506   3.256   0.804   5.069
 7848TIP3   OH223507   5.059   4.926   1.787
 7848TIP3    H123508   5.095   4.984   1.854
 7848TIP3    H223509   5.007   4.983   1.731
 7849TIP3   OH223510   4.255   4.723   1.355
 7849TIP3    H123511   4.165   4.697   1.374
 7849TIP3    H223512   4.247   4.810   1.317
 7850TIP3   OH223513   0.261   6.466   4.897
 7850TIP3    H123514   0.203   6.402   4.940
 7850TIP3    H223515   0.250   6.449   4.803
 7851TIP3   OH223516   1.409   3.172   5.174
 7851TIP3    H123517   1.397   3.190   5.080
 7851TIP3    H223518   1.336   3.114   5.196
 7852TIP3   OH223519   2.855   0.755   4.484
 7852TIP3    H123520   2.908   0.676   4.496
 7852TIP3    H223521   2.912   0.814   4.435
 7853TIP3   OH223522   3.390   2.706   5.611
 7853TIP3    H123523   3.332   2.742   5.679
 7853TIP3    H223524   3.439   2.782   5.579
 7854TIP3   OH223525   7.144   2.045   4.099
 7854TIP3    H123526   7.239   2.054   4.106
 7854TIP3    H223527   7.113   2.134   4.079
 7855TIP3   OH223528   5.135   6.256   1.274
 7855TIP3    H123529   5.136   6.299   1.359
 7855TIP3    H223530   5.182   6.174   1.289
 7856TIP3   OH223531   5.322   0.391   5.102
 7856TIP3    H123532   5.415   0.385   5.120
 7856TIP3    H223533   5.301   0.313   5.052
 7857TIP3   OH223534   6.795   3.021   0.381
 7857TIP3    H123535   6.806   2.929   0.357
 7857TIP3    H223536   6.880   3.060   0.364
 7858TIP3   OH223537   1.835   6.563   1.212
 7858TIP3    H123538   1.869   6.606   1.134
 7858TIP3    H223539   1.872   6.614   1.285
 7859TIP3   OH223540   4.155   5.350   5.234
 7859TIP3    H123541   4.131   5.258   5.240
 7859TIP3    H223542   4.129   5.376   5.145
 7860TIP3   OH223543   6.107   1.045   5.427
 7860TIP3    H123544   6.078   1.135   5.412
 7860TIP3    H223545   6.107   1.036   5.523
 7861TIP3   OH223546   7.215   1.324   3.293
 7861TIP3    H123547   7.144   1.387   3.305
 7861TIP3    H223548   7.225   1.315   3.198
 7862TIP3   OH223549   6.268   1.861   1.129
 7862TIP3    H123550   6.264   1.767   1.144
 7862TIP3    H223551   6.223   1.875   1.046
 7863TIP3   OH223552   1.342   6.104   0.785
 7863TIP3    H123553   1.263   6.127   0.737
 7863TIP3    H223554   1.414   6.124   0.725
 7864TIP3   OH223555   4.437   2.764   5.509
 7864TIP3    H123556   4.472   2.687   5.463
 7864TIP3    H223557   4.354   2.782   5.466
 7865TIP3   OH223558   5.749   4.221   5.062
 7865TIP3    H123559   5.658   4.211   5.033
 7865TIP3    H223560   5.756   4.313   5.087
 7866TIP3   OH223561   3.074   4.769   0.450
 7866TIP3    H123562   3.078   4.862   0.472
 7866TIP3    H223563   2.981   4.750   0.443
 7867TIP3   OH223564   3.494   0.753   3.616
 7867TIP3    H123565   3.465   0.763   3.525
 7867TIP3    H223566   3.419   0.779   3.669
 7868TIP3   OH223567   3.878   0.460   2.908
 7868TIP3    H123568   3.819   0.414   2.968
 7868TIP3    H223569   3.944   0.394   2.885
 7869TIP3   OH223570   7.165   6.461   4.488
 7869TIP3    H123571   7.170   6.391   4.553
 7869TIP3    H223572   7.078   6.499   4.500
 7870TIP3   OH223573   0.856   6.102   0.941
 7870TIP3    H123574   0.886   6.167   0.878
 7870TIP3    H223575   0.858   6.147   1.025
 7871TIP3   OH223576   0.538   0.810   3.228
 7871TIP3    H123577   0.603   0.881   3.223
 7871TIP3    H223578   0.497   0.809   3.141
 7872TIP3   OH223579   6.920   5.934   0.958
 7872TIP3    H123580   6.895   5.931   0.866
 7872TIP3    H223581   6.998   5.878   0.963
 7873TIP3   OH223582   5.956   2.262   0.627
 7873TIP3    H123583   5.930   2.328   0.561
 7873TIP3    H223584   6.047   2.283   0.647
 7874TIP3   OH223585   5.649   6.438   2.988
 7874TIP3    H123586   5.624   6.529   3.005
 7874TIP3    H223587   5.690   6.409   3.070
 7875TIP3   OH223588   3.026   4.413   3.242
 7875TIP3    H123589   2.957   4.412   3.309
 7875TIP3    H223590   3.104   4.382   3.288
 7876TIP3   OH223591   3.605   6.048   3.098
 7876TIP3    H123592   3.624   6.134   3.061
 7876TIP3    H223593   3.585   6.065   3.190
 7877TIP3   OH223594   1.770   0.679   0.584
 7877TIP3    H123595   1.836   0.736   0.545
 7877TIP3    H223596   1.797   0.590   0.559
 7878TIP3   OH223597   1.038   4.431   0.692
 7878TIP3    H123598   1.081   4.346   0.680
 7878TIP3    H223599   1.059   4.456   0.782
 7879TIP3   OH223600   5.001   0.724   3.454
 7879TIP3    H123601   4.923   0.778   3.437
 7879TIP3    H223602   4.998   0.707   3.548
 7880TIP3   OH223603   2.472   2.804   4.427
 7880TIP3    H123604   2.410   2.774   4.361
 7880TIP3    H223605   2.460   2.745   4.501
 7881TIP3   OH223606   6.272   5.860   2.835
 7881TIP3    H123607   6.219   5.871   2.755
 7881TIP3    H223608   6.247   5.934   2.890
 7882TIP3   OH223609   0.707   1.375   4.526
 7882TIP3    H123610   0.767   1.390   4.453
 7882TIP3    H223611   0.621   1.399   4.491
 7883TIP3   OH223612   2.130   1.125   3.906
 7883TIP3    H123613   2.170   1.053   3.857
 7883TIP3    H223614   2.087   1.082   3.980
 7884TIP3   OH223615   1.037   2.419   0.677
 7884TIP3    H123616   1.106   2.384   0.622
 7884TIP3    H223617   0.956   2.393   0.633
 7885TIP3   OH223618   3.651   6.795   0.982
 7885TIP3    H123619   3.664   6.890   0.983
 7885TIP3    H223620   3.714   6.762   1.045
 7886TIP3   OH223621   1.403   4.210   2.869
 7886TIP3    H123622   1.459   4.287   2.879
 7886TIP3    H223623   1.461   4.142   2.836
 7887TIP3   OH223624   5.618   1.107   0.918
 7887TIP3    H123625   5.679   1.075   0.984
 7887TIP3    H223626   5.585   1.029   0.875
 7888TIP3   OH223627   2.183   4.455   4.274
 7888TIP3    H123628   2.196   4.493   4.187
 7888TIP3    H223629   2.210   4.364   4.264
 7889TIP3   OH223630   1.836   6.361   0.071
 7889TIP3    H123631   1.840   6.359   0.166
 7889TIP3    H223632   1.748   6.394   0.051
 7890TIP3   OH223633   4.571   2.595   5.351
 7890TIP3    H123634   4.650   2.615   5.402
 7890TIP3    H223635   4.583   2.504   5.323
 7891TIP3   OH223636   4.941   6.116   5.338
 7891TIP3    H123637   4.855   6.095   5.300
 7891TIP3    H223638   4.952   6.209   5.322
 7892TIP3   OH223639   2.237   1.073   0.477
 7892TIP3    H123640   2.331   1.076   0.464
 7892TIP3    H223641   2.204   1.017   0.406
 7893TIP3   OH223642   2.558   4.564   0.419
 7893TIP3    H123643   2.653   4.565   0.403
 7893TIP3    H223644   2.534   4.472   0.407
 7894TIP3   OH223645   4.800   4.039   2.500
 7894TIP3    H123646   4.804   4.123   2.455
 7894TIP3    H223647   4.881   3.994   2.473
 7895TIP3   OH223648   4.575   3.737   1.169
 7895TIP3    H123649   4.480   3.739   1.175
 7895TIP3    H223650   4.600   3.651   1.202
 7896TIP3   OH223651   7.022   5.755   3.662
 7896TIP3    H123652   7.043   5.770   3.569
 7896TIP3    H223653   7.108   5.753   3.705
 7897TIP3   OH223654   7.122   3.996   3.032
 7897TIP3    H123655   7.072   4.038   2.963
 7897TIP3    H223656   7.187   3.943   2.986
 7898TIP3   OH223657   5.926   4.449   1.291
 7898TIP3    H123658   5.903   4.410   1.206
 7898TIP3    H223659   6.021   4.440   1.296
 7899TIP3   OH223660   4.289   1.793   4.755
 7899TIP3    H123661   4.343   1.774   4.832
 7899TIP3    H223662   4.327   1.740   4.685
 7900TIP3   OH223663   2.148   0.099   5.693
 7900TIP3    H123664   2.193   0.151   5.626
 7900TIP3    H223665   2.055   0.121   5.683
 7901TIP3   OH223666   0.207   2.388   2.620
 7901TIP3    H123667   0.173   2.438   2.694
 7901TIP3    H223668   0.182   2.298   2.639
 7902TIP3   OH223669   2.213   6.445   5.412
 7902TIP3    H123670   2.142   6.492   5.369
 7902TIP3    H223671   2.285   6.508   5.417
 7903TIP3   OH223672   1.310   4.946   1.446
 7903TIP3    H123673   1.403   4.971   1.449
 7903TIP3    H223674   1.296   4.920   1.355
 7904TIP3   OH223675   5.461   2.753   4.033
 7904TIP3    H123676   5.398   2.687   4.063
 7904TIP3    H223677   5.504   2.784   4.113
 7905TIP3   OH223678   5.569   5.207   2.123
 7905TIP3    H123679   5.652   5.221   2.169
 7905TIP3    H223680   5.572   5.116   2.096
 7906TIP3   OH223681   7.264   6.145   1.858
 7906TIP3    H123682   7.322   6.068   1.864
 7906TIP3    H223683   7.238   6.148   1.766
 7907TIP3   OH223684   0.079   4.032   3.905
 7907TIP3    H123685   0.124   4.012   3.823
 7907TIP3    H223686   0.142   4.011   3.973
 7908TIP3   OH223687   4.622   3.656   3.939
 7908TIP3    H123688   4.593   3.642   4.029
 7908TIP3    H223689   4.588   3.742   3.916
 7909TIP3   OH223690   2.874   5.888   2.439
 7909TIP3    H123691   2.926   5.845   2.507
 7909TIP3    H223692   2.914   5.859   2.357
 7910TIP3   OH223693   4.410   0.068   2.416
 7910TIP3    H123694   4.420   0.159   2.388
 7910TIP3    H223695   4.377   0.023   2.338
 7911TIP3   OH223696   0.590   6.312   0.864
 7911TIP3    H123697   0.601   6.346   0.953
 7911TIP3    H223698   0.657   6.357   0.813
 7912TIP3   OH223699   3.677   3.584   1.279
 7912TIP3    H123700   3.755   3.611   1.327
 7912TIP3    H223701   3.710   3.528   1.209
 7913TIP3   OH223702   6.698   4.889   0.238
 7913TIP3    H123703   6.654   4.937   0.168
 7913TIP3    H223704   6.783   4.933   0.247
 7914TIP3   OH223705   3.511   4.774   3.290
 7914TIP3    H123706   3.589   4.748   3.241
 7914TIP3    H223707   3.448   4.798   3.223
 7915TIP3   OH223708   5.884   5.363   4.126
 7915TIP3    H123709   5.814   5.343   4.065
 7915TIP3    H223710   5.843   5.420   4.192
 7916TIP3   OH223711   5.743   4.469   0.410
 7916TIP3    H123712   5.838   4.466   0.418
 7916TIP3    H223713   5.711   4.401   0.470
 7917TIP3   OH223714   6.107   4.993   1.588
 7917TIP3    H123715   6.123   4.940   1.510
 7917TIP3    H223716   6.011   5.003   1.590
 7918TIP3   OH223717   7.084   2.467   0.538
 7918TIP3    H123718   7.093   2.464   0.633
 7918TIP3    H223719   7.122   2.384   0.508
 7919TIP3   OH223720   3.683   3.164   1.463
 7919TIP3    H123721   3.657   3.196   1.549
 7919TIP3    H223722   3.624   3.089   1.447
 7920TIP3   OH223723  -0.040   1.767   0.071
 7920TIP3    H123724   0.027   1.830   0.099
 7920TIP3    H223725  -0.008   1.735  -0.014
 7921TIP3   OH223726   6.180   5.743   1.484
 7921TIP3    H123727   6.099   5.782   1.518
 7921TIP3    H223728   6.226   5.816   1.442
 7922TIP3   OH223729   4.184   2.040   1.120
 7922TIP3    H123730   4.095   2.060   1.148
 7922TIP3    H223731   4.230   2.016   1.200
 7923TIP3   OH223732   4.350   6.568   2.663
 7923TIP3    H123733   4.260   6.597   2.646
 7923TIP3    H223734   4.364   6.496   2.602
 7924TIP3   OH223735   2.108   3.463   1.631
 7924TIP3    H123736   2.115   3.443   1.537
 7924TIP3    H223737   2.198   3.474   1.660
 7925TIP3   OH223738   2.825  -0.001   2.611
 7925TIP3    H123739   2.864   0.021   2.695
 7925TIP3    H223740   2.748   0.056   2.605
 7926TIP3   OH223741   6.730   6.770   5.183
 7926TIP3    H123742   6.819   6.735   5.187
 7926TIP3    H223743   6.738   6.859   5.218
 7927TIP3   OH223744   6.817   2.554   4.967
 7927TIP3    H123745   6.864   2.627   5.007
 7927TIP3    H223746   6.878   2.518   4.902
 7928TIP3   OH223747   0.406   0.004   3.282
 7928TIP3    H123748   0.459   0.074   3.243
 7928TIP3    H223749   0.470  -0.059   3.314
 7929TIP3   OH223750   1.137   3.897   5.215
 7929TIP3    H123751   1.148   3.926   5.124
 7929TIP3    H223752   1.062   3.839   5.212
 7930TIP3   OH223753   1.733   0.775   0.858
 7930TIP3    H123754   1.801   0.711   0.836
 7930TIP3    H223755   1.735   0.837   0.784
 7931TIP3   OH223756   1.812   2.660   2.073
 7931TIP3    H123757   1.858   2.617   2.145
 7931TIP3    H223758   1.762   2.590   2.031
 7932TIP3   OH223759   4.360   2.387   1.585
 7932TIP3    H123760   4.398   2.475   1.585
 7932TIP3    H223761   4.398   2.345   1.662
 7933TIP3   OH223762   0.073   3.895   1.818
 7933TIP3    H123763   0.048   3.854   1.901
 7933TIP3    H223764   0.157   3.855   1.795
 7934TIP3   OH223765   6.044   0.452   4.860
 7934TIP3    H123766   6.091   0.395   4.799
 7934TIP3    H223767   6.018   0.527   4.806
 7935TIP3   OH223768   0.062   2.457   4.876
 7935TIP3    H123769   0.154   2.451   4.903
 7935TIP3    H223770   0.064   2.442   4.781
 7936TIP3   OH223771   1.621   0.110   5.414
 7936TIP3    H123772   1.696   0.128   5.471
 7936TIP3    H223773   1.544   0.124   5.470
 7937TIP3   OH223774   0.351   1.201   4.017
 7937TIP3    H123775   0.305   1.285   4.016
 7937TIP3    H223776   0.287   1.139   4.053
 7938TIP3   OH223777   5.554   5.828   3.148
 7938TIP3    H123778   5.520   5.745   3.115
 7938TIP3    H223779   5.588   5.807   3.235
 7939TIP3   OH223780   3.554   4.829   2.004
 7939TIP3    H123781   3.483   4.767   1.990
 7939TIP3    H223782   3.626   4.776   2.038
 7940TIP3   OH223783   4.143   4.345   1.452
 7940TIP3    H123784   4.068   4.376   1.502
 7940TIP3    H223785   4.176   4.270   1.502
 7941TIP3   OH223786   4.581   2.912   1.248
 7941TIP3    H123787   4.636   2.986   1.275
 7941TIP3    H223788   4.498   2.925   1.295
 7942TIP3   OH223789   4.700   3.813   0.294
 7942TIP3    H123790   4.762   3.849   0.231
 7942TIP3    H223791   4.653   3.745   0.245
 7943TIP3   OH223792   0.903   4.585   2.235
 7943TIP3    H123793   0.834   4.536   2.189
 7943TIP3    H223794   0.855   4.641   2.296
 7944TIP3   OH223795   2.228   6.757   0.466
 7944TIP3    H123796   2.261   6.843   0.439
 7944TIP3    H223797   2.306   6.708   0.490
 7945TIP3   OH223798   0.886   3.003   0.977
 7945TIP3    H123799   0.966   2.957   0.952
 7945TIP3    H223800   0.905   3.095   0.959
 7946TIP3   OH223801   4.885   4.387   0.597
 7946TIP3    H123802   4.814   4.386   0.662
 7946TIP3    H223803   4.957   4.341   0.640
 7947TIP3   OH223804   3.743   6.245   2.074
 7947TIP3    H123805   3.652   6.240   2.046
 7947TIP3    H223806   3.792   6.199   2.005
 7948TIP3   OH223807   4.361   1.169   0.544
 7948TIP3    H123808   4.315   1.189   0.626
 7948TIP3    H223809   4.451   1.152   0.571
 7949TIP3   OH223810   2.282   1.019   3.096
 7949TIP3    H123811   2.330   0.939   3.075
 7949TIP3    H223812   2.270   1.063   3.012
 7950TIP3   OH223813   5.584   2.808   2.513
 7950TIP3    H123814   5.596   2.818   2.607
 7950TIP3    H223815   5.508   2.749   2.505
 7951TIP3   OH223816   1.242   4.248   1.318
 7951TIP3    H123817   1.226   4.160   1.354
 7951TIP3    H223818   1.259   4.302   1.395
 7952TIP3   OH223819   6.155   5.127   2.186
 7952TIP3    H123820   6.161   5.058   2.251
 7952TIP3    H223821   6.074   5.109   2.138
 7953TIP3   OH223822   5.231   5.873   2.524
 7953TIP3    H123823   5.309   5.820   2.539
 7953TIP3    H223824   5.174   5.816   2.472
 7954TIP3   OH223825   3.991   2.063   3.366
 7954TIP3    H123826   4.018   2.094   3.280
 7954TIP3    H223827   4.023   2.130   3.426
 7955TIP3   OH223828   4.862  -0.065   1.012
 7955TIP3    H123829   4.897   0.001   0.952
 7955TIP3    H223830   4.856  -0.145   0.958
 7956TIP3   OH223831   4.802   3.017   0.724
 7956TIP3    H123832   4.751   3.046   0.648
 7956TIP3    H223833   4.736   3.003   0.792
 7957TIP3   OH223834   3.193   6.597   0.408
 7957TIP3    H123835   3.252   6.522   0.407
 7957TIP3    H223836   3.115   6.567   0.361
 7958TIP3   OH223837   5.740   4.171   0.955
 7958TIP3    H123838   5.800   4.157   0.882
 7958TIP3    H223839   5.772   4.251   0.996
 7959TIP3   OH223840   1.616   5.887   3.815
 7959TIP3    H123841   1.682   5.955   3.832
 7959TIP3    H223842   1.571   5.916   3.736
 7960TIP3   OH223843   5.918   3.461   1.839
 7960TIP3    H123844   6.008   3.465   1.871
 7960TIP3    H223845   5.916   3.522   1.765
 7961TIP3   OH223846   0.814   6.702   3.371
 7961TIP3    H123847   0.765   6.772   3.414
 7961TIP3    H223848   0.893   6.744   3.339
 7962TIP3   OH223849   3.941   3.622   4.981
 7962TIP3    H123850   3.968   3.709   4.953
 7962TIP3    H223851   3.958   3.566   4.904
 7963TIP3   OH223852   0.764   1.717   5.152
 7963TIP3    H123853   0.757   1.756   5.065
 7963TIP3    H223854   0.745   1.624   5.138
 7964TIP3   OH223855   1.695   2.515   5.466
 7964TIP3    H123856   1.788   2.535   5.481
 7964TIP3    H223857   1.682   2.429   5.506
 7965TIP3   OH223858   5.138   6.578   0.275
 7965TIP3    H123859   5.164   6.666   0.302
 7965TIP3    H223860   5.179   6.567   0.189
 7966TIP3   OH223861   0.221   4.882   3.877
 7966TIP3    H123862   0.265   4.963   3.852
 7966TIP3    H223863   0.292   4.821   3.898
 7967TIP3   OH223864   1.751   4.819   5.208
 7967TIP3    H123865   1.845   4.806   5.213
 7967TIP3    H223866   1.713   4.739   5.244
 7968TIP3   OH223867   0.858   0.905   4.671
 7968TIP3    H123868   0.855   0.969   4.742
 7968TIP3    H223869   0.838   0.956   4.592
 7969TIP3   OH223870   0.613   2.599   5.361
 7969TIP3    H123871   0.593   2.639   5.276
 7969TIP3    H223872   0.571   2.513   5.357
 7970TIP3   OH223873   0.600   6.662   5.603
 7970TIP3    H123874   0.656   6.628   5.533
 7970TIP3    H223875   0.660   6.709   5.661
 7971TIP3   OH223876   2.613   4.440   2.930
 7971TIP3    H123877   2.602   4.426   2.836
 7971TIP3    H223878   2.702   4.410   2.949
 7972TIP3   OH223879   0.924   4.181   0.299
 7972TIP3    H123880   0.979   4.172   0.376
 7972TIP3    H223881   0.953   4.112   0.240
 7973TIP3   OH223882   5.147   1.457   3.139
 7973TIP3    H123883   5.073   1.509   3.109
 7973TIP3    H223884   5.223   1.513   3.127
 7974TIP3   OH223885   6.433   5.257   2.933
 7974TIP3    H123886   6.486   5.184   2.903
 7974TIP3    H223887   6.359   5.217   2.979
 7975TIP3   OH223888   5.284   5.458   4.602
 7975TIP3    H123889   5.275   5.544   4.643
 7975TIP3    H223890   5.240   5.466   4.517
 7976TIP3   OH223891   7.104   2.689   5.866
 7976TIP3    H123892   7.061   2.629   5.928
 7976TIP3    H223893   7.033   2.744   5.834
 7977TIP3   OH223894   5.234   4.722   1.785
 7977TIP3    H123895   5.313   4.772   1.806
 7977TIP3    H223896   5.168   4.789   1.767
 7978TIP3   OH223897   1.220   1.294   2.760
 7978TIP3    H123898   1.302   1.245   2.746
 7978TIP3    H223899   1.164   1.266   2.688
 7979TIP3   OH223900   1.192   0.047   4.481
 7979TIP3    H123901   1.259  -0.008   4.522
 7979TIP3    H223902   1.233   0.132   4.472
 7980TIP3   OH223903   2.027   1.264   0.191
 7980TIP3    H123904   2.119   1.273   0.215
 7980TIP3    H223905   2.016   1.323   0.116
 7981TIP3   OH223906   6.868   5.373   5.013
 7981TIP3    H123907   6.936   5.427   5.053
 7981TIP3    H223908   6.838   5.316   5.083
 7982TIP3   OH223909   3.438   6.699   0.807
 7982TIP3    H123910   3.490   6.777   0.826
 7982TIP3    H223911   3.469   6.670   0.720
 7983TIP3   OH223912   5.272   4.915   3.433
 7983TIP3    H123913   5.281   4.919   3.338
 7983TIP3    H223914   5.257   4.822   3.452
 7984TIP3   OH223915   1.767   0.982   0.640
 7984TIP3    H123916   1.817   0.952   0.565
 7984TIP3    H223917   1.741   1.071   0.617
 7985TIP3   OH223918   6.515   3.927   4.385
 7985TIP3    H123919   6.543   3.958   4.472
 7985TIP3    H223920   6.595   3.892   4.346
 7986TIP3   OH223921   4.973   5.779   2.711
 7986TIP3    H123922   4.932   5.747   2.792
 7986TIP3    H223923   4.989   5.872   2.727
 7987TIP3   OH223924   0.312   5.652   0.344
 7987TIP3    H123925   0.299   5.740   0.310
 7987TIP3    H223926   0.224   5.615   0.348
 7988TIP3   OH223927   2.882   5.893   2.802
 7988TIP3    H123928   2.793   5.874   2.772
 7988TIP3    H223929   2.871   5.961   2.869
 7989TIP3   OH223930   4.370   5.013   5.702
 7989TIP3    H123931   4.410   5.063   5.773
 7989TIP3    H223932   4.423   5.034   5.625
 7990TIP3   OH223933   0.457   0.353   3.812
 7990TIP3    H123934   0.375   0.402   3.813
 7990TIP3    H223935   0.492   0.363   3.901
 7991TIP3   OH223936   4.337   4.394   3.448
 7991TIP3    H123937   4.336   4.309   3.404
 7991TIP3    H223938   4.323   4.458   3.378
 7992TIP3   OH223939   5.703   6.245   1.146
 7992TIP3    H123940   5.796   6.232   1.128
 7992TIP3    H223941   5.686   6.335   1.121
 7993TIP3   OH223942   1.051   1.021   5.764
 7993TIP3    H123943   1.116   1.055   5.826
 7993TIP3    H223944   1.016   1.099   5.721
 7994TIP3   OH223945   4.012   6.494   3.952
 7994TIP3    H123946   4.013   6.550   3.875
 7994TIP3    H223947   3.948   6.426   3.931
 7995TIP3   OH223948   5.548   4.192   3.075
 7995TIP3    H123949   5.455   4.211   3.062
 7995TIP3    H223950   5.549   4.110   3.125
 7996TIP3   OH223951   3.739   0.482   4.118
 7996TIP3    H123952   3.817   0.428   4.127
 7996TIP3    H223953   3.696   0.477   4.204
 7997TIP3   OH223954   1.992   3.843   4.399
 7997TIP3    H123955   1.912   3.884   4.431
 7997TIP3    H223956   2.063   3.889   4.445
 7998TIP3   OH223957   0.085   6.359   5.173
 7998TIP3    H123958   0.133   6.398   5.246
 7998TIP3    H223959  -0.001   6.336   5.209
 7999TIP3   OH223960   3.966   5.197   2.358
 7999TIP3    H123961   3.951   5.119   2.411
 7999TIP3    H223962   3.882   5.212   2.315
 8000TIP3   OH223963   0.282   5.250   0.515
 8000TIP3    H123964   0.332   5.187   0.567
 8000TIP3    H223965   0.190   5.233   0.538
 8001TIP3   OH223966   1.144   6.295   3.381
 8001TIP3    H123967   1.065   6.350   3.375
 8001TIP3    H223968   1.140   6.240   3.303
 8002TIP3   OH223969   4.696   4.293   2.420
 8002TIP3    H123970   4.682   4.322   2.511
 8002TIP3    H223971   4.791   4.302   2.407
 8003TIP3   OH223972   2.464   1.799   5.834
 8003TIP3    H123973   2.422   1.833   5.755
 8003TIP3    H223974   2.489   1.709   5.810
 8004TIP3   OH223975   6.378   2.964   3.395
 8004TIP3    H123976   6.406   2.926   3.479
 8004TIP3    H223977   6.393   2.894   3.331
 8005TIP3   OH223978   0.033   5.577   4.977
 8005TIP3    H123979   0.095   5.504   4.970
 8005TIP3    H223980  -0.029   5.549   5.044
 8006TIP3   OH223981   0.932   4.259   3.988
 8006TIP3    H123982   0.916   4.352   3.999
 8006TIP3    H223983   1.024   4.253   3.962
 8007TIP3   OH223984   5.641   5.832   2.832
 8007TIP3    H123985   5.568   5.770   2.822
 8007TIP3    H223986   5.695   5.817   2.755
 8008TIP3   OH223987   6.774   1.207   5.244
 8008TIP3    H123988   6.794   1.113   5.236
 8008TIP3    H223989   6.679   1.212   5.241
 8009TIP3   OH223990   3.258   1.225   3.240
 8009TIP3    H123991   3.349   1.215   3.212
 8009TIP3    H223992   3.246   1.320   3.249
 8010TIP3   OH223993   5.758   5.707   0.708
 8010TIP3    H123994   5.833   5.746   0.752
 8010TIP3    H223995   5.733   5.770   0.641
 8011TIP3   OH223996   2.472   3.695   0.454
 8011TIP3    H123997   2.432   3.634   0.516
 8011TIP3    H223998   2.440   3.665   0.368
 8012TIP3   OH223999   2.105   1.437   1.470
 8012TIP3    H124000   2.054   1.357   1.456
 8012TIP3    H224001   2.146   1.424   1.555
 8013TIP3   OH224002   2.164   2.110   5.788
 8013TIP3    H124003   2.161   2.151   5.702
 8013TIP3    H224004   2.256   2.115   5.813
 8014TIP3   OH224005   3.826   2.320   2.346
 8014TIP3    H124006   3.896   2.287   2.290
 8014TIP3    H224007   3.865   2.325   2.433
 8015TIP3   OH224008   0.912   1.975   5.200
 8015TIP3    H124009   1.003   1.955   5.221
 8015TIP3    H224010   0.869   1.890   5.194
 8016TIP3   OH224011   1.233   5.240   2.898
 8016TIP3    H124012   1.228   5.158   2.850
 8016TIP3    H224013   1.147   5.281   2.885
 8017TIP3   OH224014   7.043   3.277   1.227
 8017TIP3    H124015   7.089   3.216   1.285
 8017TIP3    H224016   7.110   3.311   1.169
 8018TIP3   OH224017   1.338   2.922   4.939
 8018TIP3    H124018   1.249   2.926   4.975
 8018TIP3    H224019   1.364   3.013   4.927
 8019TIP3   OH224020   5.626   3.431   1.834
 8019TIP3    H124021   5.592   3.442   1.745
 8019TIP3    H224022   5.717   3.462   1.829
 8020TIP3   OH224023   0.469   5.351   5.437
 8020TIP3    H124024   0.462   5.327   5.529
 8020TIP3    H224025   0.498   5.271   5.393
 8021TIP3   OH224026   5.420   2.725   0.180
 8021TIP3    H124027   5.335   2.718   0.222
 8021TIP3    H224028   5.442   2.818   0.184
 8022TIP3   OH224029   5.034   1.624   5.243
 8022TIP3    H124030   4.958   1.673   5.215
 8022TIP3    H224031   5.010   1.589   5.329
 8023TIP3   OH224032   2.501   5.550   0.171
 8023TIP3    H124033   2.491   5.613   0.243
 8023TIP3    H224034   2.446   5.586   0.101
 8024TIP3   OH224035   0.513   0.520   2.182
 8024TIP3    H124036   0.485   0.546   2.269
 8024TIP3    H224037   0.609   0.522   2.186
 8025TIP3   OH224038   6.938   5.318   1.447
 8025TIP3    H124039   6.858   5.293   1.401
 8025TIP3    H224040   7.003   5.329   1.377
 8026TIP3   OH224041   3.156   2.216   3.029
 8026TIP3    H124042   3.194   2.303   3.024
 8026TIP3    H224043   3.224   2.162   3.069
 8027TIP3   OH224044   6.485   2.146   4.199
 8027TIP3    H124045   6.417   2.104   4.252
 8027TIP3    H224046   6.564   2.096   4.218
 8028TIP3   OH224047   4.426   4.960   2.087
 8028TIP3    H124048   4.345   4.950   2.036
 8028TIP3    H224049   4.399   5.011   2.164
 8029TIP3   OH224050   5.058   0.963   0.682
 8029TIP3    H124051   5.025   1.053   0.689
 8029TIP3    H224052   5.151   0.971   0.702
 8030TIP3   OH224053   2.221   1.142   1.161
 8030TIP3    H124054   2.170   1.101   1.230
 8030TIP3    H224055   2.285   1.196   1.207
 8031TIP3   OH224056   5.863   2.652   3.314
 8031TIP3    H124057   5.837   2.611   3.232
 8031TIP3    H224058   5.783   2.653   3.367
 8032TIP3   OH224059   2.623   3.420   4.884
 8032TIP3    H124060   2.581   3.494   4.929
 8032TIP3    H224061   2.577   3.343   4.917
 8033TIP3   OH224062   0.395   1.115   3.163
 8033TIP3    H124063   0.437   1.165   3.093
 8033TIP3    H224064   0.368   1.033   3.120
 8034TIP3   OH224065   6.656   0.059   2.684
 8034TIP3    H124066   6.749   0.049   2.660
 8034TIP3    H224067   6.638   0.152   2.672
 8035TIP3   OH224068   7.063   2.979   5.163
 8035TIP3    H124069   7.112   3.032   5.100
 8035TIP3    H224070   7.068   3.029   5.245
 8036TIP3   OH224071   0.724   6.146   3.148
 8036TIP3    H124072   0.700   6.113   3.061
 8036TIP3    H224073   0.786   6.081   3.182
 8037TIP3   OH224074   3.223   6.588   5.756
 8037TIP3    H124075   3.290   6.641   5.798
 8037TIP3    H224076   3.161   6.569   5.826
 8038TIP3   OH224077   6.551   3.277   0.792
 8038TIP3    H124078   6.641   3.246   0.801
 8038TIP3    H224079   6.504   3.235   0.864
 8039TIP3   OH224080   0.381   1.139   2.066
 8039TIP3    H124081   0.293   1.102   2.068
 8039TIP3    H224082   0.408   1.145   2.157
 8040TIP3   OH224083   6.135   5.534   4.899
 8040TIP3    H124084   6.132   5.514   4.805
 8040TIP3    H224085   6.180   5.618   4.903
 8041TIP3   OH224086   0.362   4.141   0.703
 8041TIP3    H124087   0.344   4.233   0.722
 8041TIP3    H224088   0.457   4.138   0.688
 8042TIP3   OH224089   3.807   4.089   2.241
 8042TIP3    H124090   3.736   4.133   2.195
 8042TIP3    H224091   3.887   4.122   2.200
 8043TIP3   OH224092   6.862   4.201   2.603
 8043TIP3    H124093   6.788   4.160   2.560
 8043TIP3    H224094   6.851   4.295   2.587
 8044TIP3   OH224095   6.545   5.964   4.049
 8044TIP3    H124096   6.518   5.877   4.078
 8044TIP3    H224097   6.595   5.999   4.123
 8045TIP3   OH224098   1.978   3.058   4.322
 8045TIP3    H124099   2.051   2.995   4.328
 8045TIP3    H224100   1.989   3.115   4.398
 8046TIP3   OH224101   3.638   4.297   5.881
 8046TIP3    H124102   3.593   4.284   5.798
 8046TIP3    H224103   3.731   4.306   5.857
 8047TIP3   OH224104   5.638   3.956   3.213
 8047TIP3    H124105   5.637   3.865   3.183
 8047TIP3    H224106   5.567   3.961   3.277
 8048TIP3   OH224107   0.326   2.143   4.588
 8048TIP3    H124108   0.308   2.116   4.678
 8048TIP3    H224109   0.396   2.084   4.559
 8049TIP3   OH224110   6.995   2.183   1.298
 8049TIP3    H124111   6.943   2.262   1.286
 8049TIP3    H224112   7.077   2.213   1.338
 8050TIP3   OH224113   5.708   0.225   1.492
 8050TIP3    H124114   5.758   0.190   1.566
 8050TIP3    H224115   5.653   0.152   1.464
 8051TIP3   OH224116   0.573   5.505   4.744
 8051TIP3    H124117   0.487   5.494   4.786
 8051TIP3    H224118   0.592   5.419   4.705
 8052TIP3   OH224119   5.047   3.658   4.890
 8052TIP3    H124120   4.982   3.651   4.820
 8052TIP3    H224121   5.131   3.660   4.844
 8053TIP3   OH224122   7.097   1.216   3.671
 8053TIP3    H124123   7.073   1.304   3.699
 8053TIP3    H224124   7.044   1.158   3.727
 8054TIP3   OH224125   0.570   5.579   3.964
 8054TIP3    H124126   0.508   5.537   4.024
 8054TIP3    H224127   0.653   5.534   3.981
 8055TIP3   OH224128   0.759   2.283   5.211
 8055TIP3    H124129   0.749   2.196   5.249
 8055TIP3    H224130   0.748   2.343   5.285
 8056TIP3   OH224131   1.078   4.662   3.638
 8056TIP3    H124132   1.044   4.701   3.718
 8056TIP3    H224133   1.082   4.569   3.656
 8057TIP3   OH224134   5.708   0.940   5.034
 8057TIP3    H124135   5.743   0.978   5.115
 8057TIP3    H224136   5.733   0.848   5.039
 8058TIP3   OH224137   2.629   3.045   4.425
 8058TIP3    H124138   2.580   2.966   4.447
 8058TIP3    H224139   2.565   3.116   4.432
 8059TIP3   OH224140   3.559   3.230   4.721
 8059TIP3    H124141   3.567   3.137   4.699
 8059TIP3    H224142   3.533   3.230   4.813
 8060TIP3   OH224143   1.347   2.118   1.599
 8060TIP3    H124144   1.379   2.143   1.512
 8060TIP3    H224145   1.426   2.115   1.653
 8061TIP3   OH224146   2.028   1.695   5.284
 8061TIP3    H124147   1.992   1.724   5.200
 8061TIP3    H224148   2.015   1.771   5.342
 8062TIP3   OH224149   3.938   0.383   5.443
 8062TIP3    H124150   3.926   0.355   5.534
 8062TIP3    H224151   3.998   0.318   5.406
 8063TIP3   OH224152   2.557   5.212  -0.025
 8063TIP3    H124153   2.523   5.184   0.060
 8063TIP3    H224154   2.623   5.278  -0.004
 8064TIP3   OH224155   2.714   3.295   2.648
 8064TIP3    H124156   2.734   3.345   2.727
 8064TIP3    H224157   2.793   3.243   2.632
 8065TIP3   OH224158   2.241   5.341   1.111
 8065TIP3    H124159   2.252   5.343   1.206
 8065TIP3    H224160   2.280   5.259   1.083
 8066TIP3   OH224161   3.049   5.460   4.588
 8066TIP3    H124162   3.116   5.515   4.629
 8066TIP3    H224163   3.040   5.496   4.499
 8067TIP3   OH224164   3.036   0.797   3.135
 8067TIP3    H124165   2.979   0.803   3.211
 8067TIP3    H224166   2.983   0.830   3.063
 8068TIP3   OH224167   0.162   3.849   5.895
 8068TIP3    H124168   0.154   3.873   5.803
 8068TIP3    H224169   0.216   3.770   5.894
 8069TIP3   OH224170   1.279   0.198   0.843
 8069TIP3    H124171   1.239   0.208   0.929
 8069TIP3    H224172   1.352   0.260   0.842
 8070TIP3   OH224173   2.786   3.711   4.310
 8070TIP3    H124174   2.769   3.774   4.381
 8070TIP3    H224175   2.878   3.687   4.321
 8071TIP3   OH224176   3.796   5.903   5.855
 8071TIP3    H124177   3.818   5.822   5.809
 8071TIP3    H224178   3.704   5.919   5.833
 8072TIP3   OH224179   1.732   6.169   1.752
 8072TIP3    H124180   1.820   6.183   1.786
 8072TIP3    H224181   1.705   6.255   1.719
 8073TIP3   OH224182   3.598   6.716   0.543
 8073TIP3    H124183   3.624   6.773   0.471
 8073TIP3    H224184   3.630   6.629   0.518
 8074TIP3   OH224185   6.138   6.651   0.351
 8074TIP3    H124186   6.128   6.743   0.377
 8074TIP3    H224187   6.180   6.609   0.426
 8075TIP3   OH224188   4.889   2.804   2.826
 8075TIP3    H124189   4.943   2.759   2.891
 8075TIP3    H224190   4.941   2.800   2.745
 8076TIP3   OH224191   2.612   3.126   1.870
 8076TIP3    H124192   2.688   3.183   1.882
 8076TIP3    H224193   2.549   3.180   1.823
 8077TIP3   OH224194   1.389   2.654   0.747
 8077TIP3    H124195   1.413   2.595   0.819
 8077TIP3    H224196   1.430   2.614   0.670
 8078TIP3   OH224197   1.924   0.396   3.098
 8078TIP3    H124198   1.860   0.415   3.166
 8078TIP3    H224199   1.874   0.355   3.027
 8079TIP3   OH224200   3.368   3.812   4.461
 8079TIP3    H124201   3.283   3.814   4.505
 8079TIP3    H224202   3.417   3.745   4.508
 8080TIP3   OH224203   2.194   1.556   3.860
 8080TIP3    H124204   2.109   1.534   3.898
 8080TIP3    H224205   2.237   1.471   3.847
 8081TIP3   OH224206   0.329   1.784   3.260
 8081TIP3    H124207   0.316   1.779   3.355
 8081TIP3    H224208   0.339   1.693   3.233
 8082TIP3   OH224209   7.244   1.430   1.615
 8082TIP3    H124210   7.149   1.421   1.622
 8082TIP3    H224211   7.261   1.434   1.521
 8083TIP3   OH224212   0.135   3.050   0.883
 8083TIP3    H124213   0.182   3.132   0.868
 8083TIP3    H224214   0.195   2.996   0.933
 8084TIP3   OH224215   3.205   4.346   5.721
 8084TIP3    H124216   3.187   4.367   5.629
 8084TIP3    H224217   3.152   4.409   5.770
 8085TIP3   OH224218   5.916   2.526   0.507
 8085TIP3    H124219   5.822   2.510   0.497
 8085TIP3    H224220   5.921   2.616   0.541
 8086TIP3   OH224221   6.539   0.201   0.184
 8086TIP3    H124222   6.502   0.161   0.105
 8086TIP3    H224223   6.523   0.294   0.174
 8087TIP3   OH224224   6.437   3.603   0.011
 8087TIP3    H124225   6.392   3.519   0.001
 8087TIP3    H224226   6.446   3.614   0.105
 8088TIP3   OH224227   4.606   4.674   3.111
 8088TIP3    H124228   4.650   4.735   3.051
 8088TIP3    H224229   4.564   4.610   3.053
 8089TIP3   OH224230   6.467   4.148   3.203
 8089TIP3    H124231   6.434   4.144   3.293
 8089TIP3    H224232   6.544   4.203   3.208
 8090TIP3   OH224233   1.254   0.927   2.648
 8090TIP3    H124234   1.211   0.914   2.563
 8090TIP3    H224235   1.183   0.931   2.711
 8091TIP3   OH224236   0.352   5.233   0.023
 8091TIP3    H124237   0.394   5.181   0.091
 8091TIP3    H224238   0.395   5.318   0.029
 8092TIP3   OH224239   6.692   6.196   3.171
 8092TIP3    H124240   6.689   6.226   3.262
 8092TIP3    H224241   6.616   6.139   3.162
 8093TIP3   OH224242   4.534   5.772   4.792
 8093TIP3    H124243   4.492   5.692   4.826
 8093TIP3    H224244   4.477   5.843   4.822
 8094TIP3   OH224245   4.794   2.417   0.800
 8094TIP3    H124246   4.847   2.337   0.802
 8094TIP3    H224247   4.718   2.396   0.854
 8095TIP3   OH224248   1.385   6.332   0.624
 8095TIP3    H124249   1.421   6.273   0.558
 8095TIP3    H224250   1.450   6.401   0.633
 8096TIP3   OH224251   5.137   4.381   1.397
 8096TIP3    H124252   5.217   4.332   1.380
 8096TIP3    H224253   5.124   4.375   1.492
 8097TIP3   OH224254   0.921   5.096   2.471
 8097TIP3    H124255   0.976   5.018   2.466
 8097TIP3    H224256   0.836   5.068   2.439
 8098TIP3   OH224257   4.125   4.238   5.272
 8098TIP3    H124258   4.206   4.214   5.318
 8098TIP3    H224259   4.081   4.155   5.256
 8099TIP3   OH224260   0.435   0.914   3.495
 8099TIP3    H124261   0.465   0.863   3.419
 8099TIP3    H224262   0.515   0.945   3.536
 8100TIP3   OH224263   5.116   1.915   1.147
 8100TIP3    H124264   5.091   1.968   1.223
 8100TIP3    H224265   5.051   1.844   1.145
 8101TIP3   OH224266   4.922   1.709   2.337
 8101TIP3    H124267   4.957   1.783   2.386
 8101TIP3    H224268   4.990   1.642   2.343
 8102TIP3   OH224269   4.166   5.512   0.867
 8102TIP3    H124270   4.190   5.583   0.807
 8102TIP3    H224271   4.149   5.555   0.951
 8103TIP3   OH224272   2.082   5.699   2.763
 8103TIP3    H124273   2.039   5.702   2.849
 8103TIP3    H224274   2.143   5.626   2.769
 8104TIP3   OH224275   1.442   4.584   2.105
 8104TIP3    H124276   1.401   4.593   2.020
 8104TIP3    H224277   1.535   4.572   2.086
 8105TIP3   OH224278   4.869   2.738   0.042
 8105TIP3    H124279   4.814   2.663   0.021
 8105TIP3    H224280   4.827   2.778   0.118
 8106TIP3   OH224281   6.715   1.819   3.616
 8106TIP3    H124282   6.653   1.881   3.655
 8106TIP3    H224283   6.669   1.735   3.618
 8107TIP3   OH224284   4.303   5.962   3.489
 8107TIP3    H124285   4.277   6.054   3.477
 8107TIP3    H224286   4.376   5.950   3.428
 8108TIP3   OH224287   5.629   0.440   0.864
 8108TIP3    H124288   5.650   0.376   0.796
 8108TIP3    H224289   5.651   0.397   0.946
 8109TIP3   OH224290   4.035   4.651   2.910
 8109TIP3    H124291   3.981   4.698   2.974
 8109TIP3    H224292   3.984   4.573   2.888
 8110TIP3   OH224293   1.389   2.504   0.980
 8110TIP3    H124294   1.431   2.508   1.066
 8110TIP3    H224295   1.295   2.511   0.999
 8111TIP3   OH224296   4.150   4.911   2.063
 8111TIP3    H124297   4.098   4.870   1.993
 8111TIP3    H224298   4.095   4.983   2.095
 8112TIP3   OH224299   3.491   2.445   5.745
 8112TIP3    H124300   3.440   2.522   5.721
 8112TIP3    H224301   3.456   2.375   5.689
 8113TIP3   OH224302   2.736   6.260   0.274
 8113TIP3    H124303   2.700   6.171   0.266
 8113TIP3    H224304   2.822   6.248   0.315
 8114TIP3   OH224305   3.283   6.493   4.452
 8114TIP3    H124306   3.371   6.529   4.439
 8114TIP3    H224307   3.225   6.569   4.449
 8115TIP3   OH224308   6.125   2.774   1.117
 8115TIP3    H124309   6.032   2.760   1.133
 8115TIP3    H224310   6.159   2.809   1.199
 8116TIP3   OH224311   4.782   6.129   4.461
 8116TIP3    H124312   4.726   6.057   4.491
 8116TIP3    H224313   4.726   6.206   4.463
 8117TIP3   OH224314   1.811   4.969   4.024
 8117TIP3    H124315   1.768   4.889   3.993
 8117TIP3    H224316   1.856   5.003   3.947
 8118TIP3   OH224317   2.705   2.751   1.814
 8118TIP3    H124318   2.737   2.772   1.726
 8118TIP3    H224319   2.695   2.836   1.857
 8119TIP3   OH224320   0.176   3.151   0.576
 8119TIP3    H124321   0.136   3.078   0.624
 8119TIP3    H224322   0.102   3.204   0.548
 8120TIP3   OH224323   2.007   1.364   5.167
 8120TIP3    H124324   1.977   1.448   5.130
 8120TIP3    H224325   1.996   1.375   5.261
 8121TIP3   OH224326   6.257   2.458   1.353
 8121TIP3    H124327   6.228   2.480   1.441
 8121TIP3    H224328   6.180   2.415   1.314
 8122TIP3   OH224329   6.690   4.813   0.799
 8122TIP3    H124330   6.717   4.755   0.728
 8122TIP3    H224331   6.769   4.862   0.821
 8123TIP3   OH224332   6.008   5.445   5.539
 8123TIP3    H124333   5.964   5.367   5.574
 8123TIP3    H224334   6.094   5.444   5.579
 8124TIP3   OH224335   4.763   0.892   2.355
 8124TIP3    H124336   4.762   0.797   2.355
 8124TIP3    H224337   4.810   0.916   2.434
 8125TIP3   OH224338   3.283   3.725   5.194
 8125TIP3    H124339   3.350   3.676   5.243
 8125TIP3    H224340   3.313   3.722   5.103
 8126TIP3   OH224341   2.106   6.335   1.329
 8126TIP3    H124342   2.142   6.289   1.253
 8126TIP3    H224343   2.144   6.423   1.324
 8127TIP3   OH224344   0.928   5.301   5.054
 8127TIP3    H124345   0.984   5.241   5.004
 8127TIP3    H224346   0.973   5.311   5.138
 8128TIP3   OH224347   3.495   2.778   3.677
 8128TIP3    H124348   3.490   2.701   3.733
 8128TIP3    H224349   3.497   2.852   3.737
 8129TIP3   OH224350   3.494   4.039   5.612
 8129TIP3    H124351   3.409   4.029   5.568
 8129TIP3    H224352   3.511   4.133   5.608
 8130TIP3   OH224353   0.926   2.577   5.085
 8130TIP3    H124354   0.945   2.602   5.175
 8130TIP3    H224355   0.934   2.481   5.084
 8131TIP3   OH224356   6.625   1.771   1.336
 8131TIP3    H124357   6.632   1.719   1.257
 8131TIP3    H224358   6.707   1.821   1.339
 8132TIP3   OH224359   0.088   5.836   2.173
 8132TIP3    H124360   0.137   5.774   2.227
 8132TIP3    H224361  -0.003   5.822   2.199
 8133TIP3   OH224362   2.865   1.832   1.335
 8133TIP3    H124363   2.920   1.840   1.257
 8133TIP3    H224364   2.921   1.861   1.407
 8134TIP3   OH224365   2.298   3.488   3.290
 8134TIP3    H124366   2.314   3.571   3.334
 8134TIP3    H224367   2.230   3.445   3.343
 8135TIP3   OH224368   4.642   5.857   1.643
 8135TIP3    H124369   4.684   5.776   1.672
 8135TIP3    H224370   4.588   5.884   1.717
 8136TIP3   OH224371   7.141   0.621   1.704
 8136TIP3    H124372   7.157   0.642   1.796
 8136TIP3    H224373   7.048   0.642   1.690
 8137TIP3   OH224374   4.389   0.209   3.482
 8137TIP3    H124375   4.415   0.286   3.432
 8137TIP3    H224376   4.346   0.152   3.419
 8138TIP3   OH224377   3.371   6.682   3.603
 8138TIP3    H124378   3.296   6.656   3.657
 8138TIP3    H224379   3.447   6.649   3.650
 8139TIP3   OH224380   4.415   1.795   1.741
 8139TIP3    H124381   4.466   1.753   1.671
 8139TIP3    H224382   4.478   1.807   1.812
 8140TIP3   OH224383   5.610   0.822   4.533
 8140TIP3    H124384   5.604   0.792   4.442
 8140TIP3    H224385   5.627   0.742   4.583
 8141TIP3   OH224386   1.254   2.824   3.800
 8141TIP3    H124387   1.268   2.848   3.708
 8141TIP3    H224388   1.160   2.811   3.808
 8142TIP3   OH224389   5.927   0.731   3.638
 8142TIP3    H124390   5.992   0.795   3.610
 8142TIP3    H224391   5.894   0.766   3.721
 8143TIP3   OH224392   6.129   6.028   4.840
 8143TIP3    H124393   6.034   6.024   4.838
 8143TIP3    H224394   6.149   6.118   4.866
 8144TIP3   OH224395   0.867   0.082   2.722
 8144TIP3    H124396   0.914   0.157   2.686
 8144TIP3    H224397   0.932   0.038   2.778
 8145TIP3   OH224398   1.623   0.453   3.535
 8145TIP3    H124399   1.546   0.507   3.523
 8145TIP3    H224400   1.659   0.480   3.620
 8146TIP3   OH224401   0.918   5.791   0.444
 8146TIP3    H124402   0.928   5.867   0.502
 8146TIP3    H224403   0.833   5.754   0.466
 8147TIP3   OH224404   6.734   4.302   1.504
 8147TIP3    H124405   6.746   4.264   1.417
 8147TIP3    H224406   6.674   4.375   1.489
 8148TIP3   OH224407   3.738   2.779   2.312
 8148TIP3    H124408   3.819   2.792   2.263
 8148TIP3    H224409   3.734   2.855   2.372
 8149TIP3   OH224410   4.908   4.705   5.189
 8149TIP3    H124411   4.815   4.722   5.206
 8149TIP3    H224412   4.953   4.741   5.265
 8150TIP3   OH224413   6.702   5.058   0.026
 8150TIP3    H124414   6.648   5.055  -0.052
 8150TIP3    H224415   6.789   5.032  -0.003
 8151TIP3   OH224416   4.920   6.713   5.009
 8151TIP3    H124417   4.881   6.781   5.063
 8151TIP3    H224418   5.008   6.745   4.988
 8152TIP3   OH224419   6.028   2.545   0.942
 8152TIP3    H124420   6.077   2.570   0.863
 8152TIP3    H224421   6.083   2.478   0.984
 8153TIP3   OH224422   3.040   6.496   0.628
 8153TIP3    H124423   3.104   6.437   0.667
 8153TIP3    H224424   3.083   6.529   0.549
 8154TIP3   OH224425   4.889   3.431   5.092
 8154TIP3    H124426   4.931   3.470   5.015
 8154TIP3    H224427   4.823   3.371   5.055
 8155TIP3   OH224428   3.777   4.975   3.712
 8155TIP3    H124429   3.794   4.924   3.791
 8155TIP3    H224430   3.732   4.915   3.653
 8156TIP3   OH224431   4.193   6.753   3.294
 8156TIP3    H124432   4.233   6.795   3.370
 8156TIP3    H224433   4.147   6.677   3.330
 8157TIP3   OH224434   6.047   5.757   3.345
 8157TIP3    H124435   6.128   5.708   3.360
 8157TIP3    H224436   5.999   5.704   3.281
 8158TIP3   OH224437   0.917   1.398   4.709
 8158TIP3    H124438   0.837   1.395   4.657
 8158TIP3    H224439   0.965   1.319   4.684
 8159TIP3   OH224440   5.164   1.204   3.278
 8159TIP3    H124441   5.172   1.294   3.247
 8159TIP3    H224442   5.172   1.211   3.373
 8160TIP3   OH224443   4.257   6.640   3.814
 8160TIP3    H124444   4.331   6.690   3.780
 8160TIP3    H224445   4.263   6.649   3.909
 8161TIP3   OH224446   3.351   3.310   1.861
 8161TIP3    H124447   3.346   3.214   1.854
 8161TIP3    H224448   3.263   3.337   1.884
 8162TIP3   OH224449   5.277   3.863   0.008
 8162TIP3    H124450   5.198   3.897   0.051
 8162TIP3    H224451   5.336   3.843   0.080
 8163TIP3   OH224452   6.549   0.604   5.603
 8163TIP3    H124453   6.594   0.520   5.600
 8163TIP3    H224454   6.585   0.653   5.529
 8164TIP3   OH224455   4.736   3.130   1.255
 8164TIP3    H124456   4.828   3.133   1.229
 8164TIP3    H224457   4.735   3.159   1.347
 8165TIP3   OH224458   0.727   0.692   1.719
 8165TIP3    H124459   0.762   0.768   1.673
 8165TIP3    H224460   0.749   0.618   1.664
 8166TIP3   OH224461   4.570   1.855   1.981
 8166TIP3    H124462   4.615   1.778   2.017
 8166TIP3    H224463   4.534   1.899   2.058
 8167TIP3   OH224464   1.365   2.830   0.174
 8167TIP3    H124465   1.353   2.736   0.188
 8167TIP3    H224466   1.456   2.839   0.148
 8168TIP3   OH224467   0.247   0.386   3.437
 8168TIP3    H124468   0.270   0.423   3.352
 8168TIP3    H224469   0.194   0.309   3.416
 8169TIP3   OH224470   1.924   6.196   4.119
 8169TIP3    H124471   1.926   6.192   4.215
 8169TIP3    H224472   1.920   6.289   4.098
 8170TIP3   OH224473   3.436   4.212   3.621
 8170TIP3    H124474   3.482   4.195   3.539
 8170TIP3    H224475   3.503   4.246   3.680
 8171TIP3   OH224476   2.260   3.505   1.194
 8171TIP3    H124477   2.232   3.469   1.278
 8171TIP3    H224478   2.346   3.543   1.212
 8172TIP3   OH224479   6.215   1.909   5.210
 8172TIP3    H124480   6.147   1.868   5.265
 8172TIP3    H224481   6.209   2.002   5.230
 8173TIP3   OH224482   0.772   5.420   2.071
 8173TIP3    H124483   0.815   5.407   2.155
 8173TIP3    H224484   0.839   5.460   2.015
 8174TIP3   OH224485   5.515   6.212   5.136
 8174TIP3    H124486   5.580   6.215   5.207
 8174TIP3    H224487   5.542   6.283   5.078
 8175TIP3   OH224488   2.767   2.212   0.004
 8175TIP3    H124489   2.769   2.308  -0.003
 8175TIP3    H224490   2.858   2.186  -0.010
 8176TIP3   OH224491   3.545   4.270   3.340
 8176TIP3    H124492   3.598   4.295   3.265
 8176TIP3    H224493   3.507   4.352   3.372
 8177TIP3   OH224494   7.073   4.035   4.533
 8177TIP3    H124495   7.020   3.958   4.555
 8177TIP3    H224496   7.027   4.075   4.459
 8178TIP3   OH224497   0.345   5.253   2.851
 8178TIP3    H124498   0.371   5.325   2.908
 8178TIP3    H224499   0.421   5.241   2.793
 8179TIP3   OH224500   6.894   2.231   3.712
 8179TIP3    H124501   6.979   2.255   3.675
 8179TIP3    H224502   6.834   2.298   3.681
 8180TIP3   OH224503   6.336   1.065   4.436
 8180TIP3    H124504   6.256   1.112   4.414
 8180TIP3    H224505   6.324   1.037   4.527
 8181TIP3   OH224506   6.444   2.571   4.463
 8181TIP3    H124507   6.395   2.490   4.447
 8181TIP3    H224508   6.522   2.563   4.409
 8182TIP3   OH224509   3.361   0.492   1.506
 8182TIP3    H124510   3.306   0.556   1.460
 8182TIP3    H224511   3.407   0.543   1.572
 8183TIP3   OH224512   4.358   0.141   3.747
 8183TIP3    H124513   4.302   0.214   3.772
 8183TIP3    H224514   4.391   0.164   3.660
 8184TIP3   OH224515   2.299   1.765   4.010
 8184TIP3    H124516   2.257   1.695   3.960
 8184TIP3    H224517   2.266   1.846   3.971
 8185TIP3   OH224518   0.634   4.122   5.811
 8185TIP3    H124519   0.675   4.202   5.844
 8185TIP3    H224520   0.600   4.146   5.725
 8186TIP3   OH224521   5.703   3.912   0.706
 8186TIP3    H124522   5.750   3.930   0.625
 8186TIP3    H224523   5.771   3.881   0.766
 8187TIP3   OH224524   6.789   4.531   5.808
 8187TIP3    H124525   6.804   4.438   5.826
 8187TIP3    H224526   6.797   4.574   5.893
 8188TIP3   OH224527   2.492   3.526   3.654
 8188TIP3    H124528   2.411   3.576   3.664
 8188TIP3    H224529   2.501   3.514   3.559
 8189TIP3   OH224530   6.534   6.256   3.980
 8189TIP3    H124531   6.606   6.268   4.042
 8189TIP3    H224532   6.493   6.174   4.007
 8190TIP3   OH224533   6.329   3.802   2.615
 8190TIP3    H124534   6.339   3.859   2.691
 8190TIP3    H224535   6.374   3.849   2.544
 8191TIP3   OH224536   1.285   5.111   4.708
 8191TIP3    H124537   1.343   5.181   4.679
 8191TIP3    H224538   1.337   5.061   4.771
 8192TIP3   OH224539   4.728   3.978   2.976
 8192TIP3    H124540   4.768   3.936   3.052
 8192TIP3    H224541   4.802   4.011   2.925
 8193TIP3   OH224542   1.970   6.228   5.072
 8193TIP3    H124543   2.005   6.316   5.056
 8193TIP3    H224544   2.021   6.195   5.146
 8194TIP3   OH224545   5.769   3.082   2.072
 8194TIP3    H124546   5.813   3.166   2.081
 8194TIP3    H224547   5.830   3.028   2.022
 8195TIP3   OH224548   1.992   0.966   1.256
 8195TIP3    H124549   1.974   0.917   1.335
 8195TIP3    H224550   1.945   0.920   1.187
 8196TIP3   OH224551   1.025   0.472   0.911
 8196TIP3    H124552   1.000   0.537   0.976
 8196TIP3    H224553   1.039   0.391   0.961
 8197TIP3   OH224554   3.040   3.072   3.875
 8197TIP3    H124555   3.017   3.163   3.859
 8197TIP3    H224556   3.082   3.043   3.794
 8198TIP3   OH224557   2.455   2.582   4.618
 8198TIP3    H124558   2.483   2.566   4.708
 8198TIP3    H224559   2.493   2.509   4.568
 8199TIP3   OH224560   6.561   3.681   4.798
 8199TIP3    H124561   6.596   3.639   4.720
 8199TIP3    H224562   6.578   3.774   4.785
 8200TIP3   OH224563   4.545   0.582   3.699
 8200TIP3    H124564   4.585   0.664   3.669
 8200TIP3    H224565   4.592   0.513   3.653
 8201TIP3   OH224566   1.984   2.827   5.862
 8201TIP3    H124567   1.967   2.918   5.837
 8201TIP3    H224568   1.921   2.809   5.931
 8202TIP3   OH224569   3.965   6.297   4.221
 8202TIP3    H124570   3.929   6.220   4.177
 8202TIP3    H224571   4.060   6.285   4.215
 8203TIP3   OH224572   1.603   6.249   1.495
 8203TIP3    H124573   1.688   6.269   1.455
 8203TIP3    H224574   1.597   6.154   1.492
 8204TIP3   OH224575   0.242   5.418   0.929
 8204TIP3    H124576   0.186   5.390   0.856
 8204TIP3    H224577   0.181   5.456   0.993
 8205TIP3   OH224578   2.892   0.367   0.043
 8205TIP3    H124579   2.961   0.409  -0.009
 8205TIP3    H224580   2.932   0.352   0.129
 8206TIP3   OH224581   2.277   0.551   3.393
 8206TIP3    H124582   2.347   0.616   3.402
 8206TIP3    H224583   2.322   0.470   3.371
 8207TIP3   OH224584   0.111   1.829   2.259
 8207TIP3    H124585   0.133   1.740   2.285
 8207TIP3    H224586   0.107   1.878   2.342
 8208TIP3   OH224587   6.098   0.659   4.687
 8208TIP3    H124588   6.092   0.629   4.597
 8208TIP3    H224589   6.122   0.752   4.680
 8209TIP3   OH224590   6.625   4.746   4.643
 8209TIP3    H124591   6.701   4.690   4.628
 8209TIP3    H224592   6.604   4.734   4.735
 8210TIP3   OH224593   4.001   0.577   4.754
 8210TIP3    H124594   4.075   0.516   4.758
 8210TIP3    H224595   3.994   0.599   4.661
 8211TIP3   OH224596   2.724   6.411   4.998
 8211TIP3    H124597   2.800   6.353   4.987
 8211TIP3    H224598   2.655   6.369   4.948
 8212TIP3   OH224599   5.129   6.556   1.481
 8212TIP3    H124600   5.071   6.585   1.410
 8212TIP3    H224601   5.087   6.476   1.514
 8213TIP3   OH224602   6.490   5.147   5.827
 8213TIP3    H124603   6.581   5.156   5.796
 8213TIP3    H224604   6.494   5.170   5.919
 8214TIP3   OH224605   5.357   5.349   3.545
 8214TIP3    H124606   5.283   5.296   3.573
 8214TIP3    H224607   5.434   5.304   3.580
 8215TIP3   OH224608   1.855   3.773   2.504
 8215TIP3    H124609   1.768   3.796   2.538
 8215TIP3    H224610   1.915   3.790   2.577
 8216TIP3   OH224611   2.686   5.564   1.593
 8216TIP3    H124612   2.760   5.596   1.540
 8216TIP3    H224613   2.714   5.477   1.622
 8217TIP3   OH224614   1.130   5.439   5.812
 8217TIP3    H124615   1.204   5.415   5.867
 8217TIP3    H224616   1.106   5.527   5.840
 8218TIP3   OH224617   2.147   6.684   4.084
 8218TIP3    H124618   2.136   6.693   3.990
 8218TIP3    H224619   2.190   6.764   4.112
 8219TIP3   OH224620   7.071   1.779   1.952
 8219TIP3    H124621   7.058   1.705   2.011
 8219TIP3    H224622   7.085   1.739   1.866
 8220TIP3   OH224623   3.693   1.789   5.435
 8220TIP3    H124624   3.762   1.824   5.492
 8220TIP3    H224625   3.641   1.866   5.412
 8221TIP3   OH224626   4.093   2.176   0.589
 8221TIP3    H124627   4.030   2.112   0.554
 8221TIP3    H224628   4.039   2.237   0.639
 8222TIP3   OH224629   3.442   5.640   5.886
 8222TIP3    H124630   3.428   5.684   5.802
 8222TIP3    H224631   3.524   5.592   5.874
 8223TIP3   OH224632   0.155   3.978   3.645
 8223TIP3    H124633   0.121   3.977   3.556
 8223TIP3    H224634   0.209   3.899   3.651
 8224TIP3   OH224635   3.732   6.754   4.658
 8224TIP3    H124636   3.760   6.663   4.669
 8224TIP3    H224637   3.810   6.800   4.629
 8225TIP3   OH224638   0.661   2.063   5.340
 8225TIP3    H124639   0.601   1.992   5.361
 8225TIP3    H224640   0.744   2.019   5.320
 8226TIP3   OH224641   3.858   5.193   3.594
 8226TIP3    H124642   3.820   5.120   3.642
 8226TIP3    H224643   3.826   5.271   3.640
 8227TIP3   OH224644   4.804   0.509   3.947
 8227TIP3    H124645   4.766   0.425   3.921
 8227TIP3    H224646   4.827   0.496   4.039
 8228TIP3   OH224647   2.440   0.383   0.589
 8228TIP3    H124648   2.436   0.476   0.608
 8228TIP3    H224649   2.375   0.343   0.647
 8229TIP3   OH224650   2.968   4.848   1.093
 8229TIP3    H124651   2.989   4.768   1.045
 8229TIP3    H224652   3.000   4.832   1.182
 8230TIP3   OH224653   7.074   2.704   5.117
 8230TIP3    H124654   7.070   2.795   5.147
 8230TIP3    H224655   7.076   2.709   5.022
 8231TIP3   OH224656   1.791   2.672   4.800
 8231TIP3    H124657   1.709   2.651   4.754
 8231TIP3    H224658   1.853   2.693   4.729
 8232TIP3   OH224659   1.862   6.412   5.399
 8232TIP3    H124660   1.898   6.493   5.363
 8232TIP3    H224661   1.793   6.387   5.337
 8233TIP3   OH224662   3.967   5.656   1.958
 8233TIP3    H124663   3.880   5.628   1.985
 8233TIP3    H224664   3.989   5.728   2.018
 8234TIP3   OH224665   1.208   0.694   4.331
 8234TIP3    H124666   1.139   0.758   4.316
 8234TIP3    H224667   1.288   0.738   4.302
 8235TIP3   OH224668   1.025   6.379   2.798
 8235TIP3    H124669   1.066   6.314   2.855
 8235TIP3    H224670   1.098   6.431   2.765
 8236TIP3   OH224671   4.114   5.903   0.280
 8236TIP3    H124672   4.097   5.816   0.316
 8236TIP3    H224673   4.058   5.909   0.203
 8237TIP3   OH224674   5.790   4.014   5.323
 8237TIP3    H124675   5.778   3.982   5.412
 8237TIP3    H224676   5.702   4.039   5.295
 8238TIP3   OH224677   5.745   2.729   0.353
 8238TIP3    H124678   5.822   2.771   0.315
 8238TIP3    H224679   5.708   2.795   0.411
 8239TIP3   OH224680   3.035   0.864   2.755
 8239TIP3    H124681   2.965   0.828   2.809
 8239TIP3    H224682   3.104   0.798   2.759
 8240TIP3   OH224683   2.491   5.335   4.896
 8240TIP3    H124684   2.562   5.272   4.884
 8240TIP3    H224685   2.439   5.301   4.968
 8241TIP3   OH224686   3.219   4.274   3.399
 8241TIP3    H124687   3.173   4.272   3.482
 8241TIP3    H224688   3.232   4.182   3.376
 8242TIP3   OH224689   6.602   5.771   1.920
 8242TIP3    H124690   6.617   5.865   1.912
 8242TIP3    H224691   6.678   5.738   1.968
 8243TIP3   OH224692   0.191   5.395   2.513
 8243TIP3    H124693   0.246   5.346   2.452
 8243TIP3    H224694   0.113   5.341   2.525
 8244TIP3   OH224695   6.110   1.517   0.335
 8244TIP3    H124696   6.131   1.491   0.424
 8244TIP3    H224697   6.074   1.606   0.344
 8245TIP3   OH224698   5.877   1.757   1.762
 8245TIP3    H124699   5.894   1.777   1.670
 8245TIP3    H224700   5.944   1.692   1.784
 8246TIP3   OH224701   3.627   1.938   1.511
 8246TIP3    H124702   3.640   1.854   1.467
 8246TIP3    H224703   3.691   1.940   1.581
 8247TIP3   OH224704   5.596   2.036   1.762
 8247TIP3    H124705   5.667   2.065   1.819
 8247TIP3    H224706   5.518   2.082   1.795
 8248TIP3   OH224707   2.047   5.170   0.968
 8248TIP3    H124708   1.969   5.225   0.958
 8248TIP3    H224709   2.113   5.228   1.004
 8249TIP3   OH224710   5.194   6.342   4.221
 8249TIP3    H124711   5.154   6.399   4.286
 8249TIP3    H224712   5.206   6.398   4.144
 8250TIP3   OH224713   3.695   4.672   0.774
 8250TIP3    H124714   3.717   4.760   0.804
 8250TIP3    H224715   3.723   4.670   0.683
 8251TIP3   OH224716   0.045   0.184   2.064
 8251TIP3    H124717   0.072   0.128   1.991
 8251TIP3    H224718   0.121   0.240   2.081
 8252TIP3   OH224719   6.593   0.980   4.432
 8252TIP3    H124720   6.630   1.002   4.346
 8252TIP3    H224721   6.501   1.006   4.426
 8253TIP3   OH224722   5.178   2.211   0.213
 8253TIP3    H124723   5.141   2.189   0.127
 8253TIP3    H224724   5.272   2.219   0.198
 8254TIP3   OH224725   3.729   2.409   2.006
 8254TIP3    H124726   3.813   2.384   2.044
 8254TIP3    H224727   3.682   2.452   2.077
 8255TIP3   OH224728   2.260   0.010   0.658
 8255TIP3    H124729   2.257   0.074   0.728
 8255TIP3    H224730   2.207  -0.063   0.689
 8256TIP3   OH224731   6.839   2.972   5.025
 8256TIP3    H124732   6.834   3.067   5.016
 8256TIP3    H224733   6.917   2.957   5.078
 8257TIP3   OH224734   2.456   2.394   5.110
 8257TIP3    H124735   2.444   2.459   5.179
 8257TIP3    H224736   2.544   2.359   5.126
 8258TIP3   OH224737   7.070   2.150   4.767
 8258TIP3    H124738   7.158   2.162   4.731
 8258TIP3    H224739   7.072   2.064   4.809
 8259TIP3   OH224740   1.827   5.398   4.330
 8259TIP3    H124741   1.771   5.472   4.307
 8259TIP3    H224742   1.911   5.437   4.354
 8260TIP3   OH224743   1.972   1.021   1.988
 8260TIP3    H124744   1.967   1.109   2.027
 8260TIP3    H224745   1.936   0.964   2.056
 8261TIP3   OH224746   6.539   5.676   0.426
 8261TIP3    H124747   6.586   5.633   0.498
 8261TIP3    H224748   6.479   5.736   0.470
 8262TIP3   OH224749   2.664   4.295   3.287
 8262TIP3    H124750   2.649   4.235   3.214
 8262TIP3    H224751   2.589   4.281   3.345
 8263TIP3   OH224752   4.501   0.923   4.539
 8263TIP3    H124753   4.497   0.828   4.527
 8263TIP3    H224754   4.523   0.935   4.631
 8264TIP3   OH224755   1.077   3.499   0.588
 8264TIP3    H124756   1.136   3.467   0.656
 8264TIP3    H224757   1.113   3.464   0.507
 8265TIP3   OH224758   4.122   0.806   1.875
 8265TIP3    H124759   4.113   0.901   1.876
 8265TIP3    H224760   4.117   0.782   1.783
 8266TIP3   OH224761   0.642   1.020   5.109
 8266TIP3    H124762   0.638   0.938   5.060
 8266TIP3    H224763   0.572   1.012   5.174
 8267TIP3   OH224764   4.389   0.567   0.413
 8267TIP3    H124765   4.372   0.603   0.500
 8267TIP3    H224766   4.313   0.595   0.361
 8268TIP3   OH224767   4.215   1.346   2.295
 8268TIP3    H124768   4.250   1.433   2.312
 8268TIP3    H224769   4.280   1.304   2.239
 8269TIP3   OH224770   2.255   3.339   3.814
 8269TIP3    H124771   2.168   3.368   3.839
 8269TIP3    H224772   2.308   3.353   3.893
 8270TIP3   OH224773   3.916   6.618   0.577
 8270TIP3    H124774   3.991   6.618   0.635
 8270TIP3    H224775   3.898   6.710   0.560
 8271TIP3   OH224776   0.739   3.625   0.800
 8271TIP3    H124777   0.774   3.554   0.854
 8271TIP3    H224778   0.687   3.677   0.861
 8272TIP3   OH224779   3.323   1.697   1.502
 8272TIP3    H124780   3.417   1.693   1.484
 8272TIP3    H224781   3.285   1.623   1.454
 8273TIP3   OH224782   0.208   5.762   0.621
 8273TIP3    H124783   0.237   5.828   0.558
 8273TIP3    H224784   0.114   5.756   0.608
 8274TIP3   OH224785   5.786   3.233   3.176
 8274TIP3    H124786   5.759   3.164   3.115
 8274TIP3    H224787   5.705   3.259   3.221
 8275TIP3   OH224788   5.086   5.857   1.893
 8275TIP3    H124789   5.122   5.936   1.934
 8275TIP3    H224790   5.035   5.889   1.819
 8276TIP3   OH224791   6.370   3.594   3.028
 8276TIP3    H124792   6.298   3.532   3.026
 8276TIP3    H224793   6.340   3.665   3.084
 8277TIP3   OH224794   1.937   6.293   4.373
 8277TIP3    H124795   2.031   6.312   4.371
 8277TIP3    H224796   1.902   6.354   4.437
 8278TIP3   OH224797   6.533   2.411   1.072
 8278TIP3    H124798   6.603   2.426   1.008
 8278TIP3    H224799   6.504   2.499   1.097
 8279TIP3   OH224800   6.621   5.186   4.107
 8279TIP3    H124801   6.671   5.198   4.188
 8279TIP3    H224802   6.686   5.186   4.038
 8280TIP3   OH224803   1.703   6.292   3.466
 8280TIP3    H124804   1.747   6.291   3.551
 8280TIP3    H224805   1.610   6.298   3.487
 8281TIP3   OH224806   5.219   1.585   5.530
 8281TIP3    H124807   5.298   1.532   5.541
 8281TIP3    H224808   5.147   1.526   5.551
 8282TIP3   OH224809   5.277   2.992   2.388
 8282TIP3    H124810   5.278   3.085   2.364
 8282TIP3    H224811   5.333   2.950   2.322
 8283TIP3   OH224812   1.130   4.439   3.214
 8283TIP3    H124813   1.187   4.372   3.251
 8283TIP3    H224814   1.179   4.476   3.141
 8284TIP3   OH224815   4.866   6.585   4.367
 8284TIP3    H124816   4.777   6.557   4.389
 8284TIP3    H224817   4.876   6.561   4.275
 8285TIP3   OH224818   3.800   4.387   4.959
 8285TIP3    H124819   3.746   4.360   5.034
 8285TIP3    H224820   3.887   4.400   4.996
 8286TIP3   OH224821   6.257   0.233   0.453
 8286TIP3    H124822   6.237   0.289   0.377
 8286TIP3    H224823   6.347   0.204   0.438
 8287TIP3   OH224824   5.292   1.236   0.082
 8287TIP3    H124825   5.257   1.309   0.134
 8287TIP3    H224826   5.218   1.176   0.073
 8288TIP3   OH224827   1.738   1.868   5.314
 8288TIP3    H124828   1.722   1.785   5.359
 8288TIP3    H224829   1.830   1.888   5.333
 8289TIP3   OH224830   5.263   0.136   1.870
 8289TIP3    H124831   5.300   0.096   1.791
 8289TIP3    H224832   5.321   0.210   1.889
 8290TIP3   OH224833   3.903   0.564   1.523
 8290TIP3    H124834   3.814   0.530   1.529
 8290TIP3    H224835   3.937   0.527   1.442
 8291TIP3   OH224836   4.515   0.263   5.435
 8291TIP3    H124837   4.505   0.336   5.497
 8291TIP3    H224838   4.442   0.273   5.374
 8292TIP3   OH224839  -0.021   6.111   3.615
 8292TIP3    H124840  -0.058   6.098   3.702
 8292TIP3    H224841   0.066   6.071   3.620
 8293TIP3   OH224842   0.825   4.305   3.033
 8293TIP3    H124843   0.861   4.304   3.122
 8293TIP3    H224844   0.746   4.360   3.040
 8294TIP3   OH224845   3.113   4.921   4.147
 8294TIP3    H124846   3.152   4.872   4.219
 8294TIP3    H224847   3.172   4.996   4.135
 8295TIP3   OH224848   5.436   1.047   5.374
 8295TIP3    H124849   5.436   1.088   5.287
 8295TIP3    H224850   5.357   1.080   5.417
 8296TIP3   OH224851   1.201   4.488   0.431
 8296TIP3    H124852   1.106   4.489   0.417
 8296TIP3    H224853   1.238   4.469   0.346
 8297TIP3   OH224854   3.553   5.116   3.498
 8297TIP3    H124855   3.574   5.077   3.413
 8297TIP3    H224856   3.632   5.102   3.551
 8298TIP3   OH224857   5.222   2.328   1.817
 8298TIP3    H124858   5.214   2.379   1.897
 8298TIP3    H224859   5.137   2.338   1.774
 8299TIP3   OH224860   4.942   4.916   0.529
 8299TIP3    H124861   4.908   4.864   0.601
 8299TIP3    H224862   4.953   5.004   0.565
 8300TIP3   OH224863   5.690   2.814   2.263
 8300TIP3    H124864   5.660   2.826   2.353
 8300TIP3    H224865   5.659   2.892   2.217
 8301TIP3   OH224866   1.671   5.720   1.681
 8301TIP3    H124867   1.637   5.807   1.658
 8301TIP3    H224868   1.633   5.661   1.616
 8302TIP3   OH224869   2.611   4.731   1.247
 8302TIP3    H124870   2.688   4.714   1.301
 8302TIP3    H224871   2.640   4.712   1.158
 8303TIP3   OH224872   3.508   3.272   3.838
 8303TIP3    H124873   3.495   3.362   3.807
 8303TIP3    H224874   3.599   3.269   3.868
 8304TIP3   OH224875   5.721   1.225   2.353
 8304TIP3    H124876   5.728   1.140   2.396
 8304TIP3    H224877   5.627   1.238   2.339
 8305TIP3   OH224878   4.771   4.011   4.861
 8305TIP3    H124879   4.810   3.976   4.780
 8305TIP3    H224880   4.719   4.086   4.832
 8306TIP3   OH224881   3.458   4.026   1.383
 8306TIP3    H124882   3.408   3.973   1.445
 8306TIP3    H224883   3.444   3.983   1.299
 8307TIP3   OH224884   4.894   5.912   4.210
 8307TIP3    H124885   4.829   5.901   4.280
 8307TIP3    H224886   4.949   5.984   4.239
 8308TIP3   OH224887   0.958   2.822   0.503
 8308TIP3    H124888   0.905   2.746   0.480
 8308TIP3    H224889   1.011   2.793   0.578
 8309TIP3   OH224890   2.135   5.838   0.043
 8309TIP3    H124891   2.103   5.852  -0.046
 8309TIP3    H224892   2.194   5.762   0.035
 8310TIP3   OH224893   5.452   5.225   5.592
 8310TIP3    H124894   5.378   5.182   5.635
 8310TIP3    H224895   5.506   5.154   5.558
 8311TIP3   OH224896   3.554   0.208   0.178
 8311TIP3    H124897   3.529   0.296   0.206
 8311TIP3    H224898   3.613   0.177   0.247
 8312TIP3   OH224899   5.879   0.342   3.104
 8312TIP3    H124900   5.802   0.292   3.075
 8312TIP3    H224901   5.864   0.357   3.198
 8313TIP3   OH224902   5.738   1.110   0.623
 8313TIP3    H124903   5.764   1.091   0.533
 8313TIP3    H224904   5.791   1.051   0.677
 8314TIP3   OH224905   7.160   3.978   2.521
 8314TIP3    H124906   7.186   4.061   2.561
 8314TIP3    H224907   7.091   3.944   2.579
 8315TIP3   OH224908   4.707   4.464   5.221
 8315TIP3    H124909   4.656   4.469   5.140
 8315TIP3    H224910   4.725   4.555   5.244
 8316TIP3   OH224911   6.936   4.829   5.573
 8316TIP3    H124912   6.917   4.735   5.569
 8316TIP3    H224913   6.863   4.870   5.528
 8317TIP3   OH224914   7.174   4.607   0.118
 8317TIP3    H124915   7.091   4.638   0.155
 8317TIP3    H224916   7.241   4.663   0.158
 8318TIP3   OH224917   0.802   0.804   1.283
 8318TIP3    H124918   0.822   0.873   1.346
 8318TIP3    H224919   0.725   0.837   1.235
 8319TIP3   OH224920   5.587   3.549   5.088
 8319TIP3    H124921   5.573   3.495   5.010
 8319TIP3    H224922   5.675   3.527   5.117
 8320TIP3   OH224923   1.186   1.777   0.357
 8320TIP3    H124924   1.111   1.733   0.318
 8320TIP3    H224925   1.149   1.846   0.411
 8321TIP3   OH224926   6.670   3.786   2.435
 8321TIP3    H124927   6.612   3.862   2.429
 8321TIP3    H224928   6.617   3.713   2.401
 8322TIP3   OH224929   6.304   5.969   4.641
 8322TIP3    H124930   6.237   5.995   4.705
 8322TIP3    H224931   6.353   6.050   4.623
 8323TIP3   OH224932   5.712   5.502   2.053
 8323TIP3    H124933   5.759   5.462   2.126
 8323TIP3    H224934   5.693   5.591   2.082
 8324TIP3   OH224935   0.881   0.922   3.588
 8324TIP3    H124936   0.827   0.845   3.602
 8324TIP3    H224937   0.968   0.896   3.618
 8325TIP3   OH224938   6.457   6.636   5.830
 8325TIP3    H124939   6.523   6.661   5.765
 8325TIP3    H224940   6.495   6.561   5.876
 8326TIP3   OH224941   4.225   1.214   5.160
 8326TIP3    H124942   4.182   1.144   5.209
 8326TIP3    H224943   4.156   1.279   5.146
 8327TIP3   OH224944   3.893   0.698   1.094
 8327TIP3    H124945   3.956   0.712   1.164
 8327TIP3    H224946   3.861   0.609   1.108
 8328TIP3   OH224947   4.294   1.691   1.011
 8328TIP3    H124948   4.241   1.728   0.941
 8328TIP3    H224949   4.275   1.745   1.088
 8329TIP3   OH224950   1.240   6.518   2.694
 8329TIP3    H124951   1.327   6.503   2.657
 8329TIP3    H224952   1.210   6.599   2.653
 8330TIP3   OH224953   4.447   2.299   0.452
 8330TIP3    H124954   4.463   2.245   0.529
 8330TIP3    H224955   4.356   2.279   0.429
 8331TIP3   OH224956   0.874   0.196   2.166
 8331TIP3    H124957   0.949   0.196   2.225
 8331TIP3    H224958   0.809   0.142   2.210
 8332TIP3   OH224959   4.276   0.928   2.103
 8332TIP3    H124960   4.292   0.900   2.013
 8332TIP3    H224961   4.213   1.000   2.095
 8333TIP3   OH224962   6.717   3.822   2.706
 8333TIP3    H124963   6.696   3.823   2.613
 8333TIP3    H224964   6.809   3.798   2.710
 8334TIP3   OH224965   3.729   2.060   3.416
 8334TIP3    H124966   3.824   2.063   3.405
 8334TIP3    H224967   3.709   1.967   3.427
 8335TIP3   OH224968   4.739   4.530   4.765
 8335TIP3    H124969   4.726   4.624   4.753
 8335TIP3    H224970   4.833   4.521   4.781
 8336TIP3   OH224971   5.635   0.209   3.054
 8336TIP3    H124972   5.611   0.159   3.132
 8336TIP3    H224973   5.598   0.158   2.981
 8337TIP3   OH224974   0.448   6.191   1.164
 8337TIP3    H124975   0.529   6.148   1.191
 8337TIP3    H224976   0.468   6.284   1.168
 8338TIP3   OH224977   5.687   1.956   1.238
 8338TIP3    H124978   5.644   2.029   1.193
 8338TIP3    H224979   5.633   1.880   1.216
 8339TIP3   OH224980   3.266   1.938   0.879
 8339TIP3    H124981   3.306   1.947   0.965
 8339TIP3    H224982   3.329   1.885   0.829
 8340TIP3   OH224983   0.840   3.345   4.444
 8340TIP3    H124984   0.751   3.309   4.444
 8340TIP3    H224985   0.887   3.291   4.380
 8341TIP3   OH224986   3.440   3.118   3.624
 8341TIP3    H124987   3.422   3.174   3.700
 8341TIP3    H224988   3.363   3.061   3.617
 8342TIP3   OH224989   5.731   5.050   4.872
 8342TIP3    H124990   5.640   5.067   4.895
 8342TIP3    H224991   5.747   5.104   4.795
 8343TIP3   OH224992   5.963   5.636   2.833
 8343TIP3    H124993   5.905   5.701   2.795
 8343TIP3    H224994   6.034   5.626   2.769
 8344TIP3   OH224995   2.347   3.457   4.691
 8344TIP3    H124996   2.320   3.498   4.609
 8344TIP3    H224997   2.415   3.515   4.726
 8345TIP3   OH224998   2.737   4.784   5.048
 8345TIP3    H124999   2.683   4.785   5.127
 8345TIP3    H225000   2.678   4.755   4.979
 8346TIP3   OH225001   2.380   3.240   1.104
 8346TIP3    H125002   2.292   3.261   1.073
 8346TIP3    H225003   2.392   3.295   1.181
 8347TIP3   OH225004   6.106   3.973   2.003
 8347TIP3    H125005   6.121   4.064   1.979
 8347TIP3    H225006   6.138   3.923   1.928
 8348TIP3   OH225007   5.947   0.471   3.555
 8348TIP3    H125008   6.034   0.433   3.548
 8348TIP3    H225009   5.962   0.557   3.594
 8349TIP3   OH225010   6.516   4.663   5.768
 8349TIP3    H125011   6.519   4.706   5.683
 8349TIP3    H225012   6.538   4.571   5.750
 8350TIP3   OH225013   4.920   0.350   3.283
 8350TIP3    H125014   4.832   0.381   3.261
 8350TIP3    H225015   4.907   0.288   3.355
 8351TIP3   OH225016   5.406   1.517   1.369
 8351TIP3    H125017   5.492   1.553   1.348
 8351TIP3    H225018   5.378   1.472   1.288
 8352TIP3   OH225019   2.215   1.257   3.273
 8352TIP3    H125020   2.277   1.194   3.235
 8352TIP3    H225021   2.133   1.241   3.227
 8353TIP3   OH225022   3.717   0.330   5.167
 8353TIP3    H125023   3.704   0.249   5.217
 8353TIP3    H225024   3.793   0.311   5.112
 8354TIP3   OH225025   0.469   4.486   0.463
 8354TIP3    H125026   0.538   4.421   0.479
 8354TIP3    H225027   0.515   4.569   0.453
 8355TIP3   OH225028   6.485   3.990   2.463
 8355TIP3    H125029   6.516   4.077   2.489
 8355TIP3    H225030   6.426   4.007   2.390
 8356TIP3   OH225031   1.980   4.125   1.975
 8356TIP3    H125032   1.998   4.089   2.062
 8356TIP3    H225033   1.890   4.159   1.982
 8357TIP3   OH225034   6.664   2.501   1.683
 8357TIP3    H125035   6.739   2.560   1.680
 8357TIP3    H225036   6.604   2.533   1.616
 8358TIP3   OH225037   0.924   4.402   0.979
 8358TIP3    H125038   0.850   4.416   0.920
 8358TIP3    H225039   0.918   4.473   1.044
 8359TIP3   OH225040  -0.018   1.613   5.176
 8359TIP3    H125041   0.046   1.628   5.106
 8359TIP3    H225042  -0.078   1.548   5.140
 8360TIP3   OH225043   6.998   6.486   5.756
 8360TIP3    H125044   6.984   6.424   5.828
 8360TIP3    H225045   7.071   6.540   5.785
 8361TIP3   OH225046   5.595   4.522   1.299
 8361TIP3    H125047   5.585   4.572   1.380
 8361TIP3    H225048   5.683   4.541   1.269
 8362TIP3   OH225049   1.559   1.294   3.914
 8362TIP3    H125050   1.531   1.203   3.927
 8362TIP3    H225051   1.478   1.344   3.914
 8363TIP3   OH225052   6.421   5.951   0.924
 8363TIP3    H125053   6.456   5.916   1.006
 8363TIP3    H225054   6.477   5.914   0.856
 8364TIP3   OH225055   0.994   1.043   0.767
 8364TIP3    H125056   0.958   0.977   0.827
 8364TIP3    H225057   1.085   1.053   0.795
 8365TIP3   OH225058   3.404   5.438   5.303
 8365TIP3    H125059   3.341   5.367   5.302
 8365TIP3    H225060   3.489   5.394   5.308
 8366TIP3   OH225061   4.789   6.100   1.701
 8366TIP3    H125062   4.743   6.148   1.632
 8366TIP3    H225063   4.750   6.012   1.698
 8367TIP3   OH225064   0.315   4.404   4.322
 8367TIP3    H125065   0.348   4.484   4.280
 8367TIP3    H225066   0.253   4.435   4.388
 8368TIP3   OH225067   3.644   5.233   2.491
 8368TIP3    H125068   3.692   5.296   2.543
 8368TIP3    H225069   3.678   5.244   2.402
 8369TIP3   OH225070   4.550   5.129   5.520
 8369TIP3    H125071   4.582   5.218   5.531
 8369TIP3    H225072   4.556   5.112   5.426
 8370TIP3   OH225073   3.420   5.743   0.211
 8370TIP3    H125074   3.447   5.653   0.195
 8370TIP3    H225075   3.502   5.789   0.231
 8371TIP3   OH225076   4.392   3.783   3.872
 8371TIP3    H125077   4.312   3.829   3.896
 8371TIP3    H225078   4.367   3.691   3.866
 8372TIP3   OH225079   1.897   1.015   3.722
 8372TIP3    H125080   1.873   0.932   3.680
 8372TIP3    H225081   1.982   1.037   3.685
 8373TIP3   OH225082   7.027   3.471   1.972
 8373TIP3    H125083   7.114   3.507   1.955
 8373TIP3    H225084   7.024   3.459   2.067
 8374TIP3   OH225085   5.591   2.767   2.809
 8374TIP3    H125086   5.571   2.857   2.835
 8374TIP3    H225087   5.687   2.762   2.814
 8375TIP3   OH225088   0.382   6.139   0.777
 8375TIP3    H125089   0.446   6.195   0.822
 8375TIP3    H225090   0.330   6.100   0.847
 8376TIP3   OH225091   6.645   0.618   1.069
 8376TIP3    H125092   6.620   0.691   1.125
 8376TIP3    H225093   6.572   0.608   1.008
 8377TIP3   OH225094   1.783   5.946   1.904
 8377TIP3    H125095   1.702   5.903   1.932
 8377TIP3    H225096   1.754   6.021   1.853
 8378TIP3   OH225097   2.892   1.829   3.492
 8378TIP3    H125098   2.912   1.922   3.499
 8378TIP3    H225099   2.952   1.787   3.554
 8379TIP3   OH225100   3.442   1.098   1.573
 8379TIP3    H125101   3.444   1.016   1.524
 8379TIP3    H225102   3.451   1.072   1.665
 8380TIP3   OH225103   0.954   0.085   5.207
 8380TIP3    H125104   0.959   0.143   5.282
 8380TIP3    H225105   1.018   0.016   5.225
 8381TIP3   OH225106   4.014   6.740   1.605
 8381TIP3    H125107   4.022   6.645   1.600
 8381TIP3    H225108   4.088   6.767   1.659
 8382TIP3   OH225109   5.615   2.338   2.619
 8382TIP3    H125110   5.549   2.372   2.680
 8382TIP3    H225111   5.693   2.324   2.673
 8383TIP3   OH225112   3.287   3.775   4.923
 8383TIP3    H125113   3.366   3.814   4.885
 8383TIP3    H225114   3.225   3.847   4.927
 8384TIP3   OH225115   1.958   5.919   4.749
 8384TIP3    H125116   1.975   6.007   4.715
 8384TIP3    H225117   1.866   5.903   4.730
 8385TIP3   OH225118   1.236   0.177   1.959
 8385TIP3    H125119   1.243   0.100   2.017
 8385TIP3    H225120   1.286   0.245   2.004
 8386TIP3   OH225121   6.264   2.387   3.452
 8386TIP3    H125122   6.192   2.384   3.514
 8386TIP3    H225123   6.335   2.431   3.498
 8387TIP3   OH225124   3.274   1.109   0.929
 8387TIP3    H125125   3.289   1.157   1.011
 8387TIP3    H225126   3.205   1.158   0.885
 8388TIP3   OH225127   2.426   4.050   0.767
 8388TIP3    H125128   2.367   4.122   0.790
 8388TIP3    H225129   2.423   4.046   0.672
 8389TIP3   OH225130   2.768   4.002   0.762
 8389TIP3    H125131   2.846   3.947   0.757
 8389TIP3    H225132   2.695   3.941   0.755
 8390TIP3   OH225133   2.893   4.080   3.101
 8390TIP3    H125134   2.944   4.041   3.172
 8390TIP3    H225135   2.870   4.007   3.043
 8391TIP3   OH225136   1.096   1.199   4.633
 8391TIP3    H125137   1.087   1.119   4.582
 8391TIP3    H225138   1.136   1.170   4.715
 8392TIP3   OH225139   6.964   5.216   5.739
 8392TIP3    H125140   6.956   5.308   5.715
 8392TIP3    H225141   7.030   5.215   5.808
 8393TIP3   OH225142   0.697   6.675   1.445
 8393TIP3    H125143   0.720   6.586   1.474
 8393TIP3    H225144   0.619   6.662   1.391
 8394TIP3   OH225145   3.340   5.030   5.848
 8394TIP3    H125146   3.348   5.114   5.802
 8394TIP3    H225147   3.338   4.965   5.777
 8395TIP3   OH225148   5.468   5.898   4.365
 8395TIP3    H125149   5.461   5.902   4.460
 8395TIP3    H225150   5.435   5.982   4.334
 8396TIP3   OH225151   3.193   3.607   3.530
 8396TIP3    H125152   3.199   3.537   3.596
 8396TIP3    H225153   3.223   3.685   3.576
 8397TIP3   OH225154   0.569   2.900   4.694
 8397TIP3    H125155   0.525   2.913   4.778
 8397TIP3    H225156   0.655   2.865   4.717
 8398TIP3   OH225157   6.094   1.227   3.911
 8398TIP3    H125158   6.071   1.297   3.850
 8398TIP3    H225159   6.013   1.209   3.958
 8399TIP3   OH225160   4.113   4.772   4.648
 8399TIP3    H125161   4.077   4.713   4.581
 8399TIP3    H225162   4.109   4.721   4.729
 8400TIP3   OH225163   5.304   4.384   5.675
 8400TIP3    H125164   5.231   4.397   5.615
 8400TIP3    H225165   5.382   4.388   5.619
 8401TIP3   OH225166   4.491   6.295   4.481
 8401TIP3    H125167   4.417   6.246   4.446
 8401TIP3    H225168   4.514   6.249   4.562
 8402TIP3   OH225169   6.249   2.877   4.964
 8402TIP3    H125170   6.329   2.930   4.970
 8402TIP3    H225171   6.280   2.787   4.974
 8403TIP3   OH225172   3.145   4.984   1.665
 8403TIP3    H125173   3.165   5.052   1.601
 8403TIP3    H225174   3.066   5.015   1.710
 8404TIP3   OH225175   5.900   1.307   0.846
 8404TIP3    H125176   5.921   1.382   0.789
 8404TIP3    H225177   5.859   1.244   0.787
 8405TIP3   OH225178   2.123   0.670   2.934
 8405TIP3    H125179   2.078   0.749   2.904
 8405TIP3    H225180   2.145   0.688   3.026
 8406TIP3   OH225181   2.181   6.185   3.370
 8406TIP3    H125182   2.236   6.231   3.306
 8406TIP3    H225183   2.094   6.224   3.359
 8407TIP3   OH225184   6.536   3.070   4.918
 8407TIP3    H125185   6.607   3.133   4.909
 8407TIP3    H225186   6.515   3.045   4.828
 8408TIP3   OH225187   1.395   1.381   4.953
 8408TIP3    H125188   1.489   1.383   4.933
 8408TIP3    H225189   1.372   1.288   4.947
 8409TIP3   OH225190   1.985   1.327   4.779
 8409TIP3    H125191   2.078   1.340   4.760
 8409TIP3    H225192   1.940   1.393   4.726
 8410TIP3   OH225193   3.636   4.309   1.080
 8410TIP3    H125194   3.607   4.356   1.002
 8410TIP3    H225195   3.709   4.255   1.051
 8411TIP3   OH225196   1.452   0.868   2.833
 8411TIP3    H125197   1.515   0.799   2.855
 8411TIP3    H225198   1.378   0.852   2.891
 8412TIP3   OH225199   6.556   5.374   3.633
 8412TIP3    H125200   6.648   5.355   3.614
 8412TIP3    H225201   6.545   5.466   3.611
 8413TIP3   OH225202   4.848   5.633   5.709
 8413TIP3    H125203   4.912   5.654   5.640
 8413TIP3    H225204   4.838   5.538   5.704
 8414TIP3   OH225205   4.616   1.493   2.085
 8414TIP3    H125206   4.657   1.576   2.107
 8414TIP3    H225207   4.533   1.494   2.132
 8415TIP3   OH225208   3.803   1.514   0.060
 8415TIP3    H125209   3.873   1.450   0.068
 8415TIP3    H225210   3.804   1.562   0.142
 8416TIP3   OH225211   2.762   2.316   5.662
 8416TIP3    H125212   2.777   2.226   5.688
 8416TIP3    H225213   2.680   2.341   5.705
 8417TIP3   OH225214   0.417   1.462   0.583
 8417TIP3    H125215   0.436   1.538   0.529
 8417TIP3    H225216   0.487   1.462   0.649
 8418TIP3   OH225217   3.709   4.984   5.779
 8418TIP3    H125218   3.667   4.913   5.827
 8418TIP3    H225219   3.799   4.955   5.767
 8419TIP3   OH225220   5.180   1.962   4.399
 8419TIP3    H125221   5.088   1.955   4.373
 8419TIP3    H225222   5.188   1.907   4.476
 8420TIP3   OH225223   2.091   0.322   3.736
 8420TIP3    H125224   2.008   0.355   3.769
 8420TIP3    H225225   2.089   0.342   3.642
 8421TIP3   OH225226   0.522   0.543   4.020
 8421TIP3    H125227   0.534   0.622   3.968
 8421TIP3    H225228   0.497   0.575   4.107
 8422TIP3   OH225229   1.336   4.257   2.185
 8422TIP3    H125230   1.253   4.283   2.144
 8422TIP3    H225231   1.403   4.307   2.137
 8423TIP3   OH225232   0.650   0.056   0.849
 8423TIP3    H125233   0.723   0.105   0.812
 8423TIP3    H225234   0.573   0.089   0.803
 8424TIP3   OH225235   0.191   2.693   0.933
 8424TIP3    H125236   0.276   2.682   0.976
 8424TIP3    H225237   0.205   2.662   0.844
 8425TIP3   OH225238   6.352   1.800   1.640
 8425TIP3    H125239   6.418   1.734   1.619
 8425TIP3    H225240   6.268   1.757   1.625
 8426TIP3   OH225241   4.805   3.356   1.464
 8426TIP3    H125242   4.763   3.408   1.396
 8426TIP3    H225243   4.894   3.391   1.470
 8427TIP3   OH225244   1.386   5.071   3.945
 8427TIP3    H125245   1.461   5.107   3.992
 8427TIP3    H225246   1.416   5.061   3.855
 8428TIP3   OH225247   4.151   1.153   0.275
 8428TIP3    H125248   4.116   1.078   0.227
 8428TIP3    H225249   4.175   1.118   0.361
 8429TIP3   OH225250   1.089   0.604   2.324
 8429TIP3    H125251   1.158   0.609   2.258
 8429TIP3    H225252   1.049   0.691   2.322
 8430TIP3   OH225253   2.776   4.028   1.763
 8430TIP3    H125254   2.864   4.041   1.798
 8430TIP3    H225255   2.733   4.113   1.774
 8431TIP3   OH225256   7.056   6.008   0.140
 8431TIP3    H125257   7.072   5.914   0.155
 8431TIP3    H225258   6.965   6.012   0.111
 8432TIP3   OH225259   4.925   5.238   3.365
 8432TIP3    H125260   4.985   5.185   3.417
 8432TIP3    H225261   4.842   5.191   3.369
 8433TIP3   OH225262   0.290   0.331   2.093
 8433TIP3    H125263   0.374   0.353   2.134
 8433TIP3    H225264   0.285   0.388   2.016
 8434TIP3   OH225265   4.825   2.604   2.610
 8434TIP3    H125266   4.762   2.641   2.672
 8434TIP3    H225267   4.883   2.678   2.589
 8435TIP3   OH225268   6.494   1.603   2.310
 8435TIP3    H125269   6.411   1.645   2.288
 8435TIP3    H225270   6.558   1.674   2.305
 8436TIP3   OH225271   6.234   0.168   2.137
 8436TIP3    H125272   6.140   0.154   2.120
 8436TIP3    H225273   6.264   0.220   2.062
 8437TIP3   OH225274   0.697   3.334   1.272
 8437TIP3    H125275   0.711   3.386   1.193
 8437TIP3    H225276   0.760   3.369   1.335
 8438TIP3   OH225277   2.411   5.911   2.298
 8438TIP3    H125278   2.464   5.965   2.239
 8438TIP3    H225279   2.474   5.871   2.357
 8439TIP3   OH225280   5.605   4.443   3.963
 8439TIP3    H125281   5.693   4.474   3.986
 8439TIP3    H225282   5.552   4.523   3.958
 8440TIP3   OH225283   4.390   1.136   3.958
 8440TIP3    H125284   4.330   1.196   4.002
 8440TIP3    H225285   4.470   1.140   4.010
 8441TIP3   OH225286   3.795   5.075   1.539
 8441TIP3    H125287   3.751   5.154   1.507
 8441TIP3    H225288   3.862   5.107   1.598
 8442TIP3   OH225289   2.987   2.675   5.429
 8442TIP3    H125290   2.927   2.601   5.418
 8442TIP3    H225291   2.967   2.711   5.515
 8443TIP3   OH225292   2.501   0.917   0.195
 8443TIP3    H125293   2.453   0.919   0.113
 8443TIP3    H225294   2.565   0.987   0.188
 8444TIP3   OH225295   2.981   3.623   3.367
 8444TIP3    H125296   3.067   3.652   3.398
 8444TIP3    H225297   2.946   3.571   3.439
 8445TIP3   OH225298   4.568   5.243   2.649
 8445TIP3    H125299   4.592   5.332   2.625
 8445TIP3    H225300   4.557   5.246   2.744
 8446TIP3   OH225301   1.103   6.270   5.538
 8446TIP3    H125302   1.080   6.361   5.559
 8446TIP3    H225303   1.025   6.235   5.496
 8447TIP3   OH225304   3.681   1.503   3.713
 8447TIP3    H125305   3.632   1.574   3.672
 8447TIP3    H225306   3.712   1.539   3.796
 8448TIP3   OH225307   1.426   4.007   3.101
 8448TIP3    H125308   1.362   3.972   3.040
 8448TIP3    H225309   1.461   4.085   3.058
 8449TIP3   OH225310   5.661   2.966   3.715
 8449TIP3    H125311   5.727   2.949   3.648
 8449TIP3    H225312   5.583   2.919   3.685
 8450TIP3   OH225313   0.982   1.310   5.695
 8450TIP3    H125314   1.003   1.335   5.785
 8450TIP3    H225315   0.912   1.370   5.669
 8451TIP3   OH225316   4.415   4.021   4.654
 8451TIP3    H125317   4.430   3.945   4.709
 8451TIP3    H225318   4.321   4.024   4.641
 8452TIP3   OH225319   1.258   6.479   3.167
 8452TIP3    H125320   1.165   6.472   3.147
 8452TIP3    H225321   1.282   6.393   3.201
 8453TIP3   OH225322   1.324   2.550   0.233
 8453TIP3    H125323   1.373   2.489   0.289
 8453TIP3    H225324   1.347   2.524   0.144
 8454TIP3   OH225325   0.901   2.105   1.509
 8454TIP3    H125326   0.883   2.011   1.514
 8454TIP3    H225327   0.912   2.132   1.601
 8455TIP3   OH225328   3.011   5.109   2.478
 8455TIP3    H125329   2.968   5.026   2.501
 8455TIP3    H225330   3.030   5.101   2.384
 8456TIP3   OH225331   0.488   4.823   5.624
 8456TIP3    H125332   0.568   4.876   5.631
 8456TIP3    H225333   0.517   4.734   5.641
 8457TIP3   OH225334   5.525   2.902   4.308
 8457TIP3    H125335   5.532   2.954   4.388
 8457TIP3    H225336   5.518   2.967   4.238
 8458TIP3   OH225337   6.453   3.692   2.311
 8458TIP3    H125338   6.400   3.615   2.331
 8458TIP3    H225339   6.401   3.741   2.248
 8459TIP3   OH225340   6.613   4.718  -0.020
 8459TIP3    H125341   6.659   4.694   0.060
 8459TIP3    H225342   6.524   4.685  -0.008
 8460TIP3   OH225343   5.650   2.129   2.312
 8460TIP3    H125344   5.584   2.198   2.322
 8460TIP3    H225345   5.621   2.059   2.370
 8461TIP3   OH225346   0.690   6.330   3.703
 8461TIP3    H125347   0.637   6.252   3.721
 8461TIP3    H225348   0.750   6.336   3.777
 8462TIP3   OH225349   4.756   6.512   5.813
 8462TIP3    H125350   4.774   6.514   5.719
 8462TIP3    H225351   4.831   6.466   5.851
 8463TIP3   OH225352   1.215   4.494   5.515
 8463TIP3    H125353   1.203   4.417   5.458
 8463TIP3    H225354   1.190   4.568   5.459
 8464TIP3   OH225355   6.561   3.631   1.710
 8464TIP3    H125356   6.507   3.678   1.647
 8464TIP3    H225357   6.642   3.612   1.662
 8465TIP3   OH225358   5.110   6.430   0.506
 8465TIP3    H125359   5.189   6.444   0.558
 8465TIP3    H225360   5.133   6.465   0.420
 8466TIP3   OH225361   2.440   4.297   3.487
 8466TIP3    H125362   2.496   4.236   3.534
 8466TIP3    H225363   2.487   4.380   3.491
 8467TIP3   OH225364   0.782   1.837   2.346
 8467TIP3    H125365   0.850   1.838   2.279
 8467TIP3    H225366   0.767   1.930   2.366
 8468TIP3   OH225367   5.997   6.178   4.389
 8468TIP3    H125368   6.011   6.171   4.295
 8468TIP3    H225369   6.022   6.269   4.410
 8469TIP3   OH225370   0.110   3.180   2.892
 8469TIP3    H125371   0.167   3.226   2.831
 8469TIP3    H225372   0.089   3.097   2.848
 8470TIP3   OH225373   1.170   5.542   2.490
 8470TIP3    H125374   1.156   5.455   2.453
 8470TIP3    H225375   1.234   5.527   2.560
 8471TIP3   OH225376   2.136   1.056   3.560
 8471TIP3    H125377   2.134   1.146   3.528
 8471TIP3    H225378   2.105   1.004   3.486
 8472TIP3   OH225379   6.248   5.690   4.057
 8472TIP3    H125380   6.293   5.747   3.994
 8472TIP3    H225381   6.162   5.732   4.069
 8473TIP3   OH225382   0.207   3.705   5.224
 8473TIP3    H125383   0.154   3.625   5.222
 8473TIP3    H225384   0.191   3.742   5.311
 8474TIP3   OH225385   6.027   2.524   0.216
 8474TIP3    H125386   6.029   2.518   0.311
 8474TIP3    H225387   6.015   2.618   0.198
 8475TIP3   OH225388   3.677   1.772   2.191
 8475TIP3    H125389   3.603   1.724   2.228
 8475TIP3    H225390   3.638   1.851   2.153
 8476TIP3   OH225391   6.043   0.529   5.373
 8476TIP3    H125392   6.131   0.513   5.405
 8476TIP3    H225393   6.021   0.616   5.405
 8477TIP3   OH225394   5.876   6.456   4.917
 8477TIP3    H125395   5.915   6.385   4.866
 8477TIP3    H225396   5.782   6.438   4.913
 8478TIP3   OH225397   1.617   2.647   3.431
 8478TIP3    H125398   1.546   2.606   3.480
 8478TIP3    H225399   1.697   2.611   3.470
 8479TIP3   OH225400   5.670   4.299   0.603
 8479TIP3    H125401   5.752   4.267   0.643
 8479TIP3    H225402   5.615   4.221   0.598
 8480TIP3   OH225403   1.547   6.262   4.524
 8480TIP3    H125404   1.555   6.315   4.603
 8480TIP3    H225405   1.452   6.258   4.508
 8481TIP3   OH225406   4.613   2.866   2.777
 8481TIP3    H125407   4.618   2.882   2.683
 8481TIP3    H225408   4.704   2.863   2.806
 8482TIP3   OH225409   4.968   1.089   2.105
 8482TIP3    H125410   5.027   1.040   2.162
 8482TIP3    H225411   4.896   1.028   2.087
 8483TIP3   OH225412   7.231   6.314   2.998
 8483TIP3    H125413   7.210   6.247   2.933
 8483TIP3    H225414   7.325   6.327   2.989
 8484TIP3   OH225415   2.465   6.085   3.229
 8484TIP3    H125416   2.491   6.028   3.301
 8484TIP3    H225417   2.439   6.167   3.271
 8485TIP3   OH225418   5.403   4.303   1.264
 8485TIP3    H125419   5.343   4.331   1.196
 8485TIP3    H225420   5.476   4.364   1.259
 8486TIP3   OH225421   2.751   3.717   0.320
 8486TIP3    H125422   2.783   3.741   0.233
 8486TIP3    H225423   2.669   3.765   0.329
 8487TIP3   OH225424   4.553   4.586   4.042
 8487TIP3    H125425   4.511   4.589   4.128
 8487TIP3    H225426   4.646   4.570   4.062
 8488TIP3   OH225427   3.650   6.138   0.751
 8488TIP3    H125428   3.730   6.190   0.745
 8488TIP3    H225429   3.621   6.151   0.841
 8489TIP3   OH225430   2.962   1.368   1.153
 8489TIP3    H125431   3.017   1.355   1.076
 8489TIP3    H225432   2.978   1.290   1.207
 8490TIP3   OH225433   1.128   0.427   4.421
 8490TIP3    H125434   1.164   0.513   4.397
 8490TIP3    H225435   1.205   0.371   4.428
 8491TIP3   OH225436   1.477   1.109   1.979
 8491TIP3    H125437   1.439   1.027   2.010
 8491TIP3    H225438   1.424   1.177   2.020
 8492TIP3   OH225439   6.899   1.409   4.477
 8492TIP3    H125440   6.949   1.479   4.435
 8492TIP3    H225441   6.957   1.375   4.545
 8493TIP3   OH225442   5.523   0.571   3.384
 8493TIP3    H125443   5.501   0.597   3.294
 8493TIP3    H225444   5.585   0.500   3.374
 8494TIP3   OH225445   0.084   2.209   0.494
 8494TIP3    H125446   0.115   2.255   0.415
 8494TIP3    H225447   0.014   2.152   0.462
 8495TIP3   OH225448   3.951   0.070   4.254
 8495TIP3    H125449   3.934   0.132   4.183
 8495TIP3    H225450   3.915  -0.013   4.223
 8496TIP3   OH225451   3.980   4.005   3.565
 8496TIP3    H125452   3.965   4.050   3.482
 8496TIP3    H225453   4.054   3.947   3.548
 8497TIP3   OH225454   3.253   2.518   3.150
 8497TIP3    H125455   3.178   2.567   3.116
 8497TIP3    H225456   3.329   2.568   3.121
 8498TIP3   OH225457   5.945   6.285   1.991
 8498TIP3    H125458   6.021   6.276   1.934
 8498TIP3    H225459   5.894   6.357   1.952
 8499TIP3   OH225460   0.895   6.654   1.809
 8499TIP3    H125461   0.931   6.736   1.774
 8499TIP3    H225462   0.971   6.598   1.822
 8500TIP3   OH225463   5.615   1.608   2.185
 8500TIP3    H125464   5.524   1.626   2.162
 8500TIP3    H225465   5.666   1.654   2.119
 8501TIP3   OH225466   4.487   3.885   4.913
 8501TIP3    H125467   4.480   3.815   4.978
 8501TIP3    H225468   4.580   3.890   4.892
 8502TIP3   OH225469   2.056   2.552   0.203
 8502TIP3    H125470   2.107   2.529   0.126
 8502TIP3    H225471   1.984   2.605   0.169
 8503TIP3   OH225472   5.656   3.589   0.725
 8503TIP3    H125473   5.618   3.668   0.685
 8503TIP3    H225474   5.606   3.578   0.806
 8504TIP3   OH225475   5.915   5.911   0.453
 8504TIP3    H125476   5.923   5.915   0.357
 8504TIP3    H225477   6.002   5.936   0.484
 8505TIP3   OH225478   6.004   5.416   5.121
 8505TIP3    H125479   6.014   5.479   5.193
 8505TIP3    H225480   6.078   5.435   5.063
 8506TIP3   OH225481   3.938   2.332   4.094
 8506TIP3    H125482   3.860   2.330   4.149
 8506TIP3    H225483   3.995   2.397   4.136
 8507TIP3   OH225484   4.531   3.692   5.114
 8507TIP3    H125485   4.546   3.687   5.209
 8507TIP3    H225486   4.619   3.693   5.077
 8508TIP3   OH225487   3.433   3.456   3.148
 8508TIP3    H125488   3.507   3.429   3.094
 8508TIP3    H225489   3.359   3.461   3.088
 8509TIP3   OH225490   3.428   1.529   0.365
 8509TIP3    H125491   3.375   1.573   0.431
 8509TIP3    H225492   3.382   1.547   0.282
 8510TIP3   OH225493   3.849   1.962   2.416
 8510TIP3    H125494   3.779   1.987   2.355
 8510TIP3    H225495   3.808   1.897   2.473
 8511TIP3   OH225496   5.429   6.689   2.070
 8511TIP3    H125497   5.446   6.694   1.975
 8511TIP3    H225498   5.444   6.778   2.101
 8512TIP3   OH225499   0.762   1.702   2.922
 8512TIP3    H125500   0.759   1.793   2.949
 8512TIP3    H225501   0.706   1.698   2.844
 8513TIP3   OH225502   0.031   4.879   3.620
 8513TIP3    H125503   0.025   4.801   3.565
 8513TIP3    H225504   0.117   4.873   3.662
 8514TIP3   OH225505   0.756   1.143   2.578
 8514TIP3    H125506   0.829   1.143   2.515
 8514TIP3    H225507   0.748   1.051   2.605
 8515TIP3   OH225508   4.832   0.579   1.786
 8515TIP3    H125509   4.820   0.501   1.732
 8515TIP3    H225510   4.906   0.556   1.843
 8516TIP3   OH225511   2.720   1.662   0.432
 8516TIP3    H125512   2.757   1.606   0.364
 8516TIP3    H225513   2.749   1.623   0.514
 8517TIP3   OH225514   4.962   6.456   3.624
 8517TIP3    H125515   4.932   6.520   3.689
 8517TIP3    H225516   5.026   6.403   3.671
 8518TIP3   OH225517   5.667   1.586   1.322
 8518TIP3    H125518   5.715   1.535   1.387
 8518TIP3    H225519   5.712   1.568   1.239
 8519TIP3   OH225520   3.805   5.745   3.588
 8519TIP3    H125521   3.786   5.821   3.533
 8519TIP3    H225522   3.899   5.748   3.602
 8520TIP3   OH225523   1.220   3.588   5.004
 8520TIP3    H125524   1.187   3.554   5.087
 8520TIP3    H225525   1.204   3.682   5.009
 8521TIP3   OH225526   5.718   6.772   1.993
 8521TIP3    H125527   5.696   6.848   2.048
 8521TIP3    H225528   5.775   6.718   2.048
 8522TIP3   OH225529   2.430   1.767   4.494
 8522TIP3    H125530   2.522   1.769   4.466
 8522TIP3    H225531   2.430   1.807   4.580
 8523TIP3   OH225532   1.900   3.785   5.388
 8523TIP3    H125533   1.850   3.860   5.354
 8523TIP3    H225534   1.949   3.822   5.461
 8524TIP3   OH225535   1.081   6.549   1.242
 8524TIP3    H125536   1.065   6.561   1.335
 8524TIP3    H225537   1.121   6.462   1.235
 8525TIP3   OH225538   1.900   2.103   5.020
 8525TIP3    H125539   1.953   2.126   4.944
 8525TIP3    H225540   1.818   2.152   5.007
 8526TIP3   OH225541   0.345   2.661   2.658
 8526TIP3    H125542   0.281   2.690   2.724
 8526TIP3    H225543   0.418   2.722   2.668
 8527TIP3   OH225544   0.302   3.736   3.601
 8527TIP3    H125545   0.235   3.670   3.620
 8527TIP3    H225546   0.305   3.740   3.505
 8528TIP3   OH225547   0.248   3.406   3.244
 8528TIP3    H125548   0.276   3.451   3.324
 8528TIP3    H225549   0.163   3.444   3.224
 8529TIP3   OH225550   3.824   0.029   2.951
 8529TIP3    H125551   3.849   0.014   2.860
 8529TIP3    H225552   3.864  -0.043   3.000
 8530TIP3   OH225553   1.878   6.471   1.642
 8530TIP3    H125554   1.926   6.554   1.643
 8530TIP3    H225555   1.785   6.497   1.637
 8531TIP3   OH225556   1.579   0.216   3.057
 8531TIP3    H125557   1.501   0.197   3.005
 8531TIP3    H225558   1.591   0.137   3.111
 8532TIP3   OH225559   7.245   1.851   1.509
 8532TIP3    H125560   7.193   1.900   1.572
 8532TIP3    H225561   7.268   1.770   1.554
 8533TIP3   OH225562   4.870   5.473   4.599
 8533TIP3    H125563   4.921   5.504   4.675
 8533TIP3    H225564   4.879   5.543   4.535
 8534TIP3   OH225565   2.280   4.345   0.146
 8534TIP3    H125566   2.347   4.331   0.080
 8534TIP3    H225567   2.307   4.293   0.221
 8535TIP3   OH225568   1.541   3.659   4.805
 8535TIP3    H125569   1.624   3.663   4.757
 8535TIP3    H225570   1.566   3.676   4.896
 8536TIP3   OH225571   5.178   3.262   1.009
 8536TIP3    H125572   5.101   3.221   1.050
 8536TIP3    H225573   5.246   3.195   1.015
 8537TIP3   OH225574   6.707   3.744   3.263
 8537TIP3    H125575   6.642   3.675   3.276
 8537TIP3    H225576   6.711   3.755   3.168
 8538TIP3   OH225577   0.945   6.616   5.421
 8538TIP3    H125578   0.898   6.699   5.410
 8538TIP3    H225579   0.962   6.611   5.515
 8539TIP3   OH225580   0.379   6.702   4.802
 8539TIP3    H125581   0.458   6.692   4.748
 8539TIP3    H225582   0.351   6.612   4.819
 8540TIP3   OH225583   3.483   6.046   0.314
 8540TIP3    H125584   3.526   6.131   0.321
 8540TIP3    H225585   3.474   6.016   0.404
 8541TIP3   OH225586   6.577   3.919   2.151
 8541TIP3    H125587   6.645   3.982   2.176
 8541TIP3    H225588   6.616   3.833   2.169
 8542TIP3   OH225589   2.593   6.088   0.782
 8542TIP3    H125590   2.564   6.133   0.703
 8542TIP3    H225591   2.534   6.014   0.791
 8543TIP3   OH225592   5.088   0.456   1.288
 8543TIP3    H125593   5.044   0.498   1.362
 8543TIP3    H225594   5.065   0.364   1.295
 8544TIP3   OH225595   1.181   3.449   0.160
 8544TIP3    H125596   1.230   3.445   0.243
 8544TIP3    H225597   1.226   3.517   0.110
 8545TIP3   OH225598   3.199   2.260   4.980
 8545TIP3    H125599   3.227   2.310   5.057
 8545TIP3    H225600   3.173   2.175   5.015
 8546TIP3   OH225601   1.153   3.999   4.491
 8546TIP3    H125602   1.161   3.996   4.396
 8546TIP3    H225603   1.235   4.039   4.521
 8547TIP3   OH225604   4.614   0.309   2.601
 8547TIP3    H125605   4.641   0.377   2.663
 8547TIP3    H225606   4.523   0.290   2.624
 8548TIP3   OH225607   5.578   3.565   3.226
 8548TIP3    H125608   5.575   3.573   3.321
 8548TIP3    H225609   5.509   3.502   3.205
 8549TIP3   OH225610   6.309   3.177   3.139
 8549TIP3    H125611   6.297   3.245   3.073
 8549TIP3    H225612   6.228   3.179   3.191
 8550TIP3   OH225613   6.914   6.715   2.007
 8550TIP3    H125614   6.876   6.628   1.997
 8550TIP3    H225615   6.964   6.729   1.927
 8551TIP3   OH225616   4.552   4.582   4.540
 8551TIP3    H125617   4.595   4.497   4.550
 8551TIP3    H225618   4.580   4.632   4.616
 8552TIP3   OH225619   1.684   0.078   1.594
 8552TIP3    H125620   1.626   0.147   1.561
 8552TIP3    H225621   1.638  -0.004   1.575
 8553TIP3   OH225622   4.397   5.443   1.108
 8553TIP3    H125623   4.321   5.395   1.143
 8553TIP3    H225624   4.450   5.376   1.065
 8554TIP3   OH225625   5.393   6.572   1.164
 8554TIP3    H125626   5.376   6.558   1.257
 8554TIP3    H225627   5.354   6.658   1.145
 8555TIP3   OH225628   1.207   4.172   3.917
 8555TIP3    H125629   1.231   4.126   3.837
 8555TIP3    H225630   1.284   4.165   3.973
 8556TIP3   OH225631   3.118   3.214   3.463
 8556TIP3    H125632   3.145   3.209   3.372
 8556TIP3    H225633   3.042   3.272   3.463
 8557TIP3   OH225634   3.243   5.260   0.469
 8557TIP3    H125635   3.302   5.312   0.415
 8557TIP3    H225636   3.168   5.317   0.485
 8558TIP3   OH225637   3.271   4.038   5.453
 8558TIP3    H125638   3.181   4.011   5.470
 8558TIP3    H225639   3.277   4.044   5.358
 8559TIP3   OH225640   6.252   1.618   3.472
 8559TIP3    H125641   6.254   1.695   3.415
 8559TIP3    H225642   6.159   1.599   3.485
 8560TIP3   OH225643   6.266   2.911   5.605
 8560TIP3    H125644   6.269   2.912   5.509
 8560TIP3    H225645   6.358   2.916   5.632
 8561TIP3   OH225646   3.423   2.789   2.874
 8561TIP3    H125647   3.495   2.853   2.872
 8561TIP3    H225648   3.432   2.745   2.959
 8562TIP3   OH225649   6.089   5.568   0.401
 8562TIP3    H125650   6.139   5.568   0.482
 8562TIP3    H225651   6.004   5.606   0.425
 8563TIP3   OH225652   3.226   0.480   4.194
 8563TIP3    H125653   3.310   0.527   4.195
 8563TIP3    H225654   3.202   0.476   4.102
 8564TIP3   OH225655   2.781   3.910   2.906
 8564TIP3    H125656   2.738   3.829   2.933
 8564TIP3    H225657   2.742   3.932   2.822
 8565TIP3   OH225658   1.554   0.666   0.388
 8565TIP3    H125659   1.607   0.669   0.467
 8565TIP3    H225660   1.463   0.671   0.419
 8566TIP3   OH225661   2.511   2.842   0.392
 8566TIP3    H125662   2.576   2.813   0.328
 8566TIP3    H225663   2.548   2.921   0.430
 8567TIP3   OH225664   5.815   0.845   1.985
 8567TIP3    H125665   5.777   0.858   1.898
 8567TIP3    H225666   5.850   0.931   2.009
 8568TIP3   OH225667   4.877   1.018   5.764
 8568TIP3    H125668   4.896   0.928   5.789
 8568TIP3    H225669   4.841   1.058   5.843
 8569TIP3   OH225670   3.327   1.975   4.652
 8569TIP3    H125671   3.387   1.905   4.625
 8569TIP3    H225672   3.253   1.930   4.691
 8570TIP3   OH225673   4.067   0.648   2.489
 8570TIP3    H125674   4.002   0.644   2.559
 8570TIP3    H225675   4.145   0.606   2.526
 8571TIP3   OH225676   1.718   3.905   0.333
 8571TIP3    H125677   1.685   3.823   0.297
 8571TIP3    H225678   1.777   3.877   0.404
 8572TIP3   OH225679   5.430   0.658   4.327
 8572TIP3    H125680   5.418   0.582   4.270
 8572TIP3    H225681   5.366   0.646   4.397
 8573TIP3   OH225682   0.793   1.852   1.556
 8573TIP3    H125683   0.790   1.811   1.642
 8573TIP3    H225684   0.860   1.804   1.508
 8574TIP3   OH225685   1.813   5.302   0.986
 8574TIP3    H125686   1.807   5.369   0.918
 8574TIP3    H225687   1.742   5.323   1.047
 8575TIP3   OH225688   1.057   2.206   4.025
 8575TIP3    H125689   1.070   2.264   4.100
 8575TIP3    H225690   0.962   2.201   4.014
 8576TIP3   OH225691   0.637   3.486   5.101
 8576TIP3    H125692   0.687   3.431   5.041
 8576TIP3    H225693   0.623   3.568   5.054
 8577TIP3   OH225694   5.069   2.804   3.268
 8577TIP3    H125695   5.131   2.751   3.219
 8577TIP3    H225696   5.118   2.881   3.295
 8578TIP3   OH225697   1.055   3.912   1.685
 8578TIP3    H125698   1.020   3.900   1.773
 8578TIP3    H225699   1.018   3.839   1.635
 8579TIP3   OH225700   6.877   2.444   5.688
 8579TIP3    H125701   6.819   2.515   5.661
 8579TIP3    H225702   6.906   2.405   5.606
 8580TIP3   OH225703   5.176   3.388   2.424
 8580TIP3    H125704   5.234   3.334   2.369
 8580TIP3    H225705   5.145   3.328   2.491
 8581TIP3   OH225706   0.514   1.414   3.156
 8581TIP3    H125707   0.604   1.405   3.187
 8581TIP3    H225708   0.510   1.359   3.078
 8582TIP3   OH225709   2.928   0.700   3.851
 8582TIP3    H125710   2.944   0.666   3.939
 8582TIP3    H225711   3.006   0.751   3.831
 8583TIP3   OH225712   5.026   6.789   4.119
 8583TIP3    H125713   4.954   6.815   4.176
 8583TIP3    H225714   5.037   6.863   4.059
 8584TIP3   OH225715   0.347   4.016   2.265
 8584TIP3    H125716   0.309   3.965   2.336
 8584TIP3    H225717   0.349   3.956   2.190
 8585TIP3   OH225718   5.148   2.429   0.395
 8585TIP3    H125719   5.100   2.437   0.477
 8585TIP3    H225720   5.137   2.338   0.369
 8586TIP3   OH225721   2.045   5.638   0.451
 8586TIP3    H125722   1.957   5.675   0.435
 8586TIP3    H225723   2.076   5.613   0.365
 8587TIP3   OH225724   3.140   3.818   4.291
 8587TIP3    H125725   3.121   3.887   4.228
 8587TIP3    H225726   3.236   3.822   4.301
 8588TIP3   OH225727   2.613   3.851   2.677
 8588TIP3    H125728   2.566   3.865   2.759
 8588TIP3    H225729   2.596   3.759   2.655
 8589TIP3   OH225730   4.189   4.047   0.206
 8589TIP3    H125731   4.121   3.981   0.186
 8589TIP3    H225732   4.150   4.101   0.274
 8590TIP3   OH225733   5.198   2.609   3.101
 8590TIP3    H125734   5.126   2.644   3.049
 8590TIP3    H225735   5.208   2.519   3.072
 8591TIP3   OH225736   2.219   3.600   0.290
 8591TIP3    H125737   2.191   3.621   0.380
 8591TIP3    H225738   2.137   3.593   0.241
 8592TIP3   OH225739   2.324   6.230   5.830
 8592TIP3    H125740   2.290   6.208   5.743
 8592TIP3    H225741   2.253   6.209   5.890
 8593TIP3   OH225742   4.145   1.962   3.685
 8593TIP3    H125743   4.181   2.019   3.753
 8593TIP3    H225744   4.089   2.019   3.632
 8594TIP3   OH225745   2.306   0.654   5.181
 8594TIP3    H125746   2.396   0.663   5.212
 8594TIP3    H225747   2.314   0.646   5.086
 8595TIP3   OH225748   5.567   4.871   4.741
 8595TIP3    H125749   5.516   4.790   4.749
 8595TIP3    H225750   5.617   4.876   4.822
 8596TIP3   OH225751   6.175   6.641   5.869
 8596TIP3    H125752   6.151   6.549   5.880
 8596TIP3    H225753   6.269   6.639   5.852
 8597TIP3   OH225754   1.014   3.287   5.040
 8597TIP3    H125755   1.060   3.317   4.961
 8597TIP3    H225756   0.989   3.367   5.086
 8598TIP3   OH225757   0.506   0.147   2.089
 8598TIP3    H125758   0.414   0.164   2.072
 8598TIP3    H225759   0.551   0.174   2.009
 8599TIP3   OH225760   4.521   1.754   5.742
 8599TIP3    H125761   4.494   1.834   5.696
 8599TIP3    H225762   4.536   1.783   5.832
 8600TIP3   OH225763   0.551   5.358   2.655
 8600TIP3    H125764   0.645   5.364   2.643
 8600TIP3    H225765   0.526   5.274   2.617
 8601TIP3   OH225766   3.806   3.806   2.257
 8601TIP3    H125767   3.866   3.804   2.182
 8601TIP3    H225768   3.808   3.898   2.286
 8602TIP3   OH225769   5.296   3.519   3.833
 8602TIP3    H125770   5.286   3.496   3.740
 8602TIP3    H225771   5.380   3.480   3.858
 8603TIP3   OH225772   3.240   4.311   5.415
 8603TIP3    H125773   3.216   4.225   5.450
 8603TIP3    H225774   3.256   4.296   5.322
 8604TIP3   OH225775   5.663   6.165   0.180
 8604TIP3    H125776   5.657   6.130   0.091
 8604TIP3    H225777   5.744   6.126   0.215
 8605TIP3   OH225778   2.571   0.312   1.570
 8605TIP3    H125779   2.553   0.386   1.513
 8605TIP3    H225780   2.619   0.250   1.515
 8606TIP3   OH225781   2.645   6.065   3.624
 8606TIP3    H125782   2.589   6.048   3.548
 8606TIP3    H225783   2.585   6.086   3.695
 8607TIP3   OH225784   6.049   6.438   3.090
 8607TIP3    H125785   6.102   6.514   3.063
 8607TIP3    H225786   6.023   6.396   3.008
 8608TIP3   OH225787   6.856   6.681   4.269
 8608TIP3    H125788   6.825   6.771   4.277
 8608TIP3    H225789   6.835   6.656   4.178
 8609TIP3   OH225790   6.413   2.230   1.458
 8609TIP3    H125791   6.394   2.243   1.551
 8609TIP3    H225792   6.337   2.265   1.413
 8610TIP3   OH225793   1.347   4.850   0.858
 8610TIP3    H125794   1.351   4.763   0.898
 8610TIP3    H225795   1.325   4.834   0.767
 8611TIP3   OH225796   5.736   0.254   4.694
 8611TIP3    H125797   5.775   0.302   4.621
 8611TIP3    H225798   5.809   0.207   4.734
 8612TIP3   OH225799   5.226   2.487   2.050
 8612TIP3    H125800   5.260   2.408   2.093
 8612TIP3    H225801   5.305   2.539   2.030
 8613TIP3   OH225802   4.382   3.388   5.263
 8613TIP3    H125803   4.382   3.423   5.174
 8613TIP3    H225804   4.337   3.455   5.315
 8614TIP3   OH225805   6.195   3.501   1.905
 8614TIP3    H125806   6.161   3.568   1.965
 8614TIP3    H225807   6.267   3.460   1.954
 8615TIP3   OH225808   6.742   2.321   5.113
 8615TIP3    H125809   6.751   2.408   5.154
 8615TIP3    H225810   6.683   2.335   5.040
 8616TIP3   OH225811   5.453   3.795   5.203
 8616TIP3    H125812   5.530   3.758   5.160
 8616TIP3    H225813   5.397   3.823   5.130
 8617TIP3   OH225814   0.247   4.300   5.800
 8617TIP3    H125815   0.159   4.337   5.803
 8617TIP3    H225816   0.281   4.324   5.714
 8618TIP3   OH225817   6.046   0.321   1.746
 8618TIP3    H125818   5.980   0.363   1.691
 8618TIP3    H225819   6.091   0.260   1.688
 8619TIP3   OH225820   1.966   4.888   1.471
 8619TIP3    H125821   1.982   4.803   1.511
 8619TIP3    H225822   1.967   4.870   1.377
 8620TIP3   OH225823   0.203   3.670   4.078
 8620TIP3    H125824   0.233   3.751   4.035
 8620TIP3    H225825   0.234   3.600   4.020
 8621TIP3   OH225826   2.727   6.504   5.324
 8621TIP3    H125827   2.669   6.526   5.251
 8621TIP3    H225828   2.770   6.587   5.346
 8622TIP3   OH225829   5.333   2.236   2.749
 8622TIP3    H125830   5.394   2.183   2.799
 8622TIP3    H225831   5.254   2.183   2.742
 8623TIP3   OH225832   3.942   2.010   2.059
 8623TIP3    H125833   3.926   1.934   2.114
 8623TIP3    H225834   3.974   1.974   1.976
 8624TIP3   OH225835   5.608   5.908   4.142
 8624TIP3    H125836   5.564   5.898   4.226
 8624TIP3    H225837   5.536   5.921   4.079
 8625TIP3   OH225838   7.041   3.638   0.936
 8625TIP3    H125839   7.036   3.674   0.847
 8625TIP3    H225840   7.134   3.639   0.958
 8626TIP3   OH225841   4.153   2.548   0.353
 8626TIP3    H125842   4.085   2.513   0.294
 8626TIP3    H225843   4.104   2.582   0.428
 8627TIP3   OH225844   5.495   4.160   4.256
 8627TIP3    H125845   5.585   4.192   4.261
 8627TIP3    H225846   5.450   4.221   4.197
 8628TIP3   OH225847   6.020   2.813   5.258
 8628TIP3    H125848   5.999   2.723   5.235
 8628TIP3    H225849   6.010   2.862   5.176
 8629TIP3   OH225850   5.848   2.108   3.874
 8629TIP3    H125851   5.892   2.024   3.886
 8629TIP3    H225852   5.919   2.170   3.858
 8630TIP3   OH225853   2.617   1.055   0.739
 8630TIP3    H125854   2.624   1.080   0.831
 8630TIP3    H225855   2.680   0.984   0.729
 8631TIP3   OH225856   2.431   0.814   2.393
 8631TIP3    H125857   2.463   0.828   2.482
 8631TIP3    H225858   2.423   0.719   2.385
 8632TIP3   OH225859   7.136   6.450   5.534
 8632TIP3    H125860   7.140   6.533   5.485
 8632TIP3    H225861   7.061   6.461   5.593
 8633TIP3   OH225862   5.404   2.023   5.392
 8633TIP3    H125863   5.372   2.091   5.452
 8633TIP3    H225864   5.438   1.955   5.449
 8634TIP3   OH225865   1.493   2.921   1.874
 8634TIP3    H125866   1.471   2.910   1.967
 8634TIP3    H225867   1.516   3.014   1.866
 8635TIP3   OH225868   4.835   3.485   5.575
 8635TIP3    H125869   4.917   3.495   5.527
 8635TIP3    H225870   4.816   3.573   5.609
 8636TIP3   OH225871   2.270   4.953   5.253
 8636TIP3    H125872   2.359   4.919   5.263
 8636TIP3    H225873   2.241   4.971   5.342
 8637TIP3   OH225874   1.906   0.239   0.622
 8637TIP3    H125875   1.933   0.161   0.574
 8637TIP3    H225876   1.821   0.215   0.660
 8638TIP3   OH225877   2.493   5.174   0.740
 8638TIP3    H125878   2.565   5.223   0.700
 8638TIP3    H225879   2.531   5.136   0.819
 8639TIP3   OH225880   7.019   4.748   1.123
 8639TIP3    H125881   7.083   4.816   1.144
 8639TIP3    H225882   7.054   4.669   1.165
 8640TIP3   OH225883   6.517   1.056   1.695
 8640TIP3    H125884   6.521   1.121   1.765
 8640TIP3    H225885   6.533   0.972   1.738
 8641TIP3   OH225886   3.893   1.736   2.585
 8641TIP3    H125887   3.927   1.795   2.652
 8641TIP3    H225888   3.970   1.702   2.540
 8642TIP3   OH225889   7.041   4.015   3.645
 8642TIP3    H125890   7.058   4.076   3.573
 8642TIP3    H225891   7.122   4.013   3.695
 8643TIP3   OH225892   5.298   1.931   5.125
 8643TIP3    H125893   5.213   1.945   5.082
 8643TIP3    H225894   5.288   1.971   5.211
 8644TIP3   OH225895   2.328   2.670   3.974
 8644TIP3    H125896   2.303   2.602   3.912
 8644TIP3    H225897   2.296   2.751   3.935
 8645TIP3   OH225898   4.835   0.927   3.358
 8645TIP3    H125899   4.800   0.915   3.269
 8645TIP3    H225900   4.827   1.021   3.374
 8646TIP3   OH225901   3.771   1.043   3.899
 8646TIP3    H125902   3.848   0.993   3.925
 8646TIP3    H225903   3.733   1.074   3.981
 8647TIP3   OH225904   2.520   0.754   0.413
 8647TIP3    H125905   2.501   0.827   0.354
 8647TIP3    H225906   2.488   0.783   0.498
 8648TIP3   OH225907   5.061   0.766   5.514
 8648TIP3    H125908   5.057   0.759   5.609
 8648TIP3    H225909   5.153   0.785   5.495
 8649TIP3   OH225910   2.179   6.028   4.108
 8649TIP3    H125911   2.100   6.076   4.084
 8649TIP3    H225912   2.162   5.998   4.198
 8650TIP3   OH225913   5.689   5.650   1.725
 8650TIP3    H125914   5.613   5.677   1.777
 8650TIP3    H225915   5.684   5.703   1.646
 8651TIP3   OH225916   2.356   2.314   0.543
 8651TIP3    H125917   2.319   2.305   0.631
 8651TIP3    H225918   2.450   2.312   0.556
 8652TIP3   OH225919   0.278   5.697   5.655
 8652TIP3    H125920   0.316   5.622   5.701
 8652TIP3    H225921   0.248   5.662   5.571
 8653TIP3   OH225922   5.096   1.285   3.810
 8653TIP3    H125923   5.001   1.287   3.802
 8653TIP3    H225924   5.116   1.351   3.877
 8654TIP3   OH225925   3.899   5.876   2.562
 8654TIP3    H125926   3.887   5.919   2.647
 8654TIP3    H225927   3.815   5.887   2.518
 8655TIP3   OH225928   6.853   0.895   4.313
 8655TIP3    H125929   6.805   0.813   4.325
 8655TIP3    H225930   6.924   0.874   4.253
 8656TIP3   OH225931   2.298   0.697   4.448
 8656TIP3    H125932   2.282   0.781   4.406
 8656TIP3    H225933   2.387   0.704   4.482
 8657TIP3   OH225934   6.636   4.899   0.499
 8657TIP3    H125935   6.647   4.911   0.405
 8657TIP3    H225936   6.664   4.809   0.515
 8658TIP3   OH225937   0.736   5.072   5.214
 8658TIP3    H125938   0.746   5.157   5.256
 8658TIP3    H225939   0.783   5.011   5.272
 8659TIP3   OH225940   0.494   6.039   1.949
 8659TIP3    H125941   0.451   6.029   1.864
 8659TIP3    H225942   0.525   6.130   1.949
 8660TIP3   OH225943   0.284   1.871   4.370
 8660TIP3    H125944   0.301   1.957   4.332
 8660TIP3    H225945   0.336   1.871   4.451
 8661TIP3   OH225946   0.917   6.412   2.376
 8661TIP3    H125947   0.827   6.442   2.360
 8661TIP3    H225948   0.907   6.335   2.432
 8662TIP3   OH225949   4.414   0.532   3.945
 8662TIP3    H125950   4.470   0.454   3.944
 8662TIP3    H225951   4.457   0.593   3.885
 8663TIP3   OH225952   3.810   3.082   3.168
 8663TIP3    H125953   3.827   3.074   3.074
 8663TIP3    H225954   3.788   3.175   3.180
 8664TIP3   OH225955   6.929   4.304   0.682
 8664TIP3    H125956   7.023   4.291   0.671
 8664TIP3    H225957   6.917   4.317   0.776
 8665TIP3   OH225958   5.640   6.414   4.655
 8665TIP3    H125959   5.694   6.386   4.582
 8665TIP3    H225960   5.658   6.508   4.664
 8666TIP3   OH225961   0.679   0.424   0.286
 8666TIP3    H125962   0.749   0.421   0.352
 8666TIP3    H225963   0.710   0.368   0.215
 8667TIP3   OH225964   1.254   1.644   1.401
 8667TIP3    H125965   1.244   1.556   1.438
 8667TIP3    H225966   1.348   1.658   1.395
 8668TIP3   OH225967   7.069   2.987   2.436
 8668TIP3    H125968   7.060   3.043   2.359
 8668TIP3    H225969   6.988   3.001   2.486
 8669TIP3   OH225970   1.104   1.062   5.224
 8669TIP3    H125971   1.174   1.029   5.167
 8669TIP3    H225972   1.145   1.067   5.311
 8670TIP3   OH225973   2.708   3.094   3.707
 8670TIP3    H125974   2.653   3.072   3.783
 8670TIP3    H225975   2.725   3.187   3.716
 8671TIP3   OH225976   4.096   4.377   0.569
 8671TIP3    H125977   4.120   4.369   0.661
 8671TIP3    H225978   4.001   4.367   0.568
 8672TIP3   OH225979   3.852   5.257   1.020
 8672TIP3    H125980   3.796   5.333   1.028
 8672TIP3    H225981   3.792   5.183   1.014
 8673TIP3   OH225982   0.289   3.342   2.757
 8673TIP3    H125983   0.375   3.382   2.767
 8673TIP3    H225984   0.301   3.279   2.686
 8674TIP3   OH225985   0.440   1.506   3.851
 8674TIP3    H125986   0.447   1.525   3.758
 8674TIP3    H225987   0.349   1.479   3.863
 8675TIP3   OH225988   3.261   3.230   4.602
 8675TIP3    H125989   3.247   3.135   4.608
 8675TIP3    H225990   3.349   3.243   4.638
 8676TIP3   OH225991   4.238   2.800   0.995
 8676TIP3    H125992   4.256   2.771   1.085
 8676TIP3    H225993   4.319   2.782   0.948
 8677TIP3   OH225994   0.973   2.915   5.424
 8677TIP3    H125995   0.975   2.905   5.519
 8677TIP3    H225996   0.893   2.963   5.406
 8678TIP3   OH225997   3.483   6.530   4.158
 8678TIP3    H125998   3.566   6.489   4.184
 8678TIP3    H225999   3.417   6.462   4.171
 8679TIP3   OH226000   0.307   5.963   5.577
 8679TIP3    H126001   0.380   6.018   5.604
 8679TIP3    H226002   0.322   5.879   5.620
 8680TIP3   OH226003   5.953   3.558   0.991
 8680TIP3    H126004   5.967   3.534   0.900
 8680TIP3    H226005   6.022   3.622   1.010
 8681TIP3   OH226006   5.774   2.000   5.341
 8681TIP3    H126007   5.766   1.945   5.419
 8681TIP3    H226008   5.730   1.951   5.272
 8682TIP3   OH226009   4.322   3.499   3.913
 8682TIP3    H126010   4.379   3.462   3.845
 8682TIP3    H226011   4.372   3.490   3.994
 8683TIP3   OH226012   3.422   4.179   4.760
 8683TIP3    H126013   3.507   4.142   4.737
 8683TIP3    H226014   3.437   4.229   4.839
 8684TIP3   OH226015   4.938   6.256   1.116
 8684TIP3    H126016   4.879   6.183   1.138
 8684TIP3    H226017   5.014   6.243   1.172
 8685TIP3   OH226018   7.070   2.747   1.255
 8685TIP3    H126019   7.096   2.677   1.195
 8685TIP3    H226020   7.134   2.816   1.242
 8686TIP3   OH226021   2.102   5.233   4.972
 8686TIP3    H126022   2.072   5.159   4.920
 8686TIP3    H226023   2.196   5.221   4.979
 8687TIP3   OH226024   2.976   3.533   0.733
 8687TIP3    H126025   2.924   3.453   0.732
 8687TIP3    H226026   3.012   3.537   0.822
 8688TIP3   OH226027   2.469   3.299   2.161
 8688TIP3    H126028   2.499   3.209   2.153
 8688TIP3    H226029   2.536   3.344   2.212
 8689TIP3   OH226030   5.871   4.683   5.028
 8689TIP3    H126031   5.875   4.766   5.076
 8689TIP3    H226032   5.879   4.616   5.096
 8690TIP3   OH226033   4.245   2.816   0.636
 8690TIP3    H126034   4.154   2.797   0.614
 8690TIP3    H226035   4.270   2.746   0.696
 8691TIP3   OH226036   3.162   2.499   2.203
 8691TIP3    H126037   3.145   2.478   2.294
 8691TIP3    H226038   3.245   2.547   2.204
 8692TIP3   OH226039   7.171   6.089   1.598
 8692TIP3    H126040   7.113   6.137   1.539
 8692TIP3    H226041   7.153   5.997   1.580
 8693TIP3   OH226042   2.814   4.687   1.708
 8693TIP3    H126043   2.745   4.626   1.681
 8693TIP3    H226044   2.858   4.642   1.780
 8694TIP3   OH226045   3.603   6.296   0.278
 8694TIP3    H126046   3.654   6.324   0.354
 8694TIP3    H226047   3.634   6.351   0.207
 8695TIP3   OH226048   1.565   5.242   1.704
 8695TIP3    H126049   1.534   5.302   1.772
 8695TIP3    H226050   1.550   5.155   1.740
 8696TIP3   OH226051   6.884   2.119   0.610
 8696TIP3    H126052   6.911   2.162   0.691
 8696TIP3    H226053   6.809   2.064   0.636
 8697TIP3   OH226054   6.216   2.016   5.650
 8697TIP3    H126055   6.199   2.105   5.619
 8697TIP3    H226056   6.178   1.960   5.582
 8698TIP3   OH226057   3.058   1.944   2.939
 8698TIP3    H126058   3.029   1.903   3.020
 8698TIP3    H226059   3.088   2.031   2.965
 8699TIP3   OH226060   6.427   2.564   5.621
 8699TIP3    H126061   6.368   2.492   5.597
 8699TIP3    H226062   6.405   2.634   5.559
 8700TIP3   OH226063   5.515   3.556   5.545
 8700TIP3    H126064   5.507   3.651   5.540
 8700TIP3    H226065   5.473   3.524   5.464
 8701TIP3   OH226066   5.782   1.475   0.093
 8701TIP3    H126067   5.723   1.402   0.074
 8701TIP3    H226068   5.864   1.451   0.049
 8702TIP3   OH226069   0.341   5.406   4.015
 8702TIP3    H126070   0.292   5.367   4.087
 8702TIP3    H226071   0.376   5.332   3.967
 8703TIP3   OH226072   6.559   0.079   4.871
 8703TIP3    H126073   6.617   0.116   4.937
 8703TIP3    H226074   6.482   0.136   4.873
 8704TIP3   OH226075   1.163   0.780   3.380
 8704TIP3    H126076   1.211   0.796   3.299
 8704TIP3    H226077   1.103   0.709   3.359
 8705TIP3   OH226078   3.187   5.427   3.413
 8705TIP3    H126079   3.169   5.359   3.479
 8705TIP3    H226080   3.282   5.438   3.415
 8706TIP3   OH226081   3.714   2.054   3.927
 8706TIP3    H126082   3.807   2.074   3.928
 8706TIP3    H226083   3.705   1.974   3.979
 8707TIP3   OH226084   4.803   4.089   5.564
 8707TIP3    H126085   4.794   4.128   5.477
 8707TIP3    H226086   4.857   4.011   5.550
 8708TIP3   OH226087   7.189   2.515   1.141
 8708TIP3    H126088   7.142   2.434   1.121
 8708TIP3    H226089   7.255   2.522   1.072
 8709TIP3   OH226090   4.475   2.435   5.675
 8709TIP3    H126091   4.472   2.505   5.740
 8709TIP3    H226092   4.383   2.418   5.654
 8710TIP3   OH226093   2.803   3.828   5.534
 8710TIP3    H126094   2.826   3.736   5.519
 8710TIP3    H226095   2.732   3.846   5.472
 8711TIP3   OH226096   4.490   2.970   1.962
 8711TIP3    H126097   4.544   3.037   1.920
 8711TIP3    H226098   4.551   2.900   1.983
 8712TIP3   OH226099   3.832   1.496   0.755
 8712TIP3    H126100   3.923   1.504   0.725
 8712TIP3    H226101   3.783   1.474   0.676
 8713TIP3   OH226102   4.324   0.122   0.149
 8713TIP3    H126103   4.410   0.099   0.183
 8713TIP3    H226104   4.337   0.127   0.054
 8714TIP3   OH226105   5.211   4.772   2.840
 8714TIP3    H126106   5.256   4.795   2.921
 8714TIP3    H226107   5.226   4.678   2.829
 8715TIP3   OH226108   3.395   3.946   1.129
 8715TIP3    H126109   3.478   3.936   1.082
 8715TIP3    H226110   3.329   3.917   1.066
 8716TIP3   OH226111   4.711   3.068   2.245
 8716TIP3    H126112   4.732   3.082   2.152
 8716TIP3    H226113   4.615   3.067   2.248
 8717TIP3   OH226114   4.202   2.351   5.409
 8717TIP3    H126115   4.193   2.408   5.333
 8717TIP3    H226116   4.122   2.365   5.460
 8718TIP3   OH226117   0.209   5.118   1.639
 8718TIP3    H126118   0.133   5.082   1.684
 8718TIP3    H226119   0.177   5.198   1.597
 8719TIP3   OH226120   5.118   2.044   1.526
 8719TIP3    H126121   5.059   2.053   1.450
 8719TIP3    H226122   5.184   2.113   1.513
 8720TIP3   OH226123   3.612   3.500   2.899
 8720TIP3    H126124   3.583   3.464   2.815
 8720TIP3    H226125   3.617   3.594   2.885
 8721TIP3   OH226126   3.605   0.898   5.551
 8721TIP3    H126127   3.618   0.919   5.644
 8721TIP3    H226128   3.619   0.981   5.506
 8722TIP3   OH226129   3.598   2.240   0.941
 8722TIP3    H126130   3.592   2.319   0.995
 8722TIP3    H226131   3.580   2.270   0.852
 8723TIP3   OH226132   0.148   0.555   1.935
 8723TIP3    H126133   0.072   0.500   1.954
 8723TIP3    H226134   0.129   0.592   1.848
 8724TIP3   OH226135   5.045   5.906   0.307
 8724TIP3    H126136   5.092   5.988   0.323
 8724TIP3    H226137   5.102   5.855   0.251
 8725TIP3   OH226138   2.224   1.337   4.029
 8725TIP3    H126139   2.300   1.360   3.976
 8725TIP3    H226140   2.187   1.259   3.986
 8726TIP3   OH226141   5.578   2.147   4.336
 8726TIP3    H126142   5.632   2.130   4.413
 8726TIP3    H226143   5.638   2.185   4.272
 8727TIP3   OH226144   1.106   4.701   2.066
 8727TIP3    H126145   1.019   4.662   2.056
 8727TIP3    H226146   1.125   4.693   2.160
 8728TIP3   OH226147   1.399   5.167   5.601
 8728TIP3    H126148   1.303   5.172   5.606
 8728TIP3    H226149   1.423   5.094   5.657
 8729TIP3   OH226150   6.848   0.456   1.207
 8729TIP3    H126151   6.793   0.518   1.160
 8729TIP3    H226152   6.788   0.391   1.242
 8730TIP3   OH226153   0.513   6.673   1.965
 8730TIP3    H126154   0.448   6.741   1.945
 8730TIP3    H226155   0.461   6.595   1.985
 8731TIP3   OH226156   3.139   3.367   0.507
 8731TIP3    H126157   3.062   3.405   0.466
 8731TIP3    H226158   3.133   3.395   0.599
 8732TIP3   OH226159   3.168   3.535   5.532
 8732TIP3    H126160   3.183   3.442   5.516
 8732TIP3    H226161   3.208   3.552   5.617
 8733TIP3   OH226162   6.702   5.896   4.994
 8733TIP3    H126163   6.633   5.940   4.944
 8733TIP3    H226164   6.783   5.919   4.949
 8734TIP3   OH226165   3.221   6.363   2.068
 8734TIP3    H126166   3.166   6.411   2.130
 8734TIP3    H226167   3.227   6.275   2.105
 8735TIP3   OH226168   1.826   4.889   0.048
 8735TIP3    H126169   1.790   4.974   0.074
 8735TIP3    H226170   1.783   4.869  -0.035
 8736TIP3   OH226171   0.308   5.033   2.055
 8736TIP3    H126172   0.218   5.055   2.081
 8736TIP3    H226173   0.362   5.057   2.130
 8737TIP3   OH226174   6.304   6.716   5.242
 8737TIP3    H126175   6.253   6.771   5.182
 8737TIP3    H226176   6.352   6.778   5.296
 8738TIP3   OH226177   4.371   1.147   1.547
 8738TIP3    H126178   4.342   1.220   1.493
 8738TIP3    H226179   4.359   1.177   1.637
 8739TIP3   OH226180   5.419   3.189   1.818
 8739TIP3    H126181   5.477   3.219   1.747
 8739TIP3    H226182   5.476   3.184   1.895
 8740TIP3   OH226183   6.348   5.888   1.877
 8740TIP3    H126184   6.349   5.900   1.972
 8740TIP3    H226185   6.425   5.834   1.859
 8741TIP3   OH226186   1.947   2.475   0.890
 8741TIP3    H126187   1.929   2.489   0.983
 8741TIP3    H226188   1.876   2.417   0.861
 8742TIP3   OH226189   5.838   0.681   5.005
 8742TIP3    H126190   5.875   0.594   5.018
 8742TIP3    H226191   5.908   0.741   5.033
 8743TIP3   OH226192   2.359   2.831   5.521
 8743TIP3    H126193   2.304   2.866   5.451
 8743TIP3    H226194   2.370   2.739   5.498
 8744TIP3   OH226195   6.513   1.832   0.777
 8744TIP3    H126196   6.484   1.919   0.804
 8744TIP3    H226197   6.444   1.773   0.811
 8745TIP3   OH226198   2.052   4.736   2.793
 8745TIP3    H126199   2.056   4.769   2.704
 8745TIP3    H226200   2.143   4.729   2.820
 8746TIP3   OH226201   6.786   1.808   4.218
 8746TIP3    H126202   6.767   1.889   4.266
 8746TIP3    H226203   6.749   1.738   4.272
 8747TIP3   OH226204   1.863   5.715   3.760
 8747TIP3    H126205   1.871   5.767   3.679
 8747TIP3    H226206   1.788   5.753   3.805
 8748TIP3   OH226207   4.200   3.211   3.736
 8748TIP3    H126208   4.146   3.225   3.815
 8748TIP3    H226209   4.271   3.153   3.766
 8749TIP3   OH226210   5.081   1.211   2.672
 8749TIP3    H126211   5.149   1.148   2.650
 8749TIP3    H226212   5.108   1.292   2.629
 8750TIP3   OH226213   4.653   2.133   4.103
 8750TIP3    H126214   4.566   2.131   4.064
 8750TIP3    H226215   4.713   2.125   4.029
 8751TIP3   OH226216   1.705   4.058   4.191
 8751TIP3    H126217   1.748   4.033   4.273
 8751TIP3    H226218   1.764   4.122   4.151
 8752TIP3   OH226219   5.784   5.303   0.493
 8752TIP3    H126220   5.742   5.364   0.433
 8752TIP3    H226221   5.851   5.259   0.440
 8753TIP3   OH226222   6.652   4.688   1.571
 8753TIP3    H126223   6.734   4.715   1.612
 8753TIP3    H226224   6.593   4.670   1.645
 8754TIP3   OH226225   6.362   1.291   0.057
 8754TIP3    H126226   6.286   1.262   0.108
 8754TIP3    H226227   6.437   1.258   0.105
 8755TIP3   OH226228   0.506   4.516   5.724
 8755TIP3    H126229   0.463   4.495   5.806
 8755TIP3    H226230   0.439   4.501   5.657
 8756TIP3   OH226231   3.459   1.754   4.654
 8756TIP3    H126232   3.552   1.734   4.649
 8756TIP3    H226233   3.422   1.686   4.710
 8757TIP3   OH226234   0.175   0.607   1.523
 8757TIP3    H126235   0.230   0.674   1.564
 8757TIP3    H226236   0.237   0.554   1.472
 8758TIP3   OH226237   3.393   4.613   0.794
 8758TIP3    H126238   3.388   4.545   0.861
 8758TIP3    H226239   3.479   4.653   0.806
 8759TIP3   OH226240   4.851   6.171   0.271
 8759TIP3    H126241   4.793   6.247   0.266
 8759TIP3    H226242   4.828   6.119   0.194
 8760TIP3   OH226243   0.684   6.112   1.571
 8760TIP3    H126244   0.666   6.197   1.610
 8760TIP3    H226245   0.676   6.126   1.477
 8761TIP3   OH226246   0.595   0.246   0.628
 8761TIP3    H126247   0.594   0.328   0.677
 8761TIP3    H226248   0.504   0.230   0.605
 8762TIP3   OH226249   6.605   3.179   5.700
 8762TIP3    H126250   6.628   3.202   5.610
 8762TIP3    H226251   6.685   3.196   5.750
 8763TIP3   OH226252   4.323   6.502   1.564
 8763TIP3    H126253   4.308   6.593   1.590
 8763TIP3    H226254   4.236   6.466   1.549
 8764TIP3   OH226255   1.059   4.784   0.359
 8764TIP3    H126256   1.126   4.834   0.406
 8764TIP3    H226257   1.100   4.764   0.275
 8765TIP3   OH226258   5.699   5.248   3.276
 8765TIP3    H126259   5.755   5.173   3.294
 8765TIP3    H226260   5.741   5.322   3.320
 8766TIP3   OH226261   2.254   5.318   0.495
 8766TIP3    H126262   2.251   5.309   0.400
 8766TIP3    H226263   2.228   5.231   0.527
 8767TIP3   OH226264   2.680   1.265   4.788
 8767TIP3    H126265   2.747   1.330   4.768
 8767TIP3    H226266   2.655   1.230   4.702
 8768TIP3   OH226267   0.829   3.477   3.517
 8768TIP3    H126268   0.883   3.530   3.459
 8768TIP3    H226269   0.771   3.428   3.459
 8769TIP3   OH226270   1.063   2.632   1.232
 8769TIP3    H126271   1.087   2.559   1.175
 8769TIP3    H226272   0.983   2.667   1.194
 8770TIP3   OH226273   4.236   0.448   0.816
 8770TIP3    H126274   4.309   0.499   0.781
 8770TIP3    H226275   4.210   0.495   0.896
 8771TIP3   OH226276   6.623   4.428   2.749
 8771TIP3    H126277   6.616   4.523   2.739
 8771TIP3    H226278   6.611   4.413   2.843
 8772TIP3   OH226279   1.265   5.933   3.862
 8772TIP3    H126280   1.251   6.018   3.821
 8772TIP3    H226281   1.317   5.884   3.799
 8773TIP3   OH226282   2.123   0.311   4.496
 8773TIP3    H126283   2.034   0.300   4.530
 8773TIP3    H226284   2.164   0.372   4.557
 8774TIP3   OH226285   1.386   0.350   5.223
 8774TIP3    H126286   1.346   0.372   5.307
 8774TIP3    H226287   1.418   0.434   5.190
 8775TIP3   OH226288   1.190   2.298   0.482
 8775TIP3    H126289   1.275   2.305   0.440
 8775TIP3    H226290   1.128   2.293   0.410
 8776TIP3   OH226291   3.922   0.307   4.994
 8776TIP3    H126292   4.002   0.257   5.002
 8776TIP3    H226293   3.887   0.284   4.907
 8777TIP3   OH226294   7.154   4.610   2.144
 8777TIP3    H126295   7.115   4.593   2.230
 8777TIP3    H226296   7.235   4.560   2.145
 8778TIP3   OH226297   5.865   5.080   5.803
 8778TIP3    H126298   5.863   5.160   5.855
 8778TIP3    H226299   5.897   5.108   5.717
 8779TIP3   OH226300   5.417   5.991   0.276
 8779TIP3    H126301   5.416   6.068   0.333
 8779TIP3    H226302   5.498   6.000   0.225
 8780TIP3   OH226303   3.841   0.064   3.277
 8780TIP3    H126304   3.813   0.038   3.365
 8780TIP3    H226305   3.862  -0.019   3.234
 8781TIP3   OH226306   3.023   6.507   3.091
 8781TIP3    H126307   3.041   6.421   3.052
 8781TIP3    H226308   2.998   6.562   3.017
 8782TIP3   OH226309   4.159   3.540   3.102
 8782TIP3    H126310   4.069   3.510   3.086
 8782TIP3    H226311   4.207   3.459   3.120
 8783TIP3   OH226312   2.936   5.861   0.235
 8783TIP3    H126313   3.013   5.824   0.193
 8783TIP3    H226314   2.970   5.906   0.312
 8784TIP3   OH226315   4.310   1.818   1.261
 8784TIP3    H126316   4.255   1.741   1.276
 8784TIP3    H226317   4.338   1.845   1.348
 8785TIP3   OH226318   0.471   2.657   1.835
 8785TIP3    H126319   0.495   2.565   1.851
 8785TIP3    H226320   0.554   2.702   1.820
 8786TIP3   OH226321   2.260   4.019   3.695
 8786TIP3    H126322   2.340   3.986   3.738
 8786TIP3    H226323   2.189   3.971   3.737
 8787TIP3   OH226324   1.487   3.175   2.554
 8787TIP3    H126325   1.450   3.262   2.571
 8787TIP3    H226326   1.483   3.166   2.459
 8788TIP3   OH226327   1.156   4.582   1.642
 8788TIP3    H126328   1.236   4.627   1.616
 8788TIP3    H226329   1.109   4.567   1.560
 8789TIP3   OH226330   0.837   4.858   2.838
 8789TIP3    H126331   0.865   4.936   2.791
 8789TIP3    H226332   0.772   4.890   2.901
 8790TIP3   OH226333   0.661   2.991   4.441
 8790TIP3    H126334   0.610   3.071   4.424
 8790TIP3    H226335   0.624   2.955   4.521
 8791TIP3   OH226336   0.947   5.047   4.308
 8791TIP3    H126337   0.994   5.086   4.382
 8791TIP3    H226338   1.010   5.049   4.236
 8792TIP3   OH226339   6.369   6.067   1.617
 8792TIP3    H126340   6.344   6.037   1.705
 8792TIP3    H226341   6.341   6.158   1.614
 8793TIP3   OH226342   7.056   3.098   0.331
 8793TIP3    H126343   7.084   3.187   0.351
 8793TIP3    H226344   7.134   3.044   0.343
 8794TIP3   OH226345   2.190   2.382   1.756
 8794TIP3    H126346   2.189   2.473   1.788
 8794TIP3    H226347   2.183   2.329   1.835
 8795TIP3   OH226348   2.238   0.969   5.157
 8795TIP3    H126349   2.284   0.891   5.125
 8795TIP3    H226350   2.181   0.994   5.085
 8796TIP3   OH226351   6.432   5.518   2.787
 8796TIP3    H126352   6.408   5.456   2.856
 8796TIP3    H226353   6.525   5.536   2.802
 8797TIP3   OH226354   4.485   0.576   0.902
 8797TIP3    H126355   4.543   0.510   0.940
 8797TIP3    H226356   4.485   0.648   0.965
 8798TIP3   OH226357   5.555   1.764   1.700
 8798TIP3    H126358   5.644   1.730   1.707
 8798TIP3    H226359   5.564   1.858   1.713
 8799TIP3   OH226360   2.155   6.004   2.060
 8799TIP3    H126361   2.215   6.067   2.020
 8799TIP3    H226362   2.204   5.921   2.062
 8800TIP3   OH226363   1.630   4.051   2.821
 8800TIP3    H126364   1.692   3.979   2.824
 8800TIP3    H226365   1.684   4.130   2.820
 8801TIP3   OH226366   5.340   4.516   4.538
 8801TIP3    H126367   5.276   4.483   4.475
 8801TIP3    H226368   5.367   4.601   4.503
 8802TIP3   OH226369   5.024   0.532   4.440
 8802TIP3    H126370   5.007   0.624   4.463
 8802TIP3    H226371   5.093   0.505   4.501
 8803TIP3   OH226372   0.280   3.664   4.812
 8803TIP3    H126373   0.292   3.588   4.869
 8803TIP3    H226374   0.207   3.712   4.852
 8804TIP3   OH226375   6.375   6.625   3.783
 8804TIP3    H126376   6.449   6.629   3.723
 8804TIP3    H226377   6.414   6.616   3.870
 8805TIP3   OH226378   2.845   3.950   0.427
 8805TIP3    H126379   2.815   3.915   0.511
 8805TIP3    H226380   2.868   3.873   0.375
 8806TIP3   OH226381   3.424   0.610   2.938
 8806TIP3    H126382   3.499   0.656   2.975
 8806TIP3    H226383   3.363   0.600   3.012
 8807TIP3   OH226384   6.741   2.102   0.134
 8807TIP3    H126385   6.680   2.117   0.206
 8807TIP3    H226386   6.795   2.028   0.163
 8808TIP3   OH226387   4.854  -0.018   4.363
 8808TIP3    H126388   4.797   0.056   4.383
 8808TIP3    H226389   4.834  -0.083   4.430
 8809TIP3   OH226390   6.446   1.807   4.316
 8809TIP3    H126391   6.433   1.730   4.372
 8809TIP3    H226392   6.497   1.867   4.370
 8810TIP3   OH226393   5.408   1.540   1.738
 8810TIP3    H126394   5.410   1.532   1.833
 8810TIP3    H226395   5.442   1.627   1.721
 8811TIP3   OH226396   0.178   5.283   5.284
 8811TIP3    H126397   0.134   5.218   5.338
 8811TIP3    H226398   0.267   5.287   5.319
 8812TIP3   OH226399   2.606   4.169   3.669
 8812TIP3    H126400   2.673   4.218   3.717
 8812TIP3    H226401   2.569   4.109   3.734
 8813TIP3   OH226402   4.662   2.347   5.282
 8813TIP3    H126403   4.668   2.255   5.258
 8813TIP3    H226404   4.703   2.351   5.368
 8814TIP3   OH226405   0.818   0.178   1.299
 8814TIP3    H126406   0.892   0.156   1.242
 8814TIP3    H226407   0.742   0.140   1.255
 8815TIP3   OH226408   7.159   0.483   2.969
 8815TIP3    H126409   7.103   0.425   3.021
 8815TIP3    H226410   7.098   0.531   2.912
 8816TIP3   OH226411   5.728   2.519   3.097
 8816TIP3    H126412   5.767   2.434   3.120
 8816TIP3    H226413   5.634   2.507   3.114
 8817TIP3   OH226414   5.064   0.807   1.076
 8817TIP3    H126415   5.158   0.810   1.090
 8817TIP3    H226416   5.038   0.722   1.111
 8818TIP3   OH226417   4.120   2.267   5.773
 8818TIP3    H126418   4.160   2.326   5.837
 8818TIP3    H226419   4.076   2.324   5.711
 8819TIP3   OH226420   6.796   3.766   4.314
 8819TIP3    H126421   6.869   3.723   4.268
 8819TIP3    H226422   6.828   3.855   4.332
 8820TIP3   OH226423   0.637   3.467   4.659
 8820TIP3    H126424   0.708   3.441   4.600
 8820TIP3    H226425   0.659   3.557   4.685
 8821TIP3   OH226426   6.810   5.117   0.850
 8821TIP3    H126427   6.843   5.090   0.936
 8821TIP3    H226428   6.717   5.132   0.863
 8822TIP3   OH226429   4.816   2.939   3.596
 8822TIP3    H126430   4.813   2.946   3.501
 8822TIP3    H226431   4.823   3.030   3.626
 8823TIP3   OH226432   4.799   4.168   3.725
 8823TIP3    H126433   4.757   4.147   3.641
 8823TIP3    H226434   4.732   4.148   3.790
 8824TIP3   OH226435   2.953   4.995   3.234
 8824TIP3    H126436   2.912   5.081   3.237
 8824TIP3    H226437   3.047   5.013   3.228
 8825TIP3   OH226438   6.927   0.291   0.737
 8825TIP3    H126439   6.959   0.201   0.735
 8825TIP3    H226440   6.914   0.314   0.645
 8826TIP3   OH226441   1.642   5.879   2.435
 8826TIP3    H126442   1.671   5.816   2.369
 8826TIP3    H226443   1.722   5.908   2.478
 8827TIP3   OH226444   4.787   3.189   0.286
 8827TIP3    H126445   4.808   3.282   0.272
 8827TIP3    H226446   4.858   3.156   0.341
 8828TIP3   OH226447   3.610   0.862   2.982
 8828TIP3    H126448   3.621   0.943   3.031
 8828TIP3    H226449   3.615   0.793   3.048
 8829TIP3   OH226450   0.558   1.669   2.335
 8829TIP3    H126451   0.482   1.711   2.375
 8829TIP3    H226452   0.620   1.740   2.321
 8830TIP3   OH226453   3.551   3.768   2.784
 8830TIP3    H126454   3.511   3.810   2.861
 8830TIP3    H226455   3.642   3.798   2.785
 8831TIP3   OH226456   5.495   4.312   5.482
 8831TIP3    H126457   5.515   4.374   5.412
 8831TIP3    H226458   5.473   4.231   5.436
 8832TIP3   OH226459   0.198   0.984  -0.032
 8832TIP3    H126460   0.152   1.047   0.024
 8832TIP3    H226461   0.264   0.945   0.026
 8833TIP3   OH226462   2.280   4.565   4.021
 8833TIP3    H126463   2.298   4.659   4.034
 8833TIP3    H226464   2.304   4.549   3.930
 8834TIP3   OH226465   1.751   3.525   3.994
 8834TIP3    H126466   1.666   3.557   4.025
 8834TIP3    H226467   1.815   3.576   4.044
 8835TIP3   OH226468   5.991   2.942   0.928
 8835TIP3    H126469   6.057   2.903   0.985
 8835TIP3    H226470   6.007   2.903   0.842
 8836TIP3   OH226471   0.121   2.380   1.899
 8836TIP3    H126472   0.118   2.469   1.935
 8836TIP3    H226473   0.156   2.392   1.811
 8837TIP3   OH226474   6.064   1.513   4.858
 8837TIP3    H126475   5.980   1.503   4.903
 8837TIP3    H226476   6.119   1.562   4.919
 8838TIP3   OH226477   5.222   4.775   5.270
 8838TIP3    H126478   5.287   4.742   5.332
 8838TIP3    H226479   5.157   4.820   5.324
 8839TIP3   OH226480   2.672   3.048   2.412
 8839TIP3    H126481   2.639   3.006   2.332
 8839TIP3    H226482   2.716   2.977   2.459
 8840TIP3   OH226483   4.231   2.801   2.265
 8840TIP3    H126484   4.178   2.722   2.255
 8840TIP3    H226485   4.315   2.770   2.300
 8841TIP3   OH226486   6.236   5.025   0.729
 8841TIP3    H126487   6.233   5.002   0.637
 8841TIP3    H226488   6.329   5.022   0.752
 8842TIP3   OH226489   4.084   6.420   3.304
 8842TIP3    H126490   4.157   6.461   3.350
 8842TIP3    H226491   4.095   6.327   3.321
 8843TIP3   OH226492   5.357   3.917   2.063
 8843TIP3    H126493   5.302   3.860   2.011
 8843TIP3    H226494   5.438   3.867   2.078
 8844TIP3   OH226495   0.733   1.010   3.211
 8844TIP3    H126496   0.822   1.042   3.222
 8844TIP3    H226497   0.693   1.021   3.297
 8845TIP3   OH226498   1.743   1.918   3.891
 8845TIP3    H126499   1.826   1.882   3.859
 8845TIP3    H226500   1.768   1.987   3.951
 8846TIP3   OH226501   0.248   3.293   0.829
 8846TIP3    H126502   0.335   3.256   0.816
 8846TIP3    H226503   0.256   3.349   0.906
 8847TIP3   OH226504   2.272   6.249   1.997
 8847TIP3    H126505   2.359   6.289   2.002
 8847TIP3    H226506   2.218   6.315   1.954
 8848TIP3   OH226507   1.498   1.057   3.414
 8848TIP3    H126508   1.518   1.033   3.324
 8848TIP3    H226509   1.505   1.153   3.416
 8849TIP3   OH226510   2.367   0.585   0.720
 8849TIP3    H126511   2.274   0.586   0.696
 8849TIP3    H226512   2.376   0.657   0.782
 8850TIP3   OH226513   0.304   2.390   4.975
 8850TIP3    H126514   0.339   2.350   5.055
 8850TIP3    H226515   0.379   2.433   4.935
 8851TIP3   OH226516   4.393   2.187   0.145
 8851TIP3    H126517   4.336   2.216   0.216
 8851TIP3    H226518   4.377   2.250   0.075
 8852TIP3   OH226519   2.842   0.917   3.314
 8852TIP3    H126520   2.768   0.925   3.253
 8852TIP3    H226521   2.889   1.000   3.305
 8853TIP3   OH226522   4.409   4.226   3.955
 8853TIP3    H126523   4.476   4.190   4.012
 8853TIP3    H226524   4.452   4.236   3.870
 8854TIP3   OH226525   3.173   2.664   0.290
 8854TIP3    H126526   3.126   2.726   0.345
 8854TIP3    H226527   3.163   2.698   0.201
 8855TIP3   OH226528   6.235   3.618   3.828
 8855TIP3    H126529   6.166   3.684   3.830
 8855TIP3    H226530   6.274   3.622   3.916
 8856TIP3   OH226531   5.953   6.185   5.469
 8856TIP3    H126532   5.923   6.109   5.519
 8856TIP3    H226533   6.041   6.162   5.439
 8857TIP3   OH226534   0.334   0.929   5.899
 8857TIP3    H126535   0.400   0.878   5.946
 8857TIP3    H226536   0.381   0.968   5.825
 8858TIP3   OH226537   2.993   3.857   0.820
 8858TIP3    H126538   3.060   3.924   0.826
 8858TIP3    H226539   3.008   3.801   0.896
 8859TIP3   OH226540   5.867   3.517   5.060
 8859TIP3    H126541   5.931   3.520   4.990
 8859TIP3    H226542   5.863   3.607   5.093
 8860TIP3   OH226543   0.620   0.581   2.843
 8860TIP3    H126544   0.688   0.646   2.859
 8860TIP3    H226545   0.658   0.523   2.777
 8861TIP3   OH226546   1.815   4.092   5.466
 8861TIP3    H126547   1.872   4.117   5.539
 8861TIP3    H226548   1.852   4.136   5.390
 8862TIP3   OH226549   2.359   6.052   1.098
 8862TIP3    H126550   2.324   6.048   1.186
 8862TIP3    H226551   2.451   6.078   1.110
 8863TIP3   OH226552   2.939   6.015   0.993
 8863TIP3    H126553   2.853   5.978   0.972
 8863TIP3    H226554   2.988   5.942   1.030
 8864TIP3   OH226555   0.451   2.715   1.036
 8864TIP3    H126556   0.515   2.766   0.986
 8864TIP3    H226557   0.494   2.696   1.119
 8865TIP3   OH226558   3.970   5.981   1.452
 8865TIP3    H126559   3.996   5.920   1.522
 8865TIP3    H226560   3.965   6.066   1.496
 8866TIP3   OH226561   0.923   6.712   0.718
 8866TIP3    H126562   0.963   6.786   0.766
 8866TIP3    H226563   0.831   6.737   0.709
 8867TIP3   OH226564   4.927   1.055   1.483
 8867TIP3    H126565   4.957   1.067   1.392
 8867TIP3    H226566   4.869   0.979   1.479
 8868TIP3   OH226567   0.534   5.160   0.632
 8868TIP3    H126568   0.484   5.206   0.700
 8868TIP3    H226569   0.621   5.148   0.670
 8869TIP3   OH226570   6.477   0.400   2.265
 8869TIP3    H126571   6.558   0.366   2.226
 8869TIP3    H226572   6.484   0.495   2.254
 8870TIP3   OH226573   4.336   0.813   5.139
 8870TIP3    H126574   4.419   0.767   5.154
 8870TIP3    H226575   4.300   0.772   5.060
 8871TIP3   OH226576   1.121   0.846   2.223
 8871TIP3    H126577   1.065   0.850   2.146
 8871TIP3    H226578   1.210   0.856   2.188
 8872TIP3   OH226579   3.430   2.749   4.342
 8872TIP3    H126580   3.405   2.797   4.262
 8872TIP3    H226581   3.347   2.735   4.388
 8873TIP3   OH226582   0.835   6.496   2.028
 8873TIP3    H126583   0.834   6.554   1.952
 8873TIP3    H226584   0.925   6.497   2.059
 8874TIP3   OH226585   0.838   2.287   2.066
 8874TIP3    H126586   0.897   2.361   2.083
 8874TIP3    H226587   0.840   2.235   2.146
 8875TIP3   OH226588   2.168   3.589   3.966
 8875TIP3    H126589   2.087   3.545   3.940
 8875TIP3    H226590   2.209   3.528   4.028
 8876TIP3   OH226591   6.451   2.658   2.262
 8876TIP3    H126592   6.472   2.694   2.348
 8876TIP3    H226593   6.375   2.601   2.278
 8877TIP3   OH226594   6.274   6.479   5.386
 8877TIP3    H126595   6.258   6.550   5.324
 8877TIP3    H226596   6.353   6.506   5.433
 8878TIP3   OH226597   3.162   0.888   3.990
 8878TIP3    H126598   3.239   0.923   3.945
 8878TIP3    H226599   3.196   0.855   4.073
 8879TIP3   OH226600   1.739   5.791   5.765
 8879TIP3    H126601   1.682   5.806   5.689
 8879TIP3    H226602   1.738   5.875   5.812
 8880TIP3   OH226603   6.549   1.932   0.506
 8880TIP3    H126604   6.592   2.014   0.482
 8880TIP3    H226605   6.607   1.891   0.569
 8881TIP3   OH226606   3.566   3.988   4.488
 8881TIP3    H126607   3.510   4.064   4.473
 8881TIP3    H226608   3.507   3.913   4.484
 8882TIP3   OH226609   3.987   2.437   5.577
 8882TIP3    H126610   3.947   2.437   5.490
 8882TIP3    H226611   4.014   2.528   5.590
 8883TIP3   OH226612   4.154   5.718   2.280
 8883TIP3    H126613   4.166   5.625   2.299
 8883TIP3    H226614   4.194   5.763   2.355
 8884TIP3   OH226615   1.759   4.277   2.522
 8884TIP3    H126616   1.728   4.263   2.611
 8884TIP3    H226617   1.688   4.247   2.466
 8885TIP3   OH226618   5.813   3.081   1.659
 8885TIP3    H126619   5.808   3.159   1.715
 8885TIP3    H226620   5.851   3.014   1.715
 8886TIP3   OH226621   0.743   0.230   4.368
 8886TIP3    H126622   0.743   0.273   4.453
 8886TIP3    H226623   0.691   0.150   4.382
 8887TIP3   OH226624   0.307   2.028   5.418
 8887TIP3    H126625   0.261   1.982   5.489
 8887TIP3    H226626   0.343   2.106   5.461
 8888TIP3   OH226627   1.608   6.757   5.624
 8888TIP3    H126628   1.665   6.710   5.685
 8888TIP3    H226629   1.637   6.848   5.630
 8889TIP3   OH226630   2.914   4.720   2.860
 8889TIP3    H126631   2.940   4.630   2.880
 8889TIP3    H226632   2.925   4.728   2.765
 8890TIP3   OH226633   5.065   3.177   2.628
 8890TIP3    H126634   5.123   3.101   2.628
 8890TIP3    H226635   4.980   3.143   2.658
 8891TIP3   OH226636   1.777   5.015   5.767
 8891TIP3    H126637   1.849   4.975   5.718
 8891TIP3    H226638   1.784   4.977   5.855
 8892TIP3   OH226639   2.700   5.633   3.906
 8892TIP3    H126640   2.720   5.541   3.891
 8892TIP3    H226641   2.619   5.648   3.857
 8893TIP3   OH226642   6.180   4.003   3.250
 8893TIP3    H126643   6.228   4.061   3.190
 8893TIP3    H226644   6.088   4.012   3.224
 8894TIP3   OH226645   2.312   0.285   2.238
 8894TIP3    H126646   2.354   0.202   2.215
 8894TIP3    H226647   2.244   0.298   2.172
 8895TIP3   OH226648   4.321   5.511   5.694
 8895TIP3    H126649   4.324   5.569   5.770
 8895TIP3    H226650   4.249   5.451   5.712
 8896TIP3   OH226651   0.418   3.722   0.438
 8896TIP3    H126652   0.506   3.726   0.476
 8896TIP3    H226653   0.360   3.708   0.513
 8897TIP3   OH226654   4.115   0.268   3.338
 8897TIP3    H126655   4.138   0.235   3.251
 8897TIP3    H226656   4.178   0.337   3.356
 8898TIP3   OH226657   2.923   3.098   1.649
 8898TIP3    H126658   2.858   3.166   1.631
 8898TIP3    H226659   2.961   3.123   1.733
 8899TIP3   OH226660   0.977   2.268   5.538
 8899TIP3    H126661   0.939   2.354   5.518
 8899TIP3    H226662   1.028   2.246   5.460
 8900TIP3   OH226663   0.616   3.815   3.854
 8900TIP3    H126664   0.665   3.744   3.813
 8900TIP3    H226665   0.661   3.830   3.938
 8901TIP3   OH226666   5.886   3.621   1.615
 8901TIP3    H126667   5.850   3.693   1.667
 8901TIP3    H226668   5.896   3.658   1.527
 8902TIP3   OH226669   2.167   6.245   0.236
 8902TIP3    H126670   2.138   6.270   0.148
 8902TIP3    H226671   2.134   6.156   0.248
 8903TIP3   OH226672   4.989   4.132   0.375
 8903TIP3    H126673   4.942   4.120   0.458
 8903TIP3    H226674   5.067   4.182   0.399
 8904TIP3   OH226675   4.772   1.739   4.894
 8904TIP3    H126676   4.758   1.701   4.981
 8904TIP3    H226677   4.830   1.813   4.909
 8905TIP3   OH226678   6.252   0.809   1.747
 8905TIP3    H126679   6.340   0.829   1.779
 8905TIP3    H226680   6.217   0.894   1.718
 8906TIP3   OH226681   3.536   0.686   5.775
 8906TIP3    H126682   3.612   0.729   5.737
 8906TIP3    H226683   3.493   0.644   5.700
 8907TIP3   OH226684   2.118   0.187   0.117
 8907TIP3    H126685   2.186   0.181   0.184
 8907TIP3    H226686   2.080   0.099   0.112
 8908TIP3   OH226687   2.390   4.710   5.804
 8908TIP3    H126688   2.409   4.616   5.799
 8908TIP3    H226689   2.409   4.733   5.895
 8909TIP3   OH226690   0.768   2.716   4.078
 8909TIP3    H126691   0.711   2.698   4.153
 8909TIP3    H226692   0.708   2.718   4.003
 8910TIP3   OH226693   0.174   2.525   2.915
 8910TIP3    H126694   0.266   2.542   2.936
 8910TIP3    H226695   0.150   2.449   2.968
 8911TIP3   OH226696   2.962   6.291   1.058
 8911TIP3    H126697   2.983   6.201   1.031
 8911TIP3    H226698   2.954   6.286   1.153
 8912TIP3   OH226699   4.593   1.405   1.591
 8912TIP3    H126700   4.678   1.447   1.606
 8912TIP3    H226701   4.533   1.478   1.573
 8913TIP3   OH226702   1.362   2.205   4.157
 8913TIP3    H126703   1.387   2.258   4.233
 8913TIP3    H226704   1.430   2.224   4.092
 8914TIP3   OH226705   3.288   6.703   5.508
 8914TIP3    H126706   3.284   6.632   5.444
 8914TIP3    H226707   3.269   6.660   5.592
 8915TIP3   OH226708   6.336   2.780   0.072
 8915TIP3    H126709   6.245   2.775   0.044
 8915TIP3    H226710   6.342   2.862   0.121
 8916TIP3   OH226711   7.158   0.969   1.428
 8916TIP3    H126712   7.211   1.024   1.371
 8916TIP3    H226713   7.093   0.929   1.371
 8917TIP3   OH226714   3.356   1.124   5.341
 8917TIP3    H126715   3.303   1.166   5.274
 8917TIP3    H226716   3.294   1.105   5.412
 8918TIP3   OH226717  -0.006   1.627   4.770
 8918TIP3    H126718   0.054   1.568   4.724
 8918TIP3    H226719  -0.059   1.569   4.825
 8919TIP3   OH226720   0.719   0.773   5.314
 8919TIP3    H126721   0.632   0.812   5.305
 8919TIP3    H226722   0.773   0.842   5.353
 8920TIP3   OH226723   3.944   2.725   3.510
 8920TIP3    H126724   3.867   2.688   3.554
 8920TIP3    H226725   4.017   2.673   3.542
 8921TIP3   OH226726   4.561   2.263   1.786
 8921TIP3    H126727   4.566   2.359   1.794
 8921TIP3    H226728   4.641   2.239   1.739
 8922TIP3   OH226729   2.693   2.680   5.263
 8922TIP3    H126730   2.734   2.599   5.293
 8922TIP3    H226731   2.725   2.747   5.324
 8923TIP3   OH226732   5.148   5.206   2.660
 8923TIP3    H126733   5.076   5.255   2.701
 8923TIP3    H226734   5.226   5.258   2.681
 8924TIP3   OH226735   2.861   3.547   4.741
 8924TIP3    H126736   2.872   3.504   4.656
 8924TIP3    H226737   2.798   3.493   4.787
 8925TIP3   OH226738   5.222   2.420   3.528
 8925TIP3    H126739   5.200   2.512   3.520
 8925TIP3    H226740   5.207   2.384   3.440
 8926TIP3   OH226741   4.700   0.809   1.711
 8926TIP3    H126742   4.759   0.739   1.740
 8926TIP3    H226743   4.616   0.766   1.696
 8927TIP3   OH226744   4.518   1.828   3.999
 8927TIP3    H126745   4.489   1.919   4.009
 8927TIP3    H226746   4.462   1.792   3.931
 8928TIP3   OH226747   2.467   1.375   3.315
 8928TIP3    H126748   2.469   1.447   3.378
 8928TIP3    H226749   2.375   1.349   3.311
 8929TIP3   OH226750   0.174   4.649   5.492
 8929TIP3    H126751   0.224   4.611   5.420
 8929TIP3    H226752   0.083   4.632   5.470
 8930TIP3   OH226753   4.490   3.434   3.711
 8930TIP3    H126754   4.505   3.341   3.729
 8930TIP3    H226755   4.569   3.463   3.666
 8931TIP3   OH226756   3.052   6.377   5.536
 8931TIP3    H126757   3.076   6.424   5.456
 8931TIP3    H226758   2.967   6.413   5.562
 8932TIP3   OH226759   3.404   5.062   1.792
 8932TIP3    H126760   3.416   5.083   1.885
 8932TIP3    H226761   3.324   5.009   1.790
 8933TIP3   OH226762   6.393   4.416   5.620
 8933TIP3    H126763   6.317   4.464   5.584
 8933TIP3    H226764   6.355   4.356   5.684
 8934TIP3   OH226765   5.189   6.550   4.774
 8934TIP3    H126766   5.257   6.536   4.708
 8934TIP3    H226767   5.189   6.470   4.826
 8935TIP3   OH226768   5.416   1.936   2.269
 8935TIP3    H126769   5.377   1.882   2.201
 8935TIP3    H226770   5.377   1.903   2.350
 8936TIP3   OH226771   1.030   2.671   5.327
 8936TIP3    H126772   1.122   2.650   5.338
 8936TIP3    H226773   1.021   2.760   5.360
 8937TIP3   OH226774   6.909   4.514   1.528
 8937TIP3    H126775   6.954   4.514   1.444
 8937TIP3    H226776   6.858   4.433   1.528
 8938TIP3   OH226777   5.218   3.721   5.482
 8938TIP3    H126778   5.253   3.709   5.394
 8938TIP3    H226779   5.259   3.801   5.514
 8939TIP3   OH226780   5.113   6.656   1.727
 8939TIP3    H126781   5.110   6.627   1.636
 8939TIP3    H226782   5.023   6.650   1.758
 8940TIP3   OH226783   5.744   3.102   0.793
 8940TIP3    H126784   5.747   3.056   0.877
 8940TIP3    H226785   5.680   3.172   0.807
 8941TIP3   OH226786   3.300   2.080   2.225
 8941TIP3    H126787   3.222   2.121   2.187
 8941TIP3    H226788   3.367   2.149   2.223
 8942TIP3   OH226789   2.777   6.820   3.488
 8942TIP3    H126790   2.837   6.746   3.484
 8942TIP3    H226791   2.807   6.879   3.419
 8943TIP3   OH226792   0.945   6.473   3.401
 8943TIP3    H126793   0.910   6.560   3.380
 8943TIP3    H226794   0.871   6.414   3.388
 8944TIP3   OH226795   6.473   1.793   5.123
 8944TIP3    H126796   6.520   1.813   5.204
 8944TIP3    H226797   6.382   1.781   5.149
 8945TIP3   OH226798   3.344  -0.024   4.972
 8945TIP3    H126799   3.298   0.060   4.978
 8945TIP3    H226800   3.274  -0.089   4.964
 8946TIP3   OH226801   1.561   3.926   4.680
 8946TIP3    H126802   1.601   3.971   4.755
 8946TIP3    H226803   1.512   3.854   4.719
 8947TIP3   OH226804   3.506   2.220   3.048
 8947TIP3    H126805   3.489   2.211   3.141
 8947TIP3    H226806   3.489   2.133   3.012
 8948TIP3   OH226807   4.762   5.452   3.327
 8948TIP3    H126808   4.824   5.379   3.333
 8948TIP3    H226809   4.795   5.516   3.390
 8949TIP3   OH226810   2.893   2.835   0.623
 8949TIP3    H126811   2.934   2.882   0.696
 8949TIP3    H226812   2.894   2.743   0.649
 8950TIP3   OH226813   0.956   2.211   1.008
 8950TIP3    H126814   0.864   2.230   0.989
 8950TIP3    H226815   0.959   2.197   1.102
 8951TIP3   OH226816   6.519   0.061   0.648
 8951TIP3    H126817   6.609   0.091   0.634
 8951TIP3    H226818   6.494   0.021   0.565
 8952TIP3   OH226819   4.108   2.450   4.340
 8952TIP3    H126820   4.022   2.482   4.368
 8952TIP3    H226821   4.132   2.507   4.268
 8953TIP3   OH226822   6.732   4.124   1.014
 8953TIP3    H126823   6.759   4.117   1.106
 8953TIP3    H226824   6.706   4.216   1.004
 8954TIP3   OH226825   6.350   4.659   1.281
 8954TIP3    H126826   6.341   4.665   1.186
 8954TIP3    H226827   6.436   4.620   1.295
 8955TIP3   OH226828   6.641   5.649   5.134
 8955TIP3    H126829   6.673   5.734   5.103
 8955TIP3    H226830   6.615   5.602   5.054
 8956TIP3   OH226831   4.535   3.499   2.910
 8956TIP3    H126832   4.530   3.418   2.860
 8956TIP3    H226833   4.466   3.554   2.872
 8957TIP3   OH226834   6.384   3.459   5.271
 8957TIP3    H126835   6.309   3.506   5.235
 8957TIP3    H226836   6.412   3.512   5.346
 8958TIP3   OH226837   6.660   0.056   4.378
 8958TIP3    H126838   6.637   0.040   4.469
 8958TIP3    H226839   6.603   0.129   4.352
 8959TIP3   OH226840   2.533   2.258   2.520
 8959TIP3    H126841   2.597   2.188   2.533
 8959TIP3    H226842   2.456   2.214   2.484
 8960TIP3   OH226843   1.511   4.034   5.853
 8960TIP3    H126844   1.425   4.023   5.813
 8960TIP3    H226845   1.543   4.118   5.818
 8961TIP3   OH226846   1.550   3.367   1.635
 8961TIP3    H126847   1.609   3.351   1.562
 8961TIP3    H226848   1.480   3.420   1.599
 8962TIP3   OH226849   2.032   5.392   1.552
 8962TIP3    H126850   2.004   5.307   1.586
 8962TIP3    H226851   1.980   5.455   1.601
 8963TIP3   OH226852   2.870   4.452   0.602
 8963TIP3    H126853   2.861   4.456   0.507
 8963TIP3    H226854   2.909   4.366   0.618
 8964TIP3   OH226855   5.393   0.900   2.172
 8964TIP3    H126856   5.419   0.970   2.112
 8964TIP3    H226857   5.406   0.937   2.259
 8965TIP3   OH226858   2.852   0.344   5.485
 8965TIP3    H126859   2.815   0.351   5.396
 8965TIP3    H226860   2.909   0.421   5.493
 8966TIP3   OH226861   2.521   5.300   1.499
 8966TIP3    H126862   2.598   5.314   1.444
 8966TIP3    H226863   2.449   5.288   1.438
 8967TIP3   OH226864   0.992   5.300   1.335
 8967TIP3    H126865   1.079   5.259   1.330
 8967TIP3    H226866   0.959   5.275   1.421
 8968TIP3   OH226867   6.618   3.622   5.388
 8968TIP3    H126868   6.604   3.696   5.329
 8968TIP3    H226869   6.554   3.634   5.457
 8969TIP3   OH226870   5.845   3.736   1.343
 8969TIP3    H126871   5.821   3.813   1.292
 8969TIP3    H226872   5.937   3.720   1.322
 8970TIP3   OH226873   2.048   4.215   1.620
 8970TIP3    H126874   2.008   4.141   1.666
 8970TIP3    H226875   2.077   4.274   1.689
 8971TIP3   OH226876   6.253   2.575   2.013
 8971TIP3    H126877   6.329   2.625   2.042
 8971TIP3    H226878   6.290   2.490   1.986
 8972TIP3   OH226879   7.058   6.539   3.411
 8972TIP3    H126880   7.078   6.629   3.438
 8972TIP3    H226881   6.966   6.528   3.432
 8973TIP3   OH226882   0.402   3.275   3.066
 8973TIP3    H126883   0.363   3.194   3.034
 8973TIP3    H226884   0.339   3.308   3.130
 8974TIP3   OH226885   0.363   2.308   1.748
 8974TIP3    H126886   0.342   2.237   1.809
 8974TIP3    H226887   0.452   2.334   1.771
 8975TIP3   OH226888   0.109  -0.097   3.689
 8975TIP3    H126889   0.096  -0.064   3.778
 8975TIP3    H226890   0.119  -0.018   3.636
 8976TIP3   OH226891   1.382   1.577   4.758
 8976TIP3    H126892   1.314   1.638   4.786
 8976TIP3    H226893   1.391   1.516   4.832
 8977TIP3   OH226894   2.082   0.212   1.658
 8977TIP3    H126895   2.175   0.233   1.663
 8977TIP3    H226896   2.058   0.230   1.567
 8978TIP3   OH226897   4.450   5.346   2.899
 8978TIP3    H126898   4.451   5.355   2.994
 8978TIP3    H226899   4.389   5.274   2.882
 8979TIP3   OH226900   4.915   5.515   3.101
 8979TIP3    H126901   4.851   5.551   3.040
 8979TIP3    H226902   4.866   5.501   3.182
 8980TIP3   OH226903   6.687   6.809   2.538
 8980TIP3    H126904   6.745   6.801   2.463
 8980TIP3    H226905   6.635   6.729   2.536
 8981TIP3   OH226906   2.281   1.294   0.281
 8981TIP3    H126907   2.266   1.222   0.342
 8981TIP3    H226908   2.365   1.332   0.309
 8982TIP3   OH226909   2.127   1.930   2.849
 8982TIP3    H126910   2.207   1.878   2.850
 8982TIP3    H226911   2.080   1.904   2.928
 8983TIP3   OH226912   5.979   0.397   4.192
 8983TIP3    H126913   5.982   0.468   4.127
 8983TIP3    H226914   5.891   0.361   4.184
 8984TIP3   OH226915   3.268   6.589   1.914
 8984TIP3    H126916   3.318   6.534   1.853
 8984TIP3    H226917   3.243   6.529   1.984
 8985TIP3   OH226918   2.701   5.753   3.354
 8985TIP3    H126919   2.771   5.726   3.412
 8985TIP3    H226920   2.740   5.752   3.267
 8986TIP3   OH226921   0.369   0.841   5.563
 8986TIP3    H126922   0.428   0.881   5.626
 8986TIP3    H226923   0.309   0.911   5.538
 8987TIP3   OH226924   4.534   5.328   3.172
 8987TIP3    H126925   4.608   5.373   3.213
 8987TIP3    H226926   4.488   5.287   3.245
 8988TIP3   OH226927   5.378   4.020   1.145
 8988TIP3    H126928   5.299   3.998   1.194
 8988TIP3    H226929   5.400   4.109   1.174
 8989TIP3   OH226930   5.841   5.997   5.070
 8989TIP3    H126931   5.808   6.036   4.989
 8989TIP3    H226932   5.835   6.068   5.134
 8990TIP3   OH226933   3.124   0.678   4.769
 8990TIP3    H126934   3.104   0.751   4.710
 8990TIP3    H226935   3.153   0.720   4.850
 8991TIP3   OH226936   3.520   4.910   5.590
 8991TIP3    H126937   3.450   4.974   5.579
 8991TIP3    H226938   3.588   4.957   5.638
 8992TIP3   OH226939   4.491   3.471   4.160
 8992TIP3    H126940   4.578   3.432   4.172
 8992TIP3    H226941   4.460   3.488   4.249
 8993TIP3   OH226942   2.244   4.546   2.456
 8993TIP3    H126943   2.278   4.558   2.545
 8993TIP3    H226944   2.161   4.594   2.455
 8994TIP3   OH226945   4.228   2.974   5.523
 8994TIP3    H126946   4.284   3.018   5.458
 8994TIP3    H226947   4.255   3.011   5.607
 8995TIP3   OH226948   0.827   4.814   1.322
 8995TIP3    H126949   0.786   4.729   1.307
 8995TIP3    H226950   0.757   4.878   1.310
 8996TIP3   OH226951   6.429   1.534   4.728
 8996TIP3    H126952   6.519   1.501   4.724
 8996TIP3    H226953   6.419   1.586   4.648
 8997TIP3   OH226954   3.411   6.440   0.916
 8997TIP3    H126955   3.451   6.522   0.888
 8997TIP3    H226956   3.485   6.383   0.938
 8998TIP3   OH226957   2.653   4.035   1.420
 8998TIP3    H126958   2.652   4.029   1.325
 8998TIP3    H226959   2.601   3.960   1.450
 8999TIP3   OH226960   5.307   0.250   0.638
 8999TIP3    H126961   5.283   0.249   0.731
 8999TIP3    H226962   5.397   0.283   0.637
 9000TIP3   OH226963   1.265   1.363   0.774
 9000TIP3    H126964   1.329   1.430   0.796
 9000TIP3    H226965   1.238   1.385   0.684
 9001TIP3   OH226966   2.024   2.367   2.472
 9001TIP3    H126967   1.953   2.323   2.519
 9001TIP3    H226968   2.089   2.387   2.540
 9002TIP3   OH226969   7.018   5.629   1.672
 9002TIP3    H126970   6.965   5.704   1.696
 9002TIP3    H226971   7.106   5.649   1.704
 9003TIP3   OH226972   2.999   4.614   0.192
 9003TIP3    H126973   3.060   4.683   0.218
 9003TIP3    H226974   2.978   4.633   0.101
 9004TIP3   OH226975   3.986   3.569   5.264
 9004TIP3    H126976   3.957   3.479   5.277
 9004TIP3    H226977   3.940   3.599   5.186
 9005TIP3   OH226978   5.006   3.214   4.155
 9005TIP3    H126979   4.950   3.159   4.211
 9005TIP3    H226980   5.085   3.227   4.207
 9006TIP3   OH226981   1.131   4.281   1.961
 9006TIP3    H126982   1.040   4.310   1.958
 9006TIP3    H226983   1.127   4.195   2.002
 9007TIP3   OH226984   5.662   1.521   0.339
 9007TIP3    H126985   5.703   1.514   0.253
 9007TIP3    H226986   5.666   1.432   0.375
 9008TIP3   OH226987   0.507   1.786   0.666
 9008TIP3    H126988   0.536   1.781   0.575
 9008TIP3    H226989   0.555   1.861   0.702
 9009TIP3   OH226990   0.288   4.640   2.365
 9009TIP3    H126991   0.286   4.588   2.446
 9009TIP3    H226992   0.365   4.607   2.318
 9010TIP3   OH226993   2.926   4.376   1.072
 9010TIP3    H126994   2.883   4.316   1.011
 9010TIP3    H226995   2.863   4.388   1.143
 9011TIP3   OH226996   3.155   1.784   4.749
 9011TIP3    H126997   3.161   1.689   4.747
 9011TIP3    H226998   3.067   1.803   4.716
 9012TIP3   OH226999   1.856   6.682   4.278
 9012TIP3    H127000   1.795   6.624   4.232
 9012TIP3    H227001   1.804   6.721   4.348
 9013TIP3   OH227002   0.193   0.443   3.889
 9013TIP3    H127003   0.169   0.511   3.827
 9013TIP3    H227004   0.237   0.490   3.960
 9014TIP3   OH227005   1.254   3.146   5.489
 9014TIP3    H127006   1.162   3.169   5.502
 9014TIP3    H227007   1.258   3.116   5.398
 9015TIP3   OH227008   7.161   6.774   3.536
 9015TIP3    H127009   7.085   6.807   3.584
 9015TIP3    H227010   7.221   6.848   3.532
 9016TIP3   OH227011   1.166   1.899   5.657
 9016TIP3    H127012   1.144   1.816   5.699
 9016TIP3    H227013   1.262   1.899   5.655
 9017TIP3   OH227014   6.938   6.173   2.162
 9017TIP3    H127015   6.939   6.176   2.258
 9017TIP3    H227016   6.878   6.102   2.140
 9018TIP3   OH227017   1.662   6.569   4.122
 9018TIP3    H127018   1.668   6.477   4.148
 9018TIP3    H227019   1.571   6.593   4.141
 9019TIP3   OH227020   5.543   3.056   4.059
 9019TIP3    H127021   5.459   3.096   4.039
 9019TIP3    H227022   5.605   3.099   4.000
 9020TIP3   OH227023   2.905   0.928   4.694
 9020TIP3    H127024   2.915   1.013   4.651
 9020TIP3    H227025   2.892   0.865   4.623
 9021TIP3   OH227026   5.912   5.906   2.413
 9021TIP3    H127027   5.851   5.978   2.396
 9021TIP3    H227028   5.918   5.860   2.330
 9022TIP3   OH227029   2.594   2.396   4.487
 9022TIP3    H127030   2.668   2.339   4.507
 9022TIP3    H227031   2.538   2.343   4.430
 9023TIP3   OH227032   4.447   1.908   0.315
 9023TIP3    H127033   4.358   1.938   0.298
 9023TIP3    H227034   4.436   1.822   0.355
 9024TIP3   OH227035   5.556   4.628   1.561
 9024TIP3    H127036   5.466   4.655   1.542
 9024TIP3    H227037   5.562   4.629   1.656
 9025TIP3   OH227038   6.055   3.382   2.259
 9025TIP3    H127039   5.965   3.407   2.238
 9025TIP3    H227040   6.067   3.298   2.215
 9026TIP3   OH227041   5.001   4.647   4.370
 9026TIP3    H127042   4.962   4.729   4.400
 9026TIP3    H227043   5.096   4.661   4.376
 9027TIP3   OH227044   0.636   0.680   4.554
 9027TIP3    H127045   0.584   0.757   4.578
 9027TIP3    H227046   0.707   0.715   4.501
 9028TIP3   OH227047   6.646   1.043   3.926
 9028TIP3    H127048   6.574   1.094   3.889
 9028TIP3    H227049   6.647   0.962   3.875
 9029TIP3   OH227050   0.831   3.706   4.679
 9029TIP3    H127051   0.744   3.745   4.687
 9029TIP3    H227052   0.850   3.670   4.765
 9030TIP3   OH227053   0.973   0.660   1.122
 9030TIP3    H127054   1.033   0.724   1.084
 9030TIP3    H227055   0.933   0.705   1.197
 9031TIP3   OH227056   3.520   5.240   4.726
 9031TIP3    H127057   3.457   5.259   4.795
 9031TIP3    H227058   3.591   5.193   4.771
 9032TIP3   OH227059   3.534   5.675   5.096
 9032TIP3    H127060   3.548   5.581   5.110
 9032TIP3    H227061   3.509   5.708   5.182
 9033TIP3   OH227062   3.986   1.751   4.893
 9033TIP3    H127063   4.020   1.778   4.978
 9033TIP3    H227064   4.064   1.735   4.840
 9034TIP3   OH227065   7.083   4.153   5.174
 9034TIP3    H127066   6.999   4.137   5.130
 9034TIP3    H227067   7.094   4.248   5.170
 9035TIP3   OH227068   3.677   5.001   1.267
 9035TIP3    H127069   3.638   5.085   1.289
 9035TIP3    H227070   3.685   5.003   1.171
 9036TIP3   OH227071   0.106   5.430   2.995
 9036TIP3    H127072   0.083   5.522   3.003
 9036TIP3    H227073   0.199   5.429   2.976
 9037TIP3   OH227074   6.191   4.654   0.489
 9037TIP3    H127075   6.282   4.625   0.489
 9037TIP3    H227076   6.169   4.665   0.582
 9038TIP3   OH227077   6.458   3.309   1.559
 9038TIP3    H127078   6.484   3.218   1.560
 9038TIP3    H227079   6.422   3.326   1.646
 9039TIP3   OH227080   4.366   1.956   2.441
 9039TIP3    H127081   4.420   2.019   2.489
 9039TIP3    H227082   4.287   2.005   2.418
 9040TIP3   OH227083   5.626   6.647   0.891
 9040TIP3    H127084   5.688   6.673   0.823
 9040TIP3    H227085   5.556   6.711   0.886
 9041TIP3   OH227086   5.439   3.070   4.643
 9041TIP3    H127087   5.527   3.042   4.670
 9041TIP3    H227088   5.389   3.073   4.725
 9042TIP3   OH227089   6.135   5.452   2.067
 9042TIP3    H127090   6.150   5.378   2.126
 9042TIP3    H227091   6.076   5.418   2.000
 9043TIP3   OH227092   1.862   4.429   5.133
 9043TIP3    H127093   1.768   4.434   5.115
 9043TIP3    H227094   1.903   4.474   5.059
 9044TIP3   OH227095   1.543   2.159   1.418
 9044TIP3    H127096   1.508   2.112   1.341
 9044TIP3    H227097   1.572   2.089   1.477
 9045TIP3   OH227098   6.659   4.472   4.839
 9045TIP3    H127099   6.680   4.420   4.761
 9045TIP3    H227100   6.670   4.411   4.912
 9046TIP3   OH227101   5.372   2.221   4.918
 9046TIP3    H127102   5.347   2.133   4.891
 9046TIP3    H227103   5.467   2.224   4.903
 9047TIP3   OH227104   2.256   2.633   5.014
 9047TIP3    H127105   2.337   2.600   4.975
 9047TIP3    H227106   2.193   2.629   4.942
 9048TIP3   OH227107   6.792   5.603   3.788
 9048TIP3    H127108   6.837   5.665   3.732
 9048TIP3    H227109   6.820   5.517   3.757
 9049TIP3   OH227110   6.879   3.951   0.819
 9049TIP3    H127111   6.814   3.998   0.873
 9049TIP3    H227112   6.962   3.993   0.841
 9050TIP3   OH227113   2.373   5.930   1.779
 9050TIP3    H127114   2.293   5.977   1.755
 9050TIP3    H227115   2.431   5.999   1.813
 9051TIP3   OH227116   5.646   4.927   3.155
 9051TIP3    H127117   5.734   4.901   3.129
 9051TIP3    H227118   5.659   5.007   3.207
 9052TIP3   OH227119   4.646   1.525   1.335
 9052TIP3    H127120   4.659   1.435   1.365
 9052TIP3    H227121   4.720   1.541   1.275
 9053TIP3   OH227122   2.996   5.001   0.168
 9053TIP3    H127123   3.023   5.086   0.132
 9053TIP3    H227124   3.000   4.941   0.094
 9054TIP3   OH227125   2.531   0.337   4.931
 9054TIP3    H127126   2.544   0.430   4.952
 9054TIP3    H227127   2.594   0.319   4.863
 9055TIP3   OH227128   5.210   2.269   1.125
 9055TIP3    H127129   5.114   2.262   1.134
 9055TIP3    H227130   5.225   2.359   1.098
 9056TIP3   OH227131   6.170   5.232   1.697
 9056TIP3    H127132   6.155   5.143   1.663
 9056TIP3    H227133   6.261   5.231   1.725
 9057TIP3   OH227134   2.119   1.249   0.637
 9057TIP3    H127135   2.080   1.309   0.572
 9057TIP3    H227136   2.168   1.186   0.584
 9058TIP3   OH227137   2.648   0.190   5.151
 9058TIP3    H127138   2.586   0.184   5.078
 9058TIP3    H227139   2.686   0.103   5.158
 9059TIP3   OH227140   2.613   3.539   1.023
 9059TIP3    H127141   2.676   3.570   1.088
 9059TIP3    H227142   2.637   3.447   1.008
 9060TIP3   OH227143   1.422   1.070   4.544
 9060TIP3    H127144   1.403   1.129   4.616
 9060TIP3    H227145   1.412   0.982   4.581
 9061TIP3   OH227146   6.761   5.968   5.533
 9061TIP3    H127147   6.836   5.967   5.592
 9061TIP3    H227148   6.739   6.060   5.523
 9062TIP3   OH227149   0.799   1.887   0.946
 9062TIP3    H127150   0.855   1.809   0.947
 9062TIP3    H227151   0.748   1.881   1.027
 9063TIP3   OH227152   3.379   0.916   0.749
 9063TIP3    H127153   3.319   0.841   0.744
 9063TIP3    H227154   3.339   0.975   0.812
 9064TIP3   OH227155   4.933   0.857   2.854
 9064TIP3    H127156   5.007   0.913   2.879
 9064TIP3    H227157   4.859   0.892   2.904
 9065TIP3   OH227158   4.715   1.564   3.687
 9065TIP3    H127159   4.759   1.521   3.761
 9065TIP3    H227160   4.634   1.515   3.675
 9066TIP3   OH227161   0.077   3.266   5.216
 9066TIP3    H127162   0.056   3.228   5.301
 9066TIP3    H227163   0.063   3.360   5.228
 9067TIP3   OH227164   6.103   4.210   1.691
 9067TIP3    H127165   6.038   4.275   1.719
 9067TIP3    H227166   6.053   4.129   1.682
 9068TIP3   OH227167   2.124   6.435   3.843
 9068TIP3    H127168   2.129   6.365   3.778
 9068TIP3    H227169   2.069   6.399   3.912
 9069TIP3   OH227170   7.011   1.961   3.726
 9069TIP3    H127171   6.979   1.932   3.812
 9069TIP3    H227172   6.968   2.045   3.712
 9070TIP3   OH227173   1.209   5.083   0.598
 9070TIP3    H127174   1.169   5.017   0.655
 9070TIP3    H227175   1.152   5.160   0.607
 9071TIP3   OH227176   6.270   3.236   4.645
 9071TIP3    H127177   6.222   3.194   4.717
 9071TIP3    H227178   6.362   3.217   4.663
 9072TIP3   OH227179   6.032   3.551   0.739
 9072TIP3    H127180   5.984   3.479   0.698
 9072TIP3    H227181   6.066   3.602   0.666
 9073TIP3   OH227182   2.905   5.218   2.940
 9073TIP3    H127183   2.936   5.245   3.026
 9073TIP3    H227184   2.846   5.145   2.958
 9074TIP3   OH227185   4.200   4.730   1.803
 9074TIP3    H127186   4.127   4.786   1.776
 9074TIP3    H227187   4.276   4.787   1.802
 9075TIP3   OH227188   5.427   5.369   4.909
 9075TIP3    H127189   5.334   5.353   4.892
 9075TIP3    H227190   5.439   5.462   4.888
 9076TIP3   OH227191   6.328   4.612   4.433
 9076TIP3    H127192   6.268   4.675   4.472
 9076TIP3    H227193   6.396   4.665   4.392
 9077TIP3   OH227194   5.990   4.567   4.793
 9077TIP3    H127195   5.972   4.622   4.869
 9077TIP3    H227196   6.065   4.608   4.750
 9078TIP3   OH227197   5.364   6.251   5.482
 9078TIP3    H127198   5.442   6.195   5.474
 9078TIP3    H227199   5.330   6.256   5.392
 9079TIP3   OH227200   6.356   3.243   0.568
 9079TIP3    H127201   6.402   3.212   0.490
 9079TIP3    H227202   6.426   3.259   0.632
 9080TIP3   OH227203   2.078   0.971   1.624
 9080TIP3    H127204   2.030   0.903   1.577
 9080TIP3    H227205   2.125   0.924   1.693
 9081TIP3   OH227206   0.032   3.124   4.980
 9081TIP3    H127207   0.049   3.156   5.069
 9081TIP3    H227208   0.118   3.104   4.944
 9082TIP3   OH227209   0.681   2.134   4.216
 9082TIP3    H127210   0.746   2.192   4.177
 9082TIP3    H227211   0.718   2.109   4.300
 9083TIP3   OH227212   6.623   1.891   5.905
 9083TIP3    H127213   6.704   1.879   5.855
 9083TIP3    H227214   6.638   1.844   5.987
 9084TIP3   OH227215   4.013   4.521   5.536
 9084TIP3    H127216   3.954   4.446   5.544
 9084TIP3    H227217   4.095   4.491   5.575
 9085TIP3   OH227218   1.173   3.941   0.779
 9085TIP3    H127219   1.106   3.882   0.746
 9085TIP3    H227220   1.237   3.883   0.821
 9086TIP3   OH227221   1.753   3.156   4.900
 9086TIP3    H127222   1.808   3.080   4.887
 9086TIP3    H227223   1.807   3.217   4.951
 9087TIP3   OH227224   4.816   3.652   4.225
 9087TIP3    H127225   4.779   3.568   4.200
 9087TIP3    H227226   4.870   3.678   4.151
 9088TIP3   OH227227   3.409   2.628   2.215
 9088TIP3    H127228   3.466   2.588   2.280
 9088TIP3    H227229   3.446   2.600   2.131
 9089TIP3   OH227230   6.746   4.745   1.168
 9089TIP3    H127231   6.841   4.759   1.170
 9089TIP3    H227232   6.726   4.733   1.076
 9090TIP3   OH227233   3.934   3.664   0.613
 9090TIP3    H127234   3.925   3.621   0.698
 9090TIP3    H227235   3.911   3.755   0.629
 9091TIP3   OH227236   2.624   5.034   0.922
 9091TIP3    H127237   2.674   5.043   1.004
 9091TIP3    H227238   2.630   4.941   0.900
 9092TIP3   OH227239   0.764   1.383   3.263
 9092TIP3    H127240   0.822   1.342   3.327
 9092TIP3    H227241   0.823   1.414   3.194
 9093TIP3   OH227242   0.483   3.273   1.042
 9093TIP3    H127243   0.412   3.319   1.087
 9093TIP3    H227244   0.484   3.186   1.081
 9094TIP3   OH227245   0.359   6.701   1.512
 9094TIP3    H127246   0.357   6.605   1.505
 9094TIP3    H227247   0.390   6.731   1.427
 9095TIP3   OH227248   5.418   6.686   3.654
 9095TIP3    H127249   5.445   6.668   3.564
 9095TIP3    H227250   5.463   6.767   3.677
 9096TIP3   OH227251   6.174   5.183   2.972
 9096TIP3    H127252   6.111   5.182   2.900
 9096TIP3    H227253   6.219   5.098   2.966
 9097TIP3   OH227254   6.800   0.888   2.445
 9097TIP3    H127255   6.727   0.881   2.506
 9097TIP3    H227256   6.868   0.935   2.494
 9098TIP3   OH227257   0.381   1.419   5.087
 9098TIP3    H127258   0.325   1.361   5.036
 9098TIP3    H227259   0.330   1.437   5.166
 9099TIP3   OH227260   3.507   6.245   5.657
 9099TIP3    H127261   3.422   6.274   5.623
 9099TIP3    H227262   3.514   6.287   5.743
 9100TIP3   OH227263   4.595   5.410   1.375
 9100TIP3    H127264   4.544   5.404   1.456
 9100TIP3    H227265   4.533   5.442   1.309
 9101TIP3   OH227266   6.150   4.213   0.601
 9101TIP3    H127267   6.178   4.154   0.671
 9101TIP3    H227268   6.232   4.244   0.562
 9102TIP3   OH227269   0.632   6.645   5.109
 9102TIP3    H127270   0.682   6.611   5.035
 9102TIP3    H227271   0.677   6.609   5.186
 9103TIP3   OH227272   1.003   1.925   2.191
 9103TIP3    H127273   0.938   1.935   2.121
 9103TIP3    H227274   1.055   2.005   2.187
 9104TIP3   OH227275   4.837   6.356   4.190
 9104TIP3    H127276   4.835   6.265   4.219
 9104TIP3    H227277   4.751   6.391   4.212
 9105TIP3   OH227278   3.878   1.158   2.421
 9105TIP3    H127279   3.882   1.244   2.379
 9105TIP3    H227280   3.809   1.112   2.374
 9106TIP3   OH227281   5.794   5.412   2.724
 9106TIP3    H127282   5.783   5.354   2.800
 9106TIP3    H227283   5.871   5.464   2.746
 9107TIP3   OH227284   0.812   6.264   0.371
 9107TIP3    H127285   0.765   6.205   0.429
 9107TIP3    H227286   0.900   6.269   0.408
 9108TIP3   OH227287   3.027   1.346   2.559
 9108TIP3    H127288   3.008   1.263   2.603
 9108TIP3    H227289   3.106   1.379   2.602
 9109TIP3   OH227290   3.415   3.809   3.949
 9109TIP3    H127291   3.459   3.884   3.909
 9109TIP3    H227292   3.414   3.829   4.042
 9110TIP3   OH227293   3.151   2.872   5.775
 9110TIP3    H127294   3.106   2.913   5.701
 9110TIP3    H227295   3.110   2.911   5.853
 9111TIP3   OH227296   7.115   0.152   0.215
 9111TIP3    H127297   7.154   0.093   0.150
 9111TIP3    H227298   7.146   0.239   0.189
 9112TIP3   OH227299   2.219   5.052   1.448
 9112TIP3    H127300   2.125   5.040   1.434
 9112TIP3    H227301   2.260   4.984   1.394
 9113TIP3   OH227302   4.103   2.796   1.281
 9113TIP3    H127303   4.023   2.744   1.269
 9113TIP3    H227304   4.123   2.788   1.374
 9114TIP3   OH227305   3.863   5.637   4.505
 9114TIP3    H127306   3.870   5.667   4.596
 9114TIP3    H227307   3.888   5.545   4.508
 9115TIP3   OH227308   5.640   0.146   5.806
 9115TIP3    H127309   5.706   0.087   5.841
 9115TIP3    H227310   5.680   0.183   5.727
 9116TIP3   OH227311   2.820   4.265   4.955
 9116TIP3    H127312   2.913   4.284   4.948
 9116TIP3    H227313   2.777   4.337   4.910
 9117TIP3   OH227314   5.290   5.989   5.269
 9117TIP3    H127315   5.385   5.977   5.264
 9117TIP3    H227316   5.278   6.084   5.275
 9118TIP3   OH227317   6.705   0.847   5.024
 9118TIP3    H127318   6.700   0.896   5.106
 9118TIP3    H227319   6.665   0.763   5.045
 9119TIP3   OH227320   1.415   3.457   2.042
 9119TIP3    H127321   1.412   3.487   2.133
 9119TIP3    H227322   1.508   3.456   2.020
 9120TIP3   OH227323   4.588   6.461   4.305
 9120TIP3    H127324   4.556   6.405   4.375
 9120TIP3    H227325   4.528   6.536   4.305
 9121TIP3   OH227326   0.817   3.280   0.590
 9121TIP3    H127327   0.851   3.349   0.648
 9121TIP3    H227328   0.893   3.225   0.572
 9122TIP3   OH227329   4.469   4.492   2.509
 9122TIP3    H127330   4.408   4.519   2.578
 9122TIP3    H227331   4.543   4.453   2.556
 9123TIP3   OH227332   6.387   6.626   2.063
 9123TIP3    H127333   6.325   6.601   2.131
 9123TIP3    H227334   6.355   6.582   1.984
 9124TIP3   OH227335   2.631   5.354   3.623
 9124TIP3    H127336   2.589   5.434   3.592
 9124TIP3    H227337   2.714   5.351   3.577
 9125TIP3   OH227338   4.631   3.010   4.788
 9125TIP3    H127339   4.611   2.941   4.852
 9125TIP3    H227340   4.551   3.019   4.737
 9126TIP3   OH227341   4.161   1.996   0.268
 9126TIP3    H127342   4.178   2.080   0.312
 9126TIP3    H227343   4.166   2.016   0.175
 9127TIP3   OH227344   5.948   3.045   1.359
 9127TIP3    H127345   5.913   2.970   1.407
 9127TIP3    H227346   5.970   3.109   1.426
 9128TIP3   OH227347   1.396   5.918   1.131
 9128TIP3    H127348   1.445   5.868   1.197
 9128TIP3    H227349   1.400   5.863   1.053
 9129TIP3   OH227350   1.329   5.146   0.881
 9129TIP3    H127351   1.305   5.078   0.817
 9129TIP3    H227352   1.287   5.226   0.847
 9130TIP3   OH227353   0.664   4.470   0.853
 9130TIP3    H127354   0.629   4.383   0.835
 9130TIP3    H227355   0.588   4.528   0.849
 9131TIP3   OH227356   0.510   3.518   5.649
 9131TIP3    H127357   0.483   3.610   5.656
 9131TIP3    H227358   0.430   3.468   5.661
 9132TIP3   OH227359   5.852   2.558   1.614
 9132TIP3    H127360   5.933   2.530   1.657
 9132TIP3    H227361   5.792   2.484   1.627
 9133TIP3   OH227362   2.887   3.428   4.478
 9133TIP3    H127363   2.929   3.513   4.476
 9133TIP3    H227364   2.921   3.382   4.401
 9134TIP3   OH227365   1.345   3.401   5.306
 9134TIP3    H127366   1.286   3.402   5.382
 9134TIP3    H227367   1.358   3.308   5.288
 9135TIP3   OH227368   4.594   5.682   0.477
 9135TIP3    H127369   4.679   5.718   0.451
 9135TIP3    H227370   4.587   5.599   0.431
 9136TIP3   OH227371   7.122   0.275   2.592
 9136TIP3    H127372   7.204   0.318   2.615
 9136TIP3    H227373   7.113   0.289   2.497
 9137TIP3   OH227374   1.601   6.008   3.242
 9137TIP3    H127375   1.617   6.097   3.211
 9137TIP3    H227376   1.651   6.001   3.323
 9138TIP3   OH227377   3.557   3.337   0.498
 9138TIP3    H127378   3.496   3.309   0.430
 9138TIP3    H227379   3.557   3.433   0.493
 9139TIP3   OH227380   3.898   3.696   4.372
 9139TIP3    H127381   3.898   3.676   4.278
 9139TIP3    H227382   3.952   3.775   4.380
 9140TIP3   OH227383   5.446   4.162   5.066
 9140TIP3    H127384   5.361   4.203   5.082
 9140TIP3    H227385   5.449   4.149   4.971
 9141TIP3   OH227386   4.860   4.425   3.107
 9141TIP3    H127387   4.774   4.426   3.150
 9141TIP3    H227388   4.881   4.517   3.094
 9142TIP3   OH227389   3.681   2.553   0.058
 9142TIP3    H127390   3.684   2.469   0.011
 9142TIP3    H227391   3.616   2.604   0.009
 9143TIP3   OH227392   0.980   0.581   3.351
 9143TIP3    H127393   0.938   0.512   3.403
 9143TIP3    H227394   0.908   0.627   3.309
 9144TIP3   OH227395   6.367   0.862   3.522
 9144TIP3    H127396   6.330   0.782   3.485
 9144TIP3    H227397   6.433   0.832   3.585
 9145TIP3   OH227398   6.609   0.693   4.138
 9145TIP3    H127399   6.663   0.616   4.122
 9145TIP3    H227400   6.519   0.659   4.138
 9146TIP3   OH227401   5.435   4.188   2.029
 9146TIP3    H127402   5.402   4.115   2.082
 9146TIP3    H227403   5.510   4.151   1.982
 9147TIP3   OH227404   0.107   2.274   0.938
 9147TIP3    H127405   0.162   2.317   0.872
 9147TIP3    H227406   0.165   2.211   0.980
 9148TIP3   OH227407   7.072   5.527   2.552
 9148TIP3    H127408   7.107   5.453   2.601
 9148TIP3    H227409   7.001   5.490   2.500
 9149TIP3   OH227410   0.754   0.124   5.545
 9149TIP3    H127411   0.845   0.095   5.551
 9149TIP3    H227412   0.725   0.094   5.459
 9150TIP3   OH227413   6.946   5.102   1.087
 9150TIP3    H127414   6.891   5.169   1.126
 9150TIP3    H227415   6.937   5.026   1.145
 9151TIP3   OH227416   3.680   5.815   0.227
 9151TIP3    H127417   3.741   5.757   0.273
 9151TIP3    H227418   3.669   5.889   0.286
 9152TIP3   OH227419   3.269   0.196   2.980
 9152TIP3    H127420   3.335   0.157   3.038
 9152TIP3    H227421   3.294   0.168   2.892
 9153TIP3   OH227422   1.938   1.219   1.472
 9153TIP3    H127423   1.993   1.147   1.503
 9153TIP3    H227424   1.863   1.220   1.531
 9154TIP3   OH227425   0.040   2.870   0.656
 9154TIP3    H127426   0.039   2.897   0.748
 9154TIP3    H227427   0.132   2.874   0.630
 9155TIP3   OH227428   1.362   2.706   4.190
 9155TIP3    H127429   1.279   2.661   4.175
 9155TIP3    H227430   1.368   2.769   4.118
 9156TIP3   OH227431   3.172   3.240   5.577
 9156TIP3    H127432   3.252   3.195   5.605
 9156TIP3    H227433   3.102   3.177   5.594
 9157TIP3   OH227434   6.461   6.781   3.201
 9157TIP3    H127435   6.483   6.689   3.186
 9157TIP3    H227436   6.455   6.788   3.297
 9158TIP3   OH227437   3.408   3.831   1.935
 9158TIP3    H127438   3.397   3.737   1.949
 9158TIP3    H227439   3.497   3.840   1.901
 9159TIP3   OH227440   0.130   0.667   3.427
 9159TIP3    H127441   0.117   0.573   3.443
 9159TIP3    H227442   0.181   0.671   3.346
 9160TIP3   OH227443   1.668   1.690   1.814
 9160TIP3    H127444   1.650   1.769   1.866
 9160TIP3    H227445   1.754   1.706   1.776
 9161TIP3   OH227446   6.904   1.583   5.829
 9161TIP3    H127447   6.819   1.551   5.860
 9161TIP3    H227448   6.896   1.581   5.733
 9162TIP3   OH227449   1.574   2.304   3.679
 9162TIP3    H127450   1.512   2.336   3.614
 9162TIP3    H227451   1.537   2.221   3.710
 9163TIP3   OH227452   3.350   4.854   3.820
 9163TIP3    H127453   3.399   4.776   3.847
 9163TIP3    H227454   3.416   4.911   3.779
 9164TIP3   OH227455   3.731   3.955   5.466
 9164TIP3    H127456   3.765   3.884   5.522
 9164TIP3    H227457   3.650   3.983   5.508
 9165TIP3   OH227458   1.130   3.078   1.833
 9165TIP3    H127459   1.202   3.087   1.895
 9165TIP3    H227460   1.062   3.031   1.881
 9166TIP3   OH227461   3.084   0.095   2.483
 9166TIP3    H127462   3.015   0.076   2.420
 9166TIP3    H227463   3.100   0.012   2.528
 9167TIP3   OH227464   5.507   4.234   3.458
 9167TIP3    H127465   5.433   4.259   3.512
 9167TIP3    H227466   5.573   4.301   3.475
 9168TIP3   OH227467   0.827   3.783   2.157
 9168TIP3    H127468   0.756   3.805   2.217
 9168TIP3    H227469   0.903   3.769   2.213
 9169TIP3   OH227470   1.523   3.137   1.178
 9169TIP3    H127471   1.433   3.108   1.192
 9169TIP3    H227472   1.575   3.082   1.237
 9170TIP3   OH227473   2.846   1.946   2.785
 9170TIP3    H127474   2.935   1.921   2.811
 9170TIP3    H227475   2.833   2.033   2.824
 9171TIP3   OH227476   5.000   3.421   1.199
 9171TIP3    H127477   4.959   3.443   1.116
 9171TIP3    H227478   4.994   3.501   1.251
 9172TIP3   OH227479   5.703   2.419   5.151
 9172TIP3    H127480   5.677   2.469   5.074
 9172TIP3    H227481   5.641   2.347   5.155
 9173TIP3   OH227482   3.580   4.689   2.389
 9173TIP3    H127483   3.656   4.673   2.334
 9173TIP3    H227484   3.598   4.641   2.470
 9174TIP3   OH227485   3.476   2.667   3.113
 9174TIP3    H127486   3.484   2.742   3.173
 9174TIP3    H227487   3.566   2.638   3.101
 9175TIP3   OH227488   0.431   3.123   3.947
 9175TIP3    H127489   0.466   3.159   3.865
 9175TIP3    H227490   0.504   3.126   4.008
 9176TIP3   OH227491   6.339   6.503   4.998
 9176TIP3    H127492   6.390   6.531   5.073
 9176TIP3    H227493   6.322   6.583   4.949
 9177TIP3   OH227494   1.239   4.464   2.693
 9177TIP3    H127495   1.170   4.461   2.760
 9177TIP3    H227496   1.198   4.429   2.615
 9178TIP3   OH227497   0.276   3.630   2.802
 9178TIP3    H127498   0.232   3.551   2.833
 9178TIP3    H227499   0.366   3.602   2.787
 9179TIP3   OH227500   3.322   2.466  -0.049
 9179TIP3    H127501   3.399   2.412  -0.065
 9179TIP3    H227502   3.344   2.551  -0.086
 9180TIP3   OH227503   5.845   2.740   1.175
 9180TIP3    H127504   5.776   2.805   1.165
 9180TIP3    H227505   5.803   2.656   1.160
 9181TIP3   OH227506   6.828   2.119   2.217
 9181TIP3    H127507   6.756   2.162   2.172
 9181TIP3    H227508   6.803   2.122   2.310
 9182TIP3   OH227509   7.122   5.321   2.710
 9182TIP3    H127510   7.192   5.257   2.728
 9182TIP3    H227511   7.060   5.273   2.656
 9183TIP3   OH227512   3.693   6.348   4.225
 9183TIP3    H127513   3.782   6.347   4.192
 9183TIP3    H227514   3.688   6.275   4.286
 9184TIP3   OH227515   0.928   4.635   1.125
 9184TIP3    H127516   0.850   4.625   1.179
 9184TIP3    H227517   0.903   4.696   1.056
 9185TIP3   OH227518   3.469   2.111   0.030
 9185TIP3    H127519   3.547   2.057   0.021
 9185TIP3    H227520   3.396   2.051   0.011
 9186TIP3   OH227521   4.690   2.527   2.978
 9186TIP3    H127522   4.727   2.610   3.008
 9186TIP3    H227523   4.766   2.474   2.953
 9187TIP3   OH227524   4.448   4.176   5.141
 9187TIP3    H127525   4.424   4.185   5.233
 9187TIP3    H227526   4.518   4.111   5.141
 9188TIP3   OH227527   5.202   1.149   5.794
 9188TIP3    H127528   5.194   1.079   5.859
 9188TIP3    H227529   5.245   1.221   5.841
 9189TIP3   OH227530  -0.061   4.935   2.840
 9189TIP3    H127531  -0.001   5.002   2.808
 9189TIP3    H227532  -0.026   4.910   2.926
 9190TIP3   OH227533   1.526   5.845   1.958
 9190TIP3    H127534   1.561   5.756   1.956
 9190TIP3    H227535   1.466   5.846   2.032
 9191TIP3   OH227536   6.434   1.301   0.925
 9191TIP3    H127537   6.352   1.331   0.963
 9191TIP3    H227538   6.410   1.224   0.874
 9192TIP3   OH227539   6.238   5.453   3.558
 9192TIP3    H127540   6.264   5.475   3.469
 9192TIP3    H227541   6.262   5.360   3.567
 9193TIP3   OH227542   3.481   3.706   2.529
 9193TIP3    H127543   3.490   3.705   2.625
 9193TIP3    H227544   3.492   3.798   2.505
 9194TIP3   OH227545   0.486   3.676   5.329
 9194TIP3    H127546   0.514   3.752   5.379
 9194TIP3    H227547   0.429   3.712   5.261
 9195TIP3   OH227548   6.193   0.462   3.007
 9195TIP3    H127549   6.171   0.373   2.978
 9195TIP3    H227550   6.151   0.470   3.093
 9196TIP3   OH227551   5.535   6.029   2.073
 9196TIP3    H127552   5.582   6.082   2.008
 9196TIP3    H227553   5.443   6.039   2.050
 9197TIP3   OH227554   3.053   2.114   4.102
 9197TIP3    H127555   3.017   2.156   4.024
 9197TIP3    H227556   3.001   2.035   4.112
 9198TIP3   OH227557   3.405   3.164   2.288
 9198TIP3    H127558   3.443   3.078   2.274
 9198TIP3    H227559   3.392   3.170   2.383
 9199TIP3   OH227560   6.376   4.659   2.872
 9199TIP3    H127561   6.438   4.658   2.945
 9199TIP3    H227562   6.325   4.579   2.884
 9200TIP3   OH227563   5.921   3.669   4.683
 9200TIP3    H127564   5.950   3.705   4.600
 9200TIP3    H227565   5.825   3.671   4.678
 9201TIP3   OH227566   6.145   2.035   1.470
 9201TIP3    H127567   6.241   2.035   1.469
 9201TIP3    H227568   6.120   2.030   1.378
 9202TIP3   OH227569   5.056   5.036   4.727
 9202TIP3    H127570   4.987   4.976   4.698
 9202TIP3    H227571   5.137   5.001   4.691
 9203TIP3   OH227572   4.248   4.199   1.969
 9203TIP3    H127573   4.211   4.244   2.045
 9203TIP3    H227574   4.258   4.267   1.903
 9204TIP3   OH227575   6.641   2.374   5.511
 9204TIP3    H127576   6.643   2.427   5.431
 9204TIP3    H227577   6.724   2.326   5.510
 9205TIP3   OH227578   2.792   5.736   3.042
 9205TIP3    H127579   2.736   5.809   3.066
 9205TIP3    H227580   2.818   5.754   2.952
 9206TIP3   OH227581   3.545   0.491   0.266
 9206TIP3    H127582   3.632   0.454   0.276
 9206TIP3    H227583   3.533   0.546   0.343
 9207TIP3   OH227584   2.883   5.327   3.495
 9207TIP3    H127585   2.857   5.317   3.404
 9207TIP3    H227586   2.975   5.298   3.497
 9208TIP3   OH227587   2.307   2.703   4.233
 9208TIP3    H127588   2.321   2.682   4.140
 9208TIP3    H227589   2.305   2.618   4.276
 9209TIP3   OH227590   0.741   0.999   3.997
 9209TIP3    H127591   0.723   1.070   3.935
 9209TIP3    H227592   0.655   0.959   4.013
 9210TIP3   OH227593   0.270   0.754   4.000
 9210TIP3    H127594   0.244   0.843   4.024
 9210TIP3    H227595   0.239   0.744   3.909
 9211TIP3   OH227596   3.860   0.138   1.777
 9211TIP3    H127597   3.948   0.173   1.763
 9211TIP3    H227598   3.815   0.206   1.826
 9212TIP3   OH227599   2.521   2.235   0.144
 9212TIP3    H127600   2.602   2.200   0.109
 9212TIP3    H227601   2.489   2.295   0.077
 9213TIP3   OH227602   1.341   0.150   4.216
 9213TIP3    H127603   1.349   0.058   4.191
 9213TIP3    H227604   1.301   0.192   4.139
 9214TIP3   OH227605   2.666   2.325   0.923
 9214TIP3    H127606   2.688   2.257   0.986
 9214TIP3    H227607   2.577   2.352   0.947
 9215TIP3   OH227608   4.394   1.237   2.080
 9215TIP3    H127609   4.322   1.175   2.070
 9215TIP3    H227610   4.421   1.258   1.990
 9216TIP3   OH227611   3.907   5.822   0.622
 9216TIP3    H127612   3.850   5.860   0.556
 9216TIP3    H227613   3.851   5.762   0.671
 9217TIP3   OH227614   6.931   0.568   3.179
 9217TIP3    H127615   6.871   0.574   3.104
 9217TIP3    H227616   6.935   0.474   3.198
 9218TIP3   OH227617   5.226   4.216   3.008
 9218TIP3    H127618   5.243   4.289   3.067
 9218TIP3    H227619   5.153   4.245   2.954
 9219TIP3   OH227620   3.182   3.005   3.620
 9219TIP3    H127621   3.158   3.070   3.554
 9219TIP3    H227622   3.194   2.924   3.569
 9220TIP3   OH227623   5.059   0.702   2.196
 9220TIP3    H127624   5.148   0.710   2.230
 9220TIP3    H227625   5.005   0.684   2.274
 9221TIP3   OH227626   4.189   0.748   0.343
 9221TIP3    H127627   4.247   0.800   0.287
 9221TIP3    H227628   4.177   0.803   0.421
 9222TIP3   OH227629   4.138   2.621   4.944
 9222TIP3    H127630   4.159   2.538   4.900
 9222TIP3    H227631   4.132   2.685   4.874
 9223TIP3   OH227632   3.254   4.561   2.529
 9223TIP3    H127633   3.331   4.540   2.582
 9223TIP3    H227634   3.239   4.482   2.477
 9224TIP3   OH227635   2.293   6.555   1.368
 9224TIP3    H127636   2.355   6.486   1.392
 9224TIP3    H227637   2.314   6.575   1.277
 9225TIP3   OH227638   3.004   6.270   4.159
 9225TIP3    H127639   3.021   6.183   4.121
 9225TIP3    H227640   2.978   6.324   4.084
 9226TIP3   OH227641   4.638   1.578   0.876
 9226TIP3    H127642   4.646   1.498   0.929
 9226TIP3    H227643   4.665   1.649   0.934
 9227TIP3   OH227644   0.297   0.122   3.900
 9227TIP3    H127645   0.335   0.035   3.904
 9227TIP3    H227646   0.368   0.179   3.872
 9228TIP3   OH227647   0.284   2.048   3.648
 9228TIP3    H127648   0.327   2.005   3.574
 9228TIP3    H227649   0.319   2.003   3.725
 9229TIP3   OH227650   3.590   4.211   2.116
 9229TIP3    H127651   3.562   4.202   2.026
 9229TIP3    H227652   3.517   4.178   2.168
 9230TIP3   OH227653   5.268   2.282   5.487
 9230TIP3    H127654   5.342   2.256   5.542
 9230TIP3    H227655   5.195   2.230   5.522
 9231TIP3   OH227656   3.353   0.270   0.814
 9231TIP3    H127657   3.339   0.327   0.738
 9231TIP3    H227658   3.437   0.227   0.797
 9232TIP3   OH227659   6.819   3.992   5.378
 9232TIP3    H127660   6.824   3.975   5.284
 9232TIP3    H227661   6.909   4.017   5.403
 9233TIP3   OH227662   0.104   3.707   2.591
 9233TIP3    H127663   0.182   3.703   2.646
 9233TIP3    H227664   0.030   3.702   2.652
 9234TIP3   OH227665   5.997   5.841   3.712
 9234TIP3    H127666   5.934   5.791   3.765
 9234TIP3    H227667   5.965   5.932   3.717
 9235TIP3   OH227668   6.839   2.525   3.907
 9235TIP3    H127669   6.874   2.569   3.984
 9235TIP3    H227670   6.757   2.486   3.936
 9236TIP3   OH227671   5.777   4.603   5.801
 9236TIP3    H127672   5.698   4.560   5.835
 9236TIP3    H227673   5.752   4.694   5.790
 9237TIP3   OH227674   0.837   2.327   0.503
 9237TIP3    H127675   0.760   2.292   0.458
 9237TIP3    H227676   0.851   2.412   0.463
 9238TIP3   OH227677   0.876   1.265   0.605
 9238TIP3    H127678   0.890   1.184   0.655
 9238TIP3    H227679   0.958   1.314   0.615
 9239TIP3   OH227680   3.560   0.593   1.034
 9239TIP3    H127681   3.599   0.665   0.983
 9239TIP3    H227682   3.471   0.623   1.054
 9240TIP3   OH227683   4.954   1.702   1.158
 9240TIP3    H127684   4.954   1.702   1.254
 9240TIP3    H227685   4.969   1.611   1.134
 9241TIP3   OH227686   4.769   2.046   2.573
 9241TIP3    H127687   4.754   2.010   2.485
 9241TIP3    H227688   4.823   2.124   2.557
 9242TIP3   OH227689   0.175   5.103   5.696
 9242TIP3    H127690   0.090   5.060   5.699
 9242TIP3    H227691   0.235   5.040   5.736
 9243TIP3   OH227692   3.643   2.933   2.892
 9243TIP3    H127693   3.623   2.972   2.977
 9243TIP3    H227694   3.635   3.006   2.830
 9244TIP3   OH227695   6.045   6.685   4.857
 9244TIP3    H127696   5.987   6.610   4.869
 9244TIP3    H227697   6.010   6.752   4.916
 9245TIP3   OH227698   0.684   0.460   0.784
 9245TIP3    H127699   0.718   0.478   0.872
 9245TIP3    H227700   0.735   0.385   0.754
 9246TIP3   OH227701   5.627   4.596   1.847
 9246TIP3    H127702   5.695   4.538   1.812
 9246TIP3    H227703   5.577   4.541   1.907
 9247TIP3   OH227704   0.376   0.400   2.782
 9247TIP3    H127705   0.455   0.452   2.793
 9247TIP3    H227706   0.321   0.422   2.857
 9248TIP3   OH227707   5.469   3.613   1.962
 9248TIP3    H127708   5.535   3.544   1.960
 9248TIP3    H227709   5.390   3.570   1.995
 9249TIP3   OH227710   1.336   3.803   4.368
 9249TIP3    H127711   1.337   3.896   4.390
 9249TIP3    H227712   1.307   3.760   4.449
 9250TIP3   OH227713   5.307   4.595   3.111
 9250TIP3    H127714   5.320   4.508   3.150
 9250TIP3    H227715   5.316   4.580   3.017
 9251TIP3   OH227716   3.302   2.055   3.190
 9251TIP3    H127717   3.256   1.977   3.221
 9251TIP3    H227718   3.393   2.043   3.218
 9252TIP3   OH227719   2.789   4.310   4.230
 9252TIP3    H127720   2.753   4.379   4.174
 9252TIP3    H227721   2.838   4.357   4.297
 9253TIP3   OH227722   1.538   3.660   2.926
 9253TIP3    H127723   1.590   3.668   3.006
 9253TIP3    H227724   1.603   3.661   2.856
 9254TIP3   OH227725   6.237   4.525   4.163
 9254TIP3    H127726   6.281   4.526   4.248
 9254TIP3    H227727   6.284   4.589   4.110
 9255TIP3   OH227728   4.268   0.561   2.647
 9255TIP3    H127729   4.242   0.559   2.739
 9255TIP3    H227730   4.278   0.469   2.623
 9256TIP3   OH227731   0.487   5.926   4.339
 9256TIP3    H127732   0.581   5.916   4.352
 9256TIP3    H227733   0.460   5.988   4.406
 9257TIP3   OH227734   6.123   2.847   2.300
 9257TIP3    H127735   6.081   2.840   2.386
 9257TIP3    H227736   6.127   2.757   2.268
 9258TIP3   OH227737   4.768   4.058   2.052
 9258TIP3    H127738   4.748   4.146   2.083
 9258TIP3    H227739   4.682   4.018   2.038
 9259TIP3   OH227740   1.928   4.099   1.245
 9259TIP3    H127741   1.954   4.033   1.309
 9259TIP3    H227742   2.004   4.157   1.239
 9260TIP3   OH227743   3.784   3.107   2.385
 9260TIP3    H127744   3.878   3.091   2.379
 9260TIP3    H227745   3.759   3.073   2.471
 9261TIP3   OH227746   6.179   5.121   5.485
 9261TIP3    H127747   6.208   5.131   5.576
 9261TIP3    H227748   6.183   5.209   5.448
 9262TIP3   OH227749   3.579   1.490   0.856
 9262TIP3    H127750   3.514   1.553   0.822
 9262TIP3    H227751   3.663   1.533   0.841
 9263TIP3   OH227752   2.220   4.764   0.389
 9263TIP3    H127753   2.293   4.818   0.421
 9263TIP3    H227754   2.258   4.712   0.319
 9264TIP3   OH227755   2.860   3.164   1.343
 9264TIP3    H127756   2.945   3.205   1.360
 9264TIP3    H227757   2.881   3.076   1.314
 9265TIP3   OH227758   3.669   6.189   2.523
 9265TIP3    H127759   3.638   6.235   2.601
 9265TIP3    H227760   3.716   6.255   2.473
 9266TIP3   OH227761   2.461   3.232   4.580
 9266TIP3    H127762   2.553   3.236   4.608
 9266TIP3    H227763   2.419   3.304   4.627
 9267TIP3   OH227764   5.630   1.796   0.454
 9267TIP3    H127765   5.640   1.859   0.382
 9267TIP3    H227766   5.665   1.714   0.420
 9268TIP3   OH227767   1.839   0.806   3.578
 9268TIP3    H127768   1.778   0.806   3.503
 9268TIP3    H227769   1.925   0.796   3.538
 9269TIP3   OH227770   0.021   3.027   3.711
 9269TIP3    H127771  -0.020   3.082   3.778
 9269TIP3    H227772   0.089   2.979   3.757
 9270TIP3   OH227773   4.156   1.520   5.693
 9270TIP3    H127774   4.061   1.519   5.678
 9270TIP3    H227775   4.172   1.446   5.751
 9271TIP3   OH227776   1.122   3.367   1.918
 9271TIP3    H127777   1.161   3.418   1.847
 9271TIP3    H227778   1.083   3.292   1.875
 9272TIP3   OH227779   6.953   0.416   0.421
 9272TIP3    H127780   6.919   0.371   0.344
 9272TIP3    H227781   7.047   0.400   0.418
 9273TIP3   OH227782   1.892   4.222   4.048
 9273TIP3    H127783   1.981   4.196   4.074
 9273TIP3    H227784   1.894   4.217   3.952
 9274TIP3   OH227785   1.526   6.586   5.415
 9274TIP3    H127786   1.565   6.635   5.487
 9274TIP3    H227787   1.524   6.495   5.446
 9275TIP3   OH227788   5.313   4.075   0.617
 9275TIP3    H127789   5.406   4.087   0.596
 9275TIP3    H227790   5.296   3.982   0.599
 9276TIP3   OH227791   1.877   6.649   0.660
 9276TIP3    H127792   1.863   6.719   0.596
 9276TIP3    H227793   1.953   6.601   0.627
 9277TIP3   OH227794   5.082   0.230   4.415
 9277TIP3    H127795   5.026   0.189   4.349
 9277TIP3    H227796   5.025   0.292   4.460
 9278TIP3   OH227797   5.855   2.864   3.553
 9278TIP3    H127798   5.944   2.835   3.577
 9278TIP3    H227799   5.837   2.819   3.470
 9279TIP3   OH227800   6.049   5.681   2.251
 9279TIP3    H127801   6.069   5.758   2.199
 9279TIP3    H227802   6.058   5.607   2.190
 9280TIP3   OH227803   0.327   3.435   3.950
 9280TIP3    H127804   0.313   3.422   3.856
 9280TIP3    H227805   0.415   3.400   3.966
 9281TIP3   OH227806   3.994   2.832   2.121
 9281TIP3    H127807   4.031   2.920   2.131
 9281TIP3    H227808   4.066   2.780   2.083
 9282TIP3   OH227809   4.032   1.928   2.805
 9282TIP3    H127810   3.949   1.976   2.800
 9282TIP3    H227811   4.097   1.990   2.773
 9283TIP3   OH227812   2.345   6.011   1.372
 9283TIP3    H127813   2.299   5.929   1.390
 9283TIP3    H227814   2.358   6.051   1.457
 9284TIP3   OH227815   6.291   4.817   1.976
 9284TIP3    H127816   6.360   4.844   1.915
 9284TIP3    H227817   6.210   4.834   1.928
 9285TIP3   OH227818   0.310   5.940   3.383
 9285TIP3    H127819   0.242   5.915   3.320
 9285TIP3    H227820   0.392   5.937   3.333
 9286TIP3   OH227821   4.239   0.043   2.804
 9286TIP3    H127822   4.315   0.099   2.819
 9286TIP3    H227823   4.226  -0.003   2.887
 9287TIP3   OH227824   5.640   4.163   3.840
 9287TIP3    H127825   5.719   4.151   3.787
 9287TIP3    H227826   5.653   4.248   3.883
 9288TIP3   OH227827   6.406   4.277   1.804
 9288TIP3    H127828   6.310   4.282   1.800
 9288TIP3    H227829   6.424   4.216   1.875
 9289TIP3   OH227830   4.330   0.883   2.539
 9289TIP3    H127831   4.323   0.939   2.616
 9289TIP3    H227832   4.244   0.843   2.530
 9290TIP3   OH227833   1.190   6.171   3.727
 9290TIP3    H127834   1.243   6.177   3.647
 9290TIP3    H227835   1.101   6.156   3.696
 9291TIP3   OH227836   2.748   1.410   4.416
 9291TIP3    H127837   2.833   1.449   4.394
 9291TIP3    H227838   2.696   1.483   4.449
 9292TIP3   OH227839   5.452   2.645   1.909
 9292TIP3    H127840   5.513   2.572   1.904
 9292TIP3    H227841   5.462   2.690   1.825
 9293TIP3   OH227842   5.241   3.516   1.025
 9293TIP3    H127843   5.251   3.525   1.120
 9293TIP3    H227844   5.193   3.434   1.013
 9294TIP3   OH227845   0.414   0.217   5.565
 9294TIP3    H127846   0.493   0.168   5.542
 9294TIP3    H227847   0.405   0.282   5.495
 9295TIP3   OH227848   5.747   6.124   4.839
 9295TIP3    H127849   5.825   6.175   4.818
 9295TIP3    H227850   5.694   6.128   4.760
 9296TIP3   OH227851   7.197   5.748   4.746
 9296TIP3    H127852   7.127   5.691   4.715
 9296TIP3    H227853   7.223   5.710   4.830
 9297TIP3   OH227854   2.350   3.724   3.427
 9297TIP3    H127855   2.337   3.702   3.520
 9297TIP3    H227856   2.345   3.819   3.424
 9298TIP3   OH227857   0.972   2.594   4.805
 9298TIP3    H127858   1.063   2.624   4.806
 9298TIP3    H227859   0.941   2.607   4.895
 9299TIP3   OH227860   4.098   3.802   3.078
 9299TIP3    H127861   4.123   3.710   3.088
 9299TIP3    H227862   4.011   3.807   3.117
 9300TIP3   OH227863   5.918   6.477   5.532
 9300TIP3    H127864   6.005   6.490   5.494
 9300TIP3    H227865   5.902   6.383   5.523
 9301TIP3   OH227866   0.728   0.882   2.679
 9301TIP3    H127867   0.779   0.815   2.634
 9301TIP3    H227868   0.744   0.866   2.772
 9302TIP3   OH227869   4.095   5.771   3.612
 9302TIP3    H127870   4.125   5.825   3.539
 9302TIP3    H227871   4.162   5.704   3.622
 9303TIP3   OH227872   1.137   4.381   4.933
 9303TIP3    H127873   1.201   4.313   4.910
 9303TIP3    H227874   1.110   4.417   4.849
 9304TIP3   OH227875   5.330   3.798   0.570
 9304TIP3    H127876   5.380   3.741   0.513
 9304TIP3    H227877   5.379   3.798   0.653
 9305TIP3   OH227878   3.393   0.752   3.372
 9305TIP3    H127879   3.324   0.702   3.328
 9305TIP3    H227880   3.383   0.841   3.340
 9306TIP3   OH227881   4.816   4.430   4.411
 9306TIP3    H127882   4.869   4.503   4.377
 9306TIP3    H227883   4.734   4.435   4.362
 9307TIP3   OH227884   3.253   6.102   4.773
 9307TIP3    H127885   3.327   6.060   4.730
 9307TIP3    H227886   3.275   6.195   4.773
 9308TIP3   OH227887   5.229   1.773   2.772
 9308TIP3    H127888   5.309   1.823   2.758
 9308TIP3    H227889   5.229   1.754   2.866
 9309TIP3   OH227890   7.232   1.854   3.360
 9309TIP3    H127891   7.215   1.817   3.446
 9309TIP3    H227892   7.237   1.778   3.301
 9310TIP3   OH227893   0.866   3.724   1.286
 9310TIP3    H127894   0.855   3.819   1.280
 9310TIP3    H227895   0.946   3.706   1.236
 9311TIP3   OH227896   4.836   5.935   1.414
 9311TIP3    H127897   4.759   5.890   1.450
 9311TIP3    H227898   4.804   5.977   1.334
 9312TIP3   OH227899   1.374   5.103   0.370
 9312TIP3    H127900   1.470   5.104   0.367
 9312TIP3    H227901   1.353   5.087   0.462
 9313TIP3   OH227902   6.813   0.918   5.761
 9313TIP3    H127903   6.860   0.917   5.844
 9313TIP3    H227904   6.827   0.831   5.724
 9314TIP3   OH227905   2.994   5.253   5.084
 9314TIP3    H127906   2.965   5.343   5.099
 9314TIP3    H227907   2.937   5.221   5.015
 9315TIP3   OH227908   6.555   4.023   5.339
 9315TIP3    H127909   6.562   3.970   5.259
 9315TIP3    H227910   6.642   4.061   5.351
 9316TIP3   OH227911   6.055   0.307   2.558
 9316TIP3    H127912   6.051   0.375   2.625
 9316TIP3    H227913   6.071   0.354   2.476
 9317TIP3   OH227914   6.355   3.876   0.375
 9317TIP3    H127915   6.272   3.851   0.417
 9317TIP3    H227916   6.392   3.794   0.343
 9318TIP3   OH227917   3.320   5.415   1.099
 9318TIP3    H127918   3.301   5.359   1.024
 9318TIP3    H227919   3.237   5.460   1.117
 9319TIP3   OH227920   1.447   2.451   4.993
 9319TIP3    H127921   1.487   2.441   5.079
 9319TIP3    H227922   1.491   2.527   4.955
 9320TIP3   OH227923   1.636   1.498   4.097
 9320TIP3    H127924   1.627   1.552   4.018
 9320TIP3    H227925   1.669   1.414   4.064
 9321TIP3   OH227926   1.075   6.439   1.831
 9321TIP3    H127927   1.033   6.356   1.856
 9321TIP3    H227928   1.162   6.413   1.800
 9322TIP3   OH227929   3.599   4.897   1.631
 9322TIP3    H127930   3.574   4.937   1.715
 9322TIP3    H227931   3.661   4.959   1.593
 9323TIP3   OH227932   2.833   6.209   0.798
 9323TIP3    H127933   2.766   6.143   0.815
 9323TIP3    H227934   2.834   6.263   0.877
 9324TIP3   OH227935   5.348   4.992   5.769
 9324TIP3    H127936   5.402   4.913   5.770
 9324TIP3    H227937   5.267   4.967   5.814
 9325TIP3   OH227938   0.749   4.392   5.484
 9325TIP3    H127939   0.788   4.463   5.536
 9325TIP3    H227940   0.681   4.435   5.433
 9326TIP3   OH227941   1.525   1.141   0.861
 9326TIP3    H127942   1.517   1.090   0.780
 9326TIP3    H227943   1.529   1.232   0.831
 9327TIP3   OH227944   0.780  -0.002   1.535
 9327TIP3    H127945   0.717  -0.063   1.498
 9327TIP3    H227946   0.805   0.055   1.462
 9328TIP3   OH227947   2.406   6.624   2.993
 9328TIP3    H127948   2.315   6.646   2.971
 9328TIP3    H227949   2.441   6.584   2.914
 9329TIP3   OH227950   3.179   1.432   5.370
 9329TIP3    H127951   3.258   1.434   5.316
 9329TIP3    H227952   3.124   1.365   5.331
 9330TIP3   OH227953   2.963   5.389   1.638
 9330TIP3    H127954   2.969   5.467   1.693
 9330TIP3    H227955   2.956   5.423   1.549
 9331TIP3   OH227956   4.475   6.607   1.939
 9331TIP3    H127957   4.537   6.637   2.005
 9331TIP3    H227958   4.510   6.522   1.910
 9332TIP3   OH227959   1.848   4.385   4.283
 9332TIP3    H127960   1.888   4.341   4.209
 9332TIP3    H227961   1.849   4.478   4.260
 9333TIP3   OH227962   2.797   0.426   4.635
 9333TIP3    H127963   2.704   0.412   4.656
 9333TIP3    H227964   2.817   0.357   4.571
 9334TIP3   OH227965   0.927   3.408   1.449
 9334TIP3    H127966   0.966   3.420   1.362
 9334TIP3    H227967   0.991   3.356   1.497
 9335TIP3   OH227968   0.657   4.703   3.959
 9335TIP3    H127969   0.649   4.662   3.873
 9335TIP3    H227970   0.748   4.732   3.964
 9336TIP3   OH227971   6.085   1.232   5.716
 9336TIP3    H127972   6.177   1.234   5.741
 9336TIP3    H227973   6.065   1.140   5.704
 9337TIP3   OH227974   4.898   6.351  -0.013
 9337TIP3    H127975   4.835   6.282   0.008
 9337TIP3    H227976   4.862   6.429   0.029
 9338TIP3   OH227977   0.024   0.028   1.706
 9338TIP3    H127978  -0.050   0.063   1.756
 9338TIP3    H227979   0.085   0.101   1.697
 9339TIP3   OH227980   2.563   1.351   0.259
 9339TIP3    H127981   2.572   1.258   0.276
 9339TIP3    H227982   2.647   1.388   0.286
 9340TIP3   OH227983   2.401   3.300   0.158
 9340TIP3    H127984   2.436   3.339   0.077
 9340TIP3    H227985   2.382   3.209   0.134
 9341TIP3   OH227986   2.324   6.255   4.204
 9341TIP3    H127987   2.404   6.291   4.165
 9341TIP3    H227988   2.293   6.191   4.140
 9342TIP3   OH227989   4.723   6.528   3.476
 9342TIP3    H127990   4.804   6.526   3.528
 9342TIP3    H227991   4.747   6.576   3.397
 9343TIP3   OH227992   5.864   1.853   4.629
 9343TIP3    H127993   5.916   1.913   4.682
 9343TIP3    H227994   5.923   1.780   4.611
 9344TIP3   OH227995   0.972   1.271   3.406
 9344TIP3    H127996   0.971   1.198   3.345
 9344TIP3    H227997   1.006   1.233   3.488
 9345TIP3   OH227998   6.321   3.715   3.600
 9345TIP3    H127999   6.301   3.667   3.680
 9345TIP3    H228000   6.416   3.704   3.588
 9346TIP3   OH228001   3.374   3.419   0.719
 9346TIP3    H128002   3.422   3.501   0.725
 9346TIP3    H228003   3.426   3.364   0.661
 9347TIP3   OH228004   3.913   1.172   3.676
 9347TIP3    H128005   3.995   1.122   3.681
 9347TIP3    H228006   3.876   1.166   3.764
 9348TIP3   OH228007   2.679   4.478   4.845
 9348TIP3    H128008   2.637   4.492   4.930
 9348TIP3    H228009   2.608   4.446   4.788
 9349TIP3   OH228010   0.933   5.095   2.756
 9349TIP3    H128011   0.956   5.102   2.663
 9349TIP3    H228012   0.932   5.186   2.787
 9350TIP3   OH228013   1.476   1.233   2.988
 9350TIP3    H128014   1.564   1.264   3.008
 9350TIP3    H228015   1.473   1.226   2.893
 9351TIP3   OH228016   1.892   2.334   5.318
 9351TIP3    H128017   1.954   2.406   5.305
 9351TIP3    H228018   1.908   2.275   5.245
 9352TIP3   OH228019   6.054   6.049   3.266
 9352TIP3    H128020   5.987   6.081   3.326
 9352TIP3    H228021   6.085   5.967   3.306
 9353TIP3   OH228022   3.733   2.613   5.756
 9353TIP3    H128023   3.758   2.669   5.683
 9353TIP3    H228024   3.642   2.590   5.738
 9354TIP3   OH228025   3.823   3.488   5.591
 9354TIP3    H128026   3.806   3.426   5.662
 9354TIP3    H228027   3.912   3.467   5.561
 9355TIP3   OH228028   1.651   5.503   3.577
 9355TIP3    H128029   1.686   5.417   3.556
 9355TIP3    H228030   1.704   5.564   3.526
 9356TIP3   OH228031   3.767   5.100   4.760
 9356TIP3    H128032   3.798   5.111   4.670
 9356TIP3    H228033   3.787   5.008   4.781
 9357TIP3   OH228034  -0.006   5.985   4.593
 9357TIP3    H128035  -0.031   5.898   4.626
 9357TIP3    H228036   0.089   5.988   4.604
 9358TIP3   OH228037   0.599   1.565   5.779
 9358TIP3    H128038   0.514   1.595   5.747
 9358TIP3    H228039   0.663   1.625   5.740
 9359TIP3   OH228040   5.632   3.260   5.323
 9359TIP3    H128041   5.572   3.303   5.385
 9359TIP3    H228042   5.574   3.217   5.260
 9360TIP3   OH228043   1.361   2.775   3.249
 9360TIP3    H128044   1.268   2.755   3.259
 9360TIP3    H228045   1.382   2.751   3.159
 9361TIP3   OH228046   3.441   0.102   1.769
 9361TIP3    H128047   3.462   0.098   1.676
 9361TIP3    H228048   3.518   0.143   1.809
 9362TIP3   OH228049   7.035   4.218   1.420
 9362TIP3    H128050   7.050   4.211   1.514
 9362TIP3    H228051   7.094   4.153   1.381
 9363TIP3   OH228052   4.355   5.993   2.656
 9363TIP3    H128053   4.414   6.034   2.718
 9363TIP3    H228054   4.408   5.980   2.577
 9364TIP3   OH228055   1.987   0.449   0.057
 9364TIP3    H128056   1.946   0.431  -0.027
 9364TIP3    H228057   2.044   0.373   0.072
 9365TIP3   OH228058   7.104   3.386   4.534
 9365TIP3    H128059   7.193   3.395   4.568
 9365TIP3    H228060   7.052   3.360   4.610
 9366TIP3   OH228061   1.386   6.453   2.256
 9366TIP3    H128062   1.306   6.399   2.253
 9366TIP3    H228063   1.413   6.451   2.347
 9367TIP3   OH228064   5.418   2.105   3.764
 9367TIP3    H128065   5.503   2.122   3.723
 9367TIP3    H228066   5.438   2.095   3.857
 9368TIP3   OH228067   3.441   6.211   1.959
 9368TIP3    H128068   3.430   6.124   1.997
 9368TIP3    H228069   3.379   6.267   2.007
 9369TIP3   OH228070   4.688   6.223   0.862
 9369TIP3    H128071   4.779   6.193   0.866
 9369TIP3    H228072   4.662   6.231   0.954
 9370TIP3   OH228073   4.733   6.720   2.100
 9370TIP3    H128074   4.728   6.647   2.161
 9370TIP3    H228075   4.790   6.688   2.029
 9371TIP3   OH228076   0.317   1.150   3.423
 9371TIP3    H128077   0.320   1.134   3.329
 9371TIP3    H228078   0.366   1.076   3.461
 9372TIP3   OH228079   1.617   1.415   5.869
 9372TIP3    H128080   1.682   1.468   5.914
 9372TIP3    H228081   1.595   1.346   5.932
 9373TIP3   OH228082   6.634   6.174   0.953
 9373TIP3    H128083   6.605   6.192   1.043
 9373TIP3    H228084   6.623   6.079   0.943
 9374TIP3   OH228085   5.425   5.475   1.568
 9374TIP3    H128086   5.475   5.487   1.488
 9374TIP3    H228087   5.361   5.408   1.546
 9375TIP3   OH228088   4.782   0.822   1.405
 9375TIP3    H128089   4.698   0.863   1.424
 9375TIP3    H228090   4.788   0.824   1.309
 9376TIP3   OH228091   7.131   5.189   5.079
 9376TIP3    H128092   7.076   5.260   5.113
 9376TIP3    H228093   7.163   5.144   5.157
 9377TIP3   OH228094   5.600   6.400   4.947
 9377TIP3    H128095   5.548   6.472   4.982
 9377TIP3    H228096   5.581   6.400   4.853
 9378TIP3   OH228097   5.922   5.946   1.283
 9378TIP3    H128098   5.897   5.915   1.195
 9378TIP3    H228099   6.012   5.975   1.273
 9379TIP3   OH228100   2.549   0.162   3.539
 9379TIP3    H128101   2.535   0.137   3.630
 9379TIP3    H228102   2.567   0.256   3.542
 9380TIP3   OH228103   7.055   3.523   0.583
 9380TIP3    H128104   6.969   3.483   0.595
 9380TIP3    H228105   7.046   3.611   0.620
 9381TIP3   OH228106   1.818   4.416   4.561
 9381TIP3    H128107   1.860   4.418   4.475
 9381TIP3    H228108   1.888   4.387   4.620
 9382TIP3   OH228109   4.905   1.996   3.420
 9382TIP3    H128110   4.821   2.000   3.375
 9382TIP3    H228111   4.891   1.934   3.491
 9383TIP3   OH228112   5.163   1.589   3.451
 9383TIP3    H128113   5.183   1.571   3.543
 9383TIP3    H228114   5.071   1.565   3.441
 9384TIP3   OH228115   5.074   0.380   3.705
 9384TIP3    H128116   5.024   0.453   3.669
 9384TIP3    H228117   5.019   0.344   3.774
 9385TIP3   OH228118   3.471   4.779   4.758
 9385TIP3    H128119   3.418   4.702   4.736
 9385TIP3    H228120   3.457   4.840   4.686
 9386TIP3   OH228121   1.607   2.801   3.965
 9386TIP3    H128122   1.678   2.805   3.901
 9386TIP3    H228123   1.625   2.872   4.026
 9387TIP3   OH228124   7.060   0.609   2.585
 9387TIP3    H128125   7.010   0.679   2.543
 9387TIP3    H228126   7.015   0.594   2.668
 9388TIP3   OH228127   3.802   2.317   5.782
 9388TIP3    H128128   3.876   2.350   5.730
 9388TIP3    H228129   3.739   2.388   5.782
 9389TIP3   OH228130   3.444   3.225   3.328
 9389TIP3    H128131   3.433   3.295   3.264
 9389TIP3    H228132   3.364   3.173   3.321
 9390TIP3   OH228133   7.010   2.693   3.164
 9390TIP3    H128134   6.929   2.741   3.148
 9390TIP3    H228135   7.003   2.614   3.110
 9391TIP3   OH228136   5.631   2.427   1.881
 9391TIP3    H128137   5.716   2.389   1.860
 9391TIP3    H228138   5.571   2.353   1.886
 9392TIP3   OH228139   0.107   3.527   3.656
 9392TIP3    H128140   0.135   3.437   3.644
 9392TIP3    H228141   0.014   3.526   3.633
 9393TIP3   OH228142   6.690   4.549   1.960
 9393TIP3    H128143   6.763   4.519   1.904
 9393TIP3    H228144   6.731   4.609   2.022
 9394TIP3   OH228145   1.322   2.315   2.699
 9394TIP3    H128146   1.261   2.271   2.759
 9394TIP3    H228147   1.409   2.291   2.731
 9395TIP3   OH228148   3.179   1.458   4.097
 9395TIP3    H128149   3.160   1.492   4.010
 9395TIP3    H228150   3.095   1.422   4.128
 9396TIP3   OH228151   6.538   3.529   3.406
 9396TIP3    H128152   6.535   3.434   3.392
 9396TIP3    H228153   6.562   3.538   3.498
 9397TIP3   OH228154   5.122   6.161   3.052
 9397TIP3    H128155   5.104   6.070   3.028
 9397TIP3    H228156   5.171   6.196   2.978
 9398TIP3   OH228157   0.718   3.811   0.005
 9398TIP3    H128158   0.744   3.732  -0.043
 9398TIP3    H228159   0.715   3.880  -0.061
 9399TIP3   OH228160   5.331   5.826   3.804
 9399TIP3    H128161   5.263   5.878   3.760
 9399TIP3    H228162   5.336   5.863   3.892
 9400TIP3   OH228163   5.400   4.303   4.044
 9400TIP3    H128164   5.364   4.277   3.959
 9400TIP3    H228165   5.478   4.354   4.022
 9401TIP3   OH228166   7.038   0.960   0.272
 9401TIP3    H128167   7.024   0.865   0.268
 9401TIP3    H228168   6.972   0.997   0.214
 9402TIP3   OH228169   3.990   1.236   4.597
 9402TIP3    H128170   3.901   1.207   4.577
 9402TIP3    H228171   4.027   1.167   4.652
 9403TIP3   OH228172   3.627   0.660   3.179
 9403TIP3    H128173   3.570   0.696   3.247
 9403TIP3    H228174   3.607   0.566   3.179
 9404TIP3   OH228175   6.753   5.963   2.189
 9404TIP3    H128176   6.744   5.916   2.272
 9404TIP3    H228177   6.780   5.896   2.126
 9405TIP3   OH228178   4.668   2.763   2.017
 9405TIP3    H128179   4.643   2.676   2.047
 9405TIP3    H228180   4.754   2.779   2.057
 9406TIP3   OH228181   3.577   1.720   3.541
 9406TIP3    H128182   3.565   1.731   3.447
 9406TIP3    H228183   3.633   1.794   3.567
 9407TIP3   OH228184   1.353   6.463   4.704
 9407TIP3    H128185   1.394   6.422   4.780
 9407TIP3    H228186   1.394   6.549   4.697
 9408TIP3   OH228187   5.414   2.426   0.277
 9408TIP3    H128188   5.415   2.512   0.237
 9408TIP3    H228189   5.327   2.419   0.317
 9409TIP3   OH228190   2.477   0.539   2.332
 9409TIP3    H128191   2.442   0.454   2.306
 9409TIP3    H228192   2.463   0.595   2.255
 9410TIP3   OH228193   4.728   0.283   3.786
 9410TIP3    H128194   4.643   0.276   3.828
 9410TIP3    H228195   4.765   0.195   3.788
 9411TIP3   OH228196   5.065   0.841   1.947
 9411TIP3    H128197   4.981   0.863   1.905
 9411TIP3    H228198   5.041   0.780   2.017
 9412TIP3   OH228199   1.818   3.385   4.705
 9412TIP3    H128200   1.824   3.290   4.703
 9412TIP3    H228201   1.898   3.413   4.749
 9413TIP3   OH228202   1.252   1.952   4.073
 9413TIP3    H128203   1.262   2.022   4.137
 9413TIP3    H228204   1.329   1.896   4.087
 9414TIP3   OH228205   5.192   5.060   0.115
 9414TIP3    H128206   5.168   5.146   0.148
 9414TIP3    H228207   5.205   5.007   0.194
 9415TIP3   OH228208   5.614   1.978   3.357
 9415TIP3    H128209   5.618   1.950   3.266
 9415TIP3    H228210   5.678   1.923   3.402
 9416TIP3   OH228211   3.019   1.283   1.824
 9416TIP3    H128212   3.005   1.276   1.729
 9416TIP3    H228213   2.995   1.197   1.859
 9417TIP3   OH228214   3.133   0.408   3.063
 9417TIP3    H128215   3.057   0.408   3.005
 9417TIP3    H228216   3.168   0.319   3.057
 9418TIP3   OH228217   1.574   4.156   3.797
 9418TIP3    H128218   1.551   4.217   3.867
 9418TIP3    H228219   1.500   4.095   3.794
 9419TIP3   OH228220   3.314   4.986   3.457
 9419TIP3    H128221   3.341   4.981   3.366
 9419TIP3    H228222   3.384   5.035   3.500
 9420TIP3   OH228223   1.728   2.985   4.124
 9420TIP3    H128224   1.745   3.075   4.094
 9420TIP3    H228225   1.758   2.984   4.215
 9421TIP3   OH228226   0.212   0.576   4.189
 9421TIP3    H128227   0.205   0.643   4.121
 9421TIP3    H228228   0.285   0.605   4.244
 9422TIP3   OH228229   4.875   6.340   0.628
 9422TIP3    H128230   4.955   6.370   0.584
 9422TIP3    H228231   4.883   6.245   0.630
 9423TIP3   OH228232   3.366   4.545   1.057
 9423TIP3    H128233   3.334   4.509   1.139
 9423TIP3    H228234   3.392   4.635   1.078
 9424TIP3   OH228235   4.692   4.543   0.438
 9424TIP3    H128236   4.617   4.561   0.495
 9424TIP3    H228237   4.746   4.481   0.488
 9425TIP3   OH228238   0.598   2.493   5.823
 9425TIP3    H128239   0.520   2.529   5.866
 9425TIP3    H228240   0.638   2.567   5.778
 9426TIP3   OH228241   1.283   3.440   0.425
 9426TIP3    H128242   1.351   3.391   0.379
 9426TIP3    H228243   1.330   3.492   0.490
 9427TIP3   OH228244   7.050   6.495   3.106
 9427TIP3    H128245   7.123   6.449   3.064
 9427TIP3    H228246   7.078   6.506   3.197
 9428TIP3   OH228247   3.272   5.286   0.874
 9428TIP3    H128248   3.337   5.249   0.814
 9428TIP3    H228249   3.189   5.251   0.843
 9429TIP3   OH228250   0.355   3.477   2.280
 9429TIP3    H128251   0.363   3.555   2.225
 9429TIP3    H228252   0.268   3.486   2.321
 9430TIP3   OH228253   6.029   0.510   2.757
 9430TIP3    H128254   6.017   0.601   2.784
 9430TIP3    H228255   6.083   0.471   2.826
 9431TIP3   OH228256   5.407   6.178   4.188
 9431TIP3    H128257   5.331   6.236   4.184
 9431TIP3    H228258   5.481   6.236   4.200
 9432TIP3   OH228259   3.689   3.869   1.407
 9432TIP3    H128260   3.616   3.931   1.412
 9432TIP3    H228261   3.757   3.907   1.462
 9433TIP3   OH228262   0.817   6.473   5.231
 9433TIP3    H128263   0.888   6.492   5.292
 9433TIP3    H228264   0.759   6.414   5.279
 9434TIP3   OH228265   5.477   4.617   3.339
 9434TIP3    H128266   5.438   4.635   3.253
 9434TIP3    H228267   5.569   4.600   3.320
 9435TIP3   OH228268   0.981   1.150   4.984
 9435TIP3    H128269   1.021   1.096   5.052
 9435TIP3    H228270   0.942   1.223   5.032
 9436TIP3   OH228271   6.808   6.203   5.413
 9436TIP3    H128272   6.839   6.291   5.393
 9436TIP3    H228273   6.796   6.162   5.327
 9437TIP3   OH228274   3.824   5.127   2.815
 9437TIP3    H128275   3.772   5.202   2.844
 9437TIP3    H228276   3.774   5.051   2.842
 9438TIP3   OH228277   3.824   2.013   1.689
 9438TIP3    H128278   3.775   2.061   1.756
 9438TIP3    H228279   3.861   2.080   1.633
 9439TIP3   OH228280   6.595   2.031   1.974
 9439TIP3    H128281   6.562   2.070   2.055
 9439TIP3    H228282   6.580   1.937   1.985
 9440TIP3   OH228283   3.829   2.764   3.800
 9440TIP3    H128284   3.811   2.850   3.762
 9440TIP3    H228285   3.827   2.779   3.895
 9441TIP3   OH228286   4.824   4.641   1.169
 9441TIP3    H128287   4.799   4.733   1.160
 9441TIP3    H228288   4.886   4.640   1.242
 9442TIP3   OH228289   3.239   3.426   4.095
 9442TIP3    H128290   3.225   3.346   4.045
 9442TIP3    H228291   3.255   3.395   4.185
 9443TIP3   OH228292   3.720   5.485   1.033
 9443TIP3    H128293   3.704   5.546   0.962
 9443TIP3    H228294   3.638   5.481   1.081
 9444TIP3   OH228295   5.148   3.695   4.354
 9444TIP3    H128296   5.164   3.785   4.381
 9444TIP3    H228297   5.055   3.681   4.370
 9445TIP3   OH228298   1.671   4.074   4.890
 9445TIP3    H128299   1.755   4.095   4.849
 9445TIP3    H228300   1.686   4.085   4.983
 9446TIP3   OH228301   5.730   1.742   2.664
 9446TIP3    H128302   5.815   1.699   2.676
 9446TIP3    H228303   5.729   1.767   2.571
 9447TIP3   OH228304   7.060   5.944   2.548
 9447TIP3    H128305   7.038   5.879   2.614
 9447TIP3    H228306   7.137   5.908   2.504
 9448TIP3   OH228307   6.410   2.488   2.829
 9448TIP3    H128308   6.417   2.395   2.807
 9448TIP3    H228309   6.330   2.494   2.882
 9449TIP3   OH228310   6.086   1.938   4.936
 9449TIP3    H128311   6.129   1.922   5.020
 9449TIP3    H228312   6.058   2.029   4.940
 9450TIP3   OH228313   3.966   4.276   0.185
 9450TIP3    H128314   3.989   4.226   0.107
 9450TIP3    H228315   3.887   4.233   0.219
 9451TIP3   OH228316   6.450   6.039   2.389
 9451TIP3    H128317   6.454   6.107   2.457
 9451TIP3    H228318   6.518   5.977   2.413
 9452TIP3   OH228319   6.773   4.588   4.487
 9452TIP3    H128320   6.828   4.564   4.412
 9452TIP3    H228321   6.713   4.514   4.497
 9453TIP3   OH228322   6.049   3.198   2.486
 9453TIP3    H128323   6.048   3.196   2.390
 9453TIP3    H228324   6.046   3.106   2.512
 9454TIP3   OH228325   1.006   3.614   3.951
 9454TIP3    H128326   1.010   3.530   3.906
 9454TIP3    H228327   1.006   3.590   4.044
 9455TIP3   OH228328   6.070   1.820   5.465
 9455TIP3    H128329   6.115   1.748   5.510
 9455TIP3    H228330   5.988   1.830   5.513
 9456TIP3   OH228331   5.697   5.866   3.653
 9456TIP3    H128332   5.614   5.912   3.646
 9456TIP3    H228333   5.679   5.793   3.713
 9457TIP3   OH228334   6.603   2.027   4.627
 9457TIP3    H128335   6.511   2.051   4.616
 9457TIP3    H228336   6.624   2.052   4.717
 9458TIP3   OH228337   2.081   5.021   3.608
 9458TIP3    H128338   2.171   4.991   3.624
 9458TIP3    H228339   2.071   5.020   3.513
 9459TIP3   OH228340   5.668   4.587   2.935
 9459TIP3    H128341   5.693   4.634   2.856
 9459TIP3    H228342   5.729   4.513   2.939
 9460TIP3   OH228343   4.474   3.934   3.047
 9460TIP3    H128344   4.565   3.951   3.022
 9460TIP3    H228345   4.481   3.886   3.130
 9461TIP3   OH228346   0.406   1.446   2.275
 9461TIP3    H128347   0.464   1.522   2.278
 9461TIP3    H228348   0.352   1.460   2.197
 9462TIP3   OH228349   2.469   3.979   0.492
 9462TIP3    H128350   2.479   3.884   0.500
 9462TIP3    H228351   2.543   4.006   0.438
 9463TIP3   OH228352   0.662   3.090   4.159
 9463TIP3    H128353   0.671   3.040   4.240
 9463TIP3    H228354   0.742   3.071   4.110
 9464TIP3   OH228355   5.326   4.482   0.094
 9464TIP3    H128356   5.264   4.416   0.063
 9464TIP3    H228357   5.288   4.513   0.177
 9465TIP3   OH228358   6.272   1.932   2.348
 9465TIP3    H128359   6.319   1.995   2.294
 9465TIP3    H228360   6.275   1.968   2.436
 9466TIP3   OH228361   0.570   5.250   3.975
 9466TIP3    H128362   0.522   5.170   3.997
 9466TIP3    H228363   0.662   5.226   3.987
 9467TIP3   OH228364   4.988   4.204   4.873
 9467TIP3    H128365   4.930   4.185   4.947
 9467TIP3    H228366   4.929   4.216   4.799
 9468TIP3   OH228367   2.972   0.412   5.062
 9468TIP3    H128368   3.050   0.467   5.071
 9468TIP3    H228369   2.960   0.403   4.967
 9469TIP3   OH228370   0.187   2.848   4.189
 9469TIP3    H128371   0.106   2.796   4.188
 9469TIP3    H228372   0.160   2.934   4.158
 9470TIP3   OH228373   4.253   3.169   0.530
 9470TIP3    H128374   4.169   3.128   0.554
 9470TIP3    H228375   4.312   3.095   0.518
 9471TIP3   OH228376   1.294   5.842   2.107
 9471TIP3    H128377   1.243   5.794   2.171
 9471TIP3    H228378   1.231   5.899   2.063
 9472TIP3   OH228379   4.827   5.132   0.751
 9472TIP3    H128380   4.814   5.204   0.812
 9472TIP3    H228381   4.826   5.054   0.806
 9473TIP3   OH228382   2.345   2.936   2.659
 9473TIP3    H128383   2.383   2.974   2.738
 9473TIP3    H228384   2.379   2.846   2.657
 9474TIP3   OH228385   6.875   4.982   1.330
 9474TIP3    H128386   6.800   4.950   1.380
 9474TIP3    H228387   6.948   4.978   1.391
 9475TIP3   OH228388   0.502   1.069   4.819
 9475TIP3    H128389   0.570   1.129   4.848
 9475TIP3    H228390   0.520   0.988   4.866
 9476TIP3   OH228391   3.076   5.996   1.814
 9476TIP3    H128392   3.151   6.007   1.755
 9476TIP3    H228393   3.015   5.942   1.764
 9477TIP3   OH228394   4.120   3.858   2.520
 9477TIP3    H128395   4.207   3.899   2.515
 9477TIP3    H228396   4.118   3.798   2.445
 9478TIP3   OH228397   3.465   6.741   5.142
 9478TIP3    H128398   3.390   6.790   5.108
 9478TIP3    H228399   3.479   6.776   5.230
 9479TIP3   OH228400   2.208   5.741   1.382
 9479TIP3    H128401   2.297   5.708   1.366
 9479TIP3    H228402   2.186   5.709   1.469
 9480TIP3   OH228403   7.142   5.216   0.100
 9480TIP3    H128404   7.150   5.124   0.074
 9480TIP3    H228405   7.226   5.237   0.140
 9481TIP3   OH228406   5.902   1.740   0.135
 9481TIP3    H128407   5.938   1.782   0.057
 9481TIP3    H228408   5.851   1.667   0.101
 9482TIP3   OH228409   5.694   2.629   4.918
 9482TIP3    H128410   5.700   2.713   4.964
 9482TIP3    H228411   5.708   2.650   4.826
 9483TIP3   OH228412   5.617   0.355   5.053
 9483TIP3    H128413   5.709   0.332   5.042
 9483TIP3    H228414   5.619   0.440   5.098
 9484TIP3   OH228415   5.613   1.103   1.301
 9484TIP3    H128416   5.707   1.101   1.279
 9484TIP3    H228417   5.612   1.110   1.396
 9485TIP3   OH228418   1.037   3.295   2.198
 9485TIP3    H128419   1.050   3.268   2.107
 9485TIP3    H228420   1.037   3.390   2.195
 9486TIP3   OH228421   3.530   0.519   0.566
 9486TIP3    H128422   3.549   0.426   0.575
 9486TIP3    H228423   3.437   0.527   0.590
 9487TIP3   OH228424   2.572   0.674   4.548
 9487TIP3    H128425   2.639   0.742   4.542
 9487TIP3    H228426   2.590   0.616   4.475
 9488TIP3   OH228427   3.800   1.854   0.856
 9488TIP3    H128428   3.720   1.804   0.843
 9488TIP3    H228429   3.853   1.835   0.779
 9489TIP3   OH228430   1.497   4.058   0.321
 9489TIP3    H128431   1.434   3.986   0.319
 9489TIP3    H228432   1.582   4.016   0.323
 9490TIP3   OH228433   4.486   3.695   2.025
 9490TIP3    H128434   4.412   3.669   1.971
 9490TIP3    H228435   4.449   3.707   2.113
 9491TIP3   OH228436   1.119   6.099   4.466
 9491TIP3    H128437   1.116   6.167   4.398
 9491TIP3    H228438   1.182   6.133   4.530
 9492TIP3   OH228439   6.155   0.978   3.836
 9492TIP3    H128440   6.153   0.974   3.740
 9492TIP3    H228441   6.107   1.058   3.857
 9493TIP3   OH228442   0.349   1.124   1.494
 9493TIP3    H128443   0.344   1.208   1.540
 9493TIP3    H228444   0.433   1.126   1.448
 9494TIP3   OH228445   1.839   2.250   3.140
 9494TIP3    H128446   1.903   2.199   3.190
 9494TIP3    H228447   1.886   2.330   3.117
 9495TIP3   OH228448   3.317   1.148   0.438
 9495TIP3    H128449   3.292   1.233   0.475
 9495TIP3    H228450   3.336   1.167   0.346
 9496TIP3   OH228451   5.653   2.819   0.747
 9496TIP3    H128452   5.650   2.915   0.746
 9496TIP3    H228453   5.563   2.792   0.735
 9497TIP3   OH228454   4.314   6.670   5.366
 9497TIP3    H128455   4.233   6.721   5.361
 9497TIP3    H228456   4.311   6.613   5.289
 9498TIP3   OH228457   2.671   1.446   4.015
 9498TIP3    H128458   2.699   1.516   4.074
 9498TIP3    H228459   2.737   1.378   4.026
 9499TIP3   OH228460   4.179   0.653   4.053
 9499TIP3    H128461   4.200   0.740   4.086
 9499TIP3    H228462   4.260   0.621   4.014
 9500TIP3   OH228463   5.593   0.224   1.055
 9500TIP3    H128464   5.529   0.242   1.123
 9500TIP3    H228465   5.574   0.134   1.026
 9501TIP3   OH228466   4.574   4.667   0.684
 9501TIP3    H128467   4.551   4.750   0.642
 9501TIP3    H228468   4.661   4.682   0.721
 9502TIP3   OH228469   7.052   2.822   0.941
 9502TIP3    H128470   7.061   2.905   0.894
 9502TIP3    H228471   6.963   2.824   0.977
 9503TIP3   OH228472   1.398   3.389   3.571
 9503TIP3    H128473   1.413   3.427   3.485
 9503TIP3    H228474   1.468   3.324   3.582
 9504TIP3   OH228475   3.692   5.966   5.231
 9504TIP3    H128476   3.707   5.875   5.255
 9504TIP3    H228477   3.680   6.011   5.315
 9505TIP3   OH228478   1.604   5.386   1.180
 9505TIP3    H128479   1.550   5.438   1.238
 9505TIP3    H228480   1.543   5.326   1.137
 9506TIP3   OH228481   3.131   5.025   0.464
 9506TIP3    H128482   3.164   5.114   0.476
 9506TIP3    H228483   3.073   5.032   0.388
 9507TIP3   OH228484   2.291   4.544   5.014
 9507TIP3    H128485   2.333   4.599   4.947
 9507TIP3    H228486   2.330   4.574   5.096
 9508TIP3   OH228487   5.720   5.484   0.960
 9508TIP3    H128488   5.642   5.518   0.917
 9508TIP3    H228489   5.763   5.431   0.892
 9509TIP3   OH228490   2.567   0.464   0.245
 9509TIP3    H128491   2.583   0.557   0.265
 9509TIP3    H228492   2.485   0.464   0.196
 9510TIP3   OH228493   7.158   6.248   4.666
 9510TIP3    H128494   7.152   6.156   4.639
 9510TIP3    H228495   7.235   6.251   4.722
 9511TIP3   OH228496   2.382   5.575   2.484
 9511TIP3    H128497   2.294   5.613   2.480
 9511TIP3    H228498   2.376   5.496   2.430
 9512TIP3   OH228499   0.072   1.066   5.635
 9512TIP3    H128500   0.099   1.141   5.582
 9512TIP3    H228501   0.081   1.096   5.726
 9513TIP3   OH228502   0.190   5.507   5.913
 9513TIP3    H128503   0.220   5.482   5.826
 9513TIP3    H228504   0.098   5.531   5.901
 9514TIP3   OH228505   0.753   3.610   3.761
 9514TIP3    H128506   0.760   3.600   3.666
 9514TIP3    H228507   0.843   3.614   3.792
 9515TIP3   OH228508   4.799   1.604   1.659
 9515TIP3    H128509   4.874   1.551   1.632
 9515TIP3    H228510   4.763   1.556   1.734
 9516TIP3   OH228511   2.749   1.430   2.595
 9516TIP3    H128512   2.837   1.392   2.592
 9516TIP3    H228513   2.764   1.523   2.608
 9517TIP3   OH228514   2.097   4.135   2.642
 9517TIP3    H128515   2.068   4.058   2.691
 9517TIP3    H228516   2.047   4.207   2.679
 9518TIP3   OH228517   2.380   1.095   3.672
 9518TIP3    H128518   2.392   1.015   3.723
 9518TIP3    H228519   2.297   1.082   3.627
 9519TIP3   OH228520   2.837   0.111   0.485
 9519TIP3    H128521   2.768   0.161   0.442
 9519TIP3    H228522   2.805   0.021   0.483
 9520TIP3   OH228523   4.502   6.473   3.146
 9520TIP3    H128524   4.500   6.414   3.222
 9520TIP3    H228525   4.595   6.481   3.124
 9521TIP3   OH228526   6.633   4.563   5.357
 9521TIP3    H128527   6.672   4.625   5.295
 9521TIP3    H228528   6.657   4.477   5.322
 9522TIP3   OH228529   0.945   1.672   5.392
 9522TIP3    H128530   1.038   1.669   5.370
 9522TIP3    H228531   0.901   1.653   5.309
 9523TIP3   OH228532   3.095   0.519   1.688
 9523TIP3    H128533   3.136   0.591   1.737
 9523TIP3    H228534   3.093   0.446   1.750
 9524TIP3   OH228535   1.277   5.098   1.730
 9524TIP3    H128536   1.262   5.057   1.815
 9524TIP3    H228537   1.299   5.026   1.672
 9525TIP3   OH228538   0.218   1.680   1.096
 9525TIP3    H128539   0.216   1.584   1.093
 9525TIP3    H228540   0.304   1.704   1.063
 9526TIP3   OH228541   3.841   3.804   3.193
 9526TIP3    H128542   3.763   3.749   3.189
 9526TIP3    H228543   3.825   3.864   3.266
 9527TIP3   OH228544   4.731   2.375   5.557
 9527TIP3    H128545   4.649   2.406   5.595
 9527TIP3    H228546   4.786   2.354   5.633
 9528TIP3   OH228547   2.601   0.247   0.405
 9528TIP3    H128548   2.625   0.316   0.344
 9528TIP3    H228549   2.572   0.293   0.484
 9529TIP3   OH228550   6.915   1.281   1.887
 9529TIP3    H128551   6.903   1.332   1.807
 9529TIP3    H228552   6.996   1.232   1.873
 9530TIP3   OH228553   3.889   2.832   3.244
 9530TIP3    H128554   3.920   2.813   3.333
 9530TIP3    H228555   3.878   2.927   3.243
 9531TIP3   OH228556   2.199   5.741   2.367
 9531TIP3    H128557   2.269   5.792   2.327
 9531TIP3    H228558   2.184   5.783   2.451
 9532TIP3   OH228559   3.143   5.008   0.750
 9532TIP3    H128560   3.168   4.916   0.740
 9532TIP3    H228561   3.100   5.031   0.668
 9533TIP3   OH228562   5.534   2.193   0.117
 9533TIP3    H128563   5.513   2.238   0.198
 9533TIP3    H228564   5.624   2.219   0.096
 9534TIP3   OH228565   0.151   4.188   0.372
 9534TIP3    H128566   0.118   4.215   0.286
 9534TIP3    H228567   0.246   4.191   0.363
 9535TIP3   OH228568   1.996   3.370   3.941
 9535TIP3    H128569   2.001   3.283   3.982
 9535TIP3    H228570   1.907   3.400   3.959
 9536TIP3   OH228571   2.279   0.030   5.251
 9536TIP3    H128572   2.275   0.000   5.160
 9536TIP3    H228573   2.274   0.126   5.244
 9537TIP3   OH228574   2.440   6.513   1.663
 9537TIP3    H128575   2.516   6.568   1.642
 9537TIP3    H228576   2.459   6.477   1.749
 9538TIP3   OH228577   3.175   6.767   1.429
 9538TIP3    H128578   3.112   6.758   1.358
 9538TIP3    H228579   3.259   6.739   1.392
 9539TIP3   OH228580   2.565   6.155   0.503
 9539TIP3    H128581   2.630   6.102   0.458
 9539TIP3    H228582   2.530   6.213   0.436
 9540TIP3   OH228583   2.077   3.036   3.045
 9540TIP3    H128584   2.010   3.083   2.996
 9540TIP3    H228585   2.100   2.962   2.989
 9541TIP3   OH228586   7.062   5.499   5.157
 9541TIP3    H128587   7.095   5.450   5.232
 9541TIP3    H228588   7.016   5.574   5.195
 9542TIP3   OH228589   4.788   4.046   3.455
 9542TIP3    H128590   4.808   3.993   3.378
 9542TIP3    H228591   4.811   4.135   3.430
 9543TIP3   OH228592   2.802   3.902   3.769
 9543TIP3    H128593   2.808   3.900   3.865
 9543TIP3    H228594   2.876   3.849   3.740
 9544TIP3   OH228595   1.068   0.267   0.090
 9544TIP3    H128596   1.056   0.359   0.067
 9544TIP3    H228597   1.002   0.250   0.157
 9545TIP3   OH228598   1.390   2.115   4.616
 9545TIP3    H128599   1.301   2.114   4.582
 9545TIP3    H228600   1.445   2.088   4.542
 9546TIP3   OH228601   3.043   6.299   2.606
 9546TIP3    H128602   3.068   6.246   2.530
 9546TIP3    H228603   3.125   6.339   2.635
 9547TIP3   OH228604   0.528   2.865   2.112
 9547TIP3    H128605   0.580   2.915   2.049
 9547TIP3    H228606   0.583   2.861   2.190
 9548TIP3   OH228607   7.144   4.291   5.854
 9548TIP3    H128608   7.059   4.328   5.878
 9548TIP3    H228609   7.135   4.198   5.873
 9549TIP3   OH228610   0.701   4.646   0.406
 9549TIP3    H128611   0.758   4.683   0.473
 9549TIP3    H228612   0.728   4.689   0.325
 9550TIP3   OH228613   0.150   6.845   2.964
 9550TIP3    H128614   0.149   6.938   2.985
 9550TIP3    H228615   0.201   6.805   3.034
 9551TIP3   OH228616   6.330   0.986   5.638
 9551TIP3    H128617   6.294   0.927   5.705
 9551TIP3    H228618   6.424   0.969   5.640
 9552TIP3   OH228619   1.929   1.593   3.940
 9552TIP3    H128620   1.944   1.674   3.891
 9552TIP3    H228621   1.863   1.546   3.889
 9553TIP3   OH228622   3.979   6.717   3.784
 9553TIP3    H128623   4.047   6.730   3.719
 9553TIP3    H228624   3.897   6.732   3.737
 9554TIP3   OH228625   1.730   5.563   5.274
 9554TIP3    H128626   1.754   5.553   5.366
 9554TIP3    H228627   1.647   5.611   5.276
 9555TIP3   OH228628   6.327   3.223   5.634
 9555TIP3    H128629   6.412   3.198   5.672
 9555TIP3    H228630   6.263   3.170   5.681
 9556TIP3   OH228631   4.289   2.047   4.716
 9556TIP3    H128632   4.284   1.957   4.749
 9556TIP3    H228633   4.199   2.079   4.720
 9557TIP3   OH228634   6.931   6.664   2.927
 9557TIP3    H128635   6.933   6.630   2.838
 9557TIP3    H228636   6.958   6.591   2.982
 9558TIP3   OH228637   1.268   3.756   0.970
 9558TIP3    H128638   1.209   3.680   0.977
 9558TIP3    H228639   1.355   3.720   0.986
 9559TIP3   OH228640   3.162   6.131   3.657
 9559TIP3    H128641   3.229   6.190   3.691
 9559TIP3    H228642   3.166   6.141   3.562
 9560TIP3   OH228643   5.573   0.806   1.849
 9560TIP3    H128644   5.481   0.786   1.866
 9560TIP3    H228645   5.580   0.901   1.862
 9561TIP3   OH228646   1.300   4.689   2.322
 9561TIP3    H128647   1.365   4.656   2.260
 9561TIP3    H228648   1.338   4.771   2.355
 9562TIP3   OH228649   4.339   2.980   3.862
 9562TIP3    H128650   4.311   3.026   3.941
 9562TIP3    H228651   4.264   2.927   3.836
 9563TIP3   OH228652   0.225   4.952   2.599
 9563TIP3    H128653   0.243   4.909   2.515
 9563TIP3    H228654   0.201   4.881   2.658
 9564TIP3   OH228655   3.705   5.222   5.659
 9564TIP3    H128656   3.796   5.249   5.649
 9564TIP3    H228657   3.709   5.141   5.709
 9565TIP3   OH228658   4.071   2.798   5.821
 9565TIP3    H128659   4.047   2.724   5.878
 9565TIP3    H228660   4.006   2.865   5.842
 9566TIP3   OH228661   2.818   2.655   5.935
 9566TIP3    H128662   2.748   2.605   5.895
 9566TIP3    H228663   2.845   2.603   6.011
 9567TIP3   OH228664   7.180   0.102   5.132
 9567TIP3    H128665   7.088   0.093   5.156
 9567TIP3    H228666   7.191   0.195   5.114
 9568TIP3   OH228667   3.485   4.864   0.607
 9568TIP3    H128668   3.483   4.959   0.614
 9568TIP3    H228669   3.393   4.839   0.595
 9569TIP3   OH228670   5.841   0.117   3.402
 9569TIP3    H128671   5.847   0.030   3.443
 9569TIP3    H228672   5.920   0.123   3.348
 9570TIP3   OH228673   6.462   2.217   2.815
 9570TIP3    H128674   6.499   2.218   2.727
 9570TIP3    H228675   6.532   2.183   2.870
 9571TIP3   OH228676   5.545   4.507   2.325
 9571TIP3    H128677   5.571   4.415   2.335
 9571TIP3    H228678   5.479   4.505   2.256
 9572TIP3   OH228679   3.130   4.406   0.335
 9572TIP3    H128680   3.054   4.349   0.336
 9572TIP3    H228681   3.095   4.493   0.313
 9573TIP3   OH228682   1.547   2.542   2.323
 9573TIP3    H128683   1.580   2.628   2.300
 9573TIP3    H228684   1.545   2.541   2.419
 9574TIP3   OH228685   5.662   4.925   2.104
 9574TIP3    H128686   5.580   4.879   2.121
 9574TIP3    H228687   5.726   4.856   2.091
 9575TIP3   OH228688   6.716   1.628   4.430
 9575TIP3    H128689   6.785   1.569   4.460
 9575TIP3    H228690   6.635   1.577   4.437
 9576TIP3   OH228691   0.902   1.090   4.197
 9576TIP3    H128692   0.848   1.045   4.131
 9576TIP3    H228693   0.931   1.170   4.153
 9577TIP3   OH228694   3.145   5.652   1.665
 9577TIP3    H128695   3.164   5.568   1.624
 9577TIP3    H228696   3.195   5.715   1.614
 9578TIP3   OH228697   1.095   5.636   1.426
 9578TIP3    H128698   1.089   5.603   1.336
 9578TIP3    H228699   1.009   5.620   1.463
 9579TIP3   OH228700   6.837   5.143   3.907
 9579TIP3    H128701   6.916   5.142   3.961
 9579TIP3    H228702   6.817   5.051   3.892
 9580TIP3   OH228703   2.608   3.411   1.582
 9580TIP3    H128704   2.697   3.377   1.580
 9580TIP3    H228705   2.611   3.491   1.530
 9581TIP3   OH228706   2.597   3.742   3.117
 9581TIP3    H128707   2.623   3.772   3.204
 9581TIP3    H228708   2.556   3.657   3.132
 9582TIP3   OH228709   1.296   6.758   3.828
 9582TIP3    H128710   1.337   6.829   3.878
 9582TIP3    H228711   1.203   6.778   3.831
 9583TIP3   OH228712   4.218   4.933   0.113
 9583TIP3    H128713   4.243   4.847   0.146
 9583TIP3    H228714   4.276   4.994   0.159
 9584TIP3   OH228715   5.972   6.264   4.741
 9584TIP3    H128716   5.973   6.352   4.704
 9584TIP3    H228717   5.995   6.207   4.667
 9585TIP3   OH228718   3.544   2.688   1.973
 9585TIP3    H128719   3.590   2.675   1.890
 9585TIP3    H228720   3.486   2.762   1.957
 9586TIP3   OH228721   5.089   4.169   1.941
 9586TIP3    H128722   5.096   4.139   2.032
 9586TIP3    H228723   5.073   4.089   1.891
 9587TIP3   OH228724   3.483   2.839   0.193
 9587TIP3    H128725   3.462   2.762   0.246
 9587TIP3    H228726   3.428   2.909   0.230
 9588TIP3   OH228727   5.181   6.126   2.544
 9588TIP3    H128728   5.218   6.038   2.532
 9588TIP3    H228729   5.245   6.184   2.503
 9589TIP3   OH228730   3.384   1.751   2.341
 9589TIP3    H128731   3.315   1.794   2.391
 9589TIP3    H228732   3.454   1.735   2.405
 9590TIP3   OH228733   6.355   0.761   3.849
 9590TIP3    H128734   6.286   0.827   3.847
 9590TIP3    H228735   6.433   0.808   3.819
 9591TIP3   OH228736   7.075   4.548   0.462
 9591TIP3    H128737   7.101   4.621   0.518
 9591TIP3    H228738   7.158   4.507   0.436
 9592TIP3   OH228739   3.806   1.404   3.059
 9592TIP3    H128740   3.837   1.441   3.142
 9592TIP3    H228741   3.711   1.399   3.069
 9593TIP3   OH228742   6.704   0.240   3.585
 9593TIP3    H128743   6.757   0.307   3.627
 9593TIP3    H228744   6.768   0.185   3.539
 9594TIP3   OH228745   3.433   2.451   4.631
 9594TIP3    H128746   3.466   2.427   4.717
 9594TIP3    H228747   3.358   2.394   4.617
 9595TIP3   OH228748   3.797   3.411   1.093
 9595TIP3    H128749   3.781   3.321   1.124
 9595TIP3    H228750   3.846   3.399   1.012
 9596TIP3   OH228751   5.917   4.446   1.759
 9596TIP3    H128752   5.904   4.522   1.703
 9596TIP3    H228753   5.971   4.478   1.831
 9597TIP3   OH228754   4.112   5.751   5.175
 9597TIP3    H128755   4.027   5.713   5.198
 9597TIP3    H228756   4.167   5.676   5.153
 9598TIP3   OH228757   1.988   0.468   5.766
 9598TIP3    H128758   1.956   0.403   5.829
 9598TIP3    H228759   1.923   0.468   5.696
 9599TIP3   OH228760   7.027   4.765   3.205
 9599TIP3    H128761   7.065   4.819   3.274
 9599TIP3    H228762   7.100   4.709   3.177
 9600TIP3   OH228763   1.584   5.081   0.742
 9600TIP3    H128764   1.597   5.165   0.697
 9600TIP3    H228765   1.519   5.099   0.809
 9601TIP3   OH228766   3.952   2.225   3.051
 9601TIP3    H128767   3.903   2.144   3.064
 9601TIP3    H228768   4.043   2.201   3.066
 9602TIP3   OH228769   3.320   5.594   2.083
 9602TIP3    H128770   3.250   5.536   2.110
 9602TIP3    H228771   3.400   5.541   2.088
 9603TIP3   OH228772   6.610   5.323   5.285
 9603TIP3    H128773   6.663   5.401   5.300
 9603TIP3    H228774   6.557   5.314   5.364
 9604TIP3   OH228775   5.704   2.294   4.156
 9604TIP3    H128776   5.781   2.350   4.159
 9604TIP3    H228777   5.630   2.355   4.152
 9605TIP3   OH228778   2.466   6.799   3.355
 9605TIP3    H128779   2.557   6.823   3.339
 9605TIP3    H228780   2.458   6.710   3.321
 9606TIP3   OH228781   0.995   2.849   3.842
 9606TIP3    H128782   0.924   2.785   3.848
 9606TIP3    H228783   0.951   2.929   3.813
 9607TIP3   OH228784   3.479   6.075   1.167
 9607TIP3    H128785   3.392   6.114   1.157
 9607TIP3    H228786   3.534   6.148   1.195
 9608TIP3   OH228787   2.920   4.068   4.422
 9608TIP3    H128788   2.850   4.029   4.473
 9608TIP3    H228789   2.876   4.114   4.350
 9609TIP3   OH228790   6.954   3.647   5.180
 9609TIP3    H128791   6.924   3.608   5.262
 9609TIP3    H228792   6.888   3.620   5.116
 9610TIP3   OH228793   0.563   6.375   2.225
 9610TIP3    H128794   0.556   6.295   2.276
 9610TIP3    H228795   0.580   6.444   2.289
 9611TIP3   OH228796   4.163   3.427   0.820
 9611TIP3    H128797   4.221   3.372   0.768
 9611TIP3    H228798   4.220   3.496   0.855
 9612TIP3   OH228799   3.710   2.548   3.985
 9612TIP3    H128800   3.626   2.580   3.951
 9612TIP3    H228801   3.775   2.579   3.923
 9613TIP3   OH228802   4.486   0.855   0.465
 9613TIP3    H128803   4.411   0.845   0.523
 9613TIP3    H228804   4.447   0.883   0.382
 9614TIP3   OH228805   6.265   5.423   0.242
 9614TIP3    H128806   6.191   5.452   0.295
 9614TIP3    H228807   6.231   5.420   0.153
 9615TIP3   OH228808   6.983   5.734   2.715
 9615TIP3    H128809   6.944   5.696   2.793
 9615TIP3    H228810   7.047   5.669   2.686
 9616TIP3   OH228811   2.027   0.601   1.853
 9616TIP3    H128812   1.998   0.538   1.919
 9616TIP3    H228813   2.092   0.554   1.802
 9617TIP3   OH228814   1.238   4.655   3.403
 9617TIP3    H128815   1.184   4.671   3.480
 9617TIP3    H228816   1.235   4.560   3.391
 9618TIP3   OH228817   1.612   4.925   5.519
 9618TIP3    H128818   1.610   4.931   5.614
 9618TIP3    H228819   1.550   4.855   5.498
 9619TIP3   OH228820   1.311   5.557   3.069
 9619TIP3    H128821   1.370   5.481   3.070
 9619TIP3    H228822   1.355   5.621   3.124
 9620TIP3   OH228823   6.237   5.748   5.384
 9620TIP3    H128824   6.306   5.693   5.346
 9620TIP3    H228825   6.248   5.739   5.478
 9621TIP3   OH228826   5.782   3.121   2.875
 9621TIP3    H128827   5.830   3.202   2.892
 9621TIP3    H228828   5.848   3.052   2.880
 9622TIP3   OH228829   0.130   0.184   4.398
 9622TIP3    H128830   0.211   0.190   4.346
 9622TIP3    H228831   0.126   0.093   4.426
 9623TIP3   OH228832   6.481   4.891   3.091
 9623TIP3    H128833   6.509   4.800   3.104
 9623TIP3    H228834   6.561   4.938   3.069
 9624TIP3   OH228835   5.983   5.600   1.310
 9624TIP3    H128836   5.976   5.602   1.406
 9624TIP3    H228837   5.909   5.547   1.282
 9625TIP3   OH228838   1.905   2.230   4.129
 9625TIP3    H128839   1.985   2.265   4.089
 9625TIP3    H228840   1.933   2.150   4.172
 9626TIP3   OH228841   6.864   3.335   4.711
 9626TIP3    H128842   6.913   3.253   4.718
 9626TIP3    H228843   6.815   3.327   4.629
 9627TIP3   OH228844   2.796   0.071   3.615
 9627TIP3    H128845   2.835   0.004   3.560
 9627TIP3    H228846   2.726   0.109   3.561
 9628TIP3   OH228847   1.687   4.650   4.673
 9628TIP3    H128848   1.738   4.578   4.636
 9628TIP3    H228849   1.721   4.728   4.630
 9629TIP3   OH228850   3.903   6.296   0.202
 9629TIP3    H128851   3.857   6.225   0.157
 9629TIP3    H228852   3.919   6.262   0.290
 9630TIP3   OH228853   4.722   6.757   4.632
 9630TIP3    H128854   4.682   6.721   4.712
 9630TIP3    H228855   4.814   6.733   4.639
 9631TIP3   OH228856   6.995   5.883   1.473
 9631TIP3    H128857   6.947   5.806   1.441
 9631TIP3    H228858   6.989   5.946   1.401
 9632TIP3   OH228859   6.008   0.528   0.640
 9632TIP3    H128860   5.949   0.553   0.710
 9632TIP3    H228861   6.095   0.548   0.673
 9633TIP3   OH228862   2.120   2.838   0.844
 9633TIP3    H128863   2.200   2.831   0.793
 9633TIP3    H228864   2.050   2.849   0.779
 9634TIP3   OH228865   4.218   1.323   0.749
 9634TIP3    H128866   4.184   1.402   0.708
 9634TIP3    H228867   4.191   1.329   0.840
 9635TIP3   OH228868   3.623   2.448   3.320
 9635TIP3    H128869   3.697   2.497   3.285
 9635TIP3    H228870   3.546   2.493   3.284
 9636TIP3   OH228871   3.804   5.336   1.958
 9636TIP3    H128872   3.873   5.329   1.892
 9636TIP3    H228873   3.723   5.325   1.908
 9637TIP3   OH228874   1.070   2.697   4.483
 9637TIP3    H128875   1.096   2.701   4.575
 9637TIP3    H228876   1.017   2.776   4.469
 9638TIP3   OH228877   1.912   2.052   1.094
 9638TIP3    H128878   1.981   2.114   1.120
 9638TIP3    H228879   1.916   2.050   0.999
 9639TIP3   OH228880   3.176   0.786   1.876
 9639TIP3    H128881   3.095   0.826   1.846
 9639TIP3    H228882   3.245   0.833   1.829
 9640TIP3   OH228883   0.235   2.130   4.861
 9640TIP3    H128884   0.251   2.222   4.882
 9640TIP3    H228885   0.229   2.088   4.947
 9641TIP3   OH228886   4.273   6.106   3.845
 9641TIP3    H128887   4.263   6.186   3.793
 9641TIP3    H228888   4.351   6.064   3.810
 9642TIP3   OH228889   3.793   2.152   0.312
 9642TIP3    H128890   3.824   2.228   0.262
 9642TIP3    H228891   3.697   2.160   0.311
 9643TIP3   OH228892   6.337   2.932   0.930
 9643TIP3    H128893   6.348   3.026   0.946
 9643TIP3    H228894   6.300   2.898   1.012
 9644TIP3   OH228895   0.588   2.996   5.855
 9644TIP3    H128896   0.671   3.016   5.812
 9644TIP3    H228897   0.521   3.023   5.793
 9645TIP3   OH228898   2.783   2.138   0.530
 9645TIP3    H128899   2.814   2.066   0.475
 9645TIP3    H228900   2.825   2.215   0.493
 9646TIP3   OH228901   3.002   6.126   4.434
 9646TIP3    H128902   3.005   6.145   4.340
 9646TIP3    H228903   2.933   6.183   4.468
 9647TIP3   OH228904   4.212   1.856   4.465
 9647TIP3    H128905   4.239   1.766   4.481
 9647TIP3    H228906   4.149   1.875   4.535
 9648TIP3   OH228907   0.400   2.519   4.257
 9648TIP3    H128908   0.448   2.487   4.181
 9648TIP3    H228909   0.421   2.457   4.327
 9649TIP3   OH228910   4.436   2.908   5.136
 9649TIP3    H128911   4.503   2.865   5.083
 9649TIP3    H228912   4.486   2.966   5.194
 9650TIP3   OH228913   2.039   5.008   2.104
 9650TIP3    H128914   1.998   5.041   2.024
 9650TIP3    H228915   2.123   5.052   2.108
 9651TIP3   OH228916   3.040   3.492   1.787
 9651TIP3    H128917   2.969   3.429   1.776
 9651TIP3    H228918   3.033   3.520   1.879
 9652TIP3   OH228919   3.580   3.509   0.929
 9652TIP3    H128920   3.605   3.424   0.894
 9652TIP3    H228921   3.642   3.524   1.001
 9653TIP3   OH228922   1.764   3.280   1.463
 9653TIP3    H128923   1.788   3.372   1.460
 9653TIP3    H228924   1.842   3.236   1.497
 9654TIP3   OH228925   5.526   6.442   2.189
 9654TIP3    H128926   5.502   6.455   2.281
 9654TIP3    H228927   5.509   6.527   2.148
 9655TIP3   OH228928   3.792   2.737   2.817
 9655TIP3    H128929   3.726   2.797   2.852
 9655TIP3    H228930   3.834   2.700   2.894
 9656TIP3   OH228931   1.495   0.986   3.149
 9656TIP3    H128932   1.517   1.036   3.071
 9656TIP3    H228933   1.407   0.952   3.132
 9657TIP3   OH228934   2.123   6.710   3.802
 9657TIP3    H128935   2.091   6.620   3.811
 9657TIP3    H228936   2.044   6.763   3.795
 9658TIP3   OH228937   0.525   5.059   4.390
 9658TIP3    H128938   0.430   5.046   4.395
 9658TIP3    H228939   0.554   4.995   4.325
 9659TIP3   OH228940   3.526   0.328   2.806
 9659TIP3    H128941   3.498   0.388   2.874
 9659TIP3    H228942   3.549   0.248   2.853
 9660TIP3   OH228943   5.913   3.659   0.219
 9660TIP3    H128944   5.880   3.586   0.272
 9660TIP3    H228945   5.946   3.722   0.283
 9661TIP3   OH228946   5.778   2.549   3.959
 9661TIP3    H128947   5.753   2.470   3.910
 9661TIP3    H228948   5.824   2.515   4.036
 9662TIP3   OH228949   2.977   0.309   0.294
 9662TIP3    H128950   2.957   0.228   0.339
 9662TIP3    H228951   2.997   0.372   0.364
 9663TIP3   OH228952   0.199   1.086   0.607
 9663TIP3    H128953   0.189   1.165   0.555
 9663TIP3    H228954   0.126   1.088   0.669
 9664TIP3   OH228955   1.425   6.100   5.457
 9664TIP3    H128956   1.456   6.137   5.375
 9664TIP3    H228957   1.350   6.046   5.433
 9665TIP3   OH228958   2.947   2.033   0.726
 9665TIP3    H128959   2.881   2.024   0.794
 9665TIP3    H228960   2.899   2.067   0.650
 9666TIP3   OH228961   4.334   5.270   3.772
 9666TIP3    H128962   4.247   5.247   3.739
 9666TIP3    H228963   4.316   5.324   3.849
 9667TIP3   OH228964   5.865   3.998   3.729
 9667TIP3    H128965   5.873   4.032   3.640
 9667TIP3    H228966   5.947   3.950   3.744
 9668TIP3   OH228967   1.931   6.622   2.529
 9668TIP3    H128968   1.901   6.713   2.532
 9668TIP3    H228969   2.023   6.627   2.552
 9669TIP3   OH228970   2.055   5.479   4.827
 9669TIP3    H128971   2.032   5.530   4.904
 9669TIP3    H228972   2.070   5.390   4.860
 9670TIP3   OH228973   3.581   0.419   5.388
 9670TIP3    H128974   3.649   0.461   5.336
 9670TIP3    H228975   3.581   0.328   5.358
 9671TIP3   OH228976   5.811   5.437   3.464
 9671TIP3    H128977   5.755   5.392   3.528
 9671TIP3    H228978   5.875   5.484   3.517
 9672TIP3   OH228979   4.703   3.846   5.378
 9672TIP3    H128980   4.791   3.881   5.390
 9672TIP3    H228981   4.715   3.751   5.378
 9673TIP3   OH228982   3.667   4.493   1.807
 9673TIP3    H128983   3.629   4.492   1.895
 9673TIP3    H228984   3.609   4.550   1.757
 9674TIP3   OH228985   5.185   4.900   0.360
 9674TIP3    H128986   5.275   4.873   0.374
 9674TIP3    H228987   5.161   4.947   0.440
 9675TIP3   OH228988   4.473   0.723   1.157
 9675TIP3    H128989   4.478   0.818   1.168
 9675TIP3    H228990   4.469   0.689   1.246
 9676TIP3   OH228991   1.503   5.160   1.072
 9676TIP3    H128992   1.443   5.164   0.998
 9676TIP3    H228993   1.546   5.075   1.064
 9677TIP3   OH228994   5.673   0.255   0.289
 9677TIP3    H128995   5.708   0.271   0.377
 9677TIP3    H228996   5.687   0.162   0.274
 9678TIP3   OH228997   5.395   1.868   1.156
 9678TIP3    H128998   5.399   1.822   1.240
 9678TIP3    H228999   5.302   1.888   1.144
 9679TIP3   OH229000   3.666   0.645   0.002
 9679TIP3    H129001   3.637   0.594   0.078
 9679TIP3    H229002   3.585   0.670  -0.042
 9680TIP3   OH229003   7.074   2.363   3.978
 9680TIP3    H129004   6.984   2.379   3.949
 9680TIP3    H229005   7.110   2.450   3.995
 9681TIP3   OH229006   4.203   1.406   1.879
 9681TIP3    H129007   4.148   1.476   1.844
 9681TIP3    H229008   4.245   1.445   1.956
 9682TIP3   OH229009   4.746   3.623   4.475
 9682TIP3    H129010   4.766   3.656   4.388
 9682TIP3    H229011   4.670   3.566   4.463
 9683TIP3   OH229012   4.908   3.332   5.822
 9683TIP3    H129013   4.906   3.330   5.727
 9683TIP3    H229014   4.893   3.424   5.845
 9684TIP3   OH229015   0.296   4.452   1.631
 9684TIP3    H129016   0.373   4.506   1.609
 9684TIP3    H229017   0.331   4.383   1.687
 9685TIP3   OH229018   3.049   3.677   5.915
 9685TIP3    H129019   3.108   3.716   5.849
 9685TIP3    H229020   2.962   3.710   5.892
 9686TIP3   OH229021   4.413   1.480   1.171
 9686TIP3    H129022   4.492   1.514   1.213
 9686TIP3    H229023   4.394   1.542   1.101
 9687TIP3   OH229024   6.026   0.858   5.076
 9687TIP3    H129025   6.094   0.834   5.139
 9687TIP3    H229026   6.034   0.953   5.068
 9688TIP3   OH229027   6.792   0.613   0.480
 9688TIP3    H129028   6.856   0.543   0.472
 9688TIP3    H229029   6.836   0.681   0.531
 9689TIP3   OH229030   1.671   3.746   1.895
 9689TIP3    H129031   1.670   3.651   1.888
 9689TIP3    H229032   1.764   3.769   1.895
 9690TIP3   OH229033   1.951   2.475   2.207
 9690TIP3    H129034   1.979   2.399   2.155
 9690TIP3    H229035   1.976   2.454   2.297
 9691TIP3   OH229036   0.084   0.830   5.827
 9691TIP3    H129037   0.074   0.871   5.740
 9691TIP3    H229038   0.163   0.870   5.863
 9692TIP3   OH229039   3.035   1.270   3.600
 9692TIP3    H129040   2.990   1.344   3.641
 9692TIP3    H229041   3.113   1.257   3.654
 9693TIP3   OH229042   4.606   1.477   4.733
 9693TIP3    H129043   4.627   1.390   4.700
 9693TIP3    H229044   4.551   1.460   4.810
 9694TIP3   OH229045   4.668   2.440   4.023
 9694TIP3    H129046   4.664   2.475   3.934
 9694TIP3    H229047   4.745   2.383   4.023
 9695TIP3   OH229048   3.422   0.844   5.366
 9695TIP3    H129049   3.481   0.836   5.441
 9695TIP3    H229050   3.398   0.937   5.364
 9696TIP3   OH229051   0.362   0.882   5.057
 9696TIP3    H129052   0.277   0.861   5.018
 9696TIP3    H229053   0.426   0.834   5.004
 9697TIP3   OH229054   1.155   6.006   1.212
 9697TIP3    H129055   1.103   5.934   1.178
 9697TIP3    H229056   1.245   5.987   1.186
 9698TIP3   OH229057   2.681   4.653   4.478
 9698TIP3    H129058   2.743   4.626   4.410
 9698TIP3    H229059   2.735   4.700   4.542
 9699TIP3   OH229060   1.031   1.709   1.565
 9699TIP3    H129061   1.114   1.719   1.517
 9699TIP3    H229062   1.033   1.619   1.598
 9700TIP3   OH229063   2.520   4.571   3.491
 9700TIP3    H129064   2.522   4.663   3.519
 9700TIP3    H229065   2.580   4.567   3.416
 9701TIP3   OH229066   0.137   1.131   4.681
 9701TIP3    H129067   0.055   1.083   4.693
 9701TIP3    H229068   0.182   1.085   4.610
 9702TIP3   OH229069   3.723   1.240   4.561
 9702TIP3    H129070   3.735   1.327   4.523
 9702TIP3    H229071   3.641   1.209   4.523
 9703TIP3   OH229072   0.504   0.038   4.424
 9703TIP3    H129073   0.496   0.070   4.334
 9703TIP3    H229074   0.442   0.090   4.474
 9704TIP3   OH229075   1.332   5.815   0.891
 9704TIP3    H129076   1.381   5.896   0.878
 9704TIP3    H229077   1.240   5.841   0.887
 9705TIP3   OH229078   2.418   1.577   1.710
 9705TIP3    H129079   2.489   1.617   1.759
 9705TIP3    H229080   2.388   1.645   1.650
 9706TIP3   OH229081   5.513   2.505   2.827
 9706TIP3    H129082   5.496   2.589   2.785
 9706TIP3    H229083   5.503   2.523   2.921
 9707TIP3   OH229084   6.722   3.183   1.258
 9707TIP3    H129085   6.718   3.101   1.308
 9707TIP3    H229086   6.793   3.171   1.196
 9708TIP3   OH229087   1.858   5.262   2.257
 9708TIP3    H129088   1.843   5.323   2.329
 9708TIP3    H229089   1.825   5.178   2.289
 9709TIP3   OH229090   7.218   5.095   4.473
 9709TIP3    H129091   7.222   5.161   4.543
 9709TIP3    H229092   7.127   5.095   4.445
 9710TIP3   OH229093   5.653   5.416   2.376
 9710TIP3    H129094   5.698   5.483   2.426
 9710TIP3    H229095   5.719   5.383   2.314
 9711TIP3   OH229096   2.961   4.620   5.092
 9711TIP3    H129097   2.902   4.680   5.047
 9711TIP3    H229098   2.904   4.568   5.149
 9712TIP3   OH229099   6.173   1.396   4.134
 9712TIP3    H129100   6.188   1.479   4.088
 9712TIP3    H229101   6.137   1.338   4.067
 9713TIP3   OH229102   3.667   2.086   5.907
 9713TIP3    H129103   3.707   2.142   5.841
 9713TIP3    H229104   3.631   2.012   5.858
 9714TIP3   OH229105   5.639   5.247   3.620
 9714TIP3    H129106   5.672   5.169   3.576
 9714TIP3    H229107   5.611   5.216   3.706
 9715TIP3   OH229108   2.811   4.746   5.475
 9715TIP3    H129109   2.760   4.687   5.532
 9715TIP3    H229110   2.748   4.774   5.409
 9716TIP3   OH229111   0.833   0.710   0.116
 9716TIP3    H129112   0.770   0.691   0.186
 9716TIP3    H229113   0.825   0.804   0.102
 9717TIP3   OH229114   7.049   0.454   3.663
 9717TIP3    H129115   7.066   0.525   3.601
 9717TIP3    H229116   7.071   0.374   3.614
 9718TIP3   OH229117   2.082   3.923   5.561
 9718TIP3    H129118   2.032   3.989   5.608
 9718TIP3    H229119   2.173   3.944   5.581
 9719TIP3   OH229120   2.318   4.994   0.604
 9719TIP3    H129121   2.387   5.051   0.639
 9719TIP3    H229122   2.366   4.927   0.555
 9720TIP3   OH229123   6.815   4.687   5.209
 9720TIP3    H129124   6.867   4.757   5.248
 9720TIP3    H229125   6.877   4.616   5.194
 9721TIP3   OH229126   2.847   0.029   3.882
 9721TIP3    H129127   2.817   0.035   3.791
 9721TIP3    H229128   2.809  -0.053   3.914
 9722TIP3   OH229129   3.950   2.031   0.051
 9722TIP3    H129130   4.045   2.022   0.048
 9722TIP3    H229131   3.922   1.967   0.116
 9723TIP3   OH229132   6.952   1.374   0.299
 9723TIP3    H129133   6.880   1.315   0.321
 9723TIP3    H229134   6.908   1.455   0.273
 9724TIP3   OH229135   6.725   2.478   2.241
 9724TIP3    H129136   6.660   2.507   2.306
 9724TIP3    H229137   6.779   2.556   2.226
 9725TIP3   OH229138   3.897   2.056   5.007
 9725TIP3    H129139   3.965   2.014   4.955
 9725TIP3    H229140   3.816   2.038   4.960
 9726TIP3   OH229141   5.731   1.610   3.974
 9726TIP3    H129142   5.664   1.637   4.036
 9726TIP3    H229143   5.775   1.691   3.948
 9727TIP3   OH229144   2.295   3.577   5.779
 9727TIP3    H129145   2.365   3.543   5.834
 9727TIP3    H229146   2.215   3.545   5.820
 9728TIP3   OH229147   4.110   1.836   5.103
 9728TIP3    H129148   4.142   1.783   5.176
 9728TIP3    H229149   4.070   1.913   5.145
 9729TIP3   OH229150   4.419   6.296   5.771
 9729TIP3    H129151   4.494   6.342   5.733
 9729TIP3    H229152   4.347   6.314   5.711
 9730TIP3   OH229153   2.509   2.661   2.347
 9730TIP3    H129154   2.536   2.598   2.414
 9730TIP3    H229155   2.414   2.658   2.349
 9731TIP3   OH229156   2.202   3.149   4.522
 9731TIP3    H129157   2.179   3.068   4.568
 9731TIP3    H229158   2.292   3.168   4.549
 9732TIP3   OH229159   6.953   5.761   3.375
 9732TIP3    H129160   6.904   5.692   3.331
 9732TIP3    H229161   6.921   5.843   3.336
 9733TIP3   OH229162   0.649   0.080   2.871
 9733TIP3    H129163   0.728   0.080   2.816
 9733TIP3    H229164   0.652   0.165   2.917
 9734TIP3   OH229165   6.950   3.763   3.576
 9734TIP3    H129166   6.992   3.848   3.562
 9734TIP3    H229167   6.878   3.761   3.513
 9735TIP3   OH229168   4.554   1.865   5.436
 9735TIP3    H129169   4.647   1.842   5.434
 9735TIP3    H229170   4.541   1.908   5.520
 9736TIP3   OH229171   4.825   3.105   5.595
 9736TIP3    H129172   4.893   3.123   5.529
 9736TIP3    H229173   4.866   3.043   5.655
 9737TIP3   OH229174   4.977   1.712   5.752
 9737TIP3    H129175   5.060   1.750   5.780
 9737TIP3    H229176   4.922   1.787   5.729
 9738TIP3   OH229177   1.298   2.534   5.273
 9738TIP3    H129178   1.390   2.538   5.247
 9738TIP3    H229179   1.301   2.534   5.369
 9739TIP3   OH229180   3.066   4.404   4.948
 9739TIP3    H129181   3.121   4.441   4.879
 9739TIP3    H229182   3.049   4.478   5.007
 9740TIP3   OH229183   4.373   0.282   0.433
 9740TIP3    H129184   4.406   0.333   0.360
 9740TIP3    H229185   4.290   0.325   0.457
 9741TIP3   OH229186   1.365   3.349   4.465
 9741TIP3    H129187   1.387   3.334   4.557
 9741TIP3    H229188   1.270   3.356   4.464
 9742TIP3   OH229189   2.992   1.910   1.028
 9742TIP3    H129190   2.929   1.854   0.983
 9742TIP3    H229191   3.056   1.850   1.066
 9743TIP3   OH229192   6.274   6.568   4.352
 9743TIP3    H129193   6.234   6.615   4.279
 9743TIP3    H229194   6.306   6.637   4.410
 9744TIP3   OH229195   2.069   1.005   4.179
 9744TIP3    H129196   2.013   0.993   4.256
 9744TIP3    H229197   2.142   0.945   4.193
 9745TIP3   OH229198   5.025   0.531   5.381
 9745TIP3    H129199   4.939   0.493   5.399
 9745TIP3    H229200   5.030   0.608   5.439
 9746TIP3   OH229201   4.650   6.561   1.333
 9746TIP3    H129202   4.686   6.501   1.399
 9746TIP3    H229203   4.702   6.641   1.342
 9747TIP3   OH229204   0.100   4.302   4.554
 9747TIP3    H129205   0.126   4.214   4.525
 9747TIP3    H229206   0.007   4.293   4.576
 9748TIP3   OH229207   2.074   1.896   1.413
 9748TIP3    H129208   2.057   1.918   1.321
 9748TIP3    H229209   2.052   1.803   1.419
 9749TIP3   OH229210   4.731   0.927   2.058
 9749TIP3    H129211   4.698   0.993   1.996
 9749TIP3    H229212   4.694   0.844   2.026
   7.21349   6.80095   5.88978   0.00000   0.00000  -2.40450   0.00000  -2.40450  -3.40047
