Title t= 487.00000 step= 243500
46055
    1GLY      N    1   2.636   3.158   0.799
    1GLY    HT1    2   2.564   3.098   0.754
    1GLY    HT2    3   2.610   3.207   0.887
    1GLY    HT3    4   2.705   3.084   0.823
    1GLY     CA    5   2.690   3.258   0.704
    1GLY    HA1    6   2.621   3.286   0.626
    1GLY    HA2    7   2.774   3.209   0.658
    1GLY      C    8   2.754   3.373   0.774
    1GLY      O    9   2.864   3.352   0.830
    2PRO      N   10   2.694   3.485   0.778
    2PRO     CD   11   2.572   3.516   0.704
    2PRO    HD1   12   2.493   3.460   0.758
    2PRO    HD2   13   2.587   3.499   0.595
    2PRO     CA   14   2.736   3.598   0.864
    2PRO     HA   15   2.821   3.643   0.815
    2PRO     CB   16   2.609   3.688   0.852
    2PRO    HB1   17   2.631   3.790   0.888
    2PRO    HB2   18   2.533   3.648   0.922
    2PRO     CG   19   2.553   3.666   0.716
    2PRO    HG1   20   2.455   3.707   0.686
    2PRO    HG2   21   2.624   3.722   0.652
    2PRO      C   22   2.778   3.566   1.010
    2PRO      O   23   2.715   3.491   1.082
    3GLY      N   24   2.894   3.619   1.054
    3GLY     HN   25   2.946   3.671   0.986
    3GLY     CA   26   2.942   3.602   1.195
    3GLY    HA1   27   3.031   3.663   1.202
    3GLY    HA2   28   2.964   3.497   1.208
    3GLY      C   29   2.849   3.657   1.303
    3GLY      O   30   2.754   3.734   1.284
    4ALA      N   31   2.888   3.616   1.427
    4ALA     HN   32   2.973   3.565   1.439
    4ALA     CA   33   2.815   3.641   1.552
    4ALA     HA   34   2.767   3.737   1.542
    4ALA     CB   35   2.706   3.532   1.580
    4ALA    HB1   36   2.746   3.429   1.593
    4ALA    HB2   37   2.635   3.529   1.495
    4ALA    HB3   38   2.651   3.564   1.671
    4ALA      C   39   2.912   3.652   1.670
    4ALA      O   40   3.019   3.583   1.667
    5PRO      N   41   2.899   3.730   1.779
    5PRO     CD   42   2.771   3.793   1.808
    5PRO    HD1   43   2.692   3.715   1.816
    5PRO    HD2   44   2.758   3.861   1.721
    5PRO     CA   45   3.001   3.752   1.882
    5PRO     HA   46   3.096   3.772   1.835
    5PRO     CB   47   2.951   3.875   1.956
    5PRO    HB1   48   2.984   3.969   1.906
    5PRO    HB2   49   2.983   3.867   2.062
    5PRO     CG   50   2.801   3.868   1.942
    5PRO    HG1   51   2.759   3.804   2.022
    5PRO    HG2   52   2.753   3.968   1.937
    5PRO      C   53   3.000   3.626   1.976
    5PRO      O   54   2.903   3.554   1.979
    6GLY      N   55   3.109   3.598   2.052
    6GLY     HN   56   3.188   3.653   2.029
    6GLY     CA   57   3.109   3.508   2.161
    6GLY    HA1   58   3.210   3.519   2.200
    6GLY    HA2   59   3.099   3.411   2.115
    6GLY      C   60   3.016   3.526   2.279
    6GLY      O   61   2.949   3.631   2.289
    7PRO      N   62   3.009   3.426   2.361
    7PRO     CD   63   3.091   3.302   2.346
    7PRO    HD1   64   3.200   3.320   2.329
    7PRO    HD2   65   3.049   3.240   2.263
    7PRO     CA   66   2.910   3.416   2.478
    7PRO     HA   67   2.813   3.445   2.441
    7PRO     CB   68   2.926   3.269   2.512
    7PRO    HB1   69   2.864   3.206   2.445
    7PRO    HB2   70   2.904   3.243   2.617
    7PRO     CG   71   3.076   3.241   2.481
    7PRO    HG1   72   3.138   3.292   2.558
    7PRO    HG2   73   3.095   3.132   2.485
    7PRO      C   74   2.940   3.501   2.592
    7PRO      O   75   3.059   3.540   2.595
    8GLY      N   76   2.838   3.547   2.664
    8GLY     HN   77   2.742   3.535   2.641
    8GLY     CA   78   2.855   3.635   2.781
    8GLY    HA1   79   2.758   3.677   2.806
    8GLY    HA2   80   2.910   3.723   2.750
    8GLY      C   81   2.927   3.576   2.902
    8GLY      O   82   2.960   3.456   2.905
    9ALA      N   83   2.942   3.659   3.005
    9ALA     HN   84   2.898   3.747   2.997
    9ALA     CA   85   2.990   3.623   3.130
    9ALA     HA   86   3.070   3.559   3.095
    9ALA     CB   87   3.049   3.750   3.195
    9ALA    HB1   88   3.150   3.756   3.150
    9ALA    HB2   89   3.066   3.725   3.302
    9ALA    HB3   90   2.982   3.838   3.180
    9ALA      C   91   2.895   3.542   3.221
    9ALA      O   92   2.778   3.571   3.216
   10PRO      N   93   2.941   3.461   3.318
   10PRO     CD   94   3.082   3.425   3.328
   10PRO    HD1   95   3.149   3.508   3.360
   10PRO    HD2   96   3.123   3.387   3.232
   10PRO     CA   97   2.867   3.402   3.427
   10PRO     HA   98   2.801   3.329   3.383
   10PRO     CB   99   2.971   3.319   3.516
   10PRO    HB1  100   2.934   3.216   3.537
   10PRO    HB2  101   2.997   3.369   3.612
   10PRO     CG  102   3.097   3.309   3.427
   10PRO    HG1  103   3.179   3.325   3.500
   10PRO    HG2  104   3.102   3.210   3.377
   10PRO      C  105   2.783   3.508   3.506
   10PRO      O  106   2.837   3.615   3.539
   11GLY      N  107   2.652   3.475   3.529
   11GLY     HN  108   2.631   3.384   3.494
   11GLY     CA  109   2.555   3.551   3.607
   11GLY    HA1  110   2.462   3.496   3.618
   11GLY    HA2  111   2.540   3.645   3.558
   11GLY      C  112   2.591   3.595   3.748
   11GLY      O  113   2.686   3.542   3.804
   12PRO      N  114   2.517   3.688   3.808
   12PRO     CD  115   2.426   3.784   3.742
   12PRO    HD1  116   2.333   3.723   3.737
   12PRO    HD2  117   2.464   3.831   3.649
   12PRO     CA  118   2.519   3.714   3.951
   12PRO     HA  119   2.615   3.760   3.971
   12PRO     CB  120   2.396   3.811   3.973
   12PRO    HB1  121   2.404   3.870   4.067
   12PRO    HB2  122   2.306   3.747   3.973
   12PRO     CG  123   2.401   3.891   3.846
   12PRO    HG1  124   2.307   3.948   3.830
   12PRO    HG2  125   2.482   3.968   3.850
   12PRO      C  126   2.511   3.595   4.044
   12PRO      O  127   2.432   3.506   4.030
   13GLY      N  128   2.609   3.591   4.139
   13GLY     HN  129   2.681   3.659   4.129
   13GLY     CA  130   2.610   3.498   4.251
   13GLY    HA1  131   2.698   3.519   4.310
   13GLY    HA2  132   2.617   3.395   4.219
   13GLY      C  133   2.487   3.497   4.342
   13GLY      O  134   2.385   3.560   4.317
   14ALA      N  135   2.494   3.419   4.455
   14ALA     HN  136   2.565   3.351   4.471
   14ALA     CA  137   2.388   3.419   4.557
   14ALA     HA  138   2.293   3.424   4.505
   14ALA     CB  139   2.398   3.287   4.645
   14ALA    HB1  140   2.311   3.294   4.714
   14ALA    HB2  141   2.491   3.276   4.704
   14ALA    HB3  142   2.398   3.199   4.576
   14ALA      C  143   2.410   3.543   4.641
   14ALA      O  144   2.521   3.606   4.626
   15PRO      N  145   2.305   3.597   4.701
   15PRO     CD  146   2.168   3.550   4.680
   15PRO    HD1  147   2.158   3.461   4.746
   15PRO    HD2  148   2.136   3.528   4.576
   15PRO     CA  149   2.313   3.710   4.794
   15PRO     HA  150   2.344   3.787   4.724
   15PRO     CB  151   2.168   3.732   4.846
   15PRO    HB1  152   2.144   3.840   4.853
   15PRO    HB2  153   2.158   3.681   4.944
   15PRO     CG  154   2.084   3.672   4.730
   15PRO    HG1  155   1.981   3.646   4.763
   15PRO    HG2  156   2.064   3.747   4.650
   15PRO      C  157   2.417   3.715   4.905
   15PRO    OT1  158   2.403   3.650   5.016
   15PRO    OT2  159   2.510   3.799   4.902
   16LIT    LIT  160   5.653   4.782   2.626
   17LIT    LIT  161   2.990   5.367   3.415
   18LIT    LIT  162   2.781   3.217   1.968
   19LIT    LIT  163   5.789   5.515   2.895
   20LIT    LIT  164   3.103   4.797   1.924
   21LIT    LIT  165   1.755   5.331   1.190
   22LIT    LIT  166   2.111   2.789   5.613
   23LIT    LIT  167   7.398   4.838   3.856
   24LIT    LIT  168   1.922   4.723   3.002
   25LIT    LIT  169   4.421   0.145   6.251
   26LIT    LIT  170   7.646   3.320   5.228
   27LIT    LIT  171   1.718   4.599   3.651
   28LIT    LIT  172   0.966   7.014   3.762
   29LIT    LIT  173   0.041   7.179   6.746
   30LIT    LIT  174   4.459   5.758   4.574
   31LIT    LIT  175   1.591   2.355   4.169
   32LIT    LIT  176   0.017   4.764   6.854
   33LIT    LIT  177   4.035   6.475   2.763
   34LIT    LIT  178   7.274   6.713   0.296
   35LIT    LIT  179   8.348   0.158   3.403
   36LIT    LIT  180   8.183   0.376   1.322
   37LIT    LIT  181   3.891   5.173   1.036
   38LIT    LIT  182   1.427   3.267   1.016
   39LIT    LIT  183   2.745   1.929   2.805
   40LIT    LIT  184   0.245   6.500   3.683
   41LIT    LIT  185   2.283   1.136   6.203
   42LIT    LIT  186   6.668   4.309   1.102
   43LIT    LIT  187   4.073   1.405   0.159
   44LIT    LIT  188   4.137   7.926   2.856
   45LIT    LIT  189   0.927   7.503   1.064
   46LIT    LIT  190   1.142   3.758   5.119
   47LIT    LIT  191   1.261   0.350   1.055
   48LIT    LIT  192   1.637   7.481   1.892
   49LIT    LIT  193   7.600   1.575   5.550
   50LIT    LIT  194   6.000   3.228   1.749
   51LIT    LIT  195   6.221   0.023   1.901
   52LIT    LIT  196   2.622   7.302   5.549
   53LIT    LIT  197   1.383   4.330   0.179
   54LIT    LIT  198   5.297   1.752   5.417
   55LIT    LIT  199   1.242   2.766   4.476
   56LIT    LIT  200   7.731   4.923   4.796
   57LIT    LIT  201   5.238   5.963   0.344
   58LIT    LIT  202   2.589   3.770   5.064
   59CLA    CLA  203   6.447   0.175   2.931
   60CLA    CLA  204   4.441   5.995   4.548
   61CLA    CLA  205   6.953   7.256   0.436
   62CLA    CLA  206   4.708   0.395   2.749
   63CLA    CLA  207   1.888   6.675   3.278
   64CLA    CLA  208   3.251   5.948   4.025
   65CLA    CLA  209   2.865   1.206   6.757
   66CLA    CLA  210   5.347   1.688   6.337
   67CLA    CLA  211   1.618   4.993   2.654
   68CLA    CLA  212   7.640   5.282   3.953
   69CLA    CLA  213   6.538   5.473   2.814
   70CLA    CLA  214   3.824   0.745   0.497
   71CLA    CLA  215   2.393   0.886   2.445
   72CLA    CLA  216   7.850   4.729   4.769
   73CLA    CLA  217   6.990   2.551   0.647
   74CLA    CLA  218   0.152   0.327   1.891
   75CLA    CLA  219   3.980   7.692   6.711
   76CLA    CLA  220   0.993   3.342   1.120
   77CLA    CLA  221   6.154   5.287   0.109
   78CLA    CLA  222   7.797   1.881   3.720
   79CLA    CLA  223   6.146   3.384   3.208
   80CLA    CLA  224   5.074   3.603   6.085
   81CLA    CLA  225   1.653   0.654   1.710
   82CLA    CLA  226   2.828   5.124   0.517
   83CLA    CLA  227   8.030   5.956   4.864
   84CLA    CLA  228   0.989   7.279   2.673
   85CLA    CLA  229   8.099   5.825   0.368
   86CLA    CLA  230   8.094   3.029   4.621
   87CLA    CLA  231   1.484   4.649   0.504
   88CLA    CLA  232   8.282   4.430   3.530
   89CLA    CLA  233   2.448   3.930   0.064
   90CLA    CLA  234   2.165   3.073   5.970
   91CLA    CLA  235   5.848   6.433   1.086
   92CLA    CLA  236   5.831   5.096   0.775
   93CLA    CLA  237   3.020   0.879   5.861
   94CLA    CLA  238   8.389   0.245   3.603
   95CLA    CLA  239   2.863   2.517   0.671
   96CLA    CLA  240   6.663   0.887   4.212
   97CLA    CLA  241   3.939   2.580   3.345
   98CLA    CLA  242   6.955   2.422   6.176
   99CLA    CLA  243   0.701   4.253   3.105
  100CLA    CLA  244   4.758   1.237   4.160
  101CLA    CLA  245   7.478   0.996   2.808
  102TIP3   OH2  246   6.148   4.364   0.453
  102TIP3    H1  247   6.184   4.440   0.499
  102TIP3    H2  248   6.079   4.400   0.396
  103TIP3   OH2  249   1.110   3.413   2.604
  103TIP3    H1  250   1.039   3.389   2.664
  103TIP3    H2  251   1.114   3.509   2.608
  104TIP3   OH2  252   7.297   6.652   5.045
  104TIP3    H1  253   7.386   6.620   5.040
  104TIP3    H2  254   7.254   6.619   4.966
  105TIP3   OH2  255   2.194   2.064   4.220
  105TIP3    H1  256   2.239   2.071   4.304
  105TIP3    H2  257   2.104   2.041   4.243
  106TIP3   OH2  258   4.585   3.888   1.123
  106TIP3    H1  259   4.566   3.979   1.144
  106TIP3    H2  260   4.627   3.853   1.202
  107TIP3   OH2  261   6.790   4.843   6.642
  107TIP3    H1  262   6.825   4.907   6.579
  107TIP3    H2  263   6.839   4.860   6.722
  108TIP3   OH2  264   4.826   6.309   0.372
  108TIP3    H1  265   4.852   6.388   0.324
  108TIP3    H2  266   4.853   6.326   0.462
  109TIP3   OH2  267   7.706   6.613   5.019
  109TIP3    H1  268   7.732   6.610   5.111
  109TIP3    H2  269   7.629   6.556   5.014
  110TIP3   OH2  270   4.661   2.569   1.860
  110TIP3    H1  271   4.638   2.572   1.767
  110TIP3    H2  272   4.702   2.484   1.872
  111TIP3   OH2  273   4.027   5.196   0.862
  111TIP3    H1  274   4.026   5.221   0.769
  111TIP3    H2  275   4.112   5.155   0.875
  112TIP3   OH2  276   4.928   1.865   1.689
  112TIP3    H1  277   5.004   1.808   1.693
  112TIP3    H2  278   4.964   1.954   1.686
  113TIP3   OH2  279   0.987   5.620   0.469
  113TIP3    H1  280   1.004   5.545   0.525
  113TIP3    H2  281   0.954   5.688   0.529
  114TIP3   OH2  282   1.010   3.096   3.199
  114TIP3    H1  283   1.010   3.174   3.254
  114TIP3    H2  284   0.928   3.101   3.151
  115TIP3   OH2  285   0.793   3.087   6.784
  115TIP3    H1  286   0.865   3.130   6.738
  115TIP3    H2  287   0.719   3.148   6.774
  116TIP3   OH2  288   1.293   1.496   6.546
  116TIP3    H1  289   1.366   1.443   6.514
  116TIP3    H2  290   1.227   1.431   6.571
  117TIP3   OH2  291   0.346   0.742   2.013
  117TIP3    H1  292   0.383   0.800   2.079
  117TIP3    H2  293   0.322   0.663   2.062
  118TIP3   OH2  294   4.150   3.102   2.221
  118TIP3    H1  295   4.233   3.126   2.180
  118TIP3    H2  296   4.170   3.025   2.273
  119TIP3   OH2  297   0.294   1.534   4.885
  119TIP3    H1  298   0.326   1.599   4.948
  119TIP3    H2  299   0.199   1.532   4.899
  120TIP3   OH2  300   0.231   1.627   4.577
  120TIP3    H1  301   0.145   1.612   4.617
  120TIP3    H2  302   0.224   1.713   4.536
  121TIP3   OH2  303   5.121   0.960   2.189
  121TIP3    H1  304   5.206   0.954   2.234
  121TIP3    H2  305   5.057   0.968   2.259
  122TIP3   OH2  306   7.410   0.292   1.864
  122TIP3    H1  307   7.349   0.347   1.815
  122TIP3    H2  308   7.393   0.313   1.956
  123TIP3   OH2  309   1.054   2.027   6.154
  123TIP3    H1  310   1.087   2.030   6.243
  123TIP3    H2  311   1.067   1.936   6.126
  124TIP3   OH2  312   5.087   4.532   2.446
  124TIP3    H1  313   5.035   4.460   2.484
  124TIP3    H2  314   5.176   4.516   2.477
  125TIP3   OH2  315   4.009   6.035   6.771
  125TIP3    H1  316   4.096   6.069   6.752
  125TIP3    H2  317   4.024   5.947   6.804
  126TIP3   OH2  318   4.052   7.417   6.581
  126TIP3    H1  319   4.113   7.363   6.631
  126TIP3    H2  320   4.039   7.495   6.635
  127TIP3   OH2  321   6.350   7.233   4.572
  127TIP3    H1  322   6.346   7.274   4.486
  127TIP3    H2  323   6.357   7.140   4.554
  128TIP3   OH2  324   7.692   2.471   1.253
  128TIP3    H1  325   7.651   2.390   1.224
  128TIP3    H2  326   7.624   2.517   1.302
  129TIP3   OH2  327   0.759   1.352   0.927
  129TIP3    H1  328   0.666   1.327   0.920
  129TIP3    H2  329   0.796   1.289   0.988
  130TIP3   OH2  330   7.235   6.414   1.371
  130TIP3    H1  331   7.316   6.415   1.321
  130TIP3    H2  332   7.170   6.377   1.311
  131TIP3   OH2  333   0.638   2.383   5.049
  131TIP3    H1  334   0.660   2.320   4.981
  131TIP3    H2  335   0.722   2.416   5.080
  132TIP3   OH2  336   7.211   6.399   5.268
  132TIP3    H1  337   7.232   6.426   5.179
  132TIP3    H2  338   7.158   6.320   5.258
  133TIP3   OH2  339   5.501   1.515   3.266
  133TIP3    H1  340   5.558   1.452   3.308
  133TIP3    H2  341   5.560   1.573   3.218
  134TIP3   OH2  342   2.681   2.733   5.553
  134TIP3    H1  343   2.644   2.714   5.639
  134TIP3    H2  344   2.764   2.778   5.571
  135TIP3   OH2  345   0.123   6.480   4.949
  135TIP3    H1  346   0.157   6.398   4.985
  135TIP3    H2  347   0.030   6.480   4.971
  136TIP3   OH2  348   2.504   7.879   1.944
  136TIP3    H1  349   2.457   7.930   2.010
  136TIP3    H2  350   2.588   7.858   1.986
  137TIP3   OH2  351   8.099   1.619   3.178
  137TIP3    H1  352   8.109   1.570   3.097
  137TIP3    H2  353   8.073   1.554   3.243
  138TIP3   OH2  354   4.127   0.208   0.403
  138TIP3    H1  355   4.094   0.221   0.492
  138TIP3    H2  356   4.062   0.250   0.347
  139TIP3   OH2  357   2.502   5.976   1.387
  139TIP3    H1  358   2.420   6.020   1.364
  139TIP3    H2  359   2.569   6.044   1.382
  140TIP3   OH2  360   5.886   1.083   5.647
  140TIP3    H1  361   5.937   1.126   5.715
  140TIP3    H2  362   5.877   1.149   5.578
  141TIP3   OH2  363   5.936   5.003   2.138
  141TIP3    H1  364   5.977   5.081   2.101
  141TIP3    H2  365   5.964   4.932   2.080
  142TIP3   OH2  366   3.238   2.344   5.452
  142TIP3    H1  367   3.177   2.381   5.516
  142TIP3    H2  368   3.317   2.397   5.460
  143TIP3   OH2  369   7.112   7.377   1.170
  143TIP3    H1  370   7.100   7.331   1.087
  143TIP3    H2  371   7.089   7.468   1.150
  144TIP3   OH2  372   6.872   5.034   2.883
  144TIP3    H1  373   6.921   5.081   2.816
  144TIP3    H2  374   6.885   4.942   2.861
  145TIP3   OH2  375   8.432   7.634   4.136
  145TIP3    H1  376   8.403   7.639   4.227
  145TIP3    H2  377   8.524   7.609   4.140
  146TIP3   OH2  378   7.227   6.120   3.033
  146TIP3    H1  379   7.167   6.084   2.968
  146TIP3    H2  380   7.229   6.214   3.015
  147TIP3   OH2  381   0.502   7.281   6.573
  147TIP3    H1  382   0.432   7.295   6.510
  147TIP3    H2  383   0.556   7.212   6.535
  148TIP3   OH2  384   0.280   4.387   3.530
  148TIP3    H1  385   0.243   4.301   3.513
  148TIP3    H2  386   0.204   4.446   3.534
  149TIP3   OH2  387   6.005   2.013   4.649
  149TIP3    H1  388   6.050   2.074   4.707
  149TIP3    H2  389   6.056   2.016   4.567
  150TIP3   OH2  390   3.527   4.117   4.438
  150TIP3    H1  391   3.532   4.184   4.506
  150TIP3    H2  392   3.604   4.132   4.383
  151TIP3   OH2  393   8.367   2.777   1.889
  151TIP3    H1  394   8.453   2.761   1.928
  151TIP3    H2  395   8.305   2.744   1.954
  152TIP3   OH2  396   0.509   3.638   1.086
  152TIP3    H1  397   0.533   3.594   1.004
  152TIP3    H2  398   0.470   3.721   1.059
  153TIP3   OH2  399   6.190   3.853   2.748
  153TIP3    H1  400   6.183   3.778   2.691
  153TIP3    H2  401   6.128   3.837   2.819
  154TIP3   OH2  402   5.380   2.376   3.422
  154TIP3    H1  403   5.305   2.321   3.444
  154TIP3    H2  404   5.342   2.456   3.388
  155TIP3   OH2  405   3.018   0.301   3.216
  155TIP3    H1  406   2.925   0.283   3.212
  155TIP3    H2  407   3.053   0.237   3.278
  156TIP3   OH2  408   0.852   2.960   3.588
  156TIP3    H1  409   0.947   2.954   3.594
  156TIP3    H2  410   0.834   3.054   3.583
  157TIP3   OH2  411   4.891   5.804   0.579
  157TIP3    H1  412   4.875   5.773   0.489
  157TIP3    H2  413   4.977   5.769   0.601
  158TIP3   OH2  414   0.056   2.141   3.852
  158TIP3    H1  415   0.137   2.089   3.848
  158TIP3    H2  416   0.079   2.215   3.910
  159TIP3   OH2  417   5.568   6.219   4.476
  159TIP3    H1  418   5.600   6.271   4.550
  159TIP3    H2  419   5.481   6.190   4.503
  160TIP3   OH2  420   2.667   7.896   6.125
  160TIP3    H1  421   2.641   7.811   6.090
  160TIP3    H2  422   2.756   7.883   6.157
  161TIP3   OH2  423   5.761   6.038   6.586
  161TIP3    H1  424   5.669   6.036   6.615
  161TIP3    H2  425   5.759   6.088   6.504
  162TIP3   OH2  426   6.117   6.847   4.643
  162TIP3    H1  427   6.095   6.932   4.682
  162TIP3    H2  428   6.059   6.785   4.687
  163TIP3   OH2  429   1.757   0.701   6.398
  163TIP3    H1  430   1.662   0.702   6.384
  163TIP3    H2  431   1.785   0.614   6.368
  164TIP3   OH2  432   6.323   1.199   5.046
  164TIP3    H1  433   6.390   1.262   5.017
  164TIP3    H2  434   6.321   1.210   5.141
  165TIP3   OH2  435   7.938   2.802   3.977
  165TIP3    H1  436   7.854   2.758   3.987
  165TIP3    H2  437   7.976   2.801   4.065
  166TIP3   OH2  438   6.324   6.292   4.466
  166TIP3    H1  439   6.267   6.226   4.428
  166TIP3    H2  440   6.264   6.357   4.504
  167TIP3   OH2  441   6.591   4.256   2.197
  167TIP3    H1  442   6.533   4.180   2.192
  167TIP3    H2  443   6.537   4.325   2.237
  168TIP3   OH2  444   6.662   7.404   5.057
  168TIP3    H1  445   6.751   7.376   5.035
  168TIP3    H2  446   6.623   7.329   5.102
  169TIP3   OH2  447   2.365   0.027   4.635
  169TIP3    H1  448   2.351   0.016   4.729
  169TIP3    H2  449   2.291   0.081   4.606
  170TIP3   OH2  450   3.879   7.006   1.661
  170TIP3    H1  451   3.962   7.052   1.674
  170TIP3    H2  452   3.823   7.036   1.733
  171TIP3   OH2  453   7.219   4.272   5.163
  171TIP3    H1  454   7.175   4.339   5.111
  171TIP3    H2  455   7.291   4.318   5.206
  172TIP3   OH2  456   3.037   6.217   5.748
  172TIP3    H1  457   3.009   6.297   5.792
  172TIP3    H2  458   3.085   6.169   5.815
  173TIP3   OH2  459   7.033   4.530   4.266
  173TIP3    H1  460   6.966   4.537   4.334
  173TIP3    H2  461   7.058   4.437   4.266
  174TIP3   OH2  462   0.335   3.079   5.400
  174TIP3    H1  463   0.420   3.099   5.439
  174TIP3    H2  464   0.340   2.986   5.376
  175TIP3   OH2  465   4.561   6.280   6.108
  175TIP3    H1  466   4.550   6.206   6.049
  175TIP3    H2  467   4.613   6.343   6.058
  176TIP3   OH2  468   5.139   4.658   0.667
  176TIP3    H1  469   5.171   4.655   0.577
  176TIP3    H2  470   5.063   4.599   0.667
  177TIP3   OH2  471   0.564   7.391   3.497
  177TIP3    H1  472   0.591   7.350   3.579
  177TIP3    H2  473   0.524   7.319   3.446
  178TIP3   OH2  474   2.772   7.800   5.827
  178TIP3    H1  475   2.733   7.887   5.819
  178TIP3    H2  476   2.811   7.799   5.915
  179TIP3   OH2  477   8.246   7.532   5.501
  179TIP3    H1  478   8.168   7.491   5.537
  179TIP3    H2  479   8.214   7.581   5.425
  180TIP3   OH2  480   1.876   6.410   5.132
  180TIP3    H1  481   1.954   6.466   5.132
  180TIP3    H2  482   1.809   6.461   5.087
  181TIP3   OH2  483   6.899   3.737   5.846
  181TIP3    H1  484   6.806   3.728   5.867
  181TIP3    H2  485   6.902   3.808   5.782
  182TIP3   OH2  486   0.358   1.889   4.047
  182TIP3    H1  487   0.325   1.893   3.957
  182TIP3    H2  488   0.352   1.979   4.078
  183TIP3   OH2  489   0.937   3.492   5.948
  183TIP3    H1  490   0.907   3.574   5.987
  183TIP3    H2  491   0.901   3.424   6.005
  184TIP3   OH2  492   0.614   1.113   0.883
  184TIP3    H1  493   0.551   1.043   0.904
  184TIP3    H2  494   0.584   1.147   0.798
  185TIP3   OH2  495   2.508   0.714   6.315
  185TIP3    H1  496   2.477   0.773   6.384
  185TIP3    H2  497   2.553   0.771   6.253
  186TIP3   OH2  498   1.054   1.788   3.088
  186TIP3    H1  499   1.050   1.884   3.081
  186TIP3    H2  500   0.978   1.757   3.040
  187TIP3   OH2  501   0.638   3.439   3.618
  187TIP3    H1  502   0.662   3.441   3.711
  187TIP3    H2  503   0.571   3.370   3.612
  188TIP3   OH2  504   7.267   0.612   6.148
  188TIP3    H1  505   7.310   0.666   6.081
  188TIP3    H2  506   7.174   0.617   6.127
  189TIP3   OH2  507   1.390   2.714   4.591
  189TIP3    H1  508   1.454   2.644   4.585
  189TIP3    H2  509   1.394   2.742   4.683
  190TIP3   OH2  510   5.476   0.972   2.568
  190TIP3    H1  511   5.499   1.048   2.621
  190TIP3    H2  512   5.548   0.965   2.504
  191TIP3   OH2  513   1.600   4.771   4.450
  191TIP3    H1  514   1.582   4.855   4.492
  191TIP3    H2  515   1.562   4.706   4.509
  192TIP3   OH2  516   4.464   4.670   6.723
  192TIP3    H1  517   4.473   4.704   6.634
  192TIP3    H2  518   4.395   4.724   6.761
  193TIP3   OH2  519   6.019   1.862   5.149
  193TIP3    H1  520   6.089   1.910   5.103
  193TIP3    H2  521   5.971   1.930   5.196
  194TIP3   OH2  522   8.287   1.390   2.705
  194TIP3    H1  523   8.297   1.399   2.610
  194TIP3    H2  524   8.376   1.399   2.739
  195TIP3   OH2  525   5.654   0.289   5.028
  195TIP3    H1  526   5.584   0.350   5.051
  195TIP3    H2  527   5.735   0.340   5.038
  196TIP3   OH2  528   1.685   4.773   5.295
  196TIP3    H1  529   1.765   4.820   5.271
  196TIP3    H2  530   1.696   4.686   5.256
  197TIP3   OH2  531   2.928   1.524   1.319
  197TIP3    H1  532   2.932   1.463   1.393
  197TIP3    H2  533   2.866   1.591   1.347
  198TIP3   OH2  534   4.747   3.307   1.258
  198TIP3    H1  535   4.796   3.268   1.185
  198TIP3    H2  536   4.674   3.246   1.273
  199TIP3   OH2  537   1.663   5.895   4.845
  199TIP3    H1  538   1.724   5.967   4.833
  199TIP3    H2  539   1.668   5.874   4.938
  200TIP3   OH2  540   1.996   5.955   3.544
  200TIP3    H1  541   1.967   6.005   3.467
  200TIP3    H2  542   1.929   5.972   3.610
  201TIP3   OH2  543   4.401   7.630   3.687
  201TIP3    H1  544   4.434   7.594   3.769
  201TIP3    H2  545   4.469   7.691   3.659
  202TIP3   OH2  546   6.448   5.939   5.241
  202TIP3    H1  547   6.399   5.879   5.298
  202TIP3    H2  548   6.488   5.882   5.176
  203TIP3   OH2  549   5.641   1.336   0.586
  203TIP3    H1  550   5.573   1.335   0.519
  203TIP3    H2  551   5.608   1.279   0.655
  204TIP3   OH2  552   7.017   1.624   2.924
  204TIP3    H1  553   7.069   1.691   2.969
  204TIP3    H2  554   7.083   1.570   2.879
  205TIP3   OH2  555   3.385   0.098   0.813
  205TIP3    H1  556   3.297   0.071   0.785
  205TIP3    H2  557   3.415   0.155   0.743
  206TIP3   OH2  558   1.235   2.891   2.746
  206TIP3    H1  559   1.207   2.950   2.815
  206TIP3    H2  560   1.209   2.804   2.777
  207TIP3   OH2  561   2.327   1.702   1.666
  207TIP3    H1  562   2.342   1.772   1.729
  207TIP3    H2  563   2.403   1.645   1.674
  208TIP3   OH2  564   0.298   0.742   0.256
  208TIP3    H1  565   0.257   0.668   0.301
  208TIP3    H2  566   0.336   0.705   0.177
  209TIP3   OH2  567   6.412   1.916   0.136
  209TIP3    H1  568   6.411   1.971   0.214
  209TIP3    H2  569   6.425   1.827   0.170
  210TIP3   OH2  570   0.352   7.009   6.280
  210TIP3    H1  571   0.343   6.920   6.244
  210TIP3    H2  572   0.444   7.031   6.265
  211TIP3   OH2  573   0.880   5.666   4.513
  211TIP3    H1  574   0.948   5.723   4.548
  211TIP3    H2  575   0.920   5.579   4.511
  212TIP3   OH2  576   3.060   7.323   1.466
  212TIP3    H1  577   3.102   7.245   1.430
  212TIP3    H2  578   3.094   7.331   1.555
  213TIP3   OH2  579   3.726   0.063   1.219
  213TIP3    H1  580   3.686   0.092   1.301
  213TIP3    H2  581   3.747   0.144   1.173
  214TIP3   OH2  582   5.726   7.630   4.604
  214TIP3    H1  583   5.639   7.592   4.613
  214TIP3    H2  584   5.783   7.554   4.589
  215TIP3   OH2  585   1.049   6.137   1.945
  215TIP3    H1  586   0.955   6.126   1.958
  215TIP3    H2  587   1.056   6.212   1.886
  216TIP3   OH2  588   5.261   5.407   3.224
  216TIP3    H1  589   5.181   5.358   3.244
  216TIP3    H2  590   5.319   5.390   3.298
  217TIP3   OH2  591   5.714   2.713   1.987
  217TIP3    H1  592   5.714   2.665   1.904
  217TIP3    H2  593   5.806   2.716   2.013
  218TIP3   OH2  594   3.814   4.911   6.226
  218TIP3    H1  595   3.761   4.842   6.186
  218TIP3    H2  596   3.904   4.881   6.216
  219TIP3   OH2  597   5.073   5.915   3.627
  219TIP3    H1  598   5.076   6.011   3.621
  219TIP3    H2  599   5.161   5.887   3.601
  220TIP3   OH2  600   4.510   1.210   4.652
  220TIP3    H1  601   4.559   1.235   4.574
  220TIP3    H2  602   4.559   1.249   4.725
  221TIP3   OH2  603   7.271   3.921   1.933
  221TIP3    H1  604   7.357   3.893   1.963
  221TIP3    H2  605   7.274   3.910   1.837
  222TIP3   OH2  606   5.871   2.200   3.623
  222TIP3    H1  607   5.941   2.233   3.679
  222TIP3    H2  608   5.834   2.279   3.583
  223TIP3   OH2  609   6.673   4.617   6.372
  223TIP3    H1  610   6.715   4.559   6.435
  223TIP3    H2  611   6.604   4.661   6.421
  224TIP3   OH2  612   7.949   3.311   1.800
  224TIP3    H1  613   7.918   3.367   1.729
  224TIP3    H2  614   8.037   3.284   1.772
  225TIP3   OH2  615   2.382   2.880   5.818
  225TIP3    H1  616   2.429   2.942   5.874
  225TIP3    H2  617   2.331   2.827   5.879
  226TIP3   OH2  618   2.294   1.936   2.813
  226TIP3    H1  619   2.264   1.910   2.726
  226TIP3    H2  620   2.233   1.894   2.873
  227TIP3   OH2  621   4.849   5.152   0.066
  227TIP3    H1  622   4.903   5.095   0.121
  227TIP3    H2  623   4.895   5.235   0.064
  228TIP3   OH2  624   1.937   5.982   0.832
  228TIP3    H1  625   2.017   5.948   0.872
  228TIP3    H2  626   1.881   6.004   0.906
  229TIP3   OH2  627   7.536   5.212   5.887
  229TIP3    H1  628   7.610   5.157   5.914
  229TIP3    H2  629   7.545   5.292   5.939
  230TIP3   OH2  630   5.527   4.773   0.516
  230TIP3    H1  631   5.435   4.798   0.513
  230TIP3    H2  632   5.561   4.796   0.429
  231TIP3   OH2  633   6.818   2.516   5.187
  231TIP3    H1  634   6.799   2.580   5.255
  231TIP3    H2  635   6.741   2.517   5.130
  232TIP3   OH2  636   2.727   6.029   6.601
  232TIP3    H1  637   2.805   5.977   6.619
  232TIP3    H2  638   2.736   6.107   6.655
  233TIP3   OH2  639   0.827   5.784   0.598
  233TIP3    H1  640   0.756   5.721   0.593
  233TIP3    H2  641   0.791   5.856   0.651
  234TIP3   OH2  642   3.971   0.268   3.861
  234TIP3    H1  643   3.906   0.337   3.849
  234TIP3    H2  644   4.012   0.287   3.945
  235TIP3   OH2  645   4.195   0.812   1.637
  235TIP3    H1  646   4.153   0.766   1.564
  235TIP3    H2  647   4.130   0.810   1.707
  236TIP3   OH2  648   2.775   1.749   2.264
  236TIP3    H1  649   2.859   1.704   2.274
  236TIP3    H2  650   2.755   1.744   2.171
  237TIP3   OH2  651   2.980   3.492   4.340
  237TIP3    H1  652   3.054   3.477   4.399
  237TIP3    H2  653   2.938   3.571   4.375
  238TIP3   OH2  654   3.440   0.227   1.068
  238TIP3    H1  655   3.438   0.166   0.994
  238TIP3    H2  656   3.348   0.237   1.093
  239TIP3   OH2  657   5.183   1.513   1.876
  239TIP3    H1  658   5.181   1.556   1.962
  239TIP3    H2  659   5.136   1.431   1.889
  240TIP3   OH2  660   1.121   0.347   2.199
  240TIP3    H1  661   1.091   0.406   2.268
  240TIP3    H2  662   1.077   0.378   2.120
  241TIP3   OH2  663   1.699   1.162   2.983
  241TIP3    H1  664   1.792   1.151   2.966
  241TIP3    H2  665   1.662   1.074   2.970
  242TIP3   OH2  666   6.392   7.418   4.371
  242TIP3    H1  667   6.367   7.485   4.434
  242TIP3    H2  668   6.436   7.467   4.301
  243TIP3   OH2  669   7.905   2.576   3.163
  243TIP3    H1  670   7.885   2.559   3.071
  243TIP3    H2  671   7.857   2.509   3.211
  244TIP3   OH2  672   2.153   5.266  -0.010
  244TIP3    H1  673   2.244   5.279   0.017
  244TIP3    H2  674   2.114   5.218   0.063
  245TIP3   OH2  675   2.329   4.055   6.143
  245TIP3    H1  676   2.271   4.064   6.219
  245TIP3    H2  677   2.410   4.020   6.179
  246TIP3   OH2  678   2.757   2.081   5.611
  246TIP3    H1  679   2.844   2.040   5.610
  246TIP3    H2  680   2.711   2.043   5.537
  247TIP3   OH2  681   3.772   1.413   1.406
  247TIP3    H1  682   3.789   1.426   1.313
  247TIP3    H2  683   3.859   1.400   1.444
  248TIP3   OH2  684   3.616   5.685   1.831
  248TIP3    H1  685   3.694   5.731   1.801
  248TIP3    H2  686   3.583   5.738   1.903
  249TIP3   OH2  687   8.293   4.786   0.205
  249TIP3    H1  688   8.381   4.809   0.174
  249TIP3    H2  689   8.300   4.694   0.230
  250TIP3   OH2  690   6.723   2.352   6.509
  250TIP3    H1  691   6.816   2.375   6.512
  250TIP3    H2  692   6.678   2.428   6.546
  251TIP3   OH2  693   5.829   4.920   4.960
  251TIP3    H1  694   5.793   4.867   5.031
  251TIP3    H2  695   5.782   4.891   4.882
  252TIP3   OH2  696   4.226   3.349   4.126
  252TIP3    H1  697   4.246   3.443   4.128
  252TIP3    H2  698   4.294   3.309   4.181
  253TIP3   OH2  699   6.674   3.421   4.886
  253TIP3    H1  700   6.706   3.356   4.824
  253TIP3    H2  701   6.652   3.371   4.965
  254TIP3   OH2  702   3.543   1.540   3.785
  254TIP3    H1  703   3.531   1.627   3.824
  254TIP3    H2  704   3.493   1.481   3.842
  255TIP3   OH2  705   2.969   2.008   2.241
  255TIP3    H1  706   3.035   1.972   2.300
  255TIP3    H2  707   3.007   2.089   2.208
  256TIP3   OH2  708   4.757   7.335   0.965
  256TIP3    H1  709   4.712   7.271   0.910
  256TIP3    H2  710   4.688   7.375   1.018
  257TIP3   OH2  711   1.699   4.052   0.213
  257TIP3    H1  712   1.771   4.022   0.268
  257TIP3    H2  713   1.742   4.104   0.145
  258TIP3   OH2  714   6.347   4.169   0.942
  258TIP3    H1  715   6.427   4.146   0.989
  258TIP3    H2  716   6.295   4.088   0.943
  259TIP3   OH2  717   5.261   6.447   3.825
  259TIP3    H1  718   5.229   6.364   3.861
  259TIP3    H2  719   5.190   6.509   3.841
  260TIP3   OH2  720   2.870   4.399   1.797
  260TIP3    H1  721   2.864   4.343   1.719
  260TIP3    H2  722   2.898   4.484   1.764
  261TIP3   OH2  723   7.056   3.185   5.280
  261TIP3    H1  724   6.989   3.124   5.309
  261TIP3    H2  725   7.110   3.201   5.357
  262TIP3   OH2  726   5.755   0.210   2.114
  262TIP3    H1  727   5.756   0.205   2.019
  262TIP3    H2  728   5.662   0.219   2.137
  263TIP3   OH2  729   3.513   7.898   4.462
  263TIP3    H1  730   3.585   7.871   4.518
  263TIP3    H2  731   3.459   7.819   4.453
  264TIP3   OH2  732   6.495   7.023   5.477
  264TIP3    H1  733   6.465   6.953   5.419
  264TIP3    H2  734   6.434   7.095   5.461
  265TIP3   OH2  735   5.578   5.003   1.320
  265TIP3    H1  736   5.646   4.983   1.255
  265TIP3    H2  737   5.587   4.934   1.385
  266TIP3   OH2  738   0.045   5.268   3.937
  266TIP3    H1  739  -0.023   5.213   3.975
  266TIP3    H2  740   0.010   5.295   3.852
  267TIP3   OH2  741   1.617   4.548   2.126
  267TIP3    H1  742   1.550   4.616   2.127
  267TIP3    H2  743   1.640   4.538   2.034
  268TIP3   OH2  744   2.854   7.144   6.450
  268TIP3    H1  745   2.924   7.144   6.515
  268TIP3    H2  746   2.895   7.106   6.372
  269TIP3   OH2  747   1.087   2.948   6.681
  269TIP3    H1  748   1.010   2.933   6.627
  269TIP3    H2  749   1.056   2.935   6.771
  270TIP3   OH2  750   7.060   5.538   4.390
  270TIP3    H1  751   7.024   5.489   4.463
  270TIP3    H2  752   7.096   5.618   4.430
  271TIP3   OH2  753   2.237   0.659   3.109
  271TIP3    H1  754   2.227   0.676   3.203
  271TIP3    H2  755   2.227   0.565   3.101
  272TIP3   OH2  756   5.722   0.457   1.794
  272TIP3    H1  757   5.773   0.405   1.855
  272TIP3    H2  758   5.663   0.509   1.849
  273TIP3   OH2  759   4.840   7.770   3.123
  273TIP3    H1  760   4.917   7.780   3.068
  273TIP3    H2  761   4.820   7.859   3.154
  274TIP3   OH2  762   4.993   7.131   1.330
  274TIP3    H1  763   4.929   7.198   1.303
  274TIP3    H2  764   5.004   7.076   1.253
  275TIP3   OH2  765   7.421   7.221   3.845
  275TIP3    H1  766   7.345   7.218   3.904
  275TIP3    H2  767   7.428   7.313   3.821
  276TIP3   OH2  768   6.280   1.001   3.949
  276TIP3    H1  769   6.287   0.905   3.955
  276TIP3    H2  770   6.371   1.031   3.955
  277TIP3   OH2  771   0.481   5.871   3.075
  277TIP3    H1  772   0.573   5.889   3.095
  277TIP3    H2  773   0.446   5.954   3.043
  278TIP3   OH2  774   0.371   6.750   5.524
  278TIP3    H1  775   0.395   6.840   5.545
  278TIP3    H2  776   0.346   6.712   5.608
  279TIP3   OH2  777   4.629   0.148   5.463
  279TIP3    H1  778   4.645   0.237   5.430
  279TIP3    H2  779   4.610   0.160   5.556
  280TIP3   OH2  780   8.380   5.673   0.711
  280TIP3    H1  781   8.306   5.734   0.711
  280TIP3    H2  782   8.426   5.692   0.793
  281TIP3   OH2  783   8.181   5.479   2.370
  281TIP3    H1  784   8.134   5.490   2.287
  281TIP3    H2  785   8.113   5.474   2.437
  282TIP3   OH2  786   3.375   7.628   4.764
  282TIP3    H1  787   3.394   7.534   4.764
  282TIP3    H2  788   3.433   7.663   4.696
  283TIP3   OH2  789   1.074   6.689   2.637
  283TIP3    H1  790   1.141   6.690   2.569
  283TIP3    H2  791   1.014   6.620   2.610
  284TIP3   OH2  792   3.706   2.768   6.809
  284TIP3    H1  793   3.631   2.721   6.773
  284TIP3    H2  794   3.682   2.784   6.900
  285TIP3   OH2  795   0.808   5.439   1.520
  285TIP3    H1  796   0.734   5.411   1.574
  285TIP3    H2  797   0.885   5.402   1.564
  286TIP3   OH2  798   3.627   5.588   5.457
  286TIP3    H1  799   3.585   5.502   5.464
  286TIP3    H2  800   3.584   5.641   5.524
  287TIP3   OH2  801   4.048   5.673   5.194
  287TIP3    H1  802   3.997   5.712   5.266
  287TIP3    H2  803   4.098   5.603   5.235
  288TIP3   OH2  804   8.103   5.141   2.162
  288TIP3    H1  805   8.171   5.112   2.223
  288TIP3    H2  806   8.108   5.236   2.164
  289TIP3   OH2  807   1.266   1.914   0.690
  289TIP3    H1  808   1.310   1.994   0.663
  289TIP3    H2  809   1.287   1.851   0.621
  290TIP3   OH2  810   8.100   6.603   5.346
  290TIP3    H1  811   8.179   6.552   5.361
  290TIP3    H2  812   8.107   6.677   5.406
  291TIP3   OH2  813   7.204   5.256   0.857
  291TIP3    H1  814   7.210   5.335   0.911
  291TIP3    H2  815   7.275   5.264   0.794
  292TIP3   OH2  816   0.601   7.684   6.216
  292TIP3    H1  817   0.684   7.639   6.202
  292TIP3    H2  818   0.569   7.702   6.127
  293TIP3   OH2  819   2.767   7.084   5.201
  293TIP3    H1  820   2.796   7.052   5.286
  293TIP3    H2  821   2.848   7.110   5.157
  294TIP3   OH2  822   2.926   5.042   2.287
  294TIP3    H1  823   2.981   5.107   2.243
  294TIP3    H2  824   2.909   5.079   2.373
  295TIP3   OH2  825   4.525   2.113   0.801
  295TIP3    H1  826   4.447   2.165   0.781
  295TIP3    H2  827   4.597   2.176   0.802
  296TIP3   OH2  828   1.886   5.485   0.755
  296TIP3    H1  829   1.846   5.481   0.668
  296TIP3    H2  830   1.829   5.543   0.806
  297TIP3   OH2  831   1.305   2.245   1.803
  297TIP3    H1  832   1.381   2.245   1.746
  297TIP3    H2  833   1.254   2.169   1.775
  298TIP3   OH2  834   2.234   0.518   0.588
  298TIP3    H1  835   2.223   0.423   0.579
  298TIP3    H2  836   2.250   0.532   0.681
  299TIP3   OH2  837   7.743   1.597   4.234
  299TIP3    H1  838   7.649   1.609   4.248
  299TIP3    H2  839   7.777   1.686   4.226
  300TIP3   OH2  840   0.091   2.629   5.990
  300TIP3    H1  841   0.014   2.572   5.990
  300TIP3    H2  842   0.101   2.656   6.081
  301TIP3   OH2  843   6.687   4.936   5.093
  301TIP3    H1  844   6.758   4.994   5.122
  301TIP3    H2  845   6.664   4.886   5.171
  302TIP3   OH2  846   0.777   3.012   2.809
  302TIP3    H1  847   0.715   2.964   2.756
  302TIP3    H2  848   0.847   3.037   2.749
  303TIP3   OH2  849   2.076   7.051   6.226
  303TIP3    H1  850   2.031   6.990   6.284
  303TIP3    H2  851   2.078   7.134   6.275
  304TIP3   OH2  852   2.086   0.897   3.115
  304TIP3    H1  853   2.122   0.918   3.201
  304TIP3    H2  854   2.151   0.838   3.076
  305TIP3   OH2  855   3.318   7.543   5.461
  305TIP3    H1  856   3.337   7.608   5.393
  305TIP3    H2  857   3.325   7.459   5.417
  306TIP3   OH2  858   0.243   5.920   0.539
  306TIP3    H1  859   0.274   5.830   0.537
  306TIP3    H2  860   0.322   5.972   0.552
  307TIP3   OH2  861   0.456   6.775   3.844
  307TIP3    H1  862   0.403   6.855   3.839
  307TIP3    H2  863   0.409   6.719   3.905
  308TIP3   OH2  864   6.663   4.565   4.296
  308TIP3    H1  865   6.655   4.627   4.224
  308TIP3    H2  866   6.731   4.602   4.352
  309TIP3   OH2  867   3.144   1.997   3.956
  309TIP3    H1  868   3.049   1.999   3.944
  309TIP3    H2  869   3.170   2.090   3.955
  310TIP3   OH2  870   4.994   5.392   0.085
  310TIP3    H1  871   5.076   5.343   0.082
  310TIP3    H2  872   5.021   5.484   0.077
  311TIP3   OH2  873   7.661   3.108   6.380
  311TIP3    H1  874   7.655   3.146   6.293
  311TIP3    H2  875   7.592   3.041   6.382
  312TIP3   OH2  876   0.029   1.799   1.355
  312TIP3    H1  877  -0.013   1.797   1.269
  312TIP3    H2  878   0.115   1.760   1.340
  313TIP3   OH2  879   5.341   3.869   4.842
  313TIP3    H1  880   5.257   3.870   4.888
  313TIP3    H2  881   5.318   3.857   4.750
  314TIP3   OH2  882   5.602   0.320   3.319
  314TIP3    H1  883   5.565   0.285   3.400
  314TIP3    H2  884   5.653   0.396   3.347
  315TIP3   OH2  885   6.787   7.032   6.183
  315TIP3    H1  886   6.832   6.983   6.252
  315TIP3    H2  887   6.776   6.968   6.112
  316TIP3   OH2  888   7.483   1.704   4.277
  316TIP3    H1  889   7.423   1.666   4.341
  316TIP3    H2  890   7.465   1.798   4.281
  317TIP3   OH2  891   6.261   2.900   1.347
  317TIP3    H1  892   6.328   2.832   1.353
  317TIP3    H2  893   6.279   2.957   1.422
  318TIP3   OH2  894   6.237   5.498   4.939
  318TIP3    H1  895   6.178   5.424   4.926
  318TIP3    H2  896   6.280   5.481   5.022
  319TIP3   OH2  897   8.153   6.460   1.872
  319TIP3    H1  898   8.104   6.538   1.897
  319TIP3    H2  899   8.088   6.403   1.830
  320TIP3   OH2  900   3.717   2.065   5.401
  320TIP3    H1  901   3.641   2.097   5.353
  320TIP3    H2  902   3.699   1.972   5.416
  321TIP3   OH2  903   4.950   6.553   5.866
  321TIP3    H1  904   4.950   6.610   5.789
  321TIP3    H2  905   4.982   6.609   5.937
  322TIP3   OH2  906   3.972   3.897   2.702
  322TIP3    H1  907   3.989   3.907   2.796
  322TIP3    H2  908   4.025   3.966   2.661
  323TIP3   OH2  909   0.762   5.078   0.933
  323TIP3    H1  910   0.774   5.013   1.002
  323TIP3    H2  911   0.850   5.093   0.898
  324TIP3   OH2  912   4.416   2.160   4.487
  324TIP3    H1  913   4.418   2.065   4.499
  324TIP3    H2  914   4.479   2.176   4.416
  325TIP3   OH2  915   3.002   0.549   1.628
  325TIP3    H1  916   2.947   0.478   1.594
  325TIP3    H2  917   3.068   0.562   1.560
  326TIP3   OH2  918   8.086   6.216   0.060
  326TIP3    H1  919   8.130   6.146   0.109
  326TIP3    H2  920   7.997   6.184   0.046
  327TIP3   OH2  921   6.692   2.863   4.808
  327TIP3    H1  922   6.770   2.833   4.856
  327TIP3    H2  923   6.722   2.875   4.718
  328TIP3   OH2  924   1.281   0.229   2.494
  328TIP3    H1  925   1.306   0.159   2.433
  328TIP3    H2  926   1.364   0.256   2.534
  329TIP3   OH2  927   3.245   5.326   4.455
  329TIP3    H1  928   3.245   5.363   4.543
  329TIP3    H2  929   3.213   5.397   4.399
  330TIP3   OH2  930   4.944   2.365   1.613
  330TIP3    H1  931   4.990   2.284   1.636
  330TIP3    H2  932   5.014   2.430   1.601
  331TIP3   OH2  933   8.231   1.645   5.133
  331TIP3    H1  934   8.155   1.615   5.084
  331TIP3    H2  935   8.246   1.576   5.198
  332TIP3   OH2  936   3.691   2.999   6.654
  332TIP3    H1  937   3.782   2.991   6.626
  332TIP3    H2  938   3.685   2.941   6.730
  333TIP3   OH2  939   3.969   6.553   6.358
  333TIP3    H1  940   4.021   6.509   6.426
  333TIP3    H2  941   3.910   6.610   6.407
  334TIP3   OH2  942   0.061   4.593   1.774
  334TIP3    H1  943   0.109   4.516   1.742
  334TIP3    H2  944  -0.025   4.587   1.732
  335TIP3   OH2  945   3.748   6.817   1.312
  335TIP3    H1  946   3.799   6.882   1.263
  335TIP3    H2  947   3.699   6.770   1.245
  336TIP3   OH2  948   3.998   7.154   3.347
  336TIP3    H1  949   3.918   7.148   3.294
  336TIP3    H2  950   4.062   7.194   3.288
  337TIP3   OH2  951   0.459   1.974   5.996
  337TIP3    H1  952   0.509   1.904   5.953
  337TIP3    H2  953   0.397   1.928   6.053
  338TIP3   OH2  954   3.182   2.487   2.188
  338TIP3    H1  955   3.223   2.523   2.266
  338TIP3    H2  956   3.228   2.529   2.115
  339TIP3   OH2  957   7.123   3.763   3.408
  339TIP3    H1  958   7.031   3.761   3.435
  339TIP3    H2  959   7.161   3.832   3.463
  340TIP3   OH2  960   4.112   4.524   4.538
  340TIP3    H1  961   4.198   4.552   4.571
  340TIP3    H2  962   4.052   4.593   4.565
  341TIP3   OH2  963   4.818   0.401   5.208
  341TIP3    H1  964   4.861   0.476   5.249
  341TIP3    H2  965   4.851   0.325   5.256
  342TIP3   OH2  966   2.868   2.777   4.858
  342TIP3    H1  967   2.873   2.846   4.924
  342TIP3    H2  968   2.951   2.730   4.866
  343TIP3   OH2  969   6.806   3.770   3.163
  343TIP3    H1  970   6.828   3.716   3.239
  343TIP3    H2  971   6.718   3.743   3.138
  344TIP3   OH2  972   1.514   6.758   1.607
  344TIP3    H1  973   1.429   6.800   1.620
  344TIP3    H2  974   1.501   6.668   1.638
  345TIP3   OH2  975   7.222   5.300   6.162
  345TIP3    H1  976   7.312   5.328   6.145
  345TIP3    H2  977   7.206   5.324   6.253
  346TIP3   OH2  978   4.805   5.331   6.627
  346TIP3    H1  979   4.824   5.326   6.533
  346TIP3    H2  980   4.745   5.259   6.644
  347TIP3   OH2  981   0.810   5.356   2.569
  347TIP3    H1  982   0.800   5.364   2.664
  347TIP3    H2  983   0.760   5.278   2.546
  348TIP3   OH2  984   7.858   1.789   1.590
  348TIP3    H1  985   7.852   1.817   1.681
  348TIP3    H2  986   7.929   1.724   1.589
  349TIP3   OH2  987   8.270   4.751   6.496
  349TIP3    H1  988   8.242   4.838   6.523
  349TIP3    H2  989   8.258   4.697   6.574
  350TIP3   OH2  990   3.690   2.333   1.693
  350TIP3    H1  991   3.680   2.241   1.671
  350TIP3    H2  992   3.667   2.381   1.613
  351TIP3   OH2  993   1.244   6.275   4.025
  351TIP3    H1  994   1.214   6.277   3.935
  351TIP3    H2  995   1.250   6.367   4.051
  352TIP3   OH2  996   3.504   5.378   3.471
  352TIP3    H1  997   3.453   5.395   3.392
  352TIP3    H2  998   3.510   5.463   3.515
  353TIP3   OH2  999   0.745   0.330   3.347
  353TIP3    H1 1000   0.763   0.269   3.276
  353TIP3    H2 1001   0.660   0.304   3.381
  354TIP3   OH2 1002   6.798   2.622   3.233
  354TIP3    H1 1003   6.773   2.708   3.268
  354TIP3    H2 1004   6.795   2.564   3.308
  355TIP3   OH2 1005   2.851   2.348   5.909
  355TIP3    H1 1006   2.783   2.317   5.969
  355TIP3    H2 1007   2.917   2.279   5.909
  356TIP3   OH2 1008   4.542   4.126   3.825
  356TIP3    H1 1009   4.530   4.124   3.920
  356TIP3    H2 1010   4.513   4.213   3.798
  357TIP3   OH2 1011   6.178   3.237   1.803
  357TIP3    H1 1012   6.240   3.164   1.811
  357TIP3    H2 1013   6.203   3.298   1.873
  358TIP3   OH2 1014   3.144   5.876   1.779
  358TIP3    H1 1015   3.176   5.884   1.689
  358TIP3    H2 1016   3.176   5.956   1.823
  359TIP3   OH2 1017   6.069   3.141   0.946
  359TIP3    H1 1018   6.028   3.109   0.866
  359TIP3    H2 1019   6.151   3.092   0.952
  360TIP3   OH2 1020   5.905   7.090   0.366
  360TIP3    H1 1021   5.941   7.146   0.298
  360TIP3    H2 1022   5.954   7.009   0.359
  361TIP3   OH2 1023   3.404   0.068   1.730
  361TIP3    H1 1024   3.398   0.157   1.764
  361TIP3    H2 1025   3.478   0.029   1.777
  362TIP3   OH2 1026   5.236   7.738   1.643
  362TIP3    H1 1027   5.205   7.691   1.721
  362TIP3    H2 1028   5.168   7.802   1.624
  363TIP3   OH2 1029   4.270   1.151   3.866
  363TIP3    H1 1030   4.357   1.143   3.905
  363TIP3    H2 1031   4.209   1.142   3.939
  364TIP3   OH2 1032   1.861   4.009   5.475
  364TIP3    H1 1033   1.806   3.988   5.550
  364TIP3    H2 1034   1.937   3.951   5.484
  365TIP3   OH2 1035   7.959   7.860   5.441
  365TIP3    H1 1036   7.966   7.818   5.527
  365TIP3    H2 1037   8.035   7.829   5.393
  366TIP3   OH2 1038   7.674   7.528   0.464
  366TIP3    H1 1039   7.697   7.465   0.396
  366TIP3    H2 1040   7.732   7.602   0.449
  367TIP3   OH2 1041   8.268   6.222   1.531
  367TIP3    H1 1042   8.329   6.270   1.476
  367TIP3    H2 1043   8.212   6.174   1.470
  368TIP3   OH2 1044   0.642   7.495   6.483
  368TIP3    H1 1045   0.592   7.577   6.485
  368TIP3    H2 1046   0.577   7.426   6.498
  369TIP3   OH2 1047   6.189   0.532   1.535
  369TIP3    H1 1048   6.258   0.517   1.600
  369TIP3    H2 1049   6.127   0.461   1.551
  370TIP3   OH2 1050   1.712   5.679   0.831
  370TIP3    H1 1051   1.752   5.736   0.765
  370TIP3    H2 1052   1.618   5.692   0.820
  371TIP3   OH2 1053   1.433   7.559   1.378
  371TIP3    H1 1054   1.392   7.522   1.300
  371TIP3    H2 1055   1.373   7.628   1.406
  372TIP3   OH2 1056   1.486   3.808   2.886
  372TIP3    H1 1057   1.490   3.846   2.799
  372TIP3    H2 1058   1.468   3.715   2.871
  373TIP3   OH2 1059   5.363   5.079   1.188
  373TIP3    H1 1060   5.444   5.065   1.238
  373TIP3    H2 1061   5.389   5.070   1.097
  374TIP3   OH2 1062   2.359   1.395   1.629
  374TIP3    H1 1063   2.271   1.428   1.608
  374TIP3    H2 1064   2.349   1.359   1.717
  375TIP3   OH2 1065   1.075   0.408   0.179
  375TIP3    H1 1066   1.036   0.321   0.183
  375TIP3    H2 1067   1.104   0.425   0.268
  376TIP3   OH2 1068   1.191   7.753   1.950
  376TIP3    H1 1069   1.277   7.770   1.911
  376TIP3    H2 1070   1.176   7.827   2.009
  377TIP3   OH2 1071   1.287   4.278   5.793
  377TIP3    H1 1072   1.208   4.291   5.845
  377TIP3    H2 1073   1.270   4.325   5.712
  378TIP3   OH2 1074   3.889   3.636   1.453
  378TIP3    H1 1075   3.864   3.544   1.439
  378TIP3    H2 1076   3.908   3.641   1.547
  379TIP3   OH2 1077   4.895   1.615   2.137
  379TIP3    H1 1078   4.884   1.529   2.098
  379TIP3    H2 1079   4.936   1.668   2.069
  380TIP3   OH2 1080   0.395   4.854   0.874
  380TIP3    H1 1081   0.488   4.864   0.854
  380TIP3    H2 1082   0.366   4.782   0.818
  381TIP3   OH2 1083   2.310   2.156   5.879
  381TIP3    H1 1084   2.258   2.087   5.923
  381TIP3    H2 1085   2.344   2.113   5.800
  382TIP3   OH2 1086   8.075   0.732   5.784
  382TIP3    H1 1087   8.002   0.772   5.736
  382TIP3    H2 1088   8.102   0.658   5.731
  383TIP3   OH2 1089   7.183   2.959   6.356
  383TIP3    H1 1090   7.130   2.980   6.433
  383TIP3    H2 1091   7.147   2.876   6.325
  384TIP3   OH2 1092   4.227   1.434   3.392
  384TIP3    H1 1093   4.132   1.444   3.401
  384TIP3    H2 1094   4.247   1.350   3.433
  385TIP3   OH2 1095   5.581   4.783   2.812
  385TIP3    H1 1096   5.486   4.791   2.809
  385TIP3    H2 1097   5.602   4.778   2.905
  386TIP3   OH2 1098   3.693   0.773   0.172
  386TIP3    H1 1099   3.751   0.745   0.102
  386TIP3    H2 1100   3.748   0.775   0.250
  387TIP3   OH2 1101   4.626   1.413   1.209
  387TIP3    H1 1102   4.590   1.334   1.169
  387TIP3    H2 1103   4.670   1.382   1.288
  388TIP3   OH2 1104   3.663   0.165   5.692
  388TIP3    H1 1105   3.728   0.154   5.623
  388TIP3    H2 1106   3.663   0.260   5.709
  389TIP3   OH2 1107   5.001   5.549   6.645
  389TIP3    H1 1108   5.073   5.554   6.582
  389TIP3    H2 1109   4.940   5.487   6.606
  390TIP3   OH2 1110   1.176   4.581   2.239
  390TIP3    H1 1111   1.155   4.568   2.331
  390TIP3    H2 1112   1.181   4.492   2.203
  391TIP3   OH2 1113   7.593   1.749   1.532
  391TIP3    H1 1114   7.684   1.776   1.546
  391TIP3    H2 1115   7.570   1.702   1.612
  392TIP3   OH2 1116   4.870   0.252   4.014
  392TIP3    H1 1117   4.886   0.160   4.037
  392TIP3    H2 1118   4.829   0.289   4.092
  393TIP3   OH2 1119   2.213   4.647   3.943
  393TIP3    H1 1120   2.293   4.694   3.920
  393TIP3    H2 1121   2.162   4.710   3.994
  394TIP3   OH2 1122   3.811   4.642   2.966
  394TIP3    H1 1123   3.741   4.608   3.021
  394TIP3    H2 1124   3.809   4.737   2.979
  395TIP3   OH2 1125   4.263   7.450   1.262
  395TIP3    H1 1126   4.261   7.545   1.255
  395TIP3    H2 1127   4.253   7.420   1.171
  396TIP3   OH2 1128   6.302   5.099   4.513
  396TIP3    H1 1129   6.278   5.008   4.531
  396TIP3    H2 1130   6.332   5.099   4.422
  397TIP3   OH2 1131   7.531   3.859   2.025
  397TIP3    H1 1132   7.565   3.817   2.104
  397TIP3    H2 1133   7.579   3.818   1.953
  398TIP3   OH2 1134   4.326   2.446   0.557
  398TIP3    H1 1135   4.349   2.537   0.576
  398TIP3    H2 1136   4.410   2.399   0.560
  399TIP3   OH2 1137   1.341   2.854   2.167
  399TIP3    H1 1138   1.359   2.760   2.164
  399TIP3    H2 1139   1.424   2.894   2.192
  400TIP3   OH2 1140   0.400   5.337   1.007
  400TIP3    H1 1141   0.315   5.295   1.023
  400TIP3    H2 1142   0.378   5.419   0.964
  401TIP3   OH2 1143   5.903   5.636   2.814
  401TIP3    H1 1144   5.861   5.716   2.781
  401TIP3    H2 1145   5.991   5.638   2.776
  402TIP3   OH2 1146   6.117   3.285   2.094
  402TIP3    H1 1147   6.043   3.225   2.090
  402TIP3    H2 1148   6.157   3.268   2.180
  403TIP3   OH2 1149   6.480   0.246   5.708
  403TIP3    H1 1150   6.504   0.208   5.623
  403TIP3    H2 1151   6.450   0.171   5.759
  404TIP3   OH2 1152   2.076   2.892   1.658
  404TIP3    H1 1153   2.089   2.952   1.585
  404TIP3    H2 1154   2.045   2.811   1.618
  405TIP3   OH2 1155   2.169   1.267   1.283
  405TIP3    H1 1156   2.255   1.228   1.301
  405TIP3    H2 1157   2.151   1.322   1.360
  406TIP3   OH2 1158   4.754   5.679   2.096
  406TIP3    H1 1159   4.818   5.661   2.164
  406TIP3    H2 1160   4.802   5.728   2.029
  407TIP3   OH2 1161   2.455   2.536   2.161
  407TIP3    H1 1162   2.456   2.514   2.254
  407TIP3    H2 1163   2.407   2.619   2.156
  408TIP3   OH2 1164   8.143   0.423   2.858
  408TIP3    H1 1165   8.191   0.381   2.930
  408TIP3    H2 1166   8.204   0.489   2.824
  409TIP3   OH2 1167   4.237   5.901   3.617
  409TIP3    H1 1168   4.279   5.924   3.534
  409TIP3    H2 1169   4.146   5.884   3.593
  410TIP3   OH2 1170   7.475   0.724   1.050
  410TIP3    H1 1171   7.441   0.814   1.048
  410TIP3    H2 1172   7.460   0.696   1.141
  411TIP3   OH2 1173   0.479   1.587   0.116
  411TIP3    H1 1174   0.515   1.525   0.179
  411TIP3    H2 1175   0.500   1.673   0.153
  412TIP3   OH2 1176   5.450   2.728   5.147
  412TIP3    H1 1177   5.424   2.667   5.216
  412TIP3    H2 1178   5.387   2.711   5.076
  413TIP3   OH2 1179   7.367   0.986   4.131
  413TIP3    H1 1180   7.286   1.010   4.086
  413TIP3    H2 1181   7.391   0.901   4.096
  414TIP3   OH2 1182   6.585   1.902   1.584
  414TIP3    H1 1183   6.662   1.871   1.632
  414TIP3    H2 1184   6.617   1.980   1.538
  415TIP3   OH2 1185   4.021   1.522   1.104
  415TIP3    H1 1186   3.961   1.588   1.070
  415TIP3    H2 1187   3.980   1.439   1.083
  416TIP3   OH2 1188   3.874   2.405   4.775
  416TIP3    H1 1189   3.850   2.474   4.837
  416TIP3    H2 1190   3.868   2.324   4.826
  417TIP3   OH2 1191   4.598   3.699   5.740
  417TIP3    H1 1192   4.684   3.677   5.776
  417TIP3    H2 1193   4.546   3.620   5.752
  418TIP3   OH2 1194   3.887   1.287   1.045
  418TIP3    H1 1195   3.816   1.253   1.100
  418TIP3    H2 1196   3.909   1.214   0.986
  419TIP3   OH2 1197   5.664   2.346   1.135
  419TIP3    H1 1198   5.632   2.256   1.128
  419TIP3    H2 1199   5.696   2.366   1.047
  420TIP3   OH2 1200   3.282   0.379   4.420
  420TIP3    H1 1201   3.228   0.452   4.451
  420TIP3    H2 1202   3.307   0.403   4.331
  421TIP3   OH2 1203   4.607   6.621   2.938
  421TIP3    H1 1204   4.701   6.615   2.957
  421TIP3    H2 1205   4.598   6.581   2.851
  422TIP3   OH2 1206   6.706   4.641   0.551
  422TIP3    H1 1207   6.758   4.706   0.598
  422TIP3    H2 1208   6.615   4.668   0.566
  423TIP3   OH2 1209   0.781   5.370   5.709
  423TIP3    H1 1210   0.738   5.455   5.719
  423TIP3    H2 1211   0.789   5.357   5.615
  424TIP3   OH2 1212   4.795   2.518   1.155
  424TIP3    H1 1213   4.798   2.561   1.070
  424TIP3    H2 1214   4.841   2.578   1.214
  425TIP3   OH2 1215   5.879   3.453   6.669
  425TIP3    H1 1216   5.958   3.408   6.698
  425TIP3    H2 1217   5.911   3.528   6.619
  426TIP3   OH2 1218   4.569   2.446   2.373
  426TIP3    H1 1219   4.605   2.391   2.442
  426TIP3    H2 1220   4.618   2.421   2.294
  427TIP3   OH2 1221   4.726   1.006   0.428
  427TIP3    H1 1222   4.790   1.002   0.357
  427TIP3    H2 1223   4.650   0.960   0.394
  428TIP3   OH2 1224   1.500   4.920   2.231
  428TIP3    H1 1225   1.471   4.918   2.322
  428TIP3    H2 1226   1.445   4.855   2.187
  429TIP3   OH2 1227   1.555   2.852   5.202
  429TIP3    H1 1228   1.535   2.761   5.222
  429TIP3    H2 1229   1.510   2.902   5.270
  430TIP3   OH2 1230   4.956   0.499   2.603
  430TIP3    H1 1231   4.935   0.501   2.510
  430TIP3    H2 1232   4.881   0.458   2.645
  431TIP3   OH2 1233   2.159   4.758   6.730
  431TIP3    H1 1234   2.199   4.701   6.664
  431TIP3    H2 1235   2.223   4.827   6.744
  432TIP3   OH2 1236   0.890   2.508   3.364
  432TIP3    H1 1237   0.900   2.546   3.277
  432TIP3    H2 1238   0.927   2.573   3.423
  433TIP3   OH2 1239   0.973   6.053   0.037
  433TIP3    H1 1240   0.881   6.033   0.056
  433TIP3    H2 1241   1.012   6.071   0.122
  434TIP3   OH2 1242   6.859   0.499   6.755
  434TIP3    H1 1243   6.781   0.506   6.700
  434TIP3    H2 1244   6.887   0.408   6.747
  435TIP3   OH2 1245   2.795   1.594   0.159
  435TIP3    H1 1246   2.852   1.527   0.198
  435TIP3    H2 1247   2.849   1.673   0.158
  436TIP3   OH2 1248   7.031   1.693   1.416
  436TIP3    H1 1249   6.984   1.697   1.500
  436TIP3    H2 1250   7.106   1.636   1.434
  437TIP3   OH2 1251   6.231   7.312   3.161
  437TIP3    H1 1252   6.243   7.263   3.080
  437TIP3    H2 1253   6.243   7.247   3.230
  438TIP3   OH2 1254   5.993   7.698   5.674
  438TIP3    H1 1255   6.007   7.623   5.732
  438TIP3    H2 1256   6.046   7.679   5.597
  439TIP3   OH2 1257   4.274   0.747   6.478
  439TIP3    H1 1258   4.225   0.824   6.507
  439TIP3    H2 1259   4.354   0.782   6.440
  440TIP3   OH2 1260   6.854   6.693   3.681
  440TIP3    H1 1261   6.786   6.628   3.664
  440TIP3    H2 1262   6.859   6.699   3.776
  441TIP3   OH2 1263   4.692   5.070   3.722
  441TIP3    H1 1264   4.760   5.108   3.778
  441TIP3    H2 1265   4.671   5.139   3.659
  442TIP3   OH2 1266   4.034   3.774   2.067
  442TIP3    H1 1267   3.939   3.776   2.079
  442TIP3    H2 1268   4.057   3.682   2.076
  443TIP3   OH2 1269   5.749   4.997   1.038
  443TIP3    H1 1270   5.783   4.987   0.950
  443TIP3    H2 1271   5.768   5.088   1.061
  444TIP3   OH2 1272   2.282   7.272   6.527
  444TIP3    H1 1273   2.272   7.198   6.587
  444TIP3    H2 1274   2.338   7.334   6.575
  445TIP3   OH2 1275   0.473   3.249   1.180
  445TIP3    H1 1276   0.538   3.310   1.215
  445TIP3    H2 1277   0.495   3.239   1.088
  446TIP3   OH2 1278   5.744   2.093   6.712
  446TIP3    H1 1279   5.654   2.060   6.715
  446TIP3    H2 1280   5.774   2.088   6.803
  447TIP3   OH2 1281   2.888   1.708   5.670
  447TIP3    H1 1282   2.931   1.774   5.616
  447TIP3    H2 1283   2.894   1.627   5.619
  448TIP3   OH2 1284   7.770   0.143   6.013
  448TIP3    H1 1285   7.759   0.051   6.037
  448TIP3    H2 1286   7.685   0.183   6.030
  449TIP3   OH2 1287   6.042   0.053   1.836
  449TIP3    H1 1288   5.981   0.120   1.865
  449TIP3    H2 1289   6.010   0.027   1.749
  450TIP3   OH2 1290   1.003   0.407   1.293
  450TIP3    H1 1291   0.938   0.363   1.347
  450TIP3    H2 1292   0.957   0.482   1.257
  451TIP3   OH2 1293   2.227   5.245   2.932
  451TIP3    H1 1294   2.137   5.250   2.900
  451TIP3    H2 1295   2.219   5.229   3.026
  452TIP3   OH2 1296   1.538   5.565   4.103
  452TIP3    H1 1297   1.553   5.629   4.172
  452TIP3    H2 1298   1.565   5.482   4.142
  453TIP3   OH2 1299   5.817   2.814   1.718
  453TIP3    H1 1300   5.843   2.730   1.757
  453TIP3    H2 1301   5.830   2.801   1.624
  454TIP3   OH2 1302   7.992   0.952   3.220
  454TIP3    H1 1303   8.024   1.042   3.222
  454TIP3    H2 1304   7.968   0.936   3.129
  455TIP3   OH2 1305   2.903   5.083   6.805
  455TIP3    H1 1306   2.946   5.095   6.720
  455TIP3    H2 1307   2.956   5.134   6.866
  456TIP3   OH2 1308   4.314   1.035   1.518
  456TIP3    H1 1309   4.403   1.046   1.550
  456TIP3    H2 1310   4.288   0.947   1.548
  457TIP3   OH2 1311   0.924   2.394   5.124
  457TIP3    H1 1312   0.930   2.457   5.195
  457TIP3    H2 1313   0.959   2.312   5.161
  458TIP3   OH2 1314   6.618   0.417   1.213
  458TIP3    H1 1315   6.651   0.501   1.245
  458TIP3    H2 1316   6.540   0.440   1.163
  459TIP3   OH2 1317   0.332   3.765   3.457
  459TIP3    H1 1318   0.424   3.742   3.449
  459TIP3    H2 1319   0.326   3.855   3.424
  460TIP3   OH2 1320   2.368   7.346   3.049
  460TIP3    H1 1321   2.356   7.308   3.136
  460TIP3    H2 1322   2.303   7.416   3.044
  461TIP3   OH2 1323   4.420   0.487   4.408
  461TIP3    H1 1324   4.442   0.399   4.438
  461TIP3    H2 1325   4.417   0.541   4.487
  462TIP3   OH2 1326   7.079   7.034   2.266
  462TIP3    H1 1327   7.079   6.945   2.301
  462TIP3    H2 1328   7.125   7.085   2.333
  463TIP3   OH2 1329   0.120   0.872   3.332
  463TIP3    H1 1330   0.142   0.951   3.283
  463TIP3    H2 1331   0.025   0.871   3.334
  464TIP3   OH2 1332   5.332   2.178   4.662
  464TIP3    H1 1333   5.302   2.239   4.595
  464TIP3    H2 1334   5.315   2.092   4.626
  465TIP3   OH2 1335   1.498   4.707   5.487
  465TIP3    H1 1336   1.568   4.760   5.450
  465TIP3    H2 1337   1.417   4.750   5.457
  466TIP3   OH2 1338   5.106   1.726   4.535
  466TIP3    H1 1339   5.015   1.697   4.527
  466TIP3    H2 1340   5.149   1.658   4.587
  467TIP3   OH2 1341   3.992   5.088   4.842
  467TIP3    H1 1342   3.930   5.086   4.915
  467TIP3    H2 1343   4.026   5.177   4.841
  468TIP3   OH2 1344   6.180   3.127   2.677
  468TIP3    H1 1345   6.250   3.112   2.613
  468TIP3    H2 1346   6.101   3.096   2.634
  469TIP3   OH2 1347   2.818   2.620   3.015
  469TIP3    H1 1348   2.891   2.577   3.060
  469TIP3    H2 1349   2.859   2.689   2.963
  470TIP3   OH2 1350   5.236   2.999   6.779
  470TIP3    H1 1351   5.272   2.950   6.853
  470TIP3    H2 1352   5.244   3.091   6.806
  471TIP3   OH2 1353   0.917   4.272   3.315
  471TIP3    H1 1354   0.950   4.187   3.345
  471TIP3    H2 1355   0.865   4.252   3.237
  472TIP3   OH2 1356   3.273   0.620   2.057
  472TIP3    H1 1357   3.206   0.569   2.103
  472TIP3    H2 1358   3.246   0.618   1.965
  473TIP3   OH2 1359   4.989   5.489   1.662
  473TIP3    H1 1360   4.938   5.470   1.740
  473TIP3    H2 1361   4.938   5.451   1.590
  474TIP3   OH2 1362   6.264   3.743   5.815
  474TIP3    H1 1363   6.227   3.819   5.770
  474TIP3    H2 1364   6.197   3.718   5.879
  475TIP3   OH2 1365   4.344   1.856   2.914
  475TIP3    H1 1366   4.370   1.918   2.846
  475TIP3    H2 1367   4.362   1.770   2.877
  476TIP3   OH2 1368   7.103   0.215   1.913
  476TIP3    H1 1369   7.152   0.295   1.894
  476TIP3    H2 1370   7.141   0.149   1.855
  477TIP3   OH2 1371   3.487   1.633   5.921
  477TIP3    H1 1372   3.528   1.666   5.840
  477TIP3    H2 1373   3.560   1.624   5.982
  478TIP3   OH2 1374   0.116   2.579   1.289
  478TIP3    H1 1375   0.111   2.600   1.382
  478TIP3    H2 1376   0.080   2.656   1.245
  479TIP3   OH2 1377   6.398   0.838   4.403
  479TIP3    H1 1378   6.364   0.927   4.413
  479TIP3    H2 1379   6.460   0.844   4.330
  480TIP3   OH2 1380   6.891   3.545   3.356
  480TIP3    H1 1381   6.948   3.576   3.427
  480TIP3    H2 1382   6.947   3.486   3.304
  481TIP3   OH2 1383   1.299   6.868   3.451
  481TIP3    H1 1384   1.227   6.811   3.477
  481TIP3    H2 1385   1.345   6.819   3.383
  482TIP3   OH2 1386   1.875   4.877   0.230
  482TIP3    H1 1387   1.799   4.863   0.174
  482TIP3    H2 1388   1.935   4.929   0.177
  483TIP3   OH2 1389   1.495   1.058   0.963
  483TIP3    H1 1390   1.542   1.126   1.012
  483TIP3    H2 1391   1.478   0.990   1.027
  484TIP3   OH2 1392   7.459   0.401   3.139
  484TIP3    H1 1393   7.422   0.488   3.133
  484TIP3    H2 1394   7.444   0.361   3.054
  485TIP3   OH2 1395   7.157   7.470   2.520
  485TIP3    H1 1396   7.078   7.476   2.467
  485TIP3    H2 1397   7.130   7.499   2.607
  486TIP3   OH2 1398   0.952   2.505   6.220
  486TIP3    H1 1399   0.990   2.575   6.168
  486TIP3    H2 1400   0.963   2.534   6.311
  487TIP3   OH2 1401   7.005   7.283   2.998
  487TIP3    H1 1402   6.913   7.307   3.013
  487TIP3    H2 1403   7.002   7.206   2.942
  488TIP3   OH2 1404   1.561   1.587   6.424
  488TIP3    H1 1405   1.471   1.591   6.457
  488TIP3    H2 1406   1.607   1.530   6.486
  489TIP3   OH2 1407   0.145   4.967   5.887
  489TIP3    H1 1408   0.239   4.984   5.890
  489TIP3    H2 1409   0.118   4.995   5.800
  490TIP3   OH2 1410   1.723   0.626   5.056
  490TIP3    H1 1411   1.628   0.636   5.049
  490TIP3    H2 1412   1.758   0.698   5.004
  491TIP3   OH2 1413   4.300   5.921   6.668
  491TIP3    H1 1414   4.254   5.847   6.630
  491TIP3    H2 1415   4.356   5.953   6.597
  492TIP3   OH2 1416   4.989   0.186   0.530
  492TIP3    H1 1417   4.909   0.227   0.497
  492TIP3    H2 1418   5.029   0.252   0.586
  493TIP3   OH2 1419   1.060   4.598   0.841
  493TIP3    H1 1420   1.110   4.516   0.831
  493TIP3    H2 1421   1.102   4.659   0.780
  494TIP3   OH2 1422   3.159   1.400   4.341
  494TIP3    H1 1423   3.096   1.379   4.409
  494TIP3    H2 1424   3.132   1.486   4.309
  495TIP3   OH2 1425   6.898   1.514   5.330
  495TIP3    H1 1426   6.862   1.491   5.416
  495TIP3    H2 1427   6.825   1.552   5.282
  496TIP3   OH2 1428   2.846   1.506   3.842
  496TIP3    H1 1429   2.927   1.514   3.893
  496TIP3    H2 1430   2.784   1.465   3.903
  497TIP3   OH2 1431   1.800   6.594   5.894
  497TIP3    H1 1432   1.853   6.645   5.955
  497TIP3    H2 1433   1.856   6.583   5.817
  498TIP3   OH2 1434   2.014   0.161   3.616
  498TIP3    H1 1435   2.105   0.178   3.643
  498TIP3    H2 1436   2.022   0.089   3.552
  499TIP3   OH2 1437   1.201   2.021   6.658
  499TIP3    H1 1438   1.157   2.033   6.742
  499TIP3    H2 1439   1.275   2.082   6.660
  500TIP3   OH2 1440   7.540   3.786   3.621
  500TIP3    H1 1441   7.483   3.805   3.547
  500TIP3    H2 1442   7.527   3.693   3.639
  501TIP3   OH2 1443   2.556   2.975   4.893
  501TIP3    H1 1444   2.514   2.910   4.949
  501TIP3    H2 1445   2.601   3.033   4.954
  502TIP3   OH2 1446   1.320   1.257   1.792
  502TIP3    H1 1447   1.406   1.228   1.761
  502TIP3    H2 1448   1.288   1.185   1.847
  503TIP3   OH2 1449   4.210   2.579   3.489
  503TIP3    H1 1450   4.121   2.586   3.454
  503TIP3    H2 1451   4.228   2.485   3.489
  504TIP3   OH2 1452   3.881   1.848   1.872
  504TIP3    H1 1453   3.795   1.826   1.834
  504TIP3    H2 1454   3.944   1.822   1.804
  505TIP3   OH2 1455   5.518   6.978   3.874
  505TIP3    H1 1456   5.492   6.917   3.805
  505TIP3    H2 1457   5.450   6.970   3.940
  506TIP3   OH2 1458   8.028   7.386   5.585
  506TIP3    H1 1459   7.939   7.359   5.610
  506TIP3    H2 1460   8.084   7.314   5.614
  507TIP3   OH2 1461   5.468   2.024   6.750
  507TIP3    H1 1462   5.483   2.041   6.843
  507TIP3    H2 1463   5.376   2.000   6.744
  508TIP3   OH2 1464   2.155   3.954   0.214
  508TIP3    H1 1465   2.239   3.928   0.178
  508TIP3    H2 1466   2.175   4.022   0.278
  509TIP3   OH2 1467   1.915   2.767   5.605
  509TIP3    H1 1468   1.878   2.856   5.604
  509TIP3    H2 1469   1.839   2.710   5.610
  510TIP3   OH2 1470   2.785   0.393   1.434
  510TIP3    H1 1471   2.730   0.447   1.490
  510TIP3    H2 1472   2.774   0.304   1.468
  511TIP3   OH2 1473   5.264   6.914   1.013
  511TIP3    H1 1474   5.230   6.969   0.943
  511TIP3    H2 1475   5.290   6.975   1.082
  512TIP3   OH2 1476   3.353   0.987   2.334
  512TIP3    H1 1477   3.358   0.905   2.383
  512TIP3    H2 1478   3.442   1.024   2.340
  513TIP3   OH2 1479   5.311   6.205   1.079
  513TIP3    H1 1480   5.274   6.136   1.134
  513TIP3    H2 1481   5.241   6.227   1.017
  514TIP3   OH2 1482   2.442   3.428   1.752
  514TIP3    H1 1483   2.357   3.391   1.729
  514TIP3    H2 1484   2.445   3.512   1.707
  515TIP3   OH2 1485   7.339   0.795   6.667
  515TIP3    H1 1486   7.325   0.700   6.671
  515TIP3    H2 1487   7.337   0.815   6.573
  516TIP3   OH2 1488   7.313   7.404   4.989
  516TIP3    H1 1489   7.279   7.406   4.899
  516TIP3    H2 1490   7.274   7.325   5.027
  517TIP3   OH2 1491   6.881   1.321   0.295
  517TIP3    H1 1492   6.956   1.375   0.269
  517TIP3    H2 1493   6.911   1.273   0.372
  518TIP3   OH2 1494   1.284   5.733   3.336
  518TIP3    H1 1495   1.359   5.778   3.297
  518TIP3    H2 1496   1.211   5.753   3.278
  519TIP3   OH2 1497   4.591   3.371   2.192
  519TIP3    H1 1498   4.557   3.300   2.247
  519TIP3    H2 1499   4.682   3.347   2.175
  520TIP3   OH2 1500   0.063   1.225   4.491
  520TIP3    H1 1501   0.081   1.253   4.581
  520TIP3    H2 1502  -0.023   1.263   4.472
  521TIP3   OH2 1503   3.261   5.981   6.272
  521TIP3    H1 1504   3.343   5.985   6.223
  521TIP3    H2 1505   3.283   6.015   6.359
  522TIP3   OH2 1506   1.599   7.337   2.018
  522TIP3    H1 1507   1.513   7.298   2.007
  522TIP3    H2 1508   1.649   7.272   2.067
  523TIP3   OH2 1509   3.998   5.014   2.016
  523TIP3    H1 1510   3.952   4.944   1.969
  523TIP3    H2 1511   4.007   4.981   2.106
  524TIP3   OH2 1512   3.180   7.835   4.666
  524TIP3    H1 1513   3.154   7.853   4.575
  524TIP3    H2 1514   3.208   7.743   4.664
  525TIP3   OH2 1515   0.743   7.479   0.961
  525TIP3    H1 1516   0.731   7.432   0.879
  525TIP3    H2 1517   0.656   7.480   1.001
  526TIP3   OH2 1518   1.959   3.169   5.084
  526TIP3    H1 1519   2.035   3.138   5.034
  526TIP3    H2 1520   1.897   3.096   5.081
  527TIP3   OH2 1521   3.573   3.518   0.643
  527TIP3    H1 1522   3.628   3.488   0.716
  527TIP3    H2 1523   3.635   3.528   0.570
  528TIP3   OH2 1524   7.098   7.520   3.788
  528TIP3    H1 1525   7.008   7.554   3.795
  528TIP3    H2 1526   7.087   7.426   3.778
  529TIP3   OH2 1527   8.136   1.244   3.518
  529TIP3    H1 1528   8.163   1.248   3.609
  529TIP3    H2 1529   8.069   1.176   3.516
  530TIP3   OH2 1530   8.314   5.993   2.159
  530TIP3    H1 1531   8.362   5.939   2.097
  530TIP3    H2 1532   8.281   6.067   2.107
  531TIP3   OH2 1533   5.912   4.793   1.858
  531TIP3    H1 1534   5.859   4.829   1.929
  531TIP3    H2 1535   5.898   4.699   1.862
  532TIP3   OH2 1536   7.739   6.030   4.862
  532TIP3    H1 1537   7.689   5.951   4.843
  532TIP3    H2 1538   7.830   6.001   4.866
  533TIP3   OH2 1539   3.887   7.080   5.253
  533TIP3    H1 1540   3.833   7.050   5.326
  533TIP3    H2 1541   3.835   7.150   5.213
  534TIP3   OH2 1542   0.442   3.187   2.846
  534TIP3    H1 1543   0.449   3.096   2.815
  534TIP3    H2 1544   0.384   3.229   2.782
  535TIP3   OH2 1545   3.239   1.422   6.435
  535TIP3    H1 1546   3.287   1.406   6.516
  535TIP3    H2 1547   3.248   1.517   6.420
  536TIP3   OH2 1548   5.523   1.497   6.731
  536TIP3    H1 1549   5.508   1.515   6.824
  536TIP3    H2 1550   5.514   1.402   6.724
  537TIP3   OH2 1551   4.570   6.207   5.483
  537TIP3    H1 1552   4.570   6.235   5.391
  537TIP3    H2 1553   4.604   6.282   5.531
  538TIP3   OH2 1554   1.647   1.060   0.576
  538TIP3    H1 1555   1.673   1.016   0.657
  538TIP3    H2 1556   1.728   1.097   0.541
  539TIP3   OH2 1557   6.943   4.401   0.924
  539TIP3    H1 1558   6.850   4.423   0.917
  539TIP3    H2 1559   6.952   4.319   0.876
  540TIP3   OH2 1560   0.032   5.491   2.123
  540TIP3    H1 1561   0.052   5.434   2.197
  540TIP3    H2 1562   0.085   5.570   2.138
  541TIP3   OH2 1563   7.319   0.809   5.968
  541TIP3    H1 1564   7.391   0.815   5.905
  541TIP3    H2 1565   7.240   0.824   5.917
  542TIP3   OH2 1566   0.042   5.900   1.512
  542TIP3    H1 1567   0.072   5.809   1.517
  542TIP3    H2 1568   0.120   5.951   1.534
  543TIP3   OH2 1569   5.046   5.566   3.064
  543TIP3    H1 1570   5.028   5.621   3.140
  543TIP3    H2 1571   5.126   5.519   3.086
  544TIP3   OH2 1572   1.674   7.086   0.454
  544TIP3    H1 1573   1.613   7.152   0.422
  544TIP3    H2 1574   1.743   7.083   0.389
  545TIP3   OH2 1575   1.434   5.245   0.549
  545TIP3    H1 1576   1.403   5.270   0.462
  545TIP3    H2 1577   1.495   5.173   0.533
  546TIP3   OH2 1578   6.113   2.572   1.194
  546TIP3    H1 1579   6.024   2.590   1.224
  546TIP3    H2 1580   6.137   2.649   1.142
  547TIP3   OH2 1581   1.495   2.759   2.908
  547TIP3    H1 1582   1.406   2.738   2.880
  547TIP3    H2 1583   1.550   2.689   2.873
  548TIP3   OH2 1584   5.184   1.686   6.611
  548TIP3    H1 1585   5.215   1.678   6.520
  548TIP3    H2 1586   5.211   1.774   6.637
  549TIP3   OH2 1587   4.023   3.080   6.210
  549TIP3    H1 1588   4.026   2.990   6.176
  549TIP3    H2 1589   4.112   3.113   6.200
  550TIP3   OH2 1590   2.350   7.285   2.363
  550TIP3    H1 1591   2.277   7.264   2.421
  550TIP3    H2 1592   2.374   7.375   2.386
  551TIP3   OH2 1593   0.281   4.719   2.099
  551TIP3    H1 1594   0.362   4.763   2.074
  551TIP3    H2 1595   0.301   4.626   2.088
  552TIP3   OH2 1596   1.557   3.311   6.319
  552TIP3    H1 1597   1.468   3.337   6.342
  552TIP3    H2 1598   1.560   3.217   6.339
  553TIP3   OH2 1599   2.149   7.505   3.046
  553TIP3    H1 1600   2.120   7.427   3.094
  553TIP3    H2 1601   2.077   7.566   3.054
  554TIP3   OH2 1602   3.007   2.515   2.583
  554TIP3    H1 1603   3.082   2.563   2.550
  554TIP3    H2 1604   2.972   2.469   2.507
  555TIP3   OH2 1605   0.879   2.006   5.329
  555TIP3    H1 1606   0.903   1.984   5.239
  555TIP3    H2 1607   0.857   1.922   5.369
  556TIP3   OH2 1608   7.315   0.918   1.840
  556TIP3    H1 1609   7.308   0.964   1.756
  556TIP3    H2 1610   7.362   0.837   1.819
  557TIP3   OH2 1611   0.973   6.888   5.354
  557TIP3    H1 1612   0.880   6.867   5.366
  557TIP3    H2 1613   1.019   6.805   5.369
  558TIP3   OH2 1614   7.914   5.014   2.015
  558TIP3    H1 1615   7.841   4.966   2.054
  558TIP3    H2 1616   7.950   5.065   2.087
  559TIP3   OH2 1617   3.013   3.304   6.059
  559TIP3    H1 1618   3.092   3.254   6.040
  559TIP3    H2 1619   2.965   3.305   5.976
  560TIP3   OH2 1620   3.278   0.787   2.810
  560TIP3    H1 1621   3.188   0.817   2.824
  560TIP3    H2 1622   3.269   0.699   2.773
  561TIP3   OH2 1623   1.389   0.900   3.348
  561TIP3    H1 1624   1.448   0.968   3.379
  561TIP3    H2 1625   1.336   0.878   3.425
  562TIP3   OH2 1626   2.900   0.626   6.222
  562TIP3    H1 1627   2.862   0.544   6.192
  562TIP3    H2 1628   2.992   0.606   6.238
  563TIP3   OH2 1629   0.042   0.239   2.806
  563TIP3    H1 1630   0.135   0.244   2.783
  563TIP3    H2 1631   0.039   0.181   2.881
  564TIP3   OH2 1632   5.535   7.139   1.481
  564TIP3    H1 1633   5.585   7.136   1.562
  564TIP3    H2 1634   5.592   7.183   1.418
  565TIP3   OH2 1635   1.827   7.818   0.650
  565TIP3    H1 1636   1.795   7.891   0.704
  565TIP3    H2 1637   1.922   7.820   0.663
  566TIP3   OH2 1638   0.678   4.992   0.495
  566TIP3    H1 1639   0.638   4.972   0.410
  566TIP3    H2 1640   0.689   5.087   0.495
  567TIP3   OH2 1641   7.493   3.266   0.663
  567TIP3    H1 1642   7.411   3.271   0.713
  567TIP3    H2 1643   7.465   3.271   0.571
  568TIP3   OH2 1644   6.873   7.906   2.065
  568TIP3    H1 1645   6.925   7.933   1.989
  568TIP3    H2 1646   6.852   7.814   2.049
  569TIP3   OH2 1647   0.820   7.701   1.424
  569TIP3    H1 1648   0.879   7.663   1.359
  569TIP3    H2 1649   0.735   7.661   1.405
  570TIP3   OH2 1650   8.168   7.126   4.562
  570TIP3    H1 1651   8.142   7.180   4.487
  570TIP3    H2 1652   8.221   7.185   4.616
  571TIP3   OH2 1653   7.076   0.821   5.870
  571TIP3    H1 1654   7.039   0.901   5.835
  571TIP3    H2 1655   7.002   0.761   5.877
  572TIP3   OH2 1656   6.219   6.066   2.670
  572TIP3    H1 1657   6.253   6.089   2.583
  572TIP3    H2 1658   6.148   6.004   2.652
  573TIP3   OH2 1659   4.873   3.310   2.181
  573TIP3    H1 1660   4.948   3.252   2.193
  573TIP3    H2 1661   4.883   3.344   2.092
  574TIP3   OH2 1662   5.194   4.561   3.023
  574TIP3    H1 1663   5.225   4.514   2.946
  574TIP3    H2 1664   5.152   4.640   2.987
  575TIP3   OH2 1665   4.312   4.181   6.560
  575TIP3    H1 1666   4.304   4.276   6.549
  575TIP3    H2 1667   4.221   4.150   6.567
  576TIP3   OH2 1668   3.915   6.683   5.249
  576TIP3    H1 1669   3.826   6.714   5.265
  576TIP3    H2 1670   3.949   6.661   5.336
  577TIP3   OH2 1671   6.682   6.051   0.998
  577TIP3    H1 1672   6.736   5.972   0.993
  577TIP3    H2 1673   6.635   6.042   1.081
  578TIP3   OH2 1674   0.924   1.382   6.341
  578TIP3    H1 1675   0.923   1.470   6.377
  578TIP3    H2 1676   0.985   1.387   6.267
  579TIP3   OH2 1677   3.121   1.286   4.935
  579TIP3    H1 1678   3.066   1.290   4.857
  579TIP3    H2 1679   3.181   1.360   4.926
  580TIP3   OH2 1680   4.411   4.520   4.920
  580TIP3    H1 1681   4.329   4.562   4.946
  580TIP3    H2 1682   4.425   4.452   4.986
  581TIP3   OH2 1683   2.805   2.331   3.821
  581TIP3    H1 1684   2.756   2.250   3.827
  581TIP3    H2 1685   2.739   2.400   3.827
  582TIP3   OH2 1686   4.088   3.029   4.103
  582TIP3    H1 1687   4.061   3.109   4.058
  582TIP3    H2 1688   4.066   2.959   4.042
  583TIP3   OH2 1689   0.071   3.776   0.618
  583TIP3    H1 1690   0.030   3.696   0.586
  583TIP3    H2 1691   0.149   3.786   0.564
  584TIP3   OH2 1692   4.999   3.821   2.139
  584TIP3    H1 1693   4.954   3.905   2.137
  584TIP3    H2 1694   4.935   3.761   2.177
  585TIP3   OH2 1695   1.700   6.906   3.145
  585TIP3    H1 1696   1.606   6.889   3.147
  585TIP3    H2 1697   1.739   6.832   3.192
  586TIP3   OH2 1698   2.148   6.311   0.165
  586TIP3    H1 1699   2.193   6.360   0.096
  586TIP3    H2 1700   2.087   6.374   0.203
  587TIP3   OH2 1701   1.346   5.492   4.611
  587TIP3    H1 1702   1.362   5.537   4.694
  587TIP3    H2 1703   1.432   5.492   4.568
  588TIP3   OH2 1704   6.868   0.459   5.244
  588TIP3    H1 1705   6.942   0.516   5.264
  588TIP3    H2 1706   6.903   0.395   5.182
  589TIP3   OH2 1707   1.801   4.178   3.760
  589TIP3    H1 1708   1.796   4.106   3.697
  589TIP3    H2 1709   1.818   4.134   3.844
  590TIP3   OH2 1710   7.932   4.644   0.640
  590TIP3    H1 1711   7.991   4.583   0.683
  590TIP3    H2 1712   7.982   4.676   0.564
  591TIP3   OH2 1713   4.148   3.558   2.883
  591TIP3    H1 1714   4.200   3.596   2.954
  591TIP3    H2 1715   4.159   3.619   2.810
  592TIP3   OH2 1716   0.788   6.983   2.665
  592TIP3    H1 1717   0.768   7.000   2.573
  592TIP3    H2 1718   0.842   7.058   2.692
  593TIP3   OH2 1719   2.853   5.478   0.854
  593TIP3    H1 1720   2.948   5.479   0.839
  593TIP3    H2 1721   2.821   5.556   0.809
  594TIP3   OH2 1722   0.770   5.942   4.213
  594TIP3    H1 1723   0.706   5.876   4.241
  594TIP3    H2 1724   0.854   5.896   4.216
  595TIP3   OH2 1725   5.348   5.604   1.274
  595TIP3    H1 1726   5.289   5.673   1.304
  595TIP3    H2 1727   5.388   5.569   1.353
  596TIP3   OH2 1728   7.426   5.838   0.701
  596TIP3    H1 1729   7.357   5.903   0.707
  596TIP3    H2 1730   7.385   5.764   0.656
  597TIP3   OH2 1731   2.451   2.111   5.237
  597TIP3    H1 1732   2.438   2.202   5.264
  597TIP3    H2 1733   2.406   2.105   5.153
  598TIP3   OH2 1734   1.325   1.498   4.670
  598TIP3    H1 1735   1.243   1.544   4.656
  598TIP3    H2 1736   1.392   1.554   4.630
  599TIP3   OH2 1737   2.592   4.639   5.735
  599TIP3    H1 1738   2.529   4.569   5.751
  599TIP3    H2 1739   2.676   4.602   5.763
  600TIP3   OH2 1740   6.995   0.663   6.115
  600TIP3    H1 1741   6.917   0.627   6.074
  600TIP3    H2 1742   6.965   0.745   6.154
  601TIP3   OH2 1743   8.297   6.311   6.591
  601TIP3    H1 1744   8.363   6.362   6.545
  601TIP3    H2 1745   8.228   6.297   6.526
  602TIP3   OH2 1746   4.443   5.259   6.533
  602TIP3    H1 1747   4.490   5.308   6.466
  602TIP3    H2 1748   4.511   5.207   6.576
  603TIP3   OH2 1749   2.679   4.118   4.881
  603TIP3    H1 1750   2.584   4.119   4.899
  603TIP3    H2 1751   2.686   4.099   4.788
  604TIP3   OH2 1752   2.029   7.489   5.340
  604TIP3    H1 1753   2.064   7.577   5.329
  604TIP3    H2 1754   1.947   7.489   5.291
  605TIP3   OH2 1755   7.872   2.427   4.955
  605TIP3    H1 1756   7.822   2.351   4.927
  605TIP3    H2 1757   7.875   2.483   4.877
  606TIP3   OH2 1758   6.106   3.991   0.332
  606TIP3    H1 1759   6.102   4.086   0.320
  606TIP3    H2 1760   6.199   3.970   0.326
  607TIP3   OH2 1761   5.791   2.792   4.364
  607TIP3    H1 1762   5.787   2.747   4.280
  607TIP3    H2 1763   5.819   2.724   4.426
  608TIP3   OH2 1764   7.356   2.846   6.622
  608TIP3    H1 1765   7.413   2.825   6.547
  608TIP3    H2 1766   7.271   2.864   6.583
  609TIP3   OH2 1767   4.640   0.200   4.798
  609TIP3    H1 1768   4.632   0.211   4.703
  609TIP3    H2 1769   4.697   0.271   4.826
  610TIP3   OH2 1770   7.397   4.812   6.041
  610TIP3    H1 1771   7.334   4.755   6.087
  610TIP3    H2 1772   7.394   4.894   6.090
  611TIP3   OH2 1773   4.044   7.771   0.144
  611TIP3    H1 1774   3.999   7.709   0.202
  611TIP3    H2 1775   4.018   7.744   0.056
  612TIP3   OH2 1776   1.642   0.479   1.188
  612TIP3    H1 1777   1.721   0.491   1.240
  612TIP3    H2 1778   1.627   0.564   1.147
  613TIP3   OH2 1779   4.962   4.772   5.966
  613TIP3    H1 1780   4.963   4.862   5.998
  613TIP3    H2 1781   5.045   4.761   5.920
  614TIP3   OH2 1782   0.574   2.254   2.005
  614TIP3    H1 1783   0.540   2.165   2.011
  614TIP3    H2 1784   0.512   2.307   2.055
  615TIP3   OH2 1785   7.752   0.109   4.477
  615TIP3    H1 1786   7.679   0.083   4.534
  615TIP3    H2 1787   7.778   0.028   4.434
  616TIP3   OH2 1788   4.098   1.063   1.910
  616TIP3    H1 1789   4.173   1.042   1.855
  616TIP3    H2 1790   4.044   0.983   1.908
  617TIP3   OH2 1791   1.978   3.774   5.146
  617TIP3    H1 1792   2.045   3.707   5.137
  617TIP3    H2 1793   1.997   3.817   5.229
  618TIP3   OH2 1794   1.382   7.116   3.693
  618TIP3    H1 1795   1.445   7.187   3.685
  618TIP3    H2 1796   1.308   7.154   3.741
  619TIP3   OH2 1797   5.163   7.589   0.901
  619TIP3    H1 1798   5.109   7.664   0.922
  619TIP3    H2 1799   5.220   7.577   0.977
  620TIP3   OH2 1800   3.669   3.864   3.972
  620TIP3    H1 1801   3.702   3.774   3.973
  620TIP3    H2 1802   3.640   3.878   3.881
  621TIP3   OH2 1803   2.476   3.515   2.022
  621TIP3    H1 1804   2.490   3.601   1.981
  621TIP3    H2 1805   2.556   3.466   2.003
  622TIP3   OH2 1806   5.984   4.918   2.406
  622TIP3    H1 1807   6.075   4.887   2.397
  622TIP3    H2 1808   5.964   4.958   2.322
  623TIP3   OH2 1809   2.814   4.655   3.829
  623TIP3    H1 1810   2.892   4.685   3.782
  623TIP3    H2 1811   2.816   4.704   3.911
  624TIP3   OH2 1812   4.354   3.406   3.523
  624TIP3    H1 1813   4.355   3.396   3.428
  624TIP3    H2 1814   4.327   3.497   3.537
  625TIP3   OH2 1815  -0.023   4.858   4.122
  625TIP3    H1 1816   0.046   4.905   4.168
  625TIP3    H2 1817  -0.012   4.766   4.148
  626TIP3   OH2 1818   7.223   4.122   4.677
  626TIP3    H1 1819   7.199   4.143   4.768
  626TIP3    H2 1820   7.317   4.105   4.680
  627TIP3   OH2 1821   5.783   2.261   5.477
  627TIP3    H1 1822   5.697   2.263   5.518
  627TIP3    H2 1823   5.842   2.294   5.545
  628TIP3   OH2 1824   0.650   0.068   1.076
  628TIP3    H1 1825   0.571   0.030   1.115
  628TIP3    H2 1826   0.649   0.160   1.103
  629TIP3   OH2 1827   8.214   4.754   6.220
  629TIP3    H1 1828   8.300   4.770   6.181
  629TIP3    H2 1829   8.228   4.768   6.314
  630TIP3   OH2 1830   3.971   0.837   1.385
  630TIP3    H1 1831   4.044   0.775   1.395
  630TIP3    H2 1832   3.929   0.810   1.303
  631TIP3   OH2 1833   3.624   0.382   0.152
  631TIP3    H1 1834   3.657   0.403   0.239
  631TIP3    H2 1835   3.558   0.315   0.166
  632TIP3   OH2 1836   1.230   2.561   5.033
  632TIP3    H1 1837   1.295   2.491   5.027
  632TIP3    H2 1838   1.166   2.541   4.965
  633TIP3   OH2 1839   3.322   4.934   2.532
  633TIP3    H1 1840   3.313   4.842   2.557
  633TIP3    H2 1841   3.369   4.974   2.606
  634TIP3   OH2 1842   7.175   0.626   2.609
  634TIP3    H1 1843   7.097   0.681   2.603
  634TIP3    H2 1844   7.141   0.537   2.616
  635TIP3   OH2 1845   0.179   3.439   1.109
  635TIP3    H1 1846   0.245   3.380   1.072
  635TIP3    H2 1847   0.169   3.508   1.043
  636TIP3   OH2 1848   6.870   4.545   1.997
  636TIP3    H1 1849   6.878   4.459   1.956
  636TIP3    H2 1850   6.874   4.607   1.923
  637TIP3   OH2 1851   7.744   7.555   6.294
  637TIP3    H1 1852   7.691   7.486   6.335
  637TIP3    H2 1853   7.823   7.510   6.266
  638TIP3   OH2 1854   7.174   3.694   5.832
  638TIP3    H1 1855   7.182   3.628   5.764
  638TIP3    H2 1856   7.080   3.699   5.849
  639TIP3   OH2 1857   7.754   5.850   0.613
  639TIP3    H1 1858   7.832   5.794   0.618
  639TIP3    H2 1859   7.698   5.807   0.549
  640TIP3   OH2 1860   8.325   4.524   5.205
  640TIP3    H1 1861   8.280   4.476   5.274
  640TIP3    H2 1862   8.302   4.478   5.124
  641TIP3   OH2 1863   5.871   3.488   5.519
  641TIP3    H1 1864   5.890   3.446   5.603
  641TIP3    H2 1865   5.887   3.419   5.454
  642TIP3   OH2 1866   6.420   5.296   4.687
  642TIP3    H1 1867   6.352   5.250   4.639
  642TIP3    H2 1868   6.478   5.227   4.720
  643TIP3   OH2 1869   4.944   4.577   5.108
  643TIP3    H1 1870   5.013   4.512   5.122
  643TIP3    H2 1871   4.954   4.638   5.181
  644TIP3   OH2 1872   3.716  -0.029   5.864
  644TIP3    H1 1873   3.691   0.045   5.809
  644TIP3    H2 1874   3.737   0.009   5.949
  645TIP3   OH2 1875   5.578   2.303   5.294
  645TIP3    H1 1876   5.583   2.210   5.270
  645TIP3    H2 1877   5.668   2.328   5.310
  646TIP3   OH2 1878   1.775   5.097   5.637
  646TIP3    H1 1879   1.789   5.003   5.652
  646TIP3    H2 1880   1.758   5.104   5.543
  647TIP3   OH2 1881   1.976   5.990   2.365
  647TIP3    H1 1882   2.005   6.058   2.304
  647TIP3    H2 1883   1.882   5.981   2.349
  648TIP3   OH2 1884   4.062   3.383   0.176
  648TIP3    H1 1885   4.008   3.345   0.107
  648TIP3    H2 1886   4.152   3.375   0.144
  649TIP3   OH2 1887   1.355   1.454   0.127
  649TIP3    H1 1888   1.433   1.402   0.105
  649TIP3    H2 1889   1.285   1.389   0.136
  650TIP3   OH2 1890   6.859   6.274   5.832
  650TIP3    H1 1891   6.901   6.227   5.760
  650TIP3    H2 1892   6.855   6.365   5.802
  651TIP3   OH2 1893   4.270   5.386   5.112
  651TIP3    H1 1894   4.347   5.333   5.134
  651TIP3    H2 1895   4.279   5.465   5.166
  652TIP3   OH2 1896   4.757   2.155   6.087
  652TIP3    H1 1897   4.757   2.213   6.163
  652TIP3    H2 1898   4.745   2.067   6.123
  653TIP3   OH2 1899   3.304   0.797   6.369
  653TIP3    H1 1900   3.327   0.889   6.383
  653TIP3    H2 1901   3.259   0.796   6.285
  654TIP3   OH2 1902   1.757   7.323   2.571
  654TIP3    H1 1903   1.714   7.238   2.580
  654TIP3    H2 1904   1.802   7.336   2.655
  655TIP3   OH2 1905   2.943   4.118   0.849
  655TIP3    H1 1906   2.861   4.082   0.814
  655TIP3    H2 1907   2.974   4.178   0.781
  656TIP3   OH2 1908   7.603   4.490   6.551
  656TIP3    H1 1909   7.526   4.491   6.608
  656TIP3    H2 1910   7.675   4.464   6.608
  657TIP3   OH2 1911   2.587   3.347   2.339
  657TIP3    H1 1912   2.510   3.400   2.321
  657TIP3    H2 1913   2.552   3.261   2.361
  658TIP3   OH2 1914   1.526   7.510   2.946
  658TIP3    H1 1915   1.446   7.463   2.924
  658TIP3    H2 1916   1.498   7.600   2.959
  659TIP3   OH2 1917   5.786   6.958   6.479
  659TIP3    H1 1918   5.881   6.949   6.489
  659TIP3    H2 1919   5.754   6.868   6.479
  660TIP3   OH2 1920   3.636   3.207   2.119
  660TIP3    H1 1921   3.617   3.122   2.080
  660TIP3    H2 1922   3.615   3.197   2.212
  661TIP3   OH2 1923   3.643   2.054   5.699
  661TIP3    H1 1924   3.685   2.086   5.619
  661TIP3    H2 1925   3.570   2.115   5.714
  662TIP3   OH2 1926   3.509   1.784   3.894
  662TIP3    H1 1927   3.490   1.858   3.951
  662TIP3    H2 1928   3.538   1.824   3.812
  663TIP3   OH2 1929   0.667   1.245   3.407
  663TIP3    H1 1930   0.694   1.336   3.416
  663TIP3    H2 1931   0.628   1.223   3.491
  664TIP3   OH2 1932   1.979   4.633   0.338
  664TIP3    H1 1933   1.948   4.616   0.426
  664TIP3    H2 1934   1.909   4.684   0.297
  665TIP3   OH2 1935   7.784   3.353   4.543
  665TIP3    H1 1936   7.689   3.340   4.540
  665TIP3    H2 1937   7.819   3.278   4.494
  666TIP3   OH2 1938   4.720   0.629   5.958
  666TIP3    H1 1939   4.705   0.720   5.986
  666TIP3    H2 1940   4.659   0.578   6.012
  667TIP3   OH2 1941   6.651   4.245   5.044
  667TIP3    H1 1942   6.682   4.227   4.955
  667TIP3    H2 1943   6.642   4.158   5.084
  668TIP3   OH2 1944   6.279   4.815   6.371
  668TIP3    H1 1945   6.369   4.836   6.393
  668TIP3    H2 1946   6.234   4.899   6.367
  669TIP3   OH2 1947   8.067   2.488   1.679
  669TIP3    H1 1948   8.013   2.459   1.605
  669TIP3    H2 1949   8.135   2.421   1.686
  670TIP3   OH2 1950   2.526   5.813   2.201
  670TIP3    H1 1951   2.483   5.859   2.273
  670TIP3    H2 1952   2.527   5.721   2.228
  671TIP3   OH2 1953   6.867   5.528   1.212
  671TIP3    H1 1954   6.933   5.526   1.280
  671TIP3    H2 1955   6.821   5.444   1.220
  672TIP3   OH2 1956   1.384   3.176   6.022
  672TIP3    H1 1957   1.428   3.101   6.062
  672TIP3    H2 1958   1.445   3.207   5.955
  673TIP3   OH2 1959   3.651   2.491   1.461
  673TIP3    H1 1960   3.657   2.430   1.388
  673TIP3    H2 1961   3.656   2.577   1.420
  674TIP3   OH2 1962   2.657   3.378   4.913
  674TIP3    H1 1963   2.690   3.467   4.923
  674TIP3    H2 1964   2.727   3.332   4.866
  675TIP3   OH2 1965   6.518   1.686   0.253
  675TIP3    H1 1966   6.542   1.599   0.221
  675TIP3    H2 1967   6.477   1.670   0.338
  676TIP3   OH2 1968   7.467  -0.009   1.716
  676TIP3    H1 1969   7.512  -0.017   1.631
  676TIP3    H2 1970   7.507   0.068   1.756
  677TIP3   OH2 1971   6.571   6.256   2.989
  677TIP3    H1 1972   6.505   6.318   2.957
  677TIP3    H2 1973   6.571   6.268   3.084
  678TIP3   OH2 1974   4.895   5.802   5.574
  678TIP3    H1 1975   4.896   5.730   5.511
  678TIP3    H2 1976   4.804   5.832   5.575
  679TIP3   OH2 1977   0.530   4.339   5.978
  679TIP3    H1 1978   0.437   4.337   6.003
  679TIP3    H2 1979   0.535   4.285   5.900
  680TIP3   OH2 1980   2.612   0.449   4.756
  680TIP3    H1 1981   2.522   0.466   4.784
  680TIP3    H2 1982   2.655   0.535   4.758
  681TIP3   OH2 1983   5.107   4.119   0.397
  681TIP3    H1 1984   5.030   4.080   0.355
  681TIP3    H2 1985   5.087   4.213   0.400
  682TIP3   OH2 1986   6.022   7.319   5.870
  682TIP3    H1 1987   6.024   7.282   5.958
  682TIP3    H2 1988   5.961   7.393   5.876
  683TIP3   OH2 1989   6.428   6.725   5.871
  683TIP3    H1 1990   6.391   6.638   5.855
  683TIP3    H2 1991   6.480   6.714   5.951
  684TIP3   OH2 1992   4.355   6.520   1.467
  684TIP3    H1 1993   4.437   6.530   1.516
  684TIP3    H2 1994   4.301   6.463   1.521
  685TIP3   OH2 1995   6.125   1.189   6.346
  685TIP3    H1 1996   6.195   1.248   6.320
  685TIP3    H2 1997   6.155   1.151   6.428
  686TIP3   OH2 1998   6.854   7.188   4.943
  686TIP3    H1 1999   6.812   7.114   4.899
  686TIP3    H2 2000   6.846   7.261   4.881
  687TIP3   OH2 2001   1.961   0.439   0.979
  687TIP3    H1 2002   2.043   0.404   0.946
  687TIP3    H2 2003   1.929   0.373   1.041
  688TIP3   OH2 2004   2.707   0.264   1.170
  688TIP3    H1 2005   2.751   0.261   1.085
  688TIP3    H2 2006   2.770   0.307   1.228
  689TIP3   OH2 2007   4.746   4.057   1.723
  689TIP3    H1 2008   4.724   4.030   1.812
  689TIP3    H2 2009   4.727   4.151   1.720
  690TIP3   OH2 2010   6.976   7.278   5.166
  690TIP3    H1 2011   6.925   7.248   5.091
  690TIP3    H2 2012   7.064   7.244   5.151
  691TIP3   OH2 2013   2.992   2.577   5.448
  691TIP3    H1 2014   2.956   2.519   5.514
  691TIP3    H2 2015   2.961   2.542   5.365
  692TIP3   OH2 2016   0.087   1.978   3.319
  692TIP3    H1 2017   0.014   1.927   3.283
  692TIP3    H2 2018   0.060   2.069   3.307
  693TIP3   OH2 2019   4.147   0.622   1.451
  693TIP3    H1 2020   4.112   0.563   1.518
  693TIP3    H2 2021   4.226   0.579   1.420
  694TIP3   OH2 2022   7.374   3.371   0.087
  694TIP3    H1 2023   7.288   3.402   0.059
  694TIP3    H2 2024   7.375   3.386   0.182
  695TIP3   OH2 2025   2.542   1.235   2.666
  695TIP3    H1 2026   2.620   1.228   2.722
  695TIP3    H2 2027   2.575   1.269   2.583
  696TIP3   OH2 2028   4.813   1.340   6.440
  696TIP3    H1 2029   4.905   1.366   6.436
  696TIP3    H2 2030   4.781   1.379   6.521
  697TIP3   OH2 2031   4.574   6.256   2.201
  697TIP3    H1 2032   4.638   6.209   2.255
  697TIP3    H2 2033   4.590   6.348   2.219
  698TIP3   OH2 2034   6.636   6.681   5.056
  698TIP3    H1 2035   6.723   6.701   5.092
  698TIP3    H2 2036   6.620   6.590   5.081
  699TIP3   OH2 2037   4.784   0.781   6.342
  699TIP3    H1 2038   4.780   0.685   6.348
  699TIP3    H2 2039   4.799   0.798   6.249
  700TIP3   OH2 2040   7.202   2.954   2.579
  700TIP3    H1 2041   7.277   2.910   2.539
  700TIP3    H2 2042   7.185   3.029   2.522
  701TIP3   OH2 2043   0.844   1.197   1.863
  701TIP3    H1 2044   0.849   1.291   1.876
  701TIP3    H2 2045   0.888   1.182   1.779
  702TIP3   OH2 2046   3.895   2.838   0.687
  702TIP3    H1 2047   3.896   2.757   0.636
  702TIP3    H2 2048   3.817   2.884   0.656
  703TIP3   OH2 2049   7.796   6.004   4.021
  703TIP3    H1 2050   7.823   5.945   4.092
  703TIP3    H2 2051   7.811   5.953   3.942
  704TIP3   OH2 2052   6.526   5.100   4.001
  704TIP3    H1 2053   6.565   5.093   3.914
  704TIP3    H2 2054   6.539   5.192   4.026
  705TIP3   OH2 2055   7.422   5.176   3.427
  705TIP3    H1 2056   7.328   5.194   3.422
  705TIP3    H2 2057   7.446   5.148   3.339
  706TIP3   OH2 2058   0.562   2.430   5.706
  706TIP3    H1 2059   0.641   2.449   5.757
  706TIP3    H2 2060   0.525   2.352   5.746
  707TIP3   OH2 2061   2.223   0.876   4.438
  707TIP3    H1 2062   2.222   0.818   4.362
  707TIP3    H2 2063   2.315   0.900   4.449
  708TIP3   OH2 2064   6.226   0.511   0.702
  708TIP3    H1 2065   6.172   0.499   0.780
  708TIP3    H2 2066   6.281   0.433   0.699
  709TIP3   OH2 2067   6.580   2.225   2.432
  709TIP3    H1 2068   6.625   2.177   2.502
  709TIP3    H2 2069   6.651   2.264   2.381
  710TIP3   OH2 2070   5.734   0.154   1.861
  710TIP3    H1 2071   5.728   0.059   1.867
  710TIP3    H2 2072   5.671   0.178   1.793
  711TIP3   OH2 2073   7.822   3.917   3.549
  711TIP3    H1 2074   7.751   3.884   3.605
  711TIP3    H2 2075   7.811   4.012   3.550
  712TIP3   OH2 2076   3.214   2.497   3.348
  712TIP3    H1 2077   3.265   2.540   3.417
  712TIP3    H2 2078   3.211   2.405   3.375
  713TIP3   OH2 2079   4.692   4.850   1.513
  713TIP3    H1 2080   4.683   4.944   1.495
  713TIP3    H2 2081   4.603   4.821   1.534
  714TIP3   OH2 2082   7.809   0.535   5.628
  714TIP3    H1 2083   7.895   0.532   5.586
  714TIP3    H2 2084   7.747   0.536   5.556
  715TIP3   OH2 2085   3.219   3.360   1.170
  715TIP3    H1 2086   3.282   3.290   1.155
  715TIP3    H2 2087   3.135   3.324   1.142
  716TIP3   OH2 2088   0.635   2.615   6.337
  716TIP3    H1 2089   0.662   2.550   6.272
  716TIP3    H2 2090   0.542   2.629   6.320
  717TIP3   OH2 2091   5.549   5.940   1.898
  717TIP3    H1 2092   5.590   5.855   1.879
  717TIP3    H2 2093   5.617   6.004   1.877
  718TIP3   OH2 2094   4.726   3.642   1.956
  718TIP3    H1 2095   4.781   3.564   1.946
  718TIP3    H2 2096   4.731   3.663   2.049
  719TIP3   OH2 2097   6.645   6.435   4.035
  719TIP3    H1 2098   6.723   6.451   3.981
  719TIP3    H2 2099   6.674   6.371   4.100
  720TIP3   OH2 2100   0.993   4.726   4.166
  720TIP3    H1 2101   1.052   4.675   4.222
  720TIP3    H2 2102   0.933   4.769   4.226
  721TIP3   OH2 2103   2.927   7.274   0.956
  721TIP3    H1 2104   2.965   7.188   0.977
  721TIP3    H2 2105   2.934   7.281   0.861
  722TIP3   OH2 2106   6.910   2.002   0.605
  722TIP3    H1 2107   6.978   2.067   0.624
  722TIP3    H2 2108   6.951   1.943   0.542
  723TIP3   OH2 2109   3.485   0.873   4.381
  723TIP3    H1 2110   3.513   0.942   4.321
  723TIP3    H2 2111   3.528   0.895   4.464
  724TIP3   OH2 2112   0.393   3.645   0.797
  724TIP3    H1 2113   0.398   3.584   0.723
  724TIP3    H2 2114   0.305   3.633   0.832
  725TIP3   OH2 2115   2.674   4.990   0.847
  725TIP3    H1 2116   2.661   5.084   0.848
  725TIP3    H2 2117   2.650   4.961   0.935
  726TIP3   OH2 2118   7.136   3.268   3.668
  726TIP3    H1 2119   7.142   3.353   3.625
  726TIP3    H2 2120   7.050   3.234   3.644
  727TIP3   OH2 2121   1.446   0.196   6.529
  727TIP3    H1 2122   1.423   0.108   6.500
  727TIP3    H2 2123   1.495   0.182   6.610
  728TIP3   OH2 2124   4.431   0.901   0.335
  728TIP3    H1 2125   4.387   0.899   0.420
  728TIP3    H2 2126   4.379   0.844   0.279
  729TIP3   OH2 2127   2.004   6.787   5.761
  729TIP3    H1 2128   2.077   6.747   5.715
  729TIP3    H2 2129   2.010   6.880   5.739
  730TIP3   OH2 2130   5.250   4.148   4.800
  730TIP3    H1 2131   5.193   4.191   4.737
  730TIP3    H2 2132   5.232   4.055   4.789
  731TIP3   OH2 2133   5.364   0.775   6.040
  731TIP3    H1 2134   5.379   0.680   6.038
  731TIP3    H2 2135   5.283   0.786   6.089
  732TIP3   OH2 2136   0.648   2.907   5.203
  732TIP3    H1 2137   0.712   2.836   5.209
  732TIP3    H2 2138   0.689   2.971   5.144
  733TIP3   OH2 2139   7.832   4.302   6.171
  733TIP3    H1 2140   7.804   4.382   6.217
  733TIP3    H2 2141   7.815   4.320   6.079
  734TIP3   OH2 2142   4.363   5.867   0.196
  734TIP3    H1 2143   4.403   5.820   0.122
  734TIP3    H2 2144   4.434   5.921   0.231
  735TIP3   OH2 2145   2.512   6.806   1.859
  735TIP3    H1 2146   2.475   6.768   1.779
  735TIP3    H2 2147   2.575   6.741   1.889
  736TIP3   OH2 2148   3.446   4.244   3.371
  736TIP3    H1 2149   3.389   4.294   3.313
  736TIP3    H2 2150   3.470   4.305   3.440
  737TIP3   OH2 2151   4.170   3.413   5.213
  737TIP3    H1 2152   4.087   3.425   5.260
  737TIP3    H2 2153   4.151   3.348   5.146
  738TIP3   OH2 2154   3.265   6.300   3.660
  738TIP3    H1 2155   3.241   6.357   3.733
  738TIP3    H2 2156   3.226   6.215   3.681
  739TIP3   OH2 2157   7.031   5.746   0.749
  739TIP3    H1 2158   7.026   5.718   0.841
  739TIP3    H2 2159   6.948   5.790   0.733
  740TIP3   OH2 2160   0.915   0.737   4.606
  740TIP3    H1 2161   0.967   0.663   4.575
  740TIP3    H2 2162   0.840   0.697   4.650
  741TIP3   OH2 2163   4.130   3.805   6.173
  741TIP3    H1 2164   4.083   3.748   6.234
  741TIP3    H2 2165   4.062   3.857   6.131
  742TIP3   OH2 2166   7.913   6.595   4.449
  742TIP3    H1 2167   7.897   6.646   4.528
  742TIP3    H2 2168   8.007   6.604   4.433
  743TIP3   OH2 2169   1.582   1.188   1.707
  743TIP3    H1 2170   1.613   1.098   1.715
  743TIP3    H2 2171   1.651   1.241   1.748
  744TIP3   OH2 2172   7.794   4.516   6.339
  744TIP3    H1 2173   7.815   4.609   6.339
  744TIP3    H2 2174   7.727   4.506   6.407
  745TIP3   OH2 2175   7.118   3.883   1.437
  745TIP3    H1 2176   7.212   3.867   1.423
  745TIP3    H2 2177   7.091   3.816   1.500
  746TIP3   OH2 2178   5.771   6.511   3.985
  746TIP3    H1 2179   5.677   6.527   3.982
  746TIP3    H2 2180   5.794   6.521   4.078
  747TIP3   OH2 2181   3.218   0.567   1.782
  747TIP3    H1 2182   3.129   0.533   1.769
  747TIP3    H2 2183   3.228   0.634   1.715
  748TIP3   OH2 2184   0.061   0.882   4.592
  748TIP3    H1 2185   0.045   0.926   4.509
  748TIP3    H2 2186   0.114   0.805   4.568
  749TIP3   OH2 2187   1.380   3.422   0.591
  749TIP3    H1 2188   1.362   3.455   0.503
  749TIP3    H2 2189   1.469   3.451   0.610
  750TIP3   OH2 2190   5.922   3.492   0.840
  750TIP3    H1 2191   5.982   3.564   0.820
  750TIP3    H2 2192   5.935   3.475   0.933
  751TIP3   OH2 2193  -0.003   0.509   2.088
  751TIP3    H1 2194   0.029   0.427   2.050
  751TIP3    H2 2195   0.036   0.578   2.034
  752TIP3   OH2 2196   5.241   3.510   4.185
  752TIP3    H1 2197   5.196   3.594   4.194
  752TIP3    H2 2198   5.319   3.529   4.134
  753TIP3   OH2 2199   8.030   2.818   3.216
  753TIP3    H1 2200   8.032   2.824   3.311
  753TIP3    H2 2201   8.001   2.729   3.198
  754TIP3   OH2 2202   2.554   5.428   4.230
  754TIP3    H1 2203   2.504   5.494   4.278
  754TIP3    H2 2204   2.526   5.438   4.139
  755TIP3   OH2 2205   0.832   3.450   3.420
  755TIP3    H1 2206   0.774   3.409   3.355
  755TIP3    H2 2207   0.774   3.474   3.492
  756TIP3   OH2 2208   0.123   6.634   4.691
  756TIP3    H1 2209   0.075   6.564   4.735
  756TIP3    H2 2210   0.193   6.657   4.752
  757TIP3   OH2 2211   5.140   3.773   6.362
  757TIP3    H1 2212   5.217   3.724   6.336
  757TIP3    H2 2213   5.074   3.751   6.296
  758TIP3   OH2 2214   8.009   1.038   6.416
  758TIP3    H1 2215   7.942   0.983   6.457
  758TIP3    H2 2216   8.075   0.975   6.385
  759TIP3   OH2 2217   6.909   7.809   2.587
  759TIP3    H1 2218   6.998   7.842   2.597
  759TIP3    H2 2219   6.875   7.855   2.509
  760TIP3   OH2 2220   7.743   3.288   3.701
  760TIP3    H1 2221   7.784   3.329   3.625
  760TIP3    H2 2222   7.649   3.293   3.682
  761TIP3   OH2 2223   3.326   0.624   1.213
  761TIP3    H1 2224   3.346   0.685   1.141
  761TIP3    H2 2225   3.407   0.574   1.224
  762TIP3   OH2 2226   5.986   7.222   6.126
  762TIP3    H1 2227   5.971   7.128   6.112
  762TIP3    H2 2228   6.064   7.225   6.182
  763TIP3   OH2 2229   7.677   4.546   3.124
  763TIP3    H1 2230   7.651   4.454   3.127
  763TIP3    H2 2231   7.594   4.594   3.115
  764TIP3   OH2 2232   3.026   0.532   5.245
  764TIP3    H1 2233   3.021   0.439   5.224
  764TIP3    H2 2234   3.066   0.572   5.168
  765TIP3   OH2 2235   2.178   2.036   3.254
  765TIP3    H1 2236   2.256   1.984   3.272
  765TIP3    H2 2237   2.122   2.022   3.330
  766TIP3   OH2 2238   6.478   7.408   3.331
  766TIP3    H1 2239   6.546   7.341   3.328
  766TIP3    H2 2240   6.398   7.362   3.306
  767TIP3   OH2 2241   3.142   2.972   3.759
  767TIP3    H1 2242   3.048   2.984   3.746
  767TIP3    H2 2243   3.181   3.055   3.731
  768TIP3   OH2 2244   2.136   1.316   2.587
  768TIP3    H1 2245   2.157   1.243   2.645
  768TIP3    H2 2246   2.155   1.283   2.499
  769TIP3   OH2 2247   1.247   3.249   2.816
  769TIP3    H1 2248   1.246   3.298   2.898
  769TIP3    H2 2249   1.209   3.310   2.752
  770TIP3   OH2 2250   7.734   1.108   2.965
  770TIP3    H1 2251   7.792   1.036   2.939
  770TIP3    H2 2252   7.651   1.089   2.922
  771TIP3   OH2 2253   2.596   5.619   2.537
  771TIP3    H1 2254   2.596   5.667   2.619
  771TIP3    H2 2255   2.560   5.533   2.559
  772TIP3   OH2 2256   1.502   2.291   3.745
  772TIP3    H1 2257   1.464   2.369   3.705
  772TIP3    H2 2258   1.457   2.217   3.702
  773TIP3   OH2 2259   1.883   2.338   5.609
  773TIP3    H1 2260   1.955   2.381   5.564
  773TIP3    H2 2261   1.920   2.312   5.694
  774TIP3   OH2 2262   3.376   4.530   1.487
  774TIP3    H1 2263   3.342   4.445   1.462
  774TIP3    H2 2264   3.298   4.584   1.502
  775TIP3   OH2 2265   5.398   6.650   2.031
  775TIP3    H1 2266   5.398   6.700   2.113
  775TIP3    H2 2267   5.305   6.639   2.010
  776TIP3   OH2 2268   0.196   6.602   2.968
  776TIP3    H1 2269   0.287   6.575   2.977
  776TIP3    H2 2270   0.147   6.520   2.961
  777TIP3   OH2 2271   3.512   2.081   2.667
  777TIP3    H1 2272   3.562   2.003   2.644
  777TIP3    H2 2273   3.577   2.151   2.673
  778TIP3   OH2 2274   1.697   3.546   2.712
  778TIP3    H1 2275   1.730   3.548   2.622
  778TIP3    H2 2276   1.757   3.487   2.758
  779TIP3   OH2 2277   6.077   2.353   4.235
  779TIP3    H1 2278   6.091   2.389   4.322
  779TIP3    H2 2279   5.985   2.373   4.216
  780TIP3   OH2 2280   6.543   3.142   3.690
  780TIP3    H1 2281   6.533   3.229   3.729
  780TIP3    H2 2282   6.508   3.082   3.757
  781TIP3   OH2 2283   7.194   5.285   4.609
  781TIP3    H1 2284   7.161   5.210   4.560
  781TIP3    H2 2285   7.121   5.347   4.612
  782TIP3   OH2 2286   0.820   2.312   0.576
  782TIP3    H1 2287   0.845   2.220   0.572
  782TIP3    H2 2288   0.800   2.336   0.485
  783TIP3   OH2 2289   3.767   3.588   4.838
  783TIP3    H1 2290   3.680   3.592   4.879
  783TIP3    H2 2291   3.824   3.637   4.897
  784TIP3   OH2 2292   7.957   6.033   3.155
  784TIP3    H1 2293   7.949   6.018   3.061
  784TIP3    H2 2294   7.877   6.079   3.179
  785TIP3   OH2 2295   4.475   5.741   6.835
  785TIP3    H1 2296   4.416   5.811   6.808
  785TIP3    H2 2297   4.432   5.702   6.911
  786TIP3   OH2 2298   7.267   0.455   0.502
  786TIP3    H1 2299   7.307   0.453   0.589
  786TIP3    H2 2300   7.260   0.363   0.477
  787TIP3   OH2 2301   1.700   1.958   3.589
  787TIP3    H1 2302   1.681   2.010   3.510
  787TIP3    H2 2303   1.633   1.890   3.589
  788TIP3   OH2 2304   0.373   5.931   5.850
  788TIP3    H1 2305   0.311   5.995   5.884
  788TIP3    H2 2306   0.422   5.979   5.783
  789TIP3   OH2 2307   3.679   3.663   5.822
  789TIP3    H1 2308   3.715   3.576   5.806
  789TIP3    H2 2309   3.755   3.716   5.848
  790TIP3   OH2 2310   1.965   5.281   5.369
  790TIP3    H1 2311   1.889   5.225   5.353
  790TIP3    H2 2312   2.022   5.266   5.294
  791TIP3   OH2 2313   4.512   5.157   1.247
  791TIP3    H1 2314   4.558   5.150   1.331
  791TIP3    H2 2315   4.582   5.161   1.182
  792TIP3   OH2 2316   4.333   2.967   5.868
  792TIP3    H1 2317   4.397   3.022   5.822
  792TIP3    H2 2318   4.253   2.975   5.815
  793TIP3   OH2 2319   4.932   3.980   2.780
  793TIP3    H1 2320   4.878   3.967   2.858
  793TIP3    H2 2321   4.888   4.049   2.731
  794TIP3   OH2 2322   7.603   5.286   4.827
  794TIP3    H1 2323   7.533   5.230   4.793
  794TIP3    H2 2324   7.655   5.308   4.750
  795TIP3   OH2 2325   6.776   5.631   5.625
  795TIP3    H1 2326   6.791   5.550   5.675
  795TIP3    H2 2327   6.777   5.602   5.533
  796TIP3   OH2 2328   7.898   3.155   2.109
  796TIP3    H1 2329   7.803   3.160   2.110
  796TIP3    H2 2330   7.918   3.066   2.081
  797TIP3   OH2 2331   6.714   7.284   6.335
  797TIP3    H1 2332   6.672   7.295   6.420
  797TIP3    H2 2333   6.658   7.221   6.289
  798TIP3   OH2 2334   1.703   5.047   5.915
  798TIP3    H1 2335   1.693   5.135   5.952
  798TIP3    H2 2336   1.614   5.017   5.902
  799TIP3   OH2 2337   6.254   5.441   5.592
  799TIP3    H1 2338   6.338   5.446   5.546
  799TIP3    H2 2339   6.239   5.530   5.624
  800TIP3   OH2 2340   2.377   1.798   5.081
  800TIP3    H1 2341   2.397   1.738   5.153
  800TIP3    H2 2342   2.456   1.801   5.028
  801TIP3   OH2 2343   4.544   1.776   5.616
  801TIP3    H1 2344   4.484   1.832   5.665
  801TIP3    H2 2345   4.607   1.745   5.681
  802TIP3   OH2 2346   0.738   0.675   5.978
  802TIP3    H1 2347   0.726   0.597   6.031
  802TIP3    H2 2348   0.717   0.748   6.036
  803TIP3   OH2 2349   7.967   7.482   2.482
  803TIP3    H1 2350   7.871   7.481   2.486
  803TIP3    H2 2351   7.989   7.573   2.466
  804TIP3   OH2 2352   5.369   2.269   2.741
  804TIP3    H1 2353   5.280   2.235   2.742
  804TIP3    H2 2354   5.376   2.316   2.659
  805TIP3   OH2 2355   0.765   2.353   5.934
  805TIP3    H1 2356   0.710   2.367   6.011
  805TIP3    H2 2357   0.815   2.274   5.956
  806TIP3   OH2 2358   2.523   4.206   5.680
  806TIP3    H1 2359   2.486   4.294   5.670
  806TIP3    H2 2360   2.497   4.179   5.768
  807TIP3   OH2 2361   5.858   7.173   4.186
  807TIP3    H1 2362   5.766   7.175   4.215
  807TIP3    H2 2363   5.870   7.085   4.150
  808TIP3   OH2 2364   4.915   1.910   6.636
  808TIP3    H1 2365   4.944   1.840   6.577
  808TIP3    H2 2366   4.918   1.989   6.583
  809TIP3   OH2 2367   6.033   6.927   1.162
  809TIP3    H1 2368   6.014   6.840   1.198
  809TIP3    H2 2369   5.972   6.936   1.088
  810TIP3   OH2 2370   3.903   1.438   0.549
  810TIP3    H1 2371   3.967   1.404   0.611
  810TIP3    H2 2372   3.916   1.533   0.551
  811TIP3   OH2 2373   7.125   3.644   0.530
  811TIP3    H1 2374   7.090   3.583   0.595
  811TIP3    H2 2375   7.056   3.652   0.464
  812TIP3   OH2 2376   1.799   4.242   4.972
  812TIP3    H1 2377   1.757   4.188   4.905
  812TIP3    H2 2378   1.789   4.192   5.053
  813TIP3   OH2 2379   4.075   1.989   2.844
  813TIP3    H1 2380   4.149   1.930   2.845
  813TIP3    H2 2381   4.114   2.077   2.850
  814TIP3   OH2 2382   1.155   4.241   4.757
  814TIP3    H1 2383   1.074   4.289   4.741
  814TIP3    H2 2384   1.190   4.222   4.670
  815TIP3   OH2 2385   8.275   1.030   5.137
  815TIP3    H1 2386   8.296   1.119   5.111
  815TIP3    H2 2387   8.197   1.038   5.191
  816TIP3   OH2 2388   7.005   7.544   5.264
  816TIP3    H1 2389   7.100   7.544   5.249
  816TIP3    H2 2390   6.979   7.453   5.253
  817TIP3   OH2 2391   6.300   4.732   5.696
  817TIP3    H1 2392   6.213   4.695   5.713
  817TIP3    H2 2393   6.335   4.754   5.782
  818TIP3   OH2 2394   4.739   7.192   0.612
  818TIP3    H1 2395   4.727   7.111   0.662
  818TIP3    H2 2396   4.690   7.178   0.531
  819TIP3   OH2 2397   4.417   1.550   6.616
  819TIP3    H1 2398   4.495   1.600   6.594
  819TIP3    H2 2399   4.411   1.556   6.712
  820TIP3   OH2 2400   8.178   5.896   3.060
  820TIP3    H1 2401   8.187   5.942   2.977
  820TIP3    H2 2402   8.105   5.940   3.104
  821TIP3   OH2 2403   5.037   5.262   5.134
  821TIP3    H1 2404   4.950   5.301   5.140
  821TIP3    H2 2405   5.025   5.185   5.078
  822TIP3   OH2 2406   4.191   0.811   5.179
  822TIP3    H1 2407   4.159   0.892   5.140
  822TIP3    H2 2408   4.223   0.759   5.106
  823TIP3   OH2 2409   3.345   3.510   4.285
  823TIP3    H1 2410   3.310   3.565   4.214
  823TIP3    H2 2411   3.275   3.507   4.350
  824TIP3   OH2 2412   3.900   0.639   1.649
  824TIP3    H1 2413   3.952   0.572   1.692
  824TIP3    H2 2414   3.840   0.591   1.592
  825TIP3   OH2 2415   3.923   4.380   3.611
  825TIP3    H1 2416   3.864   4.415   3.544
  825TIP3    H2 2417   3.911   4.285   3.605
  826TIP3   OH2 2418   5.937   6.629   2.855
  826TIP3    H1 2419   5.952   6.641   2.761
  826TIP3    H2 2420   5.854   6.673   2.872
  827TIP3   OH2 2421   2.409   2.324   4.781
  827TIP3    H1 2422   2.491   2.341   4.827
  827TIP3    H2 2423   2.437   2.293   4.694
  828TIP3   OH2 2424   2.025   0.528   3.672
  828TIP3    H1 2425   2.068   0.443   3.668
  828TIP3    H2 2426   2.076   0.584   3.614
  829TIP3   OH2 2427   5.762   0.715   0.102
  829TIP3    H1 2428   5.833   0.767   0.141
  829TIP3    H2 2429   5.737   0.654   0.171
  830TIP3   OH2 2430   0.167   0.012   6.680
  830TIP3    H1 2431   0.163   0.048   6.591
  830TIP3    H2 2432   0.075  -0.003   6.703
  831TIP3   OH2 2433   1.238   3.447   6.782
  831TIP3    H1 2434   1.276   3.377   6.729
  831TIP3    H2 2435   1.293   3.449   6.861
  832TIP3   OH2 2436   2.799   2.697   1.233
  832TIP3    H1 2437   2.774   2.672   1.144
  832TIP3    H2 2438   2.723   2.743   1.267
  833TIP3   OH2 2439   4.774   2.789   6.647
  833TIP3    H1 2440   4.731   2.717   6.693
  833TIP3    H2 2441   4.750   2.777   6.555
  834TIP3   OH2 2442   1.261   7.802   1.033
  834TIP3    H1 2443   1.306   7.870   0.983
  834TIP3    H2 2444   1.267   7.832   1.124
  835TIP3   OH2 2445   5.561   4.562   4.011
  835TIP3    H1 2446   5.491   4.519   3.963
  835TIP3    H2 2447   5.547   4.656   3.995
  836TIP3   OH2 2448   6.130   4.584   1.897
  836TIP3    H1 2449   6.035   4.586   1.909
  836TIP3    H2 2450   6.155   4.494   1.917
  837TIP3   OH2 2451   6.418   6.742   0.201
  837TIP3    H1 2452   6.342   6.782   0.157
  837TIP3    H2 2453   6.381   6.667   0.248
  838TIP3   OH2 2454   4.162   6.458   0.933
  838TIP3    H1 2455   4.142   6.517   1.005
  838TIP3    H2 2456   4.255   6.472   0.915
  839TIP3   OH2 2457   7.369   2.859   3.853
  839TIP3    H1 2458   7.424   2.838   3.778
  839TIP3    H2 2459   7.287   2.890   3.815
  840TIP3   OH2 2460   4.290   1.121   0.166
  840TIP3    H1 2461   4.343   1.195   0.134
  840TIP3    H2 2462   4.354   1.060   0.202
  841TIP3   OH2 2463   4.226   4.415   3.395
  841TIP3    H1 2464   4.173   4.335   3.388
  841TIP3    H2 2465   4.201   4.468   3.320
  842TIP3   OH2 2466   3.741   6.992   5.490
  842TIP3    H1 2467   3.824   6.965   5.528
  842TIP3    H2 2468   3.679   6.993   5.563
  843TIP3   OH2 2469   2.348   4.490   3.108
  843TIP3    H1 2470   2.265   4.475   3.064
  843TIP3    H2 2471   2.330   4.473   3.201
  844TIP3   OH2 2472   7.041   3.267   0.428
  844TIP3    H1 2473   7.010   3.289   0.515
  844TIP3    H2 2474   6.965   3.275   0.371
  845TIP3   OH2 2475   0.554   5.668   0.951
  845TIP3    H1 2476   0.606   5.710   1.019
  845TIP3    H2 2477   0.611   5.667   0.874
  846TIP3   OH2 2478   0.421   7.726   5.559
  846TIP3    H1 2479   0.463   7.640   5.563
  846TIP3    H2 2480   0.340   7.711   5.511
  847TIP3   OH2 2481   1.853   3.327   4.320
  847TIP3    H1 2482   1.919   3.275   4.274
  847TIP3    H2 2483   1.892   3.414   4.330
  848TIP3   OH2 2484   1.790   0.219   5.872
  848TIP3    H1 2485   1.736   0.292   5.842
  848TIP3    H2 2486   1.740   0.141   5.848
  849TIP3   OH2 2487   7.111   2.745   4.418
  849TIP3    H1 2488   7.063   2.716   4.495
  849TIP3    H2 2489   7.141   2.664   4.376
  850TIP3   OH2 2490   7.430   2.135   6.262
  850TIP3    H1 2491   7.352   2.081   6.273
  850TIP3    H2 2492   7.501   2.084   6.299
  851TIP3   OH2 2493   8.193   6.277   4.786
  851TIP3    H1 2494   8.188   6.305   4.695
  851TIP3    H2 2495   8.140   6.197   4.789
  852TIP3   OH2 2496   5.450   7.827   1.815
  852TIP3    H1 2497   5.393   7.799   1.743
  852TIP3    H2 2498   5.536   7.793   1.792
  853TIP3   OH2 2499   6.156   0.897   1.127
  853TIP3    H1 2500   6.148   0.816   1.177
  853TIP3    H2 2501   6.182   0.962   1.192
  854TIP3   OH2 2502   4.078   5.007   0.304
  854TIP3    H1 2503   4.138   5.028   0.233
  854TIP3    H2 2504   3.992   5.036   0.272
  855TIP3   OH2 2505   5.364   5.716   5.810
  855TIP3    H1 2506   5.403   5.752   5.731
  855TIP3    H2 2507   5.282   5.677   5.780
  856TIP3   OH2 2508   4.641   1.312   1.820
  856TIP3    H1 2509   4.577   1.267   1.874
  856TIP3    H2 2510   4.703   1.243   1.794
  857TIP3   OH2 2511   8.254   2.606   5.084
  857TIP3    H1 2512   8.176   2.562   5.116
  857TIP3    H2 2513   8.256   2.585   4.990
  858TIP3   OH2 2514   7.247   2.933   2.945
  858TIP3    H1 2515   7.269   3.023   2.921
  858TIP3    H2 2516   7.175   2.910   2.885
  859TIP3   OH2 2517   1.267   3.862   3.067
  859TIP3    H1 2518   1.359   3.854   3.042
  859TIP3    H2 2519   1.270   3.904   3.153
  860TIP3   OH2 2520   0.666   5.657   5.988
  860TIP3    H1 2521   0.640   5.571   6.022
  860TIP3    H2 2522   0.586   5.690   5.946
  861TIP3   OH2 2523   7.476   3.273   5.287
  861TIP3    H1 2524   7.415   3.346   5.288
  861TIP3    H2 2525   7.423   3.198   5.315
  862TIP3   OH2 2526   5.738   2.724   2.265
  862TIP3    H1 2527   5.692   2.767   2.193
  862TIP3    H2 2528   5.824   2.766   2.267
  863TIP3   OH2 2529   6.030   6.292   6.099
  863TIP3    H1 2530   6.063   6.241   6.025
  863TIP3    H2 2531   5.935   6.297   6.084
  864TIP3   OH2 2532   7.344   7.809   5.218
  864TIP3    H1 2533   7.328   7.716   5.202
  864TIP3    H2 2534   7.271   7.855   5.178
  865TIP3   OH2 2535   4.028   0.990   4.564
  865TIP3    H1 2536   4.103   1.042   4.591
  865TIP3    H2 2537   3.976   0.979   4.644
  866TIP3   OH2 2538   3.515   1.739   0.089
  866TIP3    H1 2539   3.431   1.718   0.049
  866TIP3    H2 2540   3.569   1.662   0.076
  867TIP3   OH2 2541   0.927   4.023   0.131
  867TIP3    H1 2542   0.871   4.099   0.119
  867TIP3    H2 2543   0.957   4.028   0.221
  868TIP3   OH2 2544   3.443   4.446   5.794
  868TIP3    H1 2545   3.348   4.439   5.799
  868TIP3    H2 2546   3.458   4.508   5.722
  869TIP3   OH2 2547   2.024   7.588   1.698
  869TIP3    H1 2548   1.949   7.565   1.642
  869TIP3    H2 2549   1.999   7.556   1.785
  870TIP3   OH2 2550   7.418   6.737   0.157
  870TIP3    H1 2551   7.468   6.674   0.105
  870TIP3    H2 2552   7.480   6.808   0.174
  871TIP3   OH2 2553   3.729   4.083   2.098
  871TIP3    H1 2554   3.813   4.104   2.057
  871TIP3    H2 2555   3.677   4.045   2.027
  872TIP3   OH2 2556   1.595   0.915   2.886
  872TIP3    H1 2557   1.539   0.937   2.960
  872TIP3    H2 2558   1.566   0.828   2.859
  873TIP3   OH2 2559   3.439   0.461   5.818
  873TIP3    H1 2560   3.375   0.494   5.756
  873TIP3    H2 2561   3.509   0.424   5.763
  874TIP3   OH2 2562   2.861   6.688   1.592
  874TIP3    H1 2563   2.954   6.707   1.582
  874TIP3    H2 2564   2.856   6.593   1.593
  875TIP3   OH2 2565   3.164   2.590   0.708
  875TIP3    H1 2566   3.074   2.569   0.684
  875TIP3    H2 2567   3.192   2.655   0.644
  876TIP3   OH2 2568   4.393   7.235   3.551
  876TIP3    H1 2569   4.474   7.189   3.573
  876TIP3    H2 2570   4.354   7.256   3.636
  877TIP3   OH2 2571   1.092   5.245   6.119
  877TIP3    H1 2572   1.055   5.171   6.070
  877TIP3    H2 2573   1.021   5.309   6.123
  878TIP3   OH2 2574   7.312   7.095   5.366
  878TIP3    H1 2575   7.396   7.080   5.322
  878TIP3    H2 2576   7.326   7.176   5.416
  879TIP3   OH2 2577   7.448   6.662   2.276
  879TIP3    H1 2578   7.436   6.680   2.369
  879TIP3    H2 2579   7.361   6.635   2.245
  880TIP3   OH2 2580   1.063   3.498   6.464
  880TIP3    H1 2581   1.051   3.456   6.549
  880TIP3    H2 2582   1.016   3.580   6.470
  881TIP3   OH2 2583   4.656   5.593   3.248
  881TIP3    H1 2584   4.717   5.525   3.221
  881TIP3    H2 2585   4.711   5.661   3.288
  882TIP3   OH2 2586   2.588   4.177   1.312
  882TIP3    H1 2587   2.584   4.250   1.249
  882TIP3    H2 2588   2.504   4.133   1.303
  883TIP3   OH2 2589   4.242   3.117   1.423
  883TIP3    H1 2590   4.272   3.031   1.393
  883TIP3    H2 2591   4.148   3.106   1.438
  884TIP3   OH2 2592   2.256   4.803   0.978
  884TIP3    H1 2593   2.295   4.716   0.968
  884TIP3    H2 2594   2.187   4.807   0.912
  885TIP3   OH2 2595   2.591   7.654   5.996
  885TIP3    H1 2596   2.651   7.634   5.924
  885TIP3    H2 2597   2.633   7.617   6.073
  886TIP3   OH2 2598   6.526   3.817   1.594
  886TIP3    H1 2599   6.436   3.849   1.588
  886TIP3    H2 2600   6.555   3.842   1.682
  887TIP3   OH2 2601   3.124   3.691   5.315
  887TIP3    H1 2602   3.093   3.745   5.388
  887TIP3    H2 2603   3.056   3.700   5.248
  888TIP3   OH2 2604   2.514   1.851   1.222
  888TIP3    H1 2605   2.476   1.822   1.140
  888TIP3    H2 2606   2.562   1.931   1.200
  889TIP3   OH2 2607   0.027   5.316   4.970
  889TIP3    H1 2608   0.045   5.323   4.876
  889TIP3    H2 2609   0.100   5.264   5.004
  890TIP3   OH2 2610   6.156   6.139   4.828
  890TIP3    H1 2611   6.214   6.064   4.815
  890TIP3    H2 2612   6.213   6.207   4.864
  891TIP3   OH2 2613   3.383   4.028   5.766
  891TIP3    H1 2614   3.318   3.958   5.758
  891TIP3    H2 2615   3.458   3.986   5.809
  892TIP3   OH2 2616   5.606   2.501   6.567
  892TIP3    H1 2617   5.553   2.452   6.630
  892TIP3    H2 2618   5.596   2.454   6.485
  893TIP3   OH2 2619   8.097   7.630   0.516
  893TIP3    H1 2620   8.006   7.641   0.487
  893TIP3    H2 2621   8.109   7.698   0.582
  894TIP3   OH2 2622   6.430   2.698   3.414
  894TIP3    H1 2623   6.405   2.680   3.504
  894TIP3    H2 2624   6.380   2.777   3.391
  895TIP3   OH2 2625   7.897   6.065   5.327
  895TIP3    H1 2626   7.989   6.074   5.300
  895TIP3    H2 2627   7.854   6.021   5.254
  896TIP3   OH2 2628   8.119   1.011   1.440
  896TIP3    H1 2629   8.099   1.095   1.482
  896TIP3    H2 2630   8.084   0.945   1.500
  897TIP3   OH2 2631   1.913   1.937   4.263
  897TIP3    H1 2632   1.919   1.857   4.316
  897TIP3    H2 2633   1.831   1.929   4.215
  898TIP3   OH2 2634   6.092   2.483   4.838
  898TIP3    H1 2635   6.069   2.576   4.842
  898TIP3    H2 2636   6.131   2.464   4.924
  899TIP3   OH2 2637   2.643   4.286   2.371
  899TIP3    H1 2638   2.668   4.377   2.388
  899TIP3    H2 2639   2.703   4.234   2.423
  900TIP3   OH2 2640   4.605   7.791   4.298
  900TIP3    H1 2641   4.641   7.757   4.380
  900TIP3    H2 2642   4.599   7.714   4.241
  901TIP3   OH2 2643   1.436   4.906   4.710
  901TIP3    H1 2644   1.397   4.935   4.792
  901TIP3    H2 2645   1.364   4.867   4.662
  902TIP3   OH2 2646   5.523   0.410   4.437
  902TIP3    H1 2647   5.595   0.471   4.421
  902TIP3    H2 2648   5.494   0.383   4.350
  903TIP3   OH2 2649   2.909   0.171   6.070
  903TIP3    H1 2650   2.865   0.100   6.117
  903TIP3    H2 2651   2.970   0.208   6.134
  904TIP3   OH2 2652   0.977   2.823   2.562
  904TIP3    H1 2653   1.039   2.852   2.494
  904TIP3    H2 2654   0.969   2.898   2.621
  905TIP3   OH2 2655   0.066   0.171   2.380
  905TIP3    H1 2656   0.067   0.126   2.295
  905TIP3    H2 2657   0.157   0.197   2.395
  906TIP3   OH2 2658   3.922   0.174   6.711
  906TIP3    H1 2659   3.843   0.228   6.716
  906TIP3    H2 2660   3.961   0.182   6.799
  907TIP3   OH2 2661   2.413   0.828   1.821
  907TIP3    H1 2662   2.497   0.850   1.861
  907TIP3    H2 2663   2.348   0.842   1.891
  908TIP3   OH2 2664   7.177   6.652   1.521
  908TIP3    H1 2665   7.211   6.569   1.488
  908TIP3    H2 2666   7.084   6.651   1.498
  909TIP3   OH2 2667   4.796   0.598   1.604
  909TIP3    H1 2668   4.884   0.576   1.572
  909TIP3    H2 2669   4.811   0.634   1.691
  910TIP3   OH2 2670   5.201   6.701   6.035
  910TIP3    H1 2671   5.274   6.738   6.086
  910TIP3    H2 2672   5.137   6.674   6.101
  911TIP3   OH2 2673   4.746   3.813   4.768
  911TIP3    H1 2674   4.717   3.835   4.680
  911TIP3    H2 2675   4.778   3.723   4.761
  912TIP3   OH2 2676   6.028   6.043   5.962
  912TIP3    H1 2677   6.057   5.956   5.989
  912TIP3    H2 2678   6.015   6.036   5.868
  913TIP3   OH2 2679   0.999   4.842   3.200
  913TIP3    H1 2680   0.978   4.777   3.266
  913TIP3    H2 2681   0.924   4.902   3.199
  914TIP3   OH2 2682   6.673   0.242   5.967
  914TIP3    H1 2683   6.651   0.150   5.949
  914TIP3    H2 2684   6.598   0.275   6.016
  915TIP3   OH2 2685   7.750   4.527   5.933
  915TIP3    H1 2686   7.844   4.546   5.936
  915TIP3    H2 2687   7.709   4.599   5.980
  916TIP3   OH2 2688   7.654   3.559   4.332
  916TIP3    H1 2689   7.598   3.604   4.268
  916TIP3    H2 2690   7.685   3.481   4.287
  917TIP3   OH2 2691   1.434   6.834   2.598
  917TIP3    H1 2692   1.407   6.764   2.538
  917TIP3    H2 2693   1.353   6.865   2.637
  918TIP3   OH2 2694   3.966   7.287   2.820
  918TIP3    H1 2695   4.022   7.360   2.795
  918TIP3    H2 2696   3.877   7.321   2.815
  919TIP3   OH2 2697   1.982   7.721   3.129
  919TIP3    H1 2698   1.911   7.745   3.189
  919TIP3    H2 2699   2.060   7.762   3.168
  920TIP3   OH2 2700   3.837   7.550   5.750
  920TIP3    H1 2701   3.784   7.591   5.681
  920TIP3    H2 2702   3.780   7.483   5.787
  921TIP3   OH2 2703   5.510   7.807   0.872
  921TIP3    H1 2704   5.428   7.832   0.914
  921TIP3    H2 2705   5.489   7.726   0.826
  922TIP3   OH2 2706   3.563   6.730   0.365
  922TIP3    H1 2707   3.515   6.755   0.444
  922TIP3    H2 2708   3.654   6.751   0.385
  923TIP3   OH2 2709   6.524   4.919   6.460
  923TIP3    H1 2710   6.584   4.878   6.523
  923TIP3    H2 2711   6.582   4.964   6.398
  924TIP3   OH2 2712   2.669   6.075   2.822
  924TIP3    H1 2713   2.763   6.091   2.819
  924TIP3    H2 2714   2.635   6.116   2.743
  925TIP3   OH2 2715   1.511   6.563   4.627
  925TIP3    H1 2716   1.507   6.468   4.639
  925TIP3    H2 2717   1.553   6.595   4.707
  926TIP3   OH2 2718   7.516   4.933   2.178
  926TIP3    H1 2719   7.495   4.946   2.086
  926TIP3    H2 2720   7.612   4.940   2.183
  927TIP3   OH2 2721   6.598   4.301   4.703
  927TIP3    H1 2722   6.683   4.337   4.730
  927TIP3    H2 2723   6.581   4.341   4.618
  928TIP3   OH2 2724   1.707   4.837   0.641
  928TIP3    H1 2725   1.675   4.754   0.607
  928TIP3    H2 2726   1.635   4.899   0.625
  929TIP3   OH2 2727   2.029   5.349   6.174
  929TIP3    H1 2728   2.005   5.311   6.090
  929TIP3    H2 2729   2.050   5.275   6.230
  930TIP3   OH2 2730   5.888   4.194   2.851
  930TIP3    H1 2731   5.942   4.170   2.776
  930TIP3    H2 2732   5.802   4.155   2.832
  931TIP3   OH2 2733   6.847   7.737   3.466
  931TIP3    H1 2734   6.924   7.758   3.414
  931TIP3    H2 2735   6.841   7.808   3.530
  932TIP3   OH2 2736   2.813   5.976   1.284
  932TIP3    H1 2737   2.763   5.909   1.331
  932TIP3    H2 2738   2.892   5.931   1.255
  933TIP3   OH2 2739   6.038   1.177   3.868
  933TIP3    H1 2740   6.023   1.143   3.779
  933TIP3    H2 2741   6.105   1.120   3.904
  934TIP3   OH2 2742   8.126   5.263   2.840
  934TIP3    H1 2743   8.160   5.259   2.750
  934TIP3    H2 2744   8.031   5.253   2.829
  935TIP3   OH2 2745   6.199   0.139   0.535
  935TIP3    H1 2746   6.238   0.208   0.481
  935TIP3    H2 2747   6.131   0.101   0.479
  936TIP3   OH2 2748   3.418   3.954   2.970
  936TIP3    H1 2749   3.457   3.875   3.006
  936TIP3    H2 2750   3.376   3.997   3.045
  937TIP3   OH2 2751   7.570   7.370   6.344
  937TIP3    H1 2752   7.550   7.276   6.347
  937TIP3    H2 2753   7.519   7.408   6.415
  938TIP3   OH2 2754   0.720   1.892   2.638
  938TIP3    H1 2755   0.711   1.817   2.697
  938TIP3    H2 2756   0.631   1.926   2.628
  939TIP3   OH2 2757   2.364   6.249   0.617
  939TIP3    H1 2758   2.382   6.267   0.709
  939TIP3    H2 2759   2.390   6.158   0.605
  940TIP3   OH2 2760   7.466   5.222   0.334
  940TIP3    H1 2761   7.412   5.166   0.390
  940TIP3    H2 2762   7.406   5.289   0.303
  941TIP3   OH2 2763   5.822   3.114   4.124
  941TIP3    H1 2764   5.800   3.125   4.217
  941TIP3    H2 2765   5.917   3.123   4.121
  942TIP3   OH2 2766   2.444   1.311   4.961
  942TIP3    H1 2767   2.408   1.396   4.938
  942TIP3    H2 2768   2.376   1.248   4.934
  943TIP3   OH2 2769   0.569   7.287   4.722
  943TIP3    H1 2770   0.579   7.305   4.628
  943TIP3    H2 2771   0.597   7.196   4.732
  944TIP3   OH2 2772   6.773   7.861   3.024
  944TIP3    H1 2773   6.696   7.889   3.073
  944TIP3    H2 2774   6.847   7.902   3.070
  945TIP3   OH2 2775   8.249   4.099   6.789
  945TIP3    H1 2776   8.267   4.039   6.860
  945TIP3    H2 2777   8.197   4.048   6.726
  946TIP3   OH2 2778   8.420   3.384   2.546
  946TIP3    H1 2779   8.374   3.332   2.479
  946TIP3    H2 2780   8.352   3.404   2.611
  947TIP3   OH2 2781   7.648   4.310   5.738
  947TIP3    H1 2782   7.568   4.296   5.789
  947TIP3    H2 2783   7.696   4.378   5.786
  948TIP3   OH2 2784   4.676   3.901   6.002
  948TIP3    H1 2785   4.622   3.914   5.924
  948TIP3    H2 2786   4.677   3.986   6.046
  949TIP3   OH2 2787   2.288   4.935   3.117
  949TIP3    H1 2788   2.270   5.029   3.118
  949TIP3    H2 2789   2.259   4.905   3.031
  950TIP3   OH2 2790   6.242   0.768   5.653
  950TIP3    H1 2791   6.241   0.756   5.748
  950TIP3    H2 2792   6.150   0.762   5.627
  951TIP3   OH2 2793   1.014   6.570   5.898
  951TIP3    H1 2794   1.080   6.520   5.946
  951TIP3    H2 2795   0.937   6.567   5.955
  952TIP3   OH2 2796   8.175   6.592   2.588
  952TIP3    H1 2797   8.227   6.551   2.518
  952TIP3    H2 2798   8.225   6.577   2.667
  953TIP3   OH2 2799   3.606   4.193   6.083
  953TIP3    H1 2800   3.609   4.264   6.147
  953TIP3    H2 2801   3.589   4.236   5.999
  954TIP3   OH2 2802   5.357   2.691   1.420
  954TIP3    H1 2803   5.389   2.778   1.444
  954TIP3    H2 2804   5.436   2.641   1.399
  955TIP3   OH2 2805   3.955   3.278   4.038
  955TIP3    H1 2806   4.038   3.324   4.053
  955TIP3    H2 2807   3.889   3.334   4.076
  956TIP3   OH2 2808   3.121   2.036   6.723
  956TIP3    H1 2809   3.162   2.022   6.638
  956TIP3    H2 2810   3.070   2.116   6.713
  957TIP3   OH2 2811   2.293   7.876   3.764
  957TIP3    H1 2812   2.214   7.909   3.721
  957TIP3    H2 2813   2.343   7.954   3.788
  958TIP3   OH2 2814   0.432   3.334   4.134
  958TIP3    H1 2815   0.389   3.316   4.050
  958TIP3    H2 2816   0.404   3.263   4.191
  959TIP3   OH2 2817   6.770   4.230   3.740
  959TIP3    H1 2818   6.813   4.286   3.675
  959TIP3    H2 2819   6.819   4.148   3.737
  960TIP3   OH2 2820   8.129   7.401   1.067
  960TIP3    H1 2821   8.212   7.437   1.097
  960TIP3    H2 2822   8.079   7.386   1.147
  961TIP3   OH2 2823   6.341   2.775   0.493
  961TIP3    H1 2824   6.286   2.852   0.508
  961TIP3    H2 2825   6.280   2.706   0.469
  962TIP3   OH2 2826   1.194   0.294   4.427
  962TIP3    H1 2827   1.238   0.379   4.426
  962TIP3    H2 2828   1.232   0.249   4.503
  963TIP3   OH2 2829   5.237   6.595   0.205
  963TIP3    H1 2830   5.220   6.676   0.252
  963TIP3    H2 2831   5.324   6.568   0.234
  964TIP3   OH2 2832   2.998   3.595   0.613
  964TIP3    H1 2833   3.009   3.668   0.674
  964TIP3    H2 2834   2.928   3.623   0.554
  965TIP3   OH2 2835   1.436   5.764   5.548
  965TIP3    H1 2836   1.439   5.689   5.608
  965TIP3    H2 2837   1.358   5.812   5.574
  966TIP3   OH2 2838   7.926   5.475   1.518
  966TIP3    H1 2839   7.944   5.381   1.520
  966TIP3    H2 2840   7.899   5.492   1.427
  967TIP3   OH2 2841   1.798   0.959   2.659
  967TIP3    H1 2842   1.789   1.001   2.745
  967TIP3    H2 2843   1.833   1.027   2.602
  968TIP3   OH2 2844   2.195   2.780   5.433
  968TIP3    H1 2845   2.147   2.735   5.364
  968TIP3    H2 2846   2.199   2.871   5.404
  969TIP3   OH2 2847   4.444   3.127   5.220
  969TIP3    H1 2848   4.483   3.065   5.282
  969TIP3    H2 2849   4.487   3.108   5.137
  970TIP3   OH2 2850   7.539   7.750   2.950
  970TIP3    H1 2851   7.557   7.799   2.869
  970TIP3    H2 2852   7.531   7.818   3.017
  971TIP3   OH2 2853   4.518   4.304   2.136
  971TIP3    H1 2854   4.531   4.234   2.200
  971TIP3    H2 2855   4.444   4.275   2.083
  972TIP3   OH2 2856   7.821   3.861   3.186
  972TIP3    H1 2857   7.737   3.889   3.149
  972TIP3    H2 2858   7.799   3.821   3.270
  973TIP3   OH2 2859   4.719   6.311   4.263
  973TIP3    H1 2860   4.626   6.312   4.287
  973TIP3    H2 2861   4.751   6.227   4.297
  974TIP3   OH2 2862   2.715   5.013   0.059
  974TIP3    H1 2863   2.710   4.932   0.110
  974TIP3    H2 2864   2.672   4.991  -0.024
  975TIP3   OH2 2865   2.855   6.392   4.841
  975TIP3    H1 2866   2.838   6.304   4.877
  975TIP3    H2 2867   2.819   6.452   4.906
  976TIP3   OH2 2868   2.375   0.977   3.250
  976TIP3    H1 2869   2.339   0.994   3.163
  976TIP3    H2 2870   2.354   1.056   3.300
  977TIP3   OH2 2871   3.777   2.285   3.059
  977TIP3    H1 2872   3.872   2.281   3.050
  977TIP3    H2 2873   3.762   2.289   3.153
  978TIP3   OH2 2874   5.610   3.791   5.289
  978TIP3    H1 2875   5.570   3.717   5.245
  978TIP3    H2 2876   5.684   3.815   5.234
  979TIP3   OH2 2877   0.557   1.090   6.800
  979TIP3    H1 2878   0.507   1.150   6.855
  979TIP3    H2 2879   0.569   1.012   6.854
  980TIP3   OH2 2880   0.675   2.937   1.082
  980TIP3    H1 2881   0.687   3.025   1.048
  980TIP3    H2 2882   0.713   2.939   1.169
  981TIP3   OH2 2883   6.124   4.248   4.883
  981TIP3    H1 2884   6.219   4.240   4.875
  981TIP3    H2 2885   6.111   4.315   4.950
  982TIP3   OH2 2886   1.900   4.487   5.638
  982TIP3    H1 2887   1.858   4.539   5.706
  982TIP3    H2 2888   1.987   4.525   5.629
  983TIP3   OH2 2889   3.433   2.183   3.091
  983TIP3    H1 2890   3.503   2.145   3.145
  983TIP3    H2 2891   3.426   2.123   3.017
  984TIP3   OH2 2892   1.887   2.362   5.883
  984TIP3    H1 2893   1.923   2.449   5.868
  984TIP3    H2 2894   1.793   2.372   5.870
  985TIP3   OH2 2895   5.438   1.106   6.422
  985TIP3    H1 2896   5.420   1.200   6.415
  985TIP3    H2 2897   5.370   1.072   6.480
  986TIP3   OH2 2898   3.242   3.589   6.129
  986TIP3    H1 2899   3.278   3.501   6.138
  986TIP3    H2 2900   3.155   3.583   6.169
  987TIP3   OH2 2901   0.540   6.364   0.596
  987TIP3    H1 2902   0.525   6.381   0.689
  987TIP3    H2 2903   0.635   6.371   0.585
  988TIP3   OH2 2904   7.343   6.516   6.079
  988TIP3    H1 2905   7.358   6.575   6.153
  988TIP3    H2 2906   7.373   6.431   6.110
  989TIP3   OH2 2907   5.126   5.526   3.658
  989TIP3    H1 2908   5.058   5.488   3.604
  989TIP3    H2 2909   5.143   5.460   3.725
  990TIP3   OH2 2910   5.710   5.929   0.564
  990TIP3    H1 2911   5.665   5.931   0.479
  990TIP3    H2 2912   5.728   5.836   0.579
  991TIP3   OH2 2913   3.898   4.907   4.649
  991TIP3    H1 2914   3.833   4.964   4.608
  991TIP3    H2 2915   3.940   4.962   4.715
  992TIP3   OH2 2916   6.220   4.349   0.074
  992TIP3    H1 2917   6.164   4.425   0.080
  992TIP3    H2 2918   6.197   4.308  -0.009
  993TIP3   OH2 2919   4.080   2.488   0.400
  993TIP3    H1 2920   4.153   2.478   0.461
  993TIP3    H2 2921   4.113   2.452   0.317
  994TIP3   OH2 2922   1.421   7.777   3.934
  994TIP3    H1 2923   1.371   7.853   3.905
  994TIP3    H2 2924   1.490   7.813   3.989
  995TIP3   OH2 2925   5.751   3.318   2.109
  995TIP3    H1 2926   5.705   3.397   2.080
  995TIP3    H2 2927   5.774   3.336   2.201
  996TIP3   OH2 2928   7.221   0.840   4.877
  996TIP3    H1 2929   7.192   0.749   4.869
  996TIP3    H2 2930   7.168   0.888   4.814
  997TIP3   OH2 2931   2.461   5.854   0.199
  997TIP3    H1 2932   2.393   5.910   0.236
  997TIP3    H2 2933   2.524   5.914   0.161
  998TIP3   OH2 2934   5.707   3.981   4.703
  998TIP3    H1 2935   5.741   3.898   4.736
  998TIP3    H2 2936   5.783   4.039   4.702
  999TIP3   OH2 2937   5.271   0.650   0.098
  999TIP3    H1 2938   5.318   0.635   0.181
  999TIP3    H2 2939   5.267   0.564   0.057
 1000TIP3   OH2 2940   7.879   4.006   4.976
 1000TIP3    H1 2941   7.841   4.053   5.050
 1000TIP3    H2 2942   7.886   4.072   4.907
 1001TIP3   OH2 2943   3.983   3.227   4.382
 1001TIP3    H1 2944   3.978   3.270   4.296
 1001TIP3    H2 2945   4.018   3.295   4.441
 1002TIP3   OH2 2946   4.723   1.824   5.853
 1002TIP3    H1 2947   4.740   1.730   5.844
 1002TIP3    H2 2948   4.807   1.866   5.832
 1003TIP3   OH2 2949   5.079   3.454   2.891
 1003TIP3    H1 2950   5.131   3.427   2.966
 1003TIP3    H2 2951   5.141   3.453   2.817
 1004TIP3   OH2 2952   1.265   7.317   4.320
 1004TIP3    H1 2953   1.298   7.388   4.265
 1004TIP3    H2 2954   1.327   7.245   4.305
 1005TIP3   OH2 2955   7.518   5.875   3.556
 1005TIP3    H1 2956   7.451   5.890   3.623
 1005TIP3    H2 2957   7.541   5.783   3.564
 1006TIP3   OH2 2958   8.035   0.876   0.806
 1006TIP3    H1 2959   7.959   0.922   0.842
 1006TIP3    H2 2960   8.026   0.884   0.711
 1007TIP3   OH2 2961   5.934   3.054   2.168
 1007TIP3    H1 2962   5.887   3.012   2.095
 1007TIP3    H2 2963   5.885   3.135   2.184
 1008TIP3   OH2 2964   3.886   0.839   6.188
 1008TIP3    H1 2965   3.880   0.924   6.232
 1008TIP3    H2 2966   3.806   0.834   6.135
 1009TIP3   OH2 2967   4.631   4.731   5.105
 1009TIP3    H1 2968   4.662   4.679   5.031
 1009TIP3    H2 2969   4.710   4.763   5.147
 1010TIP3   OH2 2970   1.189   1.235   0.165
 1010TIP3    H1 2971   1.176   1.175   0.239
 1010TIP3    H2 2972   1.106   1.281   0.156
 1011TIP3   OH2 2973   4.844   3.841   1.596
 1011TIP3    H1 2974   4.794   3.776   1.646
 1011TIP3    H2 2975   4.814   3.925   1.628
 1012TIP3   OH2 2976   5.530   7.484   5.638
 1012TIP3    H1 2977   5.448   7.436   5.631
 1012TIP3    H2 2978   5.532   7.540   5.561
 1013TIP3   OH2 2979   4.481   1.403   1.617
 1013TIP3    H1 2980   4.536   1.376   1.690
 1013TIP3    H2 2981   4.540   1.398   1.541
 1014TIP3   OH2 2982   3.036   7.868   5.345
 1014TIP3    H1 2983   3.095   7.910   5.283
 1014TIP3    H2 2984   2.986   7.941   5.383
 1015TIP3   OH2 2985   2.309   6.332   5.651
 1015TIP3    H1 2986   2.299   6.270   5.723
 1015TIP3    H2 2987   2.294   6.279   5.572
 1016TIP3   OH2 2988   2.646   4.851   3.699
 1016TIP3    H1 2989   2.669   4.844   3.607
 1016TIP3    H2 2990   2.721   4.812   3.745
 1017TIP3   OH2 2991   7.192   0.159   4.534
 1017TIP3    H1 2992   7.228   0.175   4.447
 1017TIP3    H2 2993   7.187   0.246   4.574
 1018TIP3   OH2 2994   0.959   7.146   5.382
 1018TIP3    H1 2995   0.961   7.053   5.360
 1018TIP3    H2 2996   1.045   7.164   5.419
 1019TIP3   OH2 2997   8.069   4.464   2.273
 1019TIP3    H1 2998   8.006   4.535   2.264
 1019TIP3    H2 2999   8.048   4.425   2.358
 1020TIP3   OH2 3000   7.244   7.036   4.176
 1020TIP3    H1 3001   7.294   6.997   4.105
 1020TIP3    H2 3002   7.190   7.103   4.134
 1021TIP3   OH2 3003   4.591   6.847   5.037
 1021TIP3    H1 3004   4.667   6.900   5.015
 1021TIP3    H2 3005   4.627   6.760   5.054
 1022TIP3   OH2 3006   5.665   1.199   1.277
 1022TIP3    H1 3007   5.618   1.118   1.295
 1022TIP3    H2 3008   5.688   1.193   1.184
 1023TIP3   OH2 3009   5.663   3.710   3.065
 1023TIP3    H1 3010   5.747   3.749   3.088
 1023TIP3    H2 3011   5.637   3.756   2.985
 1024TIP3   OH2 3012   2.849   4.682   5.582
 1024TIP3    H1 3013   2.883   4.741   5.515
 1024TIP3    H2 3014   2.923   4.626   5.605
 1025TIP3   OH2 3015   6.859   3.016   3.036
 1025TIP3    H1 3016   6.906   3.096   3.013
 1025TIP3    H2 3017   6.915   2.973   3.101
 1026TIP3   OH2 3018   5.226   7.764   0.133
 1026TIP3    H1 3019   5.169   7.712   0.189
 1026TIP3    H2 3020   5.314   7.730   0.150
 1027TIP3   OH2 3021   3.755   2.089   0.860
 1027TIP3    H1 3022   3.830   2.035   0.887
 1027TIP3    H2 3023   3.743   2.070   0.768
 1028TIP3   OH2 3024   1.610   5.790   3.945
 1028TIP3    H1 3025   1.600   5.724   4.013
 1028TIP3    H2 3026   1.521   5.808   3.916
 1029TIP3   OH2 3027   2.782   1.206   0.424
 1029TIP3    H1 3028   2.788   1.264   0.499
 1029TIP3    H2 3029   2.849   1.237   0.363
 1030TIP3   OH2 3030   0.709   4.552   3.836
 1030TIP3    H1 3031   0.680   4.544   3.927
 1030TIP3    H2 3032   0.628   4.546   3.785
 1031TIP3   OH2 3033   7.481   0.021   3.362
 1031TIP3    H1 3034   7.396   0.021   3.319
 1031TIP3    H2 3035   7.528   0.094   3.322
 1032TIP3   OH2 3036   2.301   4.610   6.213
 1032TIP3    H1 3037   2.334   4.685   6.262
 1032TIP3    H2 3038   2.209   4.602   6.240
 1033TIP3   OH2 3039   1.384   2.176   0.394
 1033TIP3    H1 3040   1.300   2.136   0.369
 1033TIP3    H2 3041   1.450   2.116   0.361
 1034TIP3   OH2 3042   4.664   5.111   6.631
 1034TIP3    H1 3043   4.620   5.089   6.714
 1034TIP3    H2 3044   4.686   5.026   6.593
 1035TIP3   OH2 3045   1.094   1.276   0.518
 1035TIP3    H1 3046   1.012   1.227   0.524
 1035TIP3    H2 3047   1.162   1.212   0.539
 1036TIP3   OH2 3048   7.033   0.545   5.591
 1036TIP3    H1 3049   7.112   0.551   5.645
 1036TIP3    H2 3050   7.055   0.483   5.522
 1037TIP3   OH2 3051   0.383   0.625   2.706
 1037TIP3    H1 3052   0.346   0.711   2.687
 1037TIP3    H2 3053   0.331   0.592   2.779
 1038TIP3   OH2 3054   3.380   7.385   2.364
 1038TIP3    H1 3055   3.378   7.480   2.351
 1038TIP3    H2 3056   3.290   7.357   2.348
 1039TIP3   OH2 3057   7.555   1.387   0.014
 1039TIP3    H1 3058   7.539   1.294  -0.003
 1039TIP3    H2 3059   7.631   1.408  -0.040
 1040TIP3   OH2 3060   4.609   6.504   2.290
 1040TIP3    H1 3061   4.652   6.580   2.250
 1040TIP3    H2 3062   4.534   6.540   2.336
 1041TIP3   OH2 3063   0.216   6.191   0.823
 1041TIP3    H1 3064   0.159   6.117   0.798
 1041TIP3    H2 3065   0.280   6.152   0.883
 1042TIP3   OH2 3066   3.298   5.178   2.410
 1042TIP3    H1 3067   3.298   5.101   2.467
 1042TIP3    H2 3068   3.382   5.174   2.365
 1043TIP3   OH2 3069   3.688   3.810   1.227
 1043TIP3    H1 3070   3.743   3.858   1.288
 1043TIP3    H2 3071   3.633   3.877   1.186
 1044TIP3   OH2 3072   0.737   0.389   6.593
 1044TIP3    H1 3073   0.819   0.396   6.544
 1044TIP3    H2 3074   0.750   0.314   6.651
 1045TIP3   OH2 3075   4.483   1.902   4.513
 1045TIP3    H1 3076   4.493   1.832   4.448
 1045TIP3    H2 3077   4.567   1.904   4.559
 1046TIP3   OH2 3078   6.009   0.203   6.186
 1046TIP3    H1 3079   5.976   0.135   6.128
 1046TIP3    H2 3080   6.076   0.248   6.135
 1047TIP3   OH2 3081   2.523   0.330   1.753
 1047TIP3    H1 3082   2.489   0.305   1.667
 1047TIP3    H2 3083   2.522   0.248   1.804
 1048TIP3   OH2 3084   3.182   5.736   3.805
 1048TIP3    H1 3085   3.094   5.772   3.809
 1048TIP3    H2 3086   3.231   5.785   3.871
 1049TIP3   OH2 3087   5.568   5.270   2.058
 1049TIP3    H1 3088   5.487   5.303   2.098
 1049TIP3    H2 3089   5.608   5.216   2.126
 1050TIP3   OH2 3090   8.141   4.948   5.500
 1050TIP3    H1 3091   8.147   4.933   5.406
 1050TIP3    H2 3092   8.102   5.035   5.508
 1051TIP3   OH2 3093   4.903   1.787   6.886
 1051TIP3    H1 3094   4.911   1.835   6.803
 1051TIP3    H2 3095   4.986   1.741   6.895
 1052TIP3   OH2 3096   2.870   6.196   2.462
 1052TIP3    H1 3097   2.821   6.237   2.390
 1052TIP3    H2 3098   2.928   6.134   2.418
 1053TIP3   OH2 3099   2.177   6.499   0.674
 1053TIP3    H1 3100   2.210   6.551   0.747
 1053TIP3    H2 3101   2.221   6.414   0.683
 1054TIP3   OH2 3102   6.518   3.977   2.390
 1054TIP3    H1 3103   6.564   3.895   2.368
 1054TIP3    H2 3104   6.434   3.948   2.425
 1055TIP3   OH2 3105   1.008   1.913   1.704
 1055TIP3    H1 3106   1.009   1.940   1.795
 1055TIP3    H2 3107   1.008   1.817   1.707
 1056TIP3   OH2 3108   7.874   2.621   1.839
 1056TIP3    H1 3109   7.794   2.634   1.789
 1056TIP3    H2 3110   7.932   2.573   1.780
 1057TIP3   OH2 3111   7.168   1.372   3.389
 1057TIP3    H1 3112   7.134   1.309   3.326
 1057TIP3    H2 3113   7.263   1.355   3.391
 1058TIP3   OH2 3114   3.349   3.118   1.139
 1058TIP3    H1 3115   3.301   3.068   1.072
 1058TIP3    H2 3116   3.435   3.134   1.100
 1059TIP3   OH2 3117   6.794   3.466   1.791
 1059TIP3    H1 3118   6.778   3.537   1.853
 1059TIP3    H2 3119   6.744   3.491   1.713
 1060TIP3   OH2 3120   7.581   0.964   0.169
 1060TIP3    H1 3121   7.530   1.015   0.106
 1060TIP3    H2 3122   7.562   1.004   0.254
 1061TIP3   OH2 3123   0.388   4.098   0.462
 1061TIP3    H1 3124   0.397   4.161   0.533
 1061TIP3    H2 3125   0.437   4.136   0.389
 1062TIP3   OH2 3126   7.941   3.517   6.221
 1062TIP3    H1 3127   7.847   3.501   6.231
 1062TIP3    H2 3128   7.946   3.604   6.181
 1063TIP3   OH2 3129   1.230   0.766   6.443
 1063TIP3    H1 3130   1.260   0.853   6.469
 1063TIP3    H2 3131   1.234   0.714   6.523
 1064TIP3   OH2 3132   7.227   0.065   2.300
 1064TIP3    H1 3133   7.218   0.060   2.396
 1064TIP3    H2 3134   7.279  -0.012   2.278
 1065TIP3   OH2 3135   6.697   0.398   5.750
 1065TIP3    H1 3136   6.613   0.370   5.715
 1065TIP3    H2 3137   6.706   0.351   5.833
 1066TIP3   OH2 3138   2.622   0.459   3.328
 1066TIP3    H1 3139   2.596   0.551   3.336
 1066TIP3    H2 3140   2.668   0.439   3.410
 1067TIP3   OH2 3141   7.282   2.534   0.713
 1067TIP3    H1 3142   7.299   2.447   0.750
 1067TIP3    H2 3143   7.190   2.532   0.687
 1068TIP3   OH2 3144   2.136   1.160   6.581
 1068TIP3    H1 3145   2.061   1.100   6.578
 1068TIP3    H2 3146   2.145   1.184   6.673
 1069TIP3   OH2 3147   3.534   3.589   5.000
 1069TIP3    H1 3148   3.461   3.644   4.970
 1069TIP3    H2 3149   3.500   3.545   5.078
 1070TIP3   OH2 3150   6.276   4.495   6.388
 1070TIP3    H1 3151   6.259   4.478   6.480
 1070TIP3    H2 3152   6.249   4.586   6.375
 1071TIP3   OH2 3153   5.697   3.026   2.377
 1071TIP3    H1 3154   5.651   2.978   2.445
 1071TIP3    H2 3155   5.644   3.014   2.299
 1072TIP3   OH2 3156   2.650   1.402   4.028
 1072TIP3    H1 3157   2.687   1.456   4.098
 1072TIP3    H2 3158   2.560   1.433   4.020
 1073TIP3   OH2 3159   1.520   2.257   5.237
 1073TIP3    H1 3160   1.589   2.234   5.299
 1073TIP3    H2 3161   1.567   2.271   5.154
 1074TIP3   OH2 3162   7.596   0.875   6.691
 1074TIP3    H1 3163   7.629   0.890   6.602
 1074TIP3    H2 3164   7.509   0.837   6.677
 1075TIP3   OH2 3165   0.031   1.658   2.439
 1075TIP3    H1 3166   0.077   1.620   2.514
 1075TIP3    H2 3167   0.046   1.752   2.447
 1076TIP3   OH2 3168   1.929   2.789   2.966
 1076TIP3    H1 3169   1.901   2.697   2.973
 1076TIP3    H2 3170   1.849   2.839   2.981
 1077TIP3   OH2 3171   5.140   0.066   1.620
 1077TIP3    H1 3172   5.210   0.007   1.591
 1077TIP3    H2 3173   5.176   0.109   1.698
 1078TIP3   OH2 3174   5.431   4.448   2.047
 1078TIP3    H1 3175   5.408   4.436   2.139
 1078TIP3    H2 3176   5.498   4.517   2.048
 1079TIP3   OH2 3177   0.478   6.443   4.939
 1079TIP3    H1 3178   0.468   6.351   4.914
 1079TIP3    H2 3179   0.562   6.447   4.984
 1080TIP3   OH2 3180   3.472   7.058   6.510
 1080TIP3    H1 3181   3.383   7.092   6.526
 1080TIP3    H2 3182   3.513   7.057   6.597
 1081TIP3   OH2 3183   6.325   5.962   6.009
 1081TIP3    H1 3184   6.243   6.002   5.983
 1081TIP3    H2 3185   6.393   6.021   5.976
 1082TIP3   OH2 3186   5.326   6.524   0.878
 1082TIP3    H1 3187   5.413   6.485   0.883
 1082TIP3    H2 3188   5.267   6.449   0.874
 1083TIP3   OH2 3189   3.310   7.805   1.327
 1083TIP3    H1 3190   3.299   7.747   1.251
 1083TIP3    H2 3191   3.282   7.751   1.401
 1084TIP3   OH2 3192   3.624   2.847   4.460
 1084TIP3    H1 3193   3.636   2.809   4.373
 1084TIP3    H2 3194   3.554   2.911   4.449
 1085TIP3   OH2 3195   3.769   1.207   4.550
 1085TIP3    H1 3196   3.708   1.216   4.623
 1085TIP3    H2 3197   3.836   1.273   4.566
 1086TIP3   OH2 3198   5.940   3.179   3.121
 1086TIP3    H1 3199   5.974   3.097   3.158
 1086TIP3    H2 3200   6.000   3.246   3.154
 1087TIP3   OH2 3201   0.061   5.759   3.831
 1087TIP3    H1 3202  -0.022   5.795   3.799
 1087TIP3    H2 3203   0.087   5.818   3.901
 1088TIP3   OH2 3204   8.432   0.407   6.760
 1088TIP3    H1 3205   8.356   0.367   6.718
 1088TIP3    H2 3206   8.454   0.481   6.704
 1089TIP3   OH2 3207   0.298   5.664   4.192
 1089TIP3    H1 3208   0.248   5.585   4.214
 1089TIP3    H2 3209   0.379   5.656   4.243
 1090TIP3   OH2 3210   5.608   5.989   5.313
 1090TIP3    H1 3211   5.590   6.046   5.238
 1090TIP3    H2 3212   5.544   6.015   5.378
 1091TIP3   OH2 3213   0.935   5.072   5.971
 1091TIP3    H1 3214   0.868   5.009   5.944
 1091TIP3    H2 3215   0.893   5.157   5.961
 1092TIP3   OH2 3216   1.438   2.962   1.229
 1092TIP3    H1 3217   1.460   2.873   1.258
 1092TIP3    H2 3218   1.418   3.010   1.309
 1093TIP3   OH2 3219   6.075   0.837   2.085
 1093TIP3    H1 3220   6.046   0.780   2.014
 1093TIP3    H2 3221   6.142   0.786   2.131
 1094TIP3   OH2 3222   4.425   0.138   5.265
 1094TIP3    H1 3223   4.362   0.157   5.334
 1094TIP3    H2 3224   4.506   0.116   5.311
 1095TIP3   OH2 3225   6.654   6.828   3.867
 1095TIP3    H1 3226   6.603   6.767   3.813
 1095TIP3    H2 3227   6.700   6.772   3.929
 1096TIP3   OH2 3228   6.685   1.865   4.685
 1096TIP3    H1 3229   6.605   1.816   4.706
 1096TIP3    H2 3230   6.711   1.904   4.769
 1097TIP3   OH2 3231   1.343   3.917   0.519
 1097TIP3    H1 3232   1.389   3.991   0.560
 1097TIP3    H2 3233   1.302   3.871   0.592
 1098TIP3   OH2 3234   8.265   1.963   0.462
 1098TIP3    H1 3235   8.329   1.983   0.530
 1098TIP3    H2 3236   8.278   1.870   0.444
 1099TIP3   OH2 3237   0.427   3.837   4.111
 1099TIP3    H1 3238   0.355   3.878   4.159
 1099TIP3    H2 3239   0.421   3.875   4.023
 1100TIP3   OH2 3240   1.886   4.015   2.341
 1100TIP3    H1 3241   1.967   4.007   2.291
 1100TIP3    H2 3242   1.889   3.943   2.404
 1101TIP3   OH2 3243   2.339   1.553   6.289
 1101TIP3    H1 3244   2.261   1.506   6.318
 1101TIP3    H2 3245   2.316   1.645   6.297
 1102TIP3   OH2 3246   0.411   6.509   4.553
 1102TIP3    H1 3247   0.493   6.476   4.589
 1102TIP3    H2 3248   0.343   6.475   4.611
 1103TIP3   OH2 3249   1.832   1.320   4.854
 1103TIP3    H1 3250   1.795   1.386   4.797
 1103TIP3    H2 3251   1.828   1.358   4.942
 1104TIP3   OH2 3252   3.468   4.073   0.364
 1104TIP3    H1 3253   3.554   4.036   0.382
 1104TIP3    H2 3254   3.412   3.997   0.350
 1105TIP3   OH2 3255   7.070   2.905   5.756
 1105TIP3    H1 3256   7.120   2.887   5.676
 1105TIP3    H2 3257   7.073   2.823   5.804
 1106TIP3   OH2 3258   3.348   3.789   4.901
 1106TIP3    H1 3259   3.324   3.769   4.811
 1106TIP3    H2 3260   3.386   3.877   4.897
 1107TIP3   OH2 3261   4.786   6.026   3.773
 1107TIP3    H1 3262   4.803   6.081   3.698
 1107TIP3    H2 3263   4.712   5.971   3.747
 1108TIP3   OH2 3264   4.613   2.657   3.650
 1108TIP3    H1 3265   4.577   2.589   3.592
 1108TIP3    H2 3266   4.666   2.712   3.592
 1109TIP3   OH2 3267   7.166   0.484   6.456
 1109TIP3    H1 3268   7.208   0.414   6.506
 1109TIP3    H2 3269   7.188   0.565   6.503
 1110TIP3   OH2 3270   4.929   2.800   5.975
 1110TIP3    H1 3271   4.935   2.808   5.880
 1110TIP3    H2 3272   4.887   2.715   5.989
 1111TIP3   OH2 3273   3.954   2.951   4.772
 1111TIP3    H1 3274   3.977   2.892   4.700
 1111TIP3    H2 3275   4.035   2.961   4.822
 1112TIP3   OH2 3276   8.226   7.542   6.335
 1112TIP3    H1 3277   8.189   7.464   6.294
 1112TIP3    H2 3278   8.166   7.561   6.407
 1113TIP3   OH2 3279   2.283   1.246   5.430
 1113TIP3    H1 3280   2.302   1.249   5.524
 1113TIP3    H2 3281   2.367   1.224   5.390
 1114TIP3   OH2 3282   4.089   1.948   3.951
 1114TIP3    H1 3283   4.089   1.853   3.966
 1114TIP3    H2 3284   4.058   1.986   4.033
 1115TIP3   OH2 3285   2.400   5.178   0.895
 1115TIP3    H1 3286   2.486   5.218   0.884
 1115TIP3    H2 3287   2.379   5.141   0.810
 1116TIP3   OH2 3288   4.430   7.988   5.515
 1116TIP3    H1 3289   4.415   7.946   5.600
 1116TIP3    H2 3290   4.421   7.918   5.452
 1117TIP3   OH2 3291   2.965   4.953   5.107
 1117TIP3    H1 3292   2.989   5.045   5.102
 1117TIP3    H2 3293   2.993   4.916   5.023
 1118TIP3   OH2 3294   5.557   3.463   3.015
 1118TIP3    H1 3295   5.625   3.396   3.025
 1118TIP3    H2 3296   5.598   3.544   3.045
 1119TIP3   OH2 3297   5.394   3.963   1.599
 1119TIP3    H1 3298   5.419   4.051   1.625
 1119TIP3    H2 3299   5.304   3.953   1.631
 1120TIP3   OH2 3300   1.741   3.755   0.773
 1120TIP3    H1 3301   1.828   3.792   0.789
 1120TIP3    H2 3302   1.699   3.818   0.713
 1121TIP3   OH2 3303   3.698   3.155   5.025
 1121TIP3    H1 3304   3.792   3.140   5.034
 1121TIP3    H2 3305   3.683   3.238   5.071
 1122TIP3   OH2 3306   5.429   6.922   0.662
 1122TIP3    H1 3307   5.358   6.859   0.652
 1122TIP3    H2 3308   5.447   6.924   0.756
 1123TIP3   OH2 3309   0.567   7.733   1.646
 1123TIP3    H1 3310   0.589   7.693   1.731
 1123TIP3    H2 3311   0.569   7.827   1.663
 1124TIP3   OH2 3312   8.349   3.872   2.085
 1124TIP3    H1 3313   8.313   3.786   2.107
 1124TIP3    H2 3314   8.281   3.934   2.108
 1125TIP3   OH2 3315   8.245   7.352   2.152
 1125TIP3    H1 3316   8.197   7.434   2.149
 1125TIP3    H2 3317   8.188   7.293   2.202
 1126TIP3   OH2 3318   0.442   4.659   6.730
 1126TIP3    H1 3319   0.440   4.655   6.826
 1126TIP3    H2 3320   0.412   4.573   6.702
 1127TIP3   OH2 3321   5.544   3.980   6.649
 1127TIP3    H1 3322   5.502   3.899   6.677
 1127TIP3    H2 3323   5.545   3.975   6.554
 1128TIP3   OH2 3324   5.385   4.389   0.443
 1128TIP3    H1 3325   5.426   4.419   0.524
 1128TIP3    H2 3326   5.418   4.299   0.431
 1129TIP3   OH2 3327   7.349   6.899   4.437
 1129TIP3    H1 3328   7.380   6.819   4.395
 1129TIP3    H2 3329   7.289   6.937   4.372
 1130TIP3   OH2 3330   3.355   0.339   6.579
 1130TIP3    H1 3331   3.392   0.395   6.510
 1130TIP3    H2 3332   3.262   0.330   6.554
 1131TIP3   OH2 3333   1.786   3.720   5.394
 1131TIP3    H1 3334   1.877   3.751   5.396
 1131TIP3    H2 3335   1.734   3.799   5.386
 1132TIP3   OH2 3336   1.864   0.407   2.074
 1132TIP3    H1 3337   1.836   0.438   1.988
 1132TIP3    H2 3338   1.919   0.331   2.056
 1133TIP3   OH2 3339   4.169   0.341  -0.063
 1133TIP3    H1 3340   4.102   0.273  -0.066
 1133TIP3    H2 3341   4.232   0.309   0.001
 1134TIP3   OH2 3342   7.673   3.491   2.400
 1134TIP3    H1 3343   7.619   3.486   2.321
 1134TIP3    H2 3344   7.651   3.577   2.438
 1135TIP3   OH2 3345   0.024   4.658   2.042
 1135TIP3    H1 3346   0.111   4.688   2.068
 1135TIP3    H2 3347   0.027   4.657   1.946
 1136TIP3   OH2 3348   8.287   6.150   0.877
 1136TIP3    H1 3349   8.296   6.245   0.873
 1136TIP3    H2 3350   8.355   6.117   0.819
 1137TIP3   OH2 3351   2.944   1.327   0.030
 1137TIP3    H1 3352   2.885   1.258   0.061
 1137TIP3    H2 3353   2.968   1.375   0.109
 1138TIP3   OH2 3354   3.194   4.639   4.766
 1138TIP3    H1 3355   3.236   4.679   4.842
 1138TIP3    H2 3356   3.263   4.637   4.699
 1139TIP3   OH2 3357   5.987   3.004   4.365
 1139TIP3    H1 3358   5.977   2.962   4.450
 1139TIP3    H2 3359   5.935   2.949   4.305
 1140TIP3   OH2 3360   6.187   1.930   3.946
 1140TIP3    H1 3361   6.247   1.869   3.989
 1140TIP3    H2 3362   6.221   2.017   3.967
 1141TIP3   OH2 3363   7.660   6.860   3.196
 1141TIP3    H1 3364   7.617   6.791   3.146
 1141TIP3    H2 3365   7.644   6.837   3.288
 1142TIP3   OH2 3366   0.636   3.915   6.415
 1142TIP3    H1 3367   0.711   3.879   6.463
 1142TIP3    H2 3368   0.581   3.838   6.398
 1143TIP3   OH2 3369   8.362   1.690   2.975
 1143TIP3    H1 3370   8.348   1.726   3.063
 1143TIP3    H2 3371   8.306   1.612   2.972
 1144TIP3   OH2 3372   5.108   5.022   1.588
 1144TIP3    H1 3373   5.123   5.112   1.561
 1144TIP3    H2 3374   5.123   4.970   1.509
 1145TIP3   OH2 3375   1.873   5.019   4.963
 1145TIP3    H1 3376   1.828   4.979   4.888
 1145TIP3    H2 3377   1.869   5.113   4.947
 1146TIP3   OH2 3378   6.674   5.266   0.456
 1146TIP3    H1 3379   6.631   5.338   0.409
 1146TIP3    H2 3380   6.715   5.309   0.531
 1147TIP3   OH2 3381   1.926   6.600   1.079
 1147TIP3    H1 3382   1.855   6.537   1.070
 1147TIP3    H2 3383   1.889   6.671   1.132
 1148TIP3   OH2 3384   8.377   2.812   2.952
 1148TIP3    H1 3385   8.352   2.865   3.027
 1148TIP3    H2 3386   8.363   2.868   2.876
 1149TIP3   OH2 3387   2.649   5.267   6.649
 1149TIP3    H1 3388   2.717   5.278   6.583
 1149TIP3    H2 3389   2.672   5.185   6.693
 1150TIP3   OH2 3390   4.792   1.312   3.322
 1150TIP3    H1 3391   4.788   1.376   3.393
 1150TIP3    H2 3392   4.785   1.364   3.242
 1151TIP3   OH2 3393   7.438   2.352   2.088
 1151TIP3    H1 3394   7.410   2.377   2.000
 1151TIP3    H2 3395   7.357   2.354   2.140
 1152TIP3   OH2 3396   0.510   5.888   5.046
 1152TIP3    H1 3397   0.527   5.965   5.101
 1152TIP3    H2 3398   0.429   5.909   4.999
 1153TIP3   OH2 3399   5.731   5.118   2.979
 1153TIP3    H1 3400   5.770   5.157   3.057
 1153TIP3    H2 3401   5.770   5.031   2.973
 1154TIP3   OH2 3402   8.141   7.446   4.695
 1154TIP3    H1 3403   8.213   7.387   4.718
 1154TIP3    H2 3404   8.161   7.475   4.606
 1155TIP3   OH2 3405   5.327   3.598   2.138
 1155TIP3    H1 3406   5.377   3.663   2.089
 1155TIP3    H2 3407   5.393   3.536   2.171
 1156TIP3   OH2 3408   3.014   7.757   6.310
 1156TIP3    H1 3409   3.092   7.727   6.265
 1156TIP3    H2 3410   3.046   7.820   6.375
 1157TIP3   OH2 3411   4.130   6.857   2.893
 1157TIP3    H1 3412   4.222   6.838   2.911
 1157TIP3    H2 3413   4.087   6.851   2.979
 1158TIP3   OH2 3414   6.370   5.844   0.652
 1158TIP3    H1 3415   6.281   5.862   0.683
 1158TIP3    H2 3416   6.362   5.763   0.603
 1159TIP3   OH2 3417   2.832   0.149   6.710
 1159TIP3    H1 3418   2.774   0.110   6.644
 1159TIP3    H2 3419   2.820   0.243   6.700
 1160TIP3   OH2 3420   0.772   7.455   0.330
 1160TIP3    H1 3421   0.711   7.419   0.394
 1160TIP3    H2 3422   0.799   7.539   0.368
 1161TIP3   OH2 3423   8.018   1.693   1.806
 1161TIP3    H1 3424   7.954   1.684   1.877
 1161TIP3    H2 3425   8.082   1.756   1.838
 1162TIP3   OH2 3426   7.794   4.432   4.477
 1162TIP3    H1 3427   7.849   4.450   4.553
 1162TIP3    H2 3428   7.802   4.509   4.422
 1163TIP3   OH2 3429   5.935   1.101   3.090
 1163TIP3    H1 3430   5.902   1.013   3.075
 1163TIP3    H2 3431   5.860   1.149   3.126
 1164TIP3   OH2 3432   5.745   4.702   5.171
 1164TIP3    H1 3433   5.698   4.619   5.159
 1164TIP3    H2 3434   5.757   4.709   5.266
 1165TIP3   OH2 3435   5.037   3.030   4.426
 1165TIP3    H1 3436   4.955   2.985   4.447
 1165TIP3    H2 3437   5.034   3.045   4.332
 1166TIP3   OH2 3438   7.768   5.020   4.029
 1166TIP3    H1 3439   7.720   5.095   3.995
 1166TIP3    H2 3440   7.713   4.984   4.098
 1167TIP3   OH2 3441   4.311   4.163   1.066
 1167TIP3    H1 3442   4.227   4.152   1.023
 1167TIP3    H2 3443   4.293   4.146   1.159
 1168TIP3   OH2 3444   3.674   3.877   1.893
 1168TIP3    H1 3445   3.642   3.895   1.804
 1168TIP3    H2 3446   3.724   3.796   1.884
 1169TIP3   OH2 3447   5.625   1.429   6.346
 1169TIP3    H1 3448   5.699   1.375   6.375
 1169TIP3    H2 3449   5.550   1.396   6.396
 1170TIP3   OH2 3450   0.189   1.132   2.557
 1170TIP3    H1 3451   0.202   1.219   2.519
 1170TIP3    H2 3452   0.117   1.094   2.506
 1171TIP3   OH2 3453   7.881   4.653   4.335
 1171TIP3    H1 3454   7.848   4.737   4.303
 1171TIP3    H2 3455   7.975   4.667   4.347
 1172TIP3   OH2 3456   1.299   3.516   4.310
 1172TIP3    H1 3457   1.301   3.431   4.267
 1172TIP3    H2 3458   1.353   3.505   4.388
 1173TIP3   OH2 3459   1.719   3.185   4.541
 1173TIP3    H1 3460   1.769   3.235   4.476
 1173TIP3    H2 3461   1.777   3.114   4.567
 1174TIP3   OH2 3462   1.453   3.785   6.440
 1174TIP3    H1 3463   1.460   3.708   6.496
 1174TIP3    H2 3464   1.493   3.856   6.490
 1175TIP3   OH2 3465   5.991   0.934   3.519
 1175TIP3    H1 3466   6.081   0.924   3.486
 1175TIP3    H2 3467   5.996   0.909   3.611
 1176TIP3   OH2 3468   7.054   1.150   6.207
 1176TIP3    H1 3469   7.143   1.138   6.175
 1176TIP3    H2 3470   7.062   1.148   6.303
 1177TIP3   OH2 3471   1.083   5.690   3.679
 1177TIP3    H1 3472   1.110   5.778   3.707
 1177TIP3    H2 3473   0.990   5.698   3.661
 1178TIP3   OH2 3474   7.113   1.331   2.534
 1178TIP3    H1 3475   7.078   1.367   2.453
 1178TIP3    H2 3476   7.053   1.260   2.558
 1179TIP3   OH2 3477   5.300   1.864   5.575
 1179TIP3    H1 3478   5.282   1.801   5.645
 1179TIP3    H2 3479   5.255   1.944   5.602
 1180TIP3   OH2 3480   0.417   4.504   2.570
 1180TIP3    H1 3481   0.454   4.420   2.543
 1180TIP3    H2 3482   0.493   4.555   2.599
 1181TIP3   OH2 3483   2.343   3.257   5.760
 1181TIP3    H1 3484   2.286   3.333   5.745
 1181TIP3    H2 3485   2.284   3.190   5.794
 1182TIP3   OH2 3486   6.362   6.633   2.089
 1182TIP3    H1 3487   6.430   6.590   2.141
 1182TIP3    H2 3488   6.407   6.706   2.046
 1183TIP3   OH2 3489   7.738   6.482   2.894
 1183TIP3    H1 3490   7.749   6.422   2.820
 1183TIP3    H2 3491   7.820   6.473   2.943
 1184TIP3   OH2 3492   5.184   1.972   0.321
 1184TIP3    H1 3493   5.141   1.907   0.266
 1184TIP3    H2 3494   5.132   1.972   0.402
 1185TIP3   OH2 3495   6.609   4.764   4.122
 1185TIP3    H1 3496   6.686   4.820   4.111
 1185TIP3    H2 3497   6.537   4.814   4.083
 1186TIP3   OH2 3498   0.807   7.719   5.120
 1186TIP3    H1 3499   0.852   7.686   5.042
 1186TIP3    H2 3500   0.801   7.642   5.178
 1187TIP3   OH2 3501   2.619   1.893   4.132
 1187TIP3    H1 3502   2.582   1.980   4.116
 1187TIP3    H2 3503   2.604   1.844   4.051
 1188TIP3   OH2 3504   4.878   4.652   3.976
 1188TIP3    H1 3505   4.799   4.649   4.030
 1188TIP3    H2 3506   4.950   4.664   4.039
 1189TIP3   OH2 3507   4.392   2.079   5.294
 1189TIP3    H1 3508   4.389   1.984   5.292
 1189TIP3    H2 3509   4.411   2.104   5.204
 1190TIP3   OH2 3510   6.206   5.462   4.630
 1190TIP3    H1 3511   6.276   5.430   4.687
 1190TIP3    H2 3512   6.150   5.385   4.616
 1191TIP3   OH2 3513   2.023   4.904   1.875
 1191TIP3    H1 3514   1.994   4.818   1.904
 1191TIP3    H2 3515   2.119   4.899   1.880
 1192TIP3   OH2 3516   1.782   1.806   0.262
 1192TIP3    H1 3517   1.707   1.761   0.224
 1192TIP3    H2 3518   1.849   1.804   0.193
 1193TIP3   OH2 3519   5.323   1.865   5.274
 1193TIP3    H1 3520   5.362   1.832   5.193
 1193TIP3    H2 3521   5.295   1.954   5.252
 1194TIP3   OH2 3522   7.028   5.565   1.458
 1194TIP3    H1 3523   6.990   5.490   1.504
 1194TIP3    H2 3524   7.119   5.540   1.444
 1195TIP3   OH2 3525   4.515   2.469   0.900
 1195TIP3    H1 3526   4.444   2.407   0.883
 1195TIP3    H2 3527   4.503   2.495   0.991
 1196TIP3   OH2 3528   0.910   4.977   2.400
 1196TIP3    H1 3529   0.926   5.018   2.486
 1196TIP3    H2 3530   0.820   5.002   2.379
 1197TIP3   OH2 3531   4.012   0.247   0.661
 1197TIP3    H1 3532   3.929   0.239   0.709
 1197TIP3    H2 3533   4.025   0.341   0.652
 1198TIP3   OH2 3534   2.196   0.775   3.359
 1198TIP3    H1 3535   2.231   0.816   3.438
 1198TIP3    H2 3536   2.101   0.775   3.372
 1199TIP3   OH2 3537   3.054   3.514   5.506
 1199TIP3    H1 3538   3.124   3.555   5.455
 1199TIP3    H2 3539   3.099   3.451   5.562
 1200TIP3   OH2 3540   3.949   5.479   2.242
 1200TIP3    H1 3541   3.862   5.493   2.205
 1200TIP3    H2 3542   3.988   5.412   2.186
 1201TIP3   OH2 3543   5.867   4.873   3.065
 1201TIP3    H1 3544   5.899   4.841   3.150
 1201TIP3    H2 3545   5.781   4.831   3.055
 1202TIP3   OH2 3546   2.197   1.069   0.770
 1202TIP3    H1 3547   2.113   1.115   0.773
 1202TIP3    H2 3548   2.174   0.977   0.756
 1203TIP3   OH2 3549   6.019   4.089   6.342
 1203TIP3    H1 3550   6.095   4.043   6.378
 1203TIP3    H2 3551   6.039   4.100   6.249
 1204TIP3   OH2 3552   6.031   6.568   2.037
 1204TIP3    H1 3553   5.981   6.568   1.955
 1204TIP3    H2 3554   6.080   6.486   2.035
 1205TIP3   OH2 3555   4.832   2.192   4.464
 1205TIP3    H1 3556   4.859   2.258   4.529
 1205TIP3    H2 3557   4.915   2.161   4.427
 1206TIP3   OH2 3558   0.122   7.352   6.110
 1206TIP3    H1 3559   0.111   7.343   6.016
 1206TIP3    H2 3560   0.189   7.420   6.120
 1207TIP3   OH2 3561   4.189   1.485   0.286
 1207TIP3    H1 3562   4.268   1.461   0.335
 1207TIP3    H2 3563   4.163   1.569   0.323
 1208TIP3   OH2 3564   5.193   3.089   1.660
 1208TIP3    H1 3565   5.272   3.093   1.606
 1208TIP3    H2 3566   5.138   3.161   1.628
 1209TIP3   OH2 3567   0.501   0.265   6.215
 1209TIP3    H1 3568   0.500   0.246   6.309
 1209TIP3    H2 3569   0.562   0.338   6.206
 1210TIP3   OH2 3570   2.733   5.272   4.389
 1210TIP3    H1 3571   2.744   5.189   4.342
 1210TIP3    H2 3572   2.678   5.325   4.331
 1211TIP3   OH2 3573   8.217   4.032   5.422
 1211TIP3    H1 3574   8.292   4.013   5.478
 1211TIP3    H2 3575   8.140   4.008   5.474
 1212TIP3   OH2 3576   1.389   2.084   3.067
 1212TIP3    H1 3577   1.327   2.071   3.138
 1212TIP3    H2 3578   1.375   2.175   3.040
 1213TIP3   OH2 3579   4.379   4.887   2.972
 1213TIP3    H1 3580   4.347   4.977   2.973
 1213TIP3    H2 3581   4.378   4.860   3.064
 1214TIP3   OH2 3582   6.987   7.074   5.908
 1214TIP3    H1 3583   7.047   7.023   5.854
 1214TIP3    H2 3584   6.907   7.022   5.913
 1215TIP3   OH2 3585   5.451   6.974   4.434
 1215TIP3    H1 3586   5.384   7.000   4.370
 1215TIP3    H2 3587   5.452   7.045   4.498
 1216TIP3   OH2 3588   7.363   1.697   3.415
 1216TIP3    H1 3589   7.293   1.642   3.449
 1216TIP3    H2 3590   7.442   1.643   3.423
 1217TIP3   OH2 3591   4.483   0.618   3.016
 1217TIP3    H1 3592   4.575   0.591   3.018
 1217TIP3    H2 3593   4.454   0.612   3.107
 1218TIP3   OH2 3594   1.067   3.068   3.966
 1218TIP3    H1 3595   1.065   2.993   3.907
 1218TIP3    H2 3596   0.996   3.125   3.936
 1219TIP3   OH2 3597   7.043   7.215   5.589
 1219TIP3    H1 3598   6.989   7.189   5.514
 1219TIP3    H2 3599   7.013   7.304   5.610
 1220TIP3   OH2 3600   7.347   2.924   3.350
 1220TIP3    H1 3601   7.420   2.961   3.300
 1220TIP3    H2 3602   7.379   2.921   3.440
 1221TIP3   OH2 3603   8.409   1.710   0.477
 1221TIP3    H1 3604   8.346   1.639   0.463
 1221TIP3    H2 3605   8.464   1.709   0.399
 1222TIP3   OH2 3606   4.913   0.188   2.350
 1222TIP3    H1 3607   4.911   0.177   2.446
 1222TIP3    H2 3608   5.006   0.190   2.329
 1223TIP3   OH2 3609   5.733   7.315   6.064
 1223TIP3    H1 3610   5.827   7.301   6.075
 1223TIP3    H2 3611   5.692   7.246   6.115
 1224TIP3   OH2 3612   0.268   4.924   5.166
 1224TIP3    H1 3613   0.253   4.834   5.139
 1224TIP3    H2 3614   0.334   4.918   5.235
 1225TIP3   OH2 3615   1.188   2.827   1.136
 1225TIP3    H1 3616   1.279   2.844   1.162
 1225TIP3    H2 3617   1.178   2.733   1.146
 1226TIP3   OH2 3618   4.196   4.564   1.483
 1226TIP3    H1 3619   4.258   4.520   1.540
 1226TIP3    H2 3620   4.235   4.558   1.396
 1227TIP3   OH2 3621   4.674   4.911   3.013
 1227TIP3    H1 3622   4.591   4.876   3.045
 1227TIP3    H2 3623   4.664   5.006   3.020
 1228TIP3   OH2 3624   4.523   7.240   5.280
 1228TIP3    H1 3625   4.549   7.202   5.196
 1228TIP3    H2 3626   4.578   7.194   5.344
 1229TIP3   OH2 3627   7.392   5.925   5.391
 1229TIP3    H1 3628   7.483   5.955   5.387
 1229TIP3    H2 3629   7.357   5.947   5.304
 1230TIP3   OH2 3630   4.311   1.892   4.743
 1230TIP3    H1 3631   4.361   1.938   4.811
 1230TIP3    H2 3632   4.367   1.896   4.665
 1231TIP3   OH2 3633   8.232   4.071   5.860
 1231TIP3    H1 3634   8.224   4.026   5.945
 1231TIP3    H2 3635   8.314   4.120   5.866
 1232TIP3   OH2 3636   1.114   2.809   6.270
 1232TIP3    H1 3637   1.143   2.773   6.186
 1232TIP3    H2 3638   1.068   2.890   6.247
 1233TIP3   OH2 3639   3.698   2.772   4.219
 1233TIP3    H1 3640   3.674   2.840   4.155
 1233TIP3    H2 3641   3.787   2.746   4.192
 1234TIP3   OH2 3642   4.744   4.680   6.265
 1234TIP3    H1 3643   4.817   4.741   6.257
 1234TIP3    H2 3644   4.708   4.673   6.176
 1235TIP3   OH2 3645   2.389   5.494   4.793
 1235TIP3    H1 3646   2.372   5.559   4.725
 1235TIP3    H2 3647   2.417   5.415   4.746
 1236TIP3   OH2 3648   6.741   1.944   6.689
 1236TIP3    H1 3649   6.716   2.002   6.761
 1236TIP3    H2 3650   6.807   1.885   6.728
 1237TIP3   OH2 3651   0.147   1.134   2.914
 1237TIP3    H1 3652   0.232   1.093   2.897
 1237TIP3    H2 3653   0.129   1.186   2.836
 1238TIP3   OH2 3654   0.749   3.280   2.576
 1238TIP3    H1 3655   0.815   3.337   2.616
 1238TIP3    H2 3656   0.724   3.219   2.645
 1239TIP3   OH2 3657   0.693   2.858   6.654
 1239TIP3    H1 3658   0.723   2.930   6.710
 1239TIP3    H2 3659   0.767   2.840   6.597
 1240TIP3   OH2 3660   0.685   0.125   5.543
 1240TIP3    H1 3661   0.708   0.214   5.569
 1240TIP3    H2 3662   0.732   0.069   5.604
 1241TIP3   OH2 3663   7.793   5.007   2.249
 1241TIP3    H1 3664   7.766   5.081   2.304
 1241TIP3    H2 3665   7.851   4.956   2.304
 1242TIP3   OH2 3666   2.316   1.077   2.988
 1242TIP3    H1 3667   2.307   1.166   3.019
 1242TIP3    H2 3668   2.278   1.078   2.900
 1243TIP3   OH2 3669   0.339   3.937   1.556
 1243TIP3    H1 3670   0.398   3.966   1.626
 1243TIP3    H2 3671   0.258   3.914   1.601
 1244TIP3   OH2 3672   0.535   0.068   3.145
 1244TIP3    H1 3673   0.605   0.102   3.090
 1244TIP3    H2 3674   0.462   0.129   3.134
 1245TIP3   OH2 3675   5.380   5.409   2.803
 1245TIP3    H1 3676   5.358   5.331   2.853
 1245TIP3    H2 3677   5.328   5.479   2.843
 1246TIP3   OH2 3678   4.537   7.454   1.118
 1246TIP3    H1 3679   4.506   7.493   1.200
 1246TIP3    H2 3680   4.482   7.376   1.107
 1247TIP3   OH2 3681   1.409   2.808   5.943
 1247TIP3    H1 3682   1.491   2.849   5.972
 1247TIP3    H2 3683   1.429   2.774   5.856
 1248TIP3   OH2 3684   7.724   3.536  -0.010
 1248TIP3    H1 3685   7.766   3.493   0.065
 1248TIP3    H2 3686   7.709   3.625   0.020
 1249TIP3   OH2 3687   5.741   6.875   6.088
 1249TIP3    H1 3688   5.776   6.924   6.014
 1249TIP3    H2 3689   5.804   6.805   6.102
 1250TIP3   OH2 3690   2.365   3.658   1.633
 1250TIP3    H1 3691   2.271   3.658   1.614
 1250TIP3    H2 3692   2.394   3.746   1.610
 1251TIP3   OH2 3693   5.382   2.556   2.190
 1251TIP3    H1 3694   5.352   2.516   2.271
 1251TIP3    H2 3695   5.330   2.636   2.182
 1252TIP3   OH2 3696   0.292   5.742   0.249
 1252TIP3    H1 3697   0.244   5.677   0.301
 1252TIP3    H2 3698   0.384   5.722   0.266
 1253TIP3   OH2 3699   4.278   7.775   6.579
 1253TIP3    H1 3700   4.286   7.847   6.517
 1253TIP3    H2 3701   4.184   7.763   6.590
 1254TIP3   OH2 3702   1.113   4.242   4.046
 1254TIP3    H1 3703   1.080   4.161   4.007
 1254TIP3    H2 3704   1.205   4.224   4.062
 1255TIP3   OH2 3705   4.614   5.384   1.740
 1255TIP3    H1 3706   4.671   5.378   1.663
 1255TIP3    H2 3707   4.674   5.383   1.814
 1256TIP3   OH2 3708   8.197   0.314   6.629
 1256TIP3    H1 3709   8.205   0.247   6.562
 1256TIP3    H2 3710   8.127   0.283   6.686
 1257TIP3   OH2 3711   5.302   7.280   1.555
 1257TIP3    H1 3712   5.390   7.270   1.517
 1257TIP3    H2 3713   5.298   7.371   1.584
 1258TIP3   OH2 3714   4.095   5.541   4.389
 1258TIP3    H1 3715   4.003   5.541   4.415
 1258TIP3    H2 3716   4.097   5.589   4.306
 1259TIP3   OH2 3717   3.241   5.574   0.808
 1259TIP3    H1 3718   3.182   5.521   0.755
 1259TIP3    H2 3719   3.243   5.531   0.893
 1260TIP3   OH2 3720   4.949   3.466   1.648
 1260TIP3    H1 3721   4.949   3.477   1.553
 1260TIP3    H2 3722   5.039   3.488   1.674
 1261TIP3   OH2 3723   0.723   1.584   5.586
 1261TIP3    H1 3724   0.757   1.495   5.599
 1261TIP3    H2 3725   0.634   1.581   5.622
 1262TIP3   OH2 3726   0.638   5.098   2.655
 1262TIP3    H1 3727   0.560   5.150   2.637
 1262TIP3    H2 3728   0.618   5.051   2.735
 1263TIP3   OH2 3729   0.972   4.795   6.707
 1263TIP3    H1 3730   0.921   4.821   6.784
 1263TIP3    H2 3731   1.045   4.857   6.705
 1264TIP3   OH2 3732   0.391   2.779   4.352
 1264TIP3    H1 3733   0.419   2.869   4.369
 1264TIP3    H2 3734   0.303   2.788   4.316
 1265TIP3   OH2 3735   3.464   7.098   3.802
 1265TIP3    H1 3736   3.460   7.030   3.736
 1265TIP3    H2 3737   3.520   7.062   3.871
 1266TIP3   OH2 3738   3.388   5.150   6.413
 1266TIP3    H1 3739   3.322   5.122   6.350
 1266TIP3    H2 3740   3.469   5.156   6.362
 1267TIP3   OH2 3741   5.702   6.413   1.832
 1267TIP3    H1 3742   5.777   6.468   1.810
 1267TIP3    H2 3743   5.666   6.451   1.912
 1268TIP3   OH2 3744   8.142   0.192   5.901
 1268TIP3    H1 3745   8.060   0.236   5.878
 1268TIP3    H2 3746   8.203   0.217   5.831
 1269TIP3   OH2 3747   7.112   1.958   6.641
 1269TIP3    H1 3748   7.205   1.950   6.619
 1269TIP3    H2 3749   7.102   2.049   6.669
 1270TIP3   OH2 3750   5.577   7.190   4.232
 1270TIP3    H1 3751   5.514   7.146   4.289
 1270TIP3    H2 3752   5.525   7.253   4.182
 1271TIP3   OH2 3753   5.637   6.761   4.591
 1271TIP3    H1 3754   5.659   6.851   4.571
 1271TIP3    H2 3755   5.564   6.767   4.652
 1272TIP3   OH2 3756   3.331   1.334   5.365
 1272TIP3    H1 3757   3.411   1.323   5.313
 1272TIP3    H2 3758   3.342   1.419   5.408
 1273TIP3   OH2 3759   7.460   7.862   3.350
 1273TIP3    H1 3760   7.411   7.781   3.338
 1273TIP3    H2 3761   7.517   7.867   3.273
 1274TIP3   OH2 3762   4.530   4.685   4.723
 1274TIP3    H1 3763   4.567   4.614   4.776
 1274TIP3    H2 3764   4.437   4.685   4.744
 1275TIP3   OH2 3765   6.498   0.902   5.537
 1275TIP3    H1 3766   6.529   0.815   5.513
 1275TIP3    H2 3767   6.421   0.886   5.591
 1276TIP3   OH2 3768   0.841   0.878   5.814
 1276TIP3    H1 3769   0.808   0.809   5.872
 1276TIP3    H2 3770   0.763   0.930   5.793
 1277TIP3   OH2 3771   0.738   7.353   4.954
 1277TIP3    H1 3772   0.744   7.277   4.896
 1277TIP3    H2 3773   0.647   7.354   4.983
 1278TIP3   OH2 3774   2.544   6.947   4.167
 1278TIP3    H1 3775   2.525   6.867   4.216
 1278TIP3    H2 3776   2.501   6.934   4.082
 1279TIP3   OH2 3777   7.423   2.880   5.011
 1279TIP3    H1 3778   7.466   2.807   4.967
 1279TIP3    H2 3779   7.376   2.927   4.941
 1280TIP3   OH2 3780   8.021   4.398   3.060
 1280TIP3    H1 3781   8.079   4.327   3.086
 1280TIP3    H2 3782   8.025   4.460   3.133
 1281TIP3   OH2 3783   4.048   0.547   2.224
 1281TIP3    H1 3784   4.052   0.620   2.287
 1281TIP3    H2 3785   4.127   0.496   2.242
 1282TIP3   OH2 3786   3.402   0.820   4.955
 1282TIP3    H1 3787   3.351   0.774   4.890
 1282TIP3    H2 3788   3.364   0.794   5.039
 1283TIP3   OH2 3789   1.294   3.232   2.198
 1283TIP3    H1 3790   1.318   3.207   2.287
 1283TIP3    H2 3791   1.365   3.290   2.170
 1284TIP3   OH2 3792   6.283   1.403   6.528
 1284TIP3    H1 3793   6.359   1.387   6.472
 1284TIP3    H2 3794   6.230   1.466   6.478
 1285TIP3   OH2 3795   6.264   4.950   2.275
 1285TIP3    H1 3796   6.246   5.025   2.332
 1285TIP3    H2 3797   6.276   4.876   2.335
 1286TIP3   OH2 3798   1.462   4.554   2.701
 1286TIP3    H1 3799   1.498   4.539   2.613
 1286TIP3    H2 3800   1.533   4.597   2.748
 1287TIP3   OH2 3801   0.405   1.726   1.407
 1287TIP3    H1 3802   0.390   1.635   1.383
 1287TIP3    H2 3803   0.413   1.772   1.323
 1288TIP3   OH2 3804   3.144   6.240   2.856
 1288TIP3    H1 3805   3.234   6.210   2.863
 1288TIP3    H2 3806   3.145   6.305   2.786
 1289TIP3   OH2 3807   7.618   4.493   0.805
 1289TIP3    H1 3808   7.652   4.412   0.843
 1289TIP3    H2 3809   7.693   4.531   0.758
 1290TIP3   OH2 3810   3.621   3.411   3.442
 1290TIP3    H1 3811   3.654   3.419   3.353
 1290TIP3    H2 3812   3.685   3.357   3.487
 1291TIP3   OH2 3813   4.987   7.012   6.432
 1291TIP3    H1 3814   5.075   7.004   6.468
 1291TIP3    H2 3815   4.946   6.927   6.449
 1292TIP3   OH2 3816   7.174   1.135   0.114
 1292TIP3    H1 3817   7.152   1.215   0.162
 1292TIP3    H2 3818   7.195   1.071   0.181
 1293TIP3   OH2 3819   3.342   0.741   2.481
 1293TIP3    H1 3820   3.270   0.736   2.545
 1293TIP3    H2 3821   3.386   0.656   2.489
 1294TIP3   OH2 3822   5.332   4.537   2.589
 1294TIP3    H1 3823   5.323   4.487   2.671
 1294TIP3    H2 3824   5.338   4.628   2.618
 1295TIP3   OH2 3825   3.077   3.259   3.986
 1295TIP3    H1 3826   3.060   3.185   3.929
 1295TIP3    H2 3827   3.168   3.249   4.013
 1296TIP3   OH2 3828   5.504   2.115   0.980
 1296TIP3    H1 3829   5.530   2.138   0.891
 1296TIP3    H2 3830   5.555   2.037   1.001
 1297TIP3   OH2 3831   3.305   1.913   1.678
 1297TIP3    H1 3832   3.253   1.876   1.607
 1297TIP3    H2 3833   3.257   1.890   1.758
 1298TIP3   OH2 3834   4.241   2.043   0.970
 1298TIP3    H1 3835   4.224   2.005   1.056
 1298TIP3    H2 3836   4.331   2.019   0.950
 1299TIP3   OH2 3837   3.655   4.889   5.949
 1299TIP3    H1 3838   3.716   4.917   5.881
 1299TIP3    H2 3839   3.653   4.793   5.943
 1300TIP3   OH2 3840   6.308   1.298   3.164
 1300TIP3    H1 3841   6.394   1.305   3.206
 1300TIP3    H2 3842   6.280   1.208   3.184
 1301TIP3   OH2 3843   2.675   4.639   2.005
 1301TIP3    H1 3844   2.638   4.659   2.091
 1301TIP3    H2 3845   2.666   4.545   1.996
 1302TIP3   OH2 3846   4.492   2.022   3.697
 1302TIP3    H1 3847   4.511   1.932   3.670
 1302TIP3    H2 3848   4.398   2.033   3.679
 1303TIP3   OH2 3849   2.419   5.141   3.963
 1303TIP3    H1 3850   2.418   5.075   4.032
 1303TIP3    H2 3851   2.512   5.156   3.946
 1304TIP3   OH2 3852   6.387   6.667   4.311
 1304TIP3    H1 3853   6.388   6.637   4.220
 1304TIP3    H2 3854   6.295   6.686   4.329
 1305TIP3   OH2 3855   4.228   3.289   4.801
 1305TIP3    H1 3856   4.252   3.254   4.716
 1305TIP3    H2 3857   4.262   3.226   4.864
 1306TIP3   OH2 3858   3.568   4.966   5.572
 1306TIP3    H1 3859   3.650   4.972   5.620
 1306TIP3    H2 3860   3.510   4.917   5.631
 1307TIP3   OH2 3861   4.291   5.139   5.464
 1307TIP3    H1 3862   4.242   5.068   5.506
 1307TIP3    H2 3863   4.246   5.219   5.492
 1308TIP3   OH2 3864   7.815   2.538   3.814
 1308TIP3    H1 3865   7.849   2.500   3.895
 1308TIP3    H2 3866   7.893   2.567   3.767
 1309TIP3   OH2 3867   8.238   5.957   4.622
 1309TIP3    H1 3868   8.167   5.953   4.687
 1309TIP3    H2 3869   8.197   5.927   4.541
 1310TIP3   OH2 3870   6.684   7.592   3.111
 1310TIP3    H1 3871   6.678   7.662   3.047
 1310TIP3    H2 3872   6.657   7.632   3.194
 1311TIP3   OH2 3873   8.350   3.191   5.802
 1311TIP3    H1 3874   8.294   3.151   5.736
 1311TIP3    H2 3875   8.341   3.285   5.788
 1312TIP3   OH2 3876   4.885   4.967   2.290
 1312TIP3    H1 3877   4.919   5.056   2.281
 1312TIP3    H2 3878   4.957   4.918   2.330
 1313TIP3   OH2 3879   0.995   0.991   4.148
 1313TIP3    H1 3880   1.024   1.063   4.204
 1313TIP3    H2 3881   1.014   0.912   4.198
 1314TIP3   OH2 3882   4.694   0.599   6.624
 1314TIP3    H1 3883   4.652   0.682   6.605
 1314TIP3    H2 3884   4.700   0.555   6.539
 1315TIP3   OH2 3885   8.136   2.665   0.733
 1315TIP3    H1 3886   8.052   2.669   0.689
 1315TIP3    H2 3887   8.118   2.624   0.817
 1316TIP3   OH2 3888   5.354   7.821   5.126
 1316TIP3    H1 3889   5.266   7.785   5.118
 1316TIP3    H2 3890   5.351   7.903   5.076
 1317TIP3   OH2 3891   0.388   4.927   2.709
 1317TIP3    H1 3892   0.333   4.987   2.659
 1317TIP3    H2 3893   0.353   4.840   2.690
 1318TIP3   OH2 3894   7.416   4.901   5.758
 1318TIP3    H1 3895   7.323   4.888   5.772
 1318TIP3    H2 3896   7.455   4.899   5.845
 1319TIP3   OH2 3897   1.720   0.840   3.565
 1319TIP3    H1 3898   1.666   0.908   3.525
 1319TIP3    H2 3899   1.666   0.761   3.563
 1320TIP3   OH2 3900   2.573   2.501   2.946
 1320TIP3    H1 3901   2.652   2.540   2.983
 1320TIP3    H2 3902   2.513   2.494   3.020
 1321TIP3   OH2 3903   6.185   4.118   5.438
 1321TIP3    H1 3904   6.207   4.036   5.393
 1321TIP3    H2 3905   6.111   4.096   5.493
 1322TIP3   OH2 3906   5.565   6.717   1.814
 1322TIP3    H1 3907   5.486   6.704   1.865
 1322TIP3    H2 3908   5.555   6.802   1.773
 1323TIP3   OH2 3909   6.075   6.884   0.451
 1323TIP3    H1 3910   6.104   6.794   0.435
 1323TIP3    H2 3911   6.146   6.939   0.417
 1324TIP3   OH2 3912   4.615   2.837   4.871
 1324TIP3    H1 3913   4.604   2.773   4.942
 1324TIP3    H2 3914   4.633   2.785   4.794
 1325TIP3   OH2 3915   3.661   6.875   2.789
 1325TIP3    H1 3916   3.611   6.821   2.727
 1325TIP3    H2 3917   3.645   6.965   2.761
 1326TIP3   OH2 3918   6.506   5.531   6.813
 1326TIP3    H1 3919   6.488   5.550   6.721
 1326TIP3    H2 3920   6.516   5.436   6.817
 1327TIP3   OH2 3921   5.921   0.217   4.926
 1327TIP3    H1 3922   5.833   0.207   4.963
 1327TIP3    H2 3923   5.927   0.145   4.862
 1328TIP3   OH2 3924   5.800   6.606   4.855
 1328TIP3    H1 3925   5.892   6.627   4.869
 1328TIP3    H2 3926   5.780   6.644   4.769
 1329TIP3   OH2 3927   5.528   3.818   6.131
 1329TIP3    H1 3928   5.432   3.828   6.130
 1329TIP3    H2 3929   5.543   3.724   6.133
 1330TIP3   OH2 3930   4.322   3.487   6.681
 1330TIP3    H1 3931   4.298   3.475   6.773
 1330TIP3    H2 3932   4.299   3.405   6.639
 1331TIP3   OH2 3933   6.351   0.384   6.420
 1331TIP3    H1 3934   6.434   0.352   6.455
 1331TIP3    H2 3935   6.291   0.310   6.427
 1332TIP3   OH2 3936   4.580   0.900   0.798
 1332TIP3    H1 3937   4.494   0.942   0.806
 1332TIP3    H2 3938   4.642   0.973   0.791
 1333TIP3   OH2 3939   6.720   5.845   6.004
 1333TIP3    H1 3940   6.676   5.760   6.001
 1333TIP3    H2 3941   6.652   5.908   5.978
 1334TIP3   OH2 3942   5.371   7.143   5.772
 1334TIP3    H1 3943   5.297   7.085   5.791
 1334TIP3    H2 3944   5.333   7.213   5.718
 1335TIP3   OH2 3945   4.160   0.255   2.685
 1335TIP3    H1 3946   4.170   0.182   2.623
 1335TIP3    H2 3947   4.250   0.281   2.705
 1336TIP3   OH2 3948   4.969   7.469   6.365
 1336TIP3    H1 3949   5.008   7.451   6.451
 1336TIP3    H2 3950   4.928   7.386   6.340
 1337TIP3   OH2 3951   7.855   0.519   5.188
 1337TIP3    H1 3952   7.869   0.575   5.112
 1337TIP3    H2 3953   7.914   0.445   5.174
 1338TIP3   OH2 3954   8.280   6.789   6.112
 1338TIP3    H1 3955   8.314   6.876   6.133
 1338TIP3    H2 3956   8.203   6.806   6.057
 1339TIP3   OH2 3957   3.742   0.651   4.654
 1339TIP3    H1 3958   3.681   0.593   4.609
 1339TIP3    H2 3959   3.784   0.701   4.584
 1340TIP3   OH2 3960   8.354   5.563   2.834
 1340TIP3    H1 3961   8.290   5.518   2.889
 1340TIP3    H2 3962   8.304   5.592   2.758
 1341TIP3   OH2 3963   8.252   0.708   2.541
 1341TIP3    H1 3964   8.216   0.700   2.453
 1341TIP3    H2 3965   8.175   0.725   2.597
 1342TIP3   OH2 3966   0.467   5.640   4.928
 1342TIP3    H1 3967   0.536   5.635   4.862
 1342TIP3    H2 3968   0.484   5.723   4.974
 1343TIP3   OH2 3969   3.698   6.062   2.045
 1343TIP3    H1 3970   3.721   6.155   2.050
 1343TIP3    H2 3971   3.781   6.018   2.029
 1344TIP3   OH2 3972   7.073   0.127   0.790
 1344TIP3    H1 3973   7.032   0.181   0.857
 1344TIP3    H2 3974   7.066   0.179   0.710
 1345TIP3   OH2 3975   8.252   0.719   4.660
 1345TIP3    H1 3976   8.316   0.790   4.661
 1345TIP3    H2 3977   8.305   0.639   4.664
 1346TIP3   OH2 3978   5.680   5.816   0.313
 1346TIP3    H1 3979   5.728   5.805   0.231
 1346TIP3    H2 3980   5.625   5.738   0.319
 1347TIP3   OH2 3981   5.517   3.145   1.918
 1347TIP3    H1 3982   5.493   3.229   1.958
 1347TIP3    H2 3983   5.581   3.169   1.851
 1348TIP3   OH2 3984   4.794   3.010   2.587
 1348TIP3    H1 3985   4.710   3.033   2.627
 1348TIP3    H2 3986   4.838   2.958   2.654
 1349TIP3   OH2 3987   5.712   6.138   1.785
 1349TIP3    H1 3988   5.799   6.132   1.745
 1349TIP3    H2 3989   5.711   6.224   1.826
 1350TIP3   OH2 3990   6.656   3.848   3.765
 1350TIP3    H1 3991   6.671   3.836   3.858
 1350TIP3    H2 3992   6.561   3.859   3.757
 1351TIP3   OH2 3993   2.883   6.932   4.799
 1351TIP3    H1 3994   2.906   6.841   4.820
 1351TIP3    H2 3995   2.891   6.937   4.704
 1352TIP3   OH2 3996   7.326   1.795   4.009
 1352TIP3    H1 3997   7.394   1.860   3.993
 1352TIP3    H2 3998   7.320   1.746   3.927
 1353TIP3   OH2 3999   8.198   2.134   1.371
 1353TIP3    H1 4000   8.190   2.221   1.333
 1353TIP3    H2 4001   8.150   2.138   1.453
 1354TIP3   OH2 4002   7.128   6.689   5.988
 1354TIP3    H1 4003   7.190   6.621   6.016
 1354TIP3    H2 4004   7.090   6.721   6.070
 1355TIP3   OH2 4005   2.194   5.634   2.091
 1355TIP3    H1 4006   2.199   5.727   2.072
 1355TIP3    H2 4007   2.244   5.623   2.172
 1356TIP3   OH2 4008   2.231   7.744   1.807
 1356TIP3    H1 4009   2.306   7.692   1.835
 1356TIP3    H2 4010   2.159   7.681   1.798
 1357TIP3   OH2 4011   1.973   5.621   6.258
 1357TIP3    H1 4012   1.995   5.535   6.222
 1357TIP3    H2 4013   2.052   5.650   6.303
 1358TIP3   OH2 4014   4.939   1.913   0.505
 1358TIP3    H1 4015   4.872   1.854   0.471
 1358TIP3    H2 4016   4.909   2.000   0.482
 1359TIP3   OH2 4017   6.452   7.110   6.121
 1359TIP3    H1 4018   6.493   7.178   6.069
 1359TIP3    H2 4019   6.391   7.067   6.061
 1360TIP3   OH2 4020   5.930   3.778   2.860
 1360TIP3    H1 4021   5.926   3.705   2.922
 1360TIP3    H2 4022   5.843   3.817   2.865
 1361TIP3   OH2 4023   0.075   2.741   6.226
 1361TIP3    H1 4024   0.141   2.796   6.268
 1361TIP3    H2 4025  -0.007   2.764   6.269
 1362TIP3   OH2 4026   1.896   4.281   6.577
 1362TIP3    H1 4027   1.963   4.338   6.615
 1362TIP3    H2 4028   1.926   4.267   6.487
 1363TIP3   OH2 4029   1.083   2.194   5.326
 1363TIP3    H1 4030   1.143   2.159   5.261
 1363TIP3    H2 4031   1.024   2.121   5.346
 1364TIP3   OH2 4032   6.792   4.075   1.507
 1364TIP3    H1 4033   6.703   4.041   1.512
 1364TIP3    H2 4034   6.839   4.031   1.578
 1365TIP3   OH2 4035   3.787   4.179   6.389
 1365TIP3    H1 4036   3.728   4.244   6.350
 1365TIP3    H2 4037   3.857   4.232   6.428
 1366TIP3   OH2 4038   4.450   5.199   5.214
 1366TIP3    H1 4039   4.394   5.159   5.281
 1366TIP3    H2 4040   4.511   5.130   5.191
 1367TIP3   OH2 4041   6.110   1.310   4.888
 1367TIP3    H1 4042   6.153   1.249   4.828
 1367TIP3    H2 4043   6.149   1.292   4.973
 1368TIP3   OH2 4044   4.808   7.583   5.364
 1368TIP3    H1 4045   4.896   7.605   5.395
 1368TIP3    H2 4046   4.823   7.532   5.284
 1369TIP3   OH2 4047   7.328   1.285   2.129
 1369TIP3    H1 4048   7.262   1.345   2.095
 1369TIP3    H2 4049   7.374   1.254   2.051
 1370TIP3   OH2 4050   2.821   1.882   0.768
 1370TIP3    H1 4051   2.730   1.890   0.795
 1370TIP3    H2 4052   2.817   1.868   0.673
 1371TIP3   OH2 4053   3.362   0.295   0.529
 1371TIP3    H1 4054   3.405   0.225   0.480
 1371TIP3    H2 4055   3.353   0.366   0.466
 1372TIP3   OH2 4056   5.628   1.121   4.231
 1372TIP3    H1 4057   5.552   1.154   4.279
 1372TIP3    H2 4058   5.703   1.144   4.286
 1373TIP3   OH2 4059   8.363   1.057   1.353
 1373TIP3    H1 4060   8.385   1.142   1.390
 1373TIP3    H2 4061   8.288   1.027   1.404
 1374TIP3   OH2 4062   4.292   4.007   3.653
 1374TIP3    H1 4063   4.343   4.063   3.711
 1374TIP3    H2 4064   4.324   4.026   3.565
 1375TIP3   OH2 4065   4.548   2.707   4.569
 1375TIP3    H1 4066   4.467   2.757   4.580
 1375TIP3    H2 4067   4.531   2.649   4.495
 1376TIP3   OH2 4068   2.598   7.085   3.296
 1376TIP3    H1 4069   2.632   7.041   3.219
 1376TIP3    H2 4070   2.675   7.105   3.349
 1377TIP3   OH2 4071   0.416   7.177   4.025
 1377TIP3    H1 4072   0.414   7.137   4.112
 1377TIP3    H2 4073   0.468   7.256   4.035
 1378TIP3   OH2 4074   0.098   5.342   3.494
 1378TIP3    H1 4075   0.164   5.407   3.519
 1378TIP3    H2 4076   0.045   5.329   3.573
 1379TIP3   OH2 4077   7.979   3.500   6.515
 1379TIP3    H1 4078   8.030   3.440   6.460
 1379TIP3    H2 4079   7.894   3.505   6.473
 1380TIP3   OH2 4080   0.364   0.292   6.728
 1380TIP3    H1 4081   0.279   0.305   6.770
 1380TIP3    H2 4082   0.390   0.203   6.753
 1381TIP3   OH2 4083   1.736   7.110   2.138
 1381TIP3    H1 4084   1.650   7.076   2.161
 1381TIP3    H2 4085   1.788   7.100   2.218
 1382TIP3   OH2 4086   4.718   4.301   5.828
 1382TIP3    H1 4087   4.715   4.387   5.786
 1382TIP3    H2 4088   4.774   4.313   5.905
 1383TIP3   OH2 4089   6.932   0.305   2.130
 1383TIP3    H1 4090   6.982   0.306   2.048
 1383TIP3    H2 4091   6.993   0.339   2.195
 1384TIP3   OH2 4092   7.812   3.900   4.442
 1384TIP3    H1 4093   7.783   3.823   4.492
 1384TIP3    H2 4094   7.867   3.949   4.504
 1385TIP3   OH2 4095   7.266   7.501   4.394
 1385TIP3    H1 4096   7.329   7.472   4.328
 1385TIP3    H2 4097   7.318   7.509   4.474
 1386TIP3   OH2 4098   6.253   1.729   4.617
 1386TIP3    H1 4099   6.179   1.670   4.633
 1386TIP3    H2 4100   6.260   1.733   4.521
 1387TIP3   OH2 4101   7.405   1.890   6.619
 1387TIP3    H1 4102   7.418   1.857   6.708
 1387TIP3    H2 4103   7.459   1.969   6.614
 1388TIP3   OH2 4104   6.325   3.676   4.575
 1388TIP3    H1 4105   6.390   3.624   4.623
 1388TIP3    H2 4106   6.313   3.754   4.629
 1389TIP3   OH2 4107   7.316   6.496   6.599
 1389TIP3    H1 4108   7.407   6.493   6.628
 1389TIP3    H2 4109   7.284   6.406   6.608
 1390TIP3   OH2 4110   6.525   5.473   5.045
 1390TIP3    H1 4111   6.613   5.504   5.026
 1390TIP3    H2 4112   6.538   5.393   5.096
 1391TIP3   OH2 4113   5.491   0.016   5.386
 1391TIP3    H1 4114   5.574   0.011   5.434
 1391TIP3    H2 4115   5.516   0.048   5.299
 1392TIP3   OH2 4116   7.409   4.196   6.131
 1392TIP3    H1 4117   7.319   4.205   6.164
 1392TIP3    H2 4118   7.463   4.239   6.198
 1393TIP3   OH2 4119   6.592   4.761   3.601
 1393TIP3    H1 4120   6.557   4.698   3.539
 1393TIP3    H2 4121   6.668   4.717   3.640
 1394TIP3   OH2 4122   5.733   4.861   6.052
 1394TIP3    H1 4123   5.645   4.896   6.040
 1394TIP3    H2 4124   5.773   4.918   6.117
 1395TIP3   OH2 4125   1.857   0.762   3.016
 1395TIP3    H1 4126   1.879   0.763   2.922
 1395TIP3    H2 4127   1.923   0.818   3.057
 1396TIP3   OH2 4128   2.147   1.471   1.959
 1396TIP3    H1 4129   2.110   1.383   1.973
 1396TIP3    H2 4130   2.215   1.478   2.026
 1397TIP3   OH2 4131   6.787   0.630   0.506
 1397TIP3    H1 4132   6.856   0.682   0.465
 1397TIP3    H2 4133   6.800   0.541   0.472
 1398TIP3   OH2 4134   6.690   0.887   5.805
 1398TIP3    H1 4135   6.770   0.930   5.835
 1398TIP3    H2 4136   6.720   0.824   5.739
 1399TIP3   OH2 4137   6.549   1.826   2.681
 1399TIP3    H1 4138   6.590   1.905   2.717
 1399TIP3    H2 4139   6.519   1.777   2.757
 1400TIP3   OH2 4140   0.827   5.828   2.054
 1400TIP3    H1 4141   0.748   5.866   2.092
 1400TIP3    H2 4142   0.797   5.785   1.974
 1401TIP3   OH2 4143   3.825   7.787   4.142
 1401TIP3    H1 4144   3.795   7.743   4.063
 1401TIP3    H2 4145   3.896   7.844   4.112
 1402TIP3   OH2 4146   0.902   1.270   3.097
 1402TIP3    H1 4147   0.984   1.286   3.142
 1402TIP3    H2 4148   0.927   1.255   3.006
 1403TIP3   OH2 4149   8.323   2.079   0.086
 1403TIP3    H1 4150   8.258   2.143   0.116
 1403TIP3    H2 4151   8.389   2.079   0.155
 1404TIP3   OH2 4152   5.754   1.342   3.775
 1404TIP3    H1 4153   5.824   1.281   3.753
 1404TIP3    H2 4154   5.711   1.360   3.691
 1405TIP3   OH2 4155   5.617   3.602   0.119
 1405TIP3    H1 4156   5.569   3.668   0.169
 1405TIP3    H2 4157   5.678   3.564   0.182
 1406TIP3   OH2 4158   1.283   7.164   4.035
 1406TIP3    H1 4159   1.363   7.115   4.056
 1406TIP3    H2 4160   1.313   7.254   4.022
 1407TIP3   OH2 4161   0.994   5.223   2.975
 1407TIP3    H1 4162   0.956   5.154   3.029
 1407TIP3    H2 4163   1.078   5.243   3.017
 1408TIP3   OH2 4164   0.272   2.833   0.758
 1408TIP3    H1 4165   0.176   2.842   0.762
 1408TIP3    H2 4166   0.286   2.742   0.735
 1409TIP3   OH2 4167   1.470   3.702   4.123
 1409TIP3    H1 4168   1.421   3.624   4.151
 1409TIP3    H2 4169   1.560   3.670   4.113
 1410TIP3   OH2 4170   6.521   7.200   0.472
 1410TIP3    H1 4171   6.467   7.276   0.495
 1410TIP3    H2 4172   6.533   7.153   0.554
 1411TIP3   OH2 4173   3.149   7.269   1.991
 1411TIP3    H1 4174   3.087   7.294   2.059
 1411TIP3    H2 4175   3.235   7.285   2.030
 1412TIP3   OH2 4176   6.311   0.178   5.301
 1412TIP3    H1 4177   6.361   0.187   5.219
 1412TIP3    H2 4178   6.286   0.268   5.324
 1413TIP3   OH2 4179   4.960   6.604   6.179
 1413TIP3    H1 4180   4.880   6.553   6.168
 1413TIP3    H2 4181   5.020   6.545   6.224
 1414TIP3   OH2 4182   5.749   6.719   3.115
 1414TIP3    H1 4183   5.751   6.727   3.019
 1414TIP3    H2 4184   5.772   6.806   3.147
 1415TIP3   OH2 4185   4.576   1.901   6.251
 1415TIP3    H1 4186   4.567   1.936   6.339
 1415TIP3    H2 4187   4.617   1.815   6.263
 1416TIP3   OH2 4188   6.181   1.317   4.553
 1416TIP3    H1 4189   6.266   1.356   4.572
 1416TIP3    H2 4190   6.198   1.223   4.550
 1417TIP3   OH2 4191   4.163   5.920   1.615
 1417TIP3    H1 4192   4.143   5.854   1.548
 1417TIP3    H2 4193   4.165   6.003   1.566
 1418TIP3   OH2 4194   5.514   0.249   6.032
 1418TIP3    H1 4195   5.467   0.190   6.091
 1418TIP3    H2 4196   5.606   0.223   6.039
 1419TIP3   OH2 4197   7.184   7.065   1.662
 1419TIP3    H1 4198   7.202   7.146   1.709
 1419TIP3    H2 4199   7.270   7.027   1.645
 1420TIP3   OH2 4200   6.918   4.575   0.094
 1420TIP3    H1 4201   6.857   4.590   0.167
 1420TIP3    H2 4202   6.960   4.492   0.114
 1421TIP3   OH2 4203   0.433   0.431   0.403
 1421TIP3    H1 4204   0.390   0.364   0.456
 1421TIP3    H2 4205   0.460   0.384   0.323
 1422TIP3   OH2 4206   1.337   0.050   6.805
 1422TIP3    H1 4207   1.329  -0.045   6.798
 1422TIP3    H2 4208   1.271   0.084   6.744
 1423TIP3   OH2 4209   3.339   3.630   4.658
 1423TIP3    H1 4210   3.421   3.657   4.617
 1423TIP3    H2 4211   3.324   3.541   4.626
 1424TIP3   OH2 4212   4.551   7.657   2.645
 1424TIP3    H1 4213   4.555   7.603   2.724
 1424TIP3    H2 4214   4.632   7.708   2.646
 1425TIP3   OH2 4215   4.394   0.359   2.775
 1425TIP3    H1 4216   4.486   0.380   2.792
 1425TIP3    H2 4217   4.347   0.441   2.792
 1426TIP3   OH2 4218   0.452   5.825   1.964
 1426TIP3    H1 4219   0.417   5.857   2.047
 1426TIP3    H2 4220   0.530   5.879   1.949
 1427TIP3   OH2 4221   6.657   3.161   1.714
 1427TIP3    H1 4222   6.682   3.101   1.644
 1427TIP3    H2 4223   6.646   3.104   1.791
 1428TIP3   OH2 4224   4.569   1.703   5.144
 1428TIP3    H1 4225   4.637   1.699   5.211
 1428TIP3    H2 4226   4.492   1.734   5.190
 1429TIP3   OH2 4227   7.614   7.647   6.712
 1429TIP3    H1 4228   7.549   7.627   6.644
 1429TIP3    H2 4229   7.695   7.663   6.664
 1430TIP3   OH2 4230   3.729   6.177   4.100
 1430TIP3    H1 4231   3.752   6.125   4.176
 1430TIP3    H2 4232   3.679   6.117   4.044
 1431TIP3   OH2 4233   2.737   2.767   3.479
 1431TIP3    H1 4234   2.652   2.783   3.520
 1431TIP3    H2 4235   2.799   2.766   3.551
 1432TIP3   OH2 4236   0.195   2.195   2.620
 1432TIP3    H1 4237   0.202   2.191   2.716
 1432TIP3    H2 4238   0.180   2.287   2.601
 1433TIP3   OH2 4239   4.427   5.572   1.685
 1433TIP3    H1 4240   4.499   5.513   1.707
 1433TIP3    H2 4241   4.403   5.613   1.768
 1434TIP3   OH2 4242   2.816   0.539   1.871
 1434TIP3    H1 4243   2.806   0.567   1.962
 1434TIP3    H2 4244   2.897   0.580   1.842
 1435TIP3   OH2 4245   0.339   4.314   4.024
 1435TIP3    H1 4246   0.251   4.324   3.987
 1435TIP3    H2 4247   0.397   4.345   3.955
 1436TIP3   OH2 4248   4.579   7.252   2.614
 1436TIP3    H1 4249   4.616   7.269   2.701
 1436TIP3    H2 4250   4.592   7.158   2.600
 1437TIP3   OH2 4251   6.486   4.584   3.414
 1437TIP3    H1 4252   6.524   4.504   3.451
 1437TIP3    H2 4253   6.558   4.623   3.364
 1438TIP3   OH2 4254   6.389   5.002   4.953
 1438TIP3    H1 4255   6.427   5.084   4.987
 1438TIP3    H2 4256   6.319   4.982   5.014
 1439TIP3   OH2 4257   1.539   2.504   2.174
 1439TIP3    H1 4258   1.605   2.573   2.162
 1439TIP3    H2 4259   1.551   2.446   2.099
 1440TIP3   OH2 4260   2.025   6.578   6.442
 1440TIP3    H1 4261   2.082   6.506   6.469
 1440TIP3    H2 4262   1.957   6.582   6.509
 1441TIP3   OH2 4263   0.312   2.155   4.076
 1441TIP3    H1 4264   0.228   2.196   4.095
 1441TIP3    H2 4265   0.341   2.196   3.994
 1442TIP3   OH2 4266   4.950   0.283   1.195
 1442TIP3    H1 4267   4.956   0.204   1.249
 1442TIP3    H2 4268   4.896   0.256   1.120
 1443TIP3   OH2 4269   8.310   6.778   4.777
 1443TIP3    H1 4270   8.341   6.740   4.860
 1443TIP3    H2 4271   8.355   6.727   4.710
 1444TIP3   OH2 4272   7.664   5.282   6.206
 1444TIP3    H1 4273   7.680   5.264   6.299
 1444TIP3    H2 4274   7.751   5.302   6.170
 1445TIP3   OH2 4275   3.867   1.780   0.630
 1445TIP3    H1 4276   3.942   1.819   0.675
 1445TIP3    H2 4277   3.793   1.835   0.654
 1446TIP3   OH2 4278   1.677   7.576   0.597
 1446TIP3    H1 4279   1.726   7.647   0.638
 1446TIP3    H2 4280   1.701   7.580   0.504
 1447TIP3   OH2 4281   2.327   6.224   2.935
 1447TIP3    H1 4282   2.335   6.310   2.975
 1447TIP3    H2 4283   2.274   6.239   2.856
 1448TIP3   OH2 4284   4.812   6.998   5.048
 1448TIP3    H1 4285   4.879   7.015   5.114
 1448TIP3    H2 4286   4.860   6.986   4.966
 1449TIP3   OH2 4287   6.088   5.810   6.333
 1449TIP3    H1 4288   6.125   5.820   6.245
 1449TIP3    H2 4289   6.146   5.861   6.390
 1450TIP3   OH2 4290   6.388   7.240   5.781
 1450TIP3    H1 4291   6.474   7.263   5.816
 1450TIP3    H2 4292   6.376   7.149   5.807
 1451TIP3   OH2 4293   6.442   2.027   3.274
 1451TIP3    H1 4294   6.502   2.038   3.348
 1451TIP3    H2 4295   6.443   1.933   3.256
 1452TIP3   OH2 4296   8.056   6.960   6.654
 1452TIP3    H1 4297   7.991   7.008   6.602
 1452TIP3    H2 4298   8.028   6.869   6.649
 1453TIP3   OH2 4299   6.905   1.794   5.813
 1453TIP3    H1 4300   6.842   1.850   5.858
 1453TIP3    H2 4301   6.949   1.853   5.751
 1454TIP3   OH2 4302   0.919   0.030   5.382
 1454TIP3    H1 4303   0.959   0.114   5.405
 1454TIP3    H2 4304   0.866   0.007   5.458
 1455TIP3   OH2 4305   1.485   4.564   4.021
 1455TIP3    H1 4306   1.494   4.584   4.114
 1455TIP3    H2 4307   1.391   4.552   4.008
 1456TIP3   OH2 4308   3.522   0.537   2.073
 1456TIP3    H1 4309   3.539   0.621   2.030
 1456TIP3    H2 4310   3.432   0.544   2.105
 1457TIP3   OH2 4311   5.291   2.473   1.102
 1457TIP3    H1 4312   5.242   2.547   1.139
 1457TIP3    H2 4313   5.366   2.462   1.160
 1458TIP3   OH2 4314   7.440   5.892   4.122
 1458TIP3    H1 4315   7.418   5.977   4.158
 1458TIP3    H2 4316   7.415   5.897   4.029
 1459TIP3   OH2 4317   3.832   1.553   6.623
 1459TIP3    H1 4318   3.873   1.550   6.537
 1459TIP3    H2 4319   3.796   1.641   6.629
 1460TIP3   OH2 4320   4.548   0.274   2.505
 1460TIP3    H1 4321   4.487   0.220   2.556
 1460TIP3    H2 4322   4.594   0.325   2.571
 1461TIP3   OH2 4323   1.248   6.648   3.005
 1461TIP3    H1 4324   1.238   6.742   2.991
 1461TIP3    H2 4325   1.190   6.628   3.078
 1462TIP3   OH2 4326   6.737   5.070   0.634
 1462TIP3    H1 4327   6.725   5.117   0.551
 1462TIP3    H2 4328   6.684   5.119   0.697
 1463TIP3   OH2 4329   6.680   2.180   0.118
 1463TIP3    H1 4330   6.605   2.162   0.175
 1463TIP3    H2 4331   6.749   2.209   0.176
 1464TIP3   OH2 4332   5.568   1.180   2.712
 1464TIP3    H1 4333   5.514   1.244   2.759
 1464TIP3    H2 4334   5.648   1.227   2.690
 1465TIP3   OH2 4335   4.874   0.023   0.155
 1465TIP3    H1 4336   4.931   0.021   0.233
 1465TIP3    H2 4337   4.807   0.089   0.177
 1466TIP3   OH2 4338   5.544   2.313   4.878
 1466TIP3    H1 4339   5.551   2.380   4.946
 1466TIP3    H2 4340   5.469   2.259   4.904
 1467TIP3   OH2 4341   3.281   3.490   0.171
 1467TIP3    H1 4342   3.302   3.502   0.264
 1467TIP3    H2 4343   3.355   3.529   0.125
 1468TIP3   OH2 4344   1.568   3.118   1.046
 1468TIP3    H1 4345   1.604   3.080   0.965
 1468TIP3    H2 4346   1.517   3.047   1.085
 1469TIP3   OH2 4347   2.846   6.429   0.478
 1469TIP3    H1 4348   2.750   6.427   0.478
 1469TIP3    H2 4349   2.868   6.522   0.491
 1470TIP3   OH2 4350   7.716   2.733   4.095
 1470TIP3    H1 4351   7.620   2.733   4.100
 1470TIP3    H2 4352   7.743   2.670   4.162
 1471TIP3   OH2 4353   5.860   4.259   5.469
 1471TIP3    H1 4354   5.908   4.329   5.424
 1471TIP3    H2 4355   5.872   4.277   5.562
 1472TIP3   OH2 4356   6.944   6.596   1.241
 1472TIP3    H1 4357   6.939   6.501   1.254
 1472TIP3    H2 4358   6.977   6.607   1.153
 1473TIP3   OH2 4359   4.930   2.385   3.365
 1473TIP3    H1 4360   4.959   2.454   3.425
 1473TIP3    H2 4361   4.986   2.310   3.388
 1474TIP3   OH2 4362   4.260   7.375   0.983
 1474TIP3    H1 4363   4.169   7.398   0.965
 1474TIP3    H2 4364   4.265   7.281   0.968
 1475TIP3   OH2 4365   0.390   5.888   1.240
 1475TIP3    H1 4366   0.466   5.891   1.182
 1475TIP3    H2 4367   0.422   5.846   1.320
 1476TIP3   OH2 4368   2.591   2.874   6.401
 1476TIP3    H1 4369   2.533   2.799   6.411
 1476TIP3    H2 4370   2.575   2.927   6.479
 1477TIP3   OH2 4371   6.439   3.508   5.288
 1477TIP3    H1 4372   6.499   3.447   5.332
 1477TIP3    H2 4373   6.391   3.550   5.359
 1478TIP3   OH2 4374   0.346   0.795   0.663
 1478TIP3    H1 4375   0.269   0.821   0.612
 1478TIP3    H2 4376   0.417   0.791   0.599
 1479TIP3   OH2 4377   5.943   5.051   4.164
 1479TIP3    H1 4378   5.912   4.961   4.170
 1479TIP3    H2 4379   5.868   5.100   4.131
 1480TIP3   OH2 4380   0.748   0.288   2.215
 1480TIP3    H1 4381   0.762   0.259   2.125
 1480TIP3    H2 4382   0.737   0.383   2.208
 1481TIP3   OH2 4383   5.448   1.765   4.190
 1481TIP3    H1 4384   5.394   1.696   4.230
 1481TIP3    H2 4385   5.519   1.718   4.147
 1482TIP3   OH2 4386   0.937   6.468   2.588
 1482TIP3    H1 4387   0.941   6.389   2.641
 1482TIP3    H2 4388   0.952   6.438   2.498
 1483TIP3   OH2 4389   6.523   6.087   6.797
 1483TIP3    H1 4390   6.584   6.092   6.723
 1483TIP3    H2 4391   6.562   6.144   6.863
 1484TIP3   OH2 4392   0.550   5.422   4.103
 1484TIP3    H1 4393   0.622   5.376   4.059
 1484TIP3    H2 4394   0.485   5.437   4.034
 1485TIP3   OH2 4395   6.987   1.742   6.477
 1485TIP3    H1 4396   7.044   1.797   6.529
 1485TIP3    H2 4397   6.900   1.780   6.488
 1486TIP3   OH2 4398   2.251   4.375   0.081
 1486TIP3    H1 4399   2.288   4.382   0.169
 1486TIP3    H2 4400   2.193   4.450   0.074
 1487TIP3   OH2 4401   8.298   2.310   5.362
 1487TIP3    H1 4402   8.333   2.316   5.273
 1487TIP3    H2 4403   8.203   2.313   5.351
 1488TIP3   OH2 4404   5.627   0.517   1.002
 1488TIP3    H1 4405   5.688   0.587   1.027
 1488TIP3    H2 4406   5.625   0.458   1.078
 1489TIP3   OH2 4407   6.410   3.200   5.285
 1489TIP3    H1 4408   6.338   3.209   5.223
 1489TIP3    H2 4409   6.392   3.266   5.352
 1490TIP3   OH2 4410   3.494   0.601   4.272
 1490TIP3    H1 4411   3.537   0.682   4.301
 1490TIP3    H2 4412   3.401   0.622   4.271
 1491TIP3   OH2 4413   7.842   1.789   4.712
 1491TIP3    H1 4414   7.860   1.719   4.651
 1491TIP3    H2 4415   7.828   1.866   4.658
 1492TIP3   OH2 4416   7.970   7.728   5.114
 1492TIP3    H1 4417   7.959   7.798   5.050
 1492TIP3    H2 4418   7.925   7.652   5.076
 1493TIP3   OH2 4419   1.210   4.891   1.409
 1493TIP3    H1 4420   1.130   4.863   1.454
 1493TIP3    H2 4421   1.254   4.809   1.386
 1494TIP3   OH2 4422   1.693   0.310   4.800
 1494TIP3    H1 4423   1.715   0.275   4.714
 1494TIP3    H2 4424   1.632   0.382   4.782
 1495TIP3   OH2 4425   5.230   2.724   4.676
 1495TIP3    H1 4426   5.249   2.633   4.697
 1495TIP3    H2 4427   5.169   2.720   4.602
 1496TIP3   OH2 4428   6.367   3.814   4.052
 1496TIP3    H1 4429   6.387   3.726   4.082
 1496TIP3    H2 4430   6.279   3.832   4.086
 1497TIP3   OH2 4431   0.742   3.099   1.309
 1497TIP3    H1 4432   0.723   3.168   1.373
 1497TIP3    H2 4433   0.836   3.106   1.294
 1498TIP3   OH2 4434   7.005   0.893   0.574
 1498TIP3    H1 4435   7.012   0.834   0.650
 1498TIP3    H2 4436   7.029   0.838   0.500
 1499TIP3   OH2 4437   2.961   6.304   4.360
 1499TIP3    H1 4438   3.011   6.253   4.296
 1499TIP3    H2 4439   2.993   6.274   4.445
 1500TIP3   OH2 4440   7.174   2.126   2.604
 1500TIP3    H1 4441   7.102   2.142   2.665
 1500TIP3    H2 4442   7.133   2.134   2.517
 1501TIP3   OH2 4443   8.403   1.863   6.757
 1501TIP3    H1 4444   8.384   1.769   6.764
 1501TIP3    H2 4445   8.490   1.867   6.719
 1502TIP3   OH2 4446   6.556   5.221   5.178
 1502TIP3    H1 4447   6.499   5.180   5.243
 1502TIP3    H2 4448   6.644   5.192   5.202
 1503TIP3   OH2 4449   6.135   2.506   4.467
 1503TIP3    H1 4450   6.186   2.566   4.520
 1503TIP3    H2 4451   6.054   2.494   4.516
 1504TIP3   OH2 4452   5.205   5.441   5.570
 1504TIP3    H1 4453   5.255   5.429   5.490
 1504TIP3    H2 4454   5.201   5.354   5.610
 1505TIP3   OH2 4455   3.462   6.675   3.105
 1505TIP3    H1 4456   3.394   6.626   3.150
 1505TIP3    H2 4457   3.542   6.653   3.152
 1506TIP3   OH2 4458   1.360   1.842   1.598
 1506TIP3    H1 4459   1.447   1.858   1.633
 1506TIP3    H2 4460   1.355   1.747   1.588
 1507TIP3   OH2 4461   6.574   5.378   4.055
 1507TIP3    H1 4462   6.638   5.422   4.112
 1507TIP3    H2 4463   6.588   5.418   3.969
 1508TIP3   OH2 4464   3.231   0.691   5.720
 1508TIP3    H1 4465   3.321   0.716   5.739
 1508TIP3    H2 4466   3.179   0.733   5.788
 1509TIP3   OH2 4467   2.838   5.277   3.371
 1509TIP3    H1 4468   2.760   5.332   3.363
 1509TIP3    H2 4469   2.804   5.189   3.384
 1510TIP3   OH2 4470   7.795   1.763   0.709
 1510TIP3    H1 4471   7.782   1.854   0.733
 1510TIP3    H2 4472   7.713   1.737   0.668
 1511TIP3   OH2 4473   6.219   3.156   4.331
 1511TIP3    H1 4474   6.134   3.113   4.326
 1511TIP3    H2 4475   6.252   3.153   4.242
 1512TIP3   OH2 4476   6.978   3.267   1.730
 1512TIP3    H1 4477   6.900   3.233   1.686
 1512TIP3    H2 4478   6.957   3.359   1.749
 1513TIP3   OH2 4479   4.332   2.369   2.231
 1513TIP3    H1 4480   4.411   2.391   2.279
 1513TIP3    H2 4481   4.356   2.378   2.139
 1514TIP3   OH2 4482   6.798   1.351   4.379
 1514TIP3    H1 4483   6.774   1.259   4.373
 1514TIP3    H2 4484   6.816   1.366   4.472
 1515TIP3   OH2 4485   6.018   3.354   1.592
 1515TIP3    H1 4486   6.085   3.375   1.527
 1515TIP3    H2 4487   5.935   3.379   1.551
 1516TIP3   OH2 4488   1.146   1.910   2.550
 1516TIP3    H1 4489   1.111   1.853   2.618
 1516TIP3    H2 4490   1.076   1.917   2.485
 1517TIP3   OH2 4491   2.301   5.266   5.552
 1517TIP3    H1 4492   2.245   5.339   5.579
 1517TIP3    H2 4493   2.371   5.264   5.617
 1518TIP3   OH2 4494   3.053   4.418   2.322
 1518TIP3    H1 4495   3.072   4.349   2.258
 1518TIP3    H2 4496   2.961   4.441   2.307
 1519TIP3   OH2 4497   0.449   7.076   4.278
 1519TIP3    H1 4498   0.456   6.982   4.298
 1519TIP3    H2 4499   0.424   7.116   4.361
 1520TIP3   OH2 4500   5.899   2.904   4.643
 1520TIP3    H1 4501   5.835   2.972   4.659
 1520TIP3    H2 4502   5.849   2.822   4.648
 1521TIP3   OH2 4503   1.874   3.114   0.415
 1521TIP3    H1 4504   1.862   3.033   0.465
 1521TIP3    H2 4505   1.791   3.161   0.425
 1522TIP3   OH2 4506   2.594   7.383   5.168
 1522TIP3    H1 4507   2.591   7.289   5.187
 1522TIP3    H2 4508   2.502   7.408   5.158
 1523TIP3   OH2 4509   6.927   0.066   5.794
 1523TIP3    H1 4510   7.002   0.008   5.791
 1523TIP3    H2 4511   6.962   0.151   5.821
 1524TIP3   OH2 4512   2.458   2.381   5.261
 1524TIP3    H1 4513   2.523   2.432   5.308
 1524TIP3    H2 4514   2.504   2.352   5.182
 1525TIP3   OH2 4515   1.955   0.898   6.293
 1525TIP3    H1 4516   1.986   0.884   6.383
 1525TIP3    H2 4517   1.891   0.828   6.279
 1526TIP3   OH2 4518   6.164   3.509   1.350
 1526TIP3    H1 4519   6.136   3.590   1.307
 1526TIP3    H2 4520   6.130   3.439   1.294
 1527TIP3   OH2 4521   5.939   2.471   1.481
 1527TIP3    H1 4522   5.967   2.382   1.463
 1527TIP3    H2 4523   5.878   2.492   1.410
 1528TIP3   OH2 4524   1.455   7.131   4.255
 1528TIP3    H1 4525   1.519   7.179   4.202
 1528TIP3    H2 4526   1.498   7.117   4.339
 1529TIP3   OH2 4527   7.024   6.798   6.217
 1529TIP3    H1 4528   7.069   6.882   6.225
 1529TIP3    H2 4529   6.945   6.808   6.271
 1530TIP3   OH2 4530   4.118   5.771   5.870
 1530TIP3    H1 4531   4.078   5.734   5.949
 1530TIP3    H2 4532   4.205   5.800   5.899
 1531TIP3   OH2 4533   3.275   7.011   5.448
 1531TIP3    H1 4534   3.330   6.996   5.525
 1531TIP3    H2 4535   3.187   7.023   5.483
 1532TIP3   OH2 4536   3.671   6.554   3.267
 1532TIP3    H1 4537   3.664   6.483   3.204
 1532TIP3    H2 4538   3.742   6.609   3.232
 1533TIP3   OH2 4539   2.865   1.511   2.409
 1533TIP3    H1 4540   2.954   1.544   2.405
 1533TIP3    H2 4541   2.833   1.535   2.495
 1534TIP3   OH2 4542   0.846   1.553   2.509
 1534TIP3    H1 4543   0.939   1.555   2.534
 1534TIP3    H2 4544   0.846   1.568   2.415
 1535TIP3   OH2 4545   2.393   2.550   3.162
 1535TIP3    H1 4546   2.318   2.601   3.194
 1535TIP3    H2 4547   2.420   2.497   3.237
 1536TIP3   OH2 4548   2.757   1.068   4.454
 1536TIP3    H1 4549   2.777   0.987   4.501
 1536TIP3    H2 4550   2.704   1.118   4.515
 1537TIP3   OH2 4551   4.011   0.999   2.848
 1537TIP3    H1 4552   4.024   0.942   2.924
 1537TIP3    H2 4553   4.085   1.059   2.850
 1538TIP3   OH2 4554   1.928   0.010   3.842
 1538TIP3    H1 4555   1.954   0.072   3.774
 1538TIP3    H2 4556   1.998   0.014   3.907
 1539TIP3   OH2 4557   4.973   1.359   4.361
 1539TIP3    H1 4558   4.891   1.331   4.322
 1539TIP3    H2 4559   5.033   1.285   4.348
 1540TIP3   OH2 4560   4.080   4.098   4.232
 1540TIP3    H1 4561   4.027   4.176   4.215
 1540TIP3    H2 4562   4.089   4.056   4.146
 1541TIP3   OH2 4563   8.173   0.088   1.514
 1541TIP3    H1 4564   8.127   0.107   1.596
 1541TIP3    H2 4565   8.264   0.111   1.531
 1542TIP3   OH2 4566   0.690   3.947   5.677
 1542TIP3    H1 4567   0.602   3.913   5.662
 1542TIP3    H2 4568   0.743   3.869   5.695
 1543TIP3   OH2 4569   4.019   1.405   4.163
 1543TIP3    H1 4570   4.028   1.409   4.068
 1543TIP3    H2 4571   4.098   1.449   4.197
 1544TIP3   OH2 4572   7.438   0.620   2.437
 1544TIP3    H1 4573   7.484   0.704   2.441
 1544TIP3    H2 4574   7.429   0.594   2.528
 1545TIP3   OH2 4575   5.799   1.815   4.346
 1545TIP3    H1 4576   5.865   1.853   4.288
 1545TIP3    H2 4577   5.719   1.863   4.326
 1546TIP3   OH2 4578   4.489   3.124   6.842
 1546TIP3    H1 4579   4.507   3.175   6.763
 1546TIP3    H2 4580   4.420   3.063   6.816
 1547TIP3   OH2 4581   3.655   2.096   2.237
 1547TIP3    H1 4582   3.649   2.191   2.234
 1547TIP3    H2 4583   3.749   2.077   2.227
 1548TIP3   OH2 4584   7.039   3.449   0.722
 1548TIP3    H1 4585   7.125   3.422   0.753
 1548TIP3    H2 4586   6.987   3.369   0.723
 1549TIP3   OH2 4587   8.331   7.689   0.332
 1549TIP3    H1 4588   8.307   7.717   0.244
 1549TIP3    H2 4589   8.247   7.671   0.375
 1550TIP3   OH2 4590   3.833   0.384   2.526
 1550TIP3    H1 4591   3.836   0.480   2.535
 1550TIP3    H2 4592   3.826   0.352   2.616
 1551TIP3   OH2 4593   4.919   3.024   3.117
 1551TIP3    H1 4594   5.009   2.994   3.127
 1551TIP3    H2 4595   4.900   3.012   3.024
 1552TIP3   OH2 4596   2.930   0.853   5.040
 1552TIP3    H1 4597   3.010   0.904   5.030
 1552TIP3    H2 4598   2.901   0.871   5.130
 1553TIP3   OH2 4599   4.544   5.238   6.266
 1553TIP3    H1 4600   4.639   5.223   6.272
 1553TIP3    H2 4601   4.534   5.291   6.186
 1554TIP3   OH2 4602   4.879   6.051   4.994
 1554TIP3    H1 4603   4.947   6.028   5.057
 1554TIP3    H2 4604   4.925   6.102   4.928
 1555TIP3   OH2 4605   6.556   2.615   1.833
 1555TIP3    H1 4606   6.497   2.541   1.821
 1555TIP3    H2 4607   6.594   2.630   1.746
 1556TIP3   OH2 4608   3.217   4.811   2.096
 1556TIP3    H1 4609   3.277   4.866   2.147
 1556TIP3    H2 4610   3.246   4.722   2.113
 1557TIP3   OH2 4611   5.017   5.661   4.074
 1557TIP3    H1 4612   4.931   5.627   4.097
 1557TIP3    H2 4613   5.016   5.664   3.978
 1558TIP3   OH2 4614   1.097   7.023   6.401
 1558TIP3    H1 4615   1.175   7.059   6.358
 1558TIP3    H2 4616   1.114   7.034   6.494
 1559TIP3   OH2 4617   1.095   0.798   3.201
 1559TIP3    H1 4618   1.107   0.774   3.293
 1559TIP3    H2 4619   1.097   0.893   3.201
 1560TIP3   OH2 4620   1.262   7.404   1.229
 1560TIP3    H1 4621   1.204   7.431   1.300
 1560TIP3    H2 4622   1.297   7.320   1.256
 1561TIP3   OH2 4623   2.379   4.491   4.145
 1561TIP3    H1 4624   2.339   4.527   4.066
 1561TIP3    H2 4625   2.306   4.454   4.194
 1562TIP3   OH2 4626   4.236   6.515   5.812
 1562TIP3    H1 4627   4.236   6.462   5.732
 1562TIP3    H2 4628   4.325   6.549   5.819
 1563TIP3   OH2 4629   4.728   6.262   5.176
 1563TIP3    H1 4630   4.674   6.332   5.214
 1563TIP3    H2 4631   4.803   6.308   5.138
 1564TIP3   OH2 4632   0.316   3.019   2.511
 1564TIP3    H1 4633   0.333   2.983   2.424
 1564TIP3    H2 4634   0.310   3.113   2.498
 1565TIP3   OH2 4635   0.331   0.719   1.655
 1565TIP3    H1 4636   0.308   0.806   1.687
 1565TIP3    H2 4637   0.376   0.677   1.728
 1566TIP3   OH2 4638   7.108   2.454   0.108
 1566TIP3    H1 4639   7.095   2.548   0.116
 1566TIP3    H2 4640   7.203   2.444   0.102
 1567TIP3   OH2 4641   3.547   4.717   0.422
 1567TIP3    H1 4642   3.466   4.751   0.458
 1567TIP3    H2 4643   3.576   4.652   0.486
 1568TIP3   OH2 4644   7.967   4.731   6.586
 1568TIP3    H1 4645   7.914   4.754   6.510
 1568TIP3    H2 4646   8.034   4.799   6.590
 1569TIP3   OH2 4647   3.708   0.623   3.372
 1569TIP3    H1 4648   3.632   0.589   3.324
 1569TIP3    H2 4649   3.705   0.577   3.456
 1570TIP3   OH2 4650   5.840   7.456   2.943
 1570TIP3    H1 4651   5.906   7.514   2.981
 1570TIP3    H2 4652   5.890   7.387   2.900
 1571TIP3   OH2 4653   0.661   0.698   5.107
 1571TIP3    H1 4654   0.673   0.711   5.201
 1571TIP3    H2 4655   0.660   0.603   5.096
 1572TIP3   OH2 4656   1.774   6.704   6.210
 1572TIP3    H1 4657   1.838   6.744   6.267
 1572TIP3    H2 4658   1.698   6.763   6.214
 1573TIP3   OH2 4659   2.867   6.406   1.584
 1573TIP3    H1 4660   2.905   6.410   1.672
 1573TIP3    H2 4661   2.930   6.356   1.532
 1574TIP3   OH2 4662   7.144   0.609   0.130
 1574TIP3    H1 4663   7.152   0.521   0.092
 1574TIP3    H2 4664   7.220   0.657   0.096
 1575TIP3   OH2 4665   2.678   2.022   1.066
 1575TIP3    H1 4666   2.615   2.049   0.998
 1575TIP3    H2 4667   2.763   2.052   1.033
 1576TIP3   OH2 4668   1.468   3.187   1.445
 1576TIP3    H1 4669   1.472   3.130   1.522
 1576TIP3    H2 4670   1.443   3.272   1.479
 1577TIP3   OH2 4671   0.592   2.366   0.744
 1577TIP3    H1 4672   0.686   2.365   0.726
 1577TIP3    H2 4673   0.559   2.284   0.708
 1578TIP3   OH2 4674   7.504   5.666   3.247
 1578TIP3    H1 4675   7.511   5.576   3.214
 1578TIP3    H2 4676   7.507   5.657   3.342
 1579TIP3   OH2 4677   3.533   5.148   5.041
 1579TIP3    H1 4678   3.485   5.066   5.029
 1579TIP3    H2 4679   3.465   5.211   5.067
 1580TIP3   OH2 4680   7.879   7.040   3.174
 1580TIP3    H1 4681   7.868   7.035   3.079
 1580TIP3    H2 4682   7.801   6.997   3.210
 1581TIP3   OH2 4683   3.277   6.249   0.698
 1581TIP3    H1 4684   3.256   6.189   0.627
 1581TIP3    H2 4685   3.363   6.285   0.675
 1582TIP3   OH2 4686   6.816   1.940   1.855
 1582TIP3    H1 4687   6.809   2.035   1.861
 1582TIP3    H2 4688   6.839   1.912   1.943
 1583TIP3   OH2 4689   4.486   4.719   6.455
 1583TIP3    H1 4690   4.461   4.633   6.423
 1583TIP3    H2 4691   4.516   4.766   6.378
 1584TIP3   OH2 4692   4.246   2.244   6.114
 1584TIP3    H1 4693   4.217   2.186   6.185
 1584TIP3    H2 4694   4.299   2.310   6.158
 1585TIP3   OH2 4695   4.879   3.469   6.589
 1585TIP3    H1 4696   4.791   3.480   6.625
 1585TIP3    H2 4697   4.936   3.471   6.666
 1586TIP3   OH2 4698   7.006   6.902   3.222
 1586TIP3    H1 4699   6.972   6.965   3.286
 1586TIP3    H2 4700   6.934   6.841   3.208
 1587TIP3   OH2 4701   2.035   3.983  -0.050
 1587TIP3    H1 4702   2.062   3.986   0.042
 1587TIP3    H2 4703   2.090   4.048  -0.093
 1588TIP3   OH2 4704   2.312   0.791   4.029
 1588TIP3    H1 4705   2.345   0.880   4.046
 1588TIP3    H2 4706   2.239   0.781   4.090
 1589TIP3   OH2 4707   4.839   6.326   5.641
 1589TIP3    H1 4708   4.836   6.231   5.652
 1589TIP3    H2 4709   4.895   6.357   5.712
 1590TIP3   OH2 4710   7.941   6.665   6.650
 1590TIP3    H1 4711   7.850   6.635   6.649
 1590TIP3    H2 4712   7.978   6.625   6.729
 1591TIP3   OH2 4713   3.804   0.707   3.946
 1591TIP3    H1 4714   3.882   0.650   3.949
 1591TIP3    H2 4715   3.827   0.776   3.885
 1592TIP3   OH2 4716   0.156   0.099   5.039
 1592TIP3    H1 4717   0.194   0.180   5.074
 1592TIP3    H2 4718   0.231   0.052   5.003
 1593TIP3   OH2 4719   2.508   3.335   0.973
 1593TIP3    H1 4720   2.560   3.402   1.016
 1593TIP3    H2 4721   2.453   3.299   1.043
 1594TIP3   OH2 4722   4.678   5.734   5.930
 1594TIP3    H1 4723   4.736   5.659   5.917
 1594TIP3    H2 4724   4.603   5.716   5.874
 1595TIP3   OH2 4725   1.332   6.291   0.388
 1595TIP3    H1 4726   1.257   6.266   0.333
 1595TIP3    H2 4727   1.374   6.209   0.411
 1596TIP3   OH2 4728   1.854   4.352   2.660
 1596TIP3    H1 4729   1.805   4.316   2.586
 1596TIP3    H2 4730   1.786   4.385   2.720
 1597TIP3   OH2 4731   0.673   7.633   4.253
 1597TIP3    H1 4732   0.735   7.679   4.309
 1597TIP3    H2 4733   0.617   7.702   4.217
 1598TIP3   OH2 4734   1.881   4.821   0.855
 1598TIP3    H1 4735   1.813   4.839   0.790
 1598TIP3    H2 4736   1.844   4.753   0.911
 1599TIP3   OH2 4737   5.690   3.067   4.381
 1599TIP3    H1 4738   5.595   3.075   4.379
 1599TIP3    H2 4739   5.706   2.972   4.384
 1600TIP3   OH2 4740   0.459   6.103   0.638
 1600TIP3    H1 4741   0.382   6.138   0.684
 1600TIP3    H2 4742   0.511   6.180   0.616
 1601TIP3   OH2 4743   8.399   2.007   2.462
 1601TIP3    H1 4744   8.398   1.953   2.541
 1601TIP3    H2 4745   8.459   2.079   2.484
 1602TIP3   OH2 4746   5.008   1.492   4.795
 1602TIP3    H1 4747   5.028   1.499   4.889
 1602TIP3    H2 4748   4.912   1.491   4.791
 1603TIP3   OH2 4749   0.412   5.251   3.448
 1603TIP3    H1 4750   0.363   5.332   3.438
 1603TIP3    H2 4751   0.352   5.182   3.419
 1604TIP3   OH2 4752   7.156   5.535   3.934
 1604TIP3    H1 4753   7.062   5.534   3.952
 1604TIP3    H2 4754   7.198   5.544   4.020
 1605TIP3   OH2 4755   0.268   7.467   0.720
 1605TIP3    H1 4756   0.293   7.411   0.647
 1605TIP3    H2 4757   0.203   7.527   0.683
 1606TIP3   OH2 4758   6.833   7.380   2.075
 1606TIP3    H1 4759   6.888   7.422   2.009
 1606TIP3    H2 4760   6.774   7.449   2.105
 1607TIP3   OH2 4761   4.493   0.002   2.057
 1607TIP3    H1 4762   4.525   0.071   2.116
 1607TIP3    H2 4763   4.549   0.008   1.980
 1608TIP3   OH2 4764   2.248   0.060   3.816
 1608TIP3    H1 4765   2.236   0.013   3.734
 1608TIP3    H2 4766   2.295  -0.002   3.872
 1609TIP3   OH2 4767   4.114   2.783   1.541
 1609TIP3    H1 4768   4.097   2.839   1.617
 1609TIP3    H2 4769   4.036   2.729   1.532
 1610TIP3   OH2 4770   3.785   3.366   1.445
 1610TIP3    H1 4771   3.829   3.324   1.371
 1610TIP3    H2 4772   3.713   3.414   1.406
 1611TIP3   OH2 4773   3.118   1.578   5.429
 1611TIP3    H1 4774   3.081   1.516   5.366
 1611TIP3    H2 4775   3.084   1.550   5.513
 1612TIP3   OH2 4776   2.971   4.778   0.424
 1612TIP3    H1 4777   2.957   4.708   0.360
 1612TIP3    H2 4778   2.884   4.815   0.438
 1613TIP3   OH2 4779   5.537   6.290   4.209
 1613TIP3    H1 4780   5.526   6.269   4.302
 1613TIP3    H2 4781   5.566   6.381   4.208
 1614TIP3   OH2 4782   7.875   5.596   0.297
 1614TIP3    H1 4783   7.958   5.613   0.343
 1614TIP3    H2 4784   7.877   5.656   0.222
 1615TIP3   OH2 4785   4.453   5.831   2.971
 1615TIP3    H1 4786   4.401   5.790   2.901
 1615TIP3    H2 4787   4.412   5.799   3.052
 1616TIP3   OH2 4788   6.690   3.014   0.898
 1616TIP3    H1 4789   6.765   2.970   0.858
 1616TIP3    H2 4790   6.642   3.052   0.824
 1617TIP3   OH2 4791   0.089   2.407   4.802
 1617TIP3    H1 4792   0.123   2.321   4.827
 1617TIP3    H2 4793   0.156   2.469   4.830
 1618TIP3   OH2 4794   2.941   3.262   5.780
 1618TIP3    H1 4795   2.870   3.214   5.824
 1618TIP3    H2 4796   2.905   3.285   5.694
 1619TIP3   OH2 4797   6.096   4.361   3.188
 1619TIP3    H1 4798   6.113   4.452   3.162
 1619TIP3    H2 4799   6.121   4.357   3.280
 1620TIP3   OH2 4800   3.023   2.931   6.221
 1620TIP3    H1 4801   2.946   2.986   6.238
 1620TIP3    H2 4802   3.001   2.847   6.261
 1621TIP3   OH2 4803   3.182   5.865   5.083
 1621TIP3    H1 4804   3.114   5.916   5.038
 1621TIP3    H2 4805   3.133   5.798   5.131
 1622TIP3   OH2 4806   7.319   3.938   2.503
 1622TIP3    H1 4807   7.322   3.848   2.471
 1622TIP3    H2 4808   7.316   3.992   2.424
 1623TIP3   OH2 4809   8.398   1.774   1.087
 1623TIP3    H1 4810   8.403   1.688   1.044
 1623TIP3    H2 4811   8.476   1.820   1.058
 1624TIP3   OH2 4812   7.061   5.486   4.964
 1624TIP3    H1 4813   7.138   5.506   4.911
 1624TIP3    H2 4814   7.047   5.565   5.016
 1625TIP3   OH2 4815   5.519   7.072   3.607
 1625TIP3    H1 4816   5.502   7.166   3.622
 1625TIP3    H2 4817   5.596   7.053   3.660
 1626TIP3   OH2 4818   4.199   0.856   2.146
 1626TIP3    H1 4819   4.232   0.813   2.224
 1626TIP3    H2 4820   4.222   0.948   2.157
 1627TIP3   OH2 4821   1.221   0.850   4.004
 1627TIP3    H1 4822   1.157   0.897   3.950
 1627TIP3    H2 4823   1.177   0.837   4.088
 1628TIP3   OH2 4824   6.118   7.370   5.624
 1628TIP3    H1 4825   6.099   7.357   5.717
 1628TIP3    H2 4826   6.032   7.381   5.583
 1629TIP3   OH2 4827   2.128   5.475   4.869
 1629TIP3    H1 4828   2.212   5.480   4.824
 1629TIP3    H2 4829   2.073   5.421   4.811
 1630TIP3   OH2 4830   0.181   3.793   1.950
 1630TIP3    H1 4831   0.113   3.837   2.001
 1630TIP3    H2 4832   0.136   3.764   1.870
 1631TIP3   OH2 4833   3.991   0.564   6.233
 1631TIP3    H1 4834   3.935   0.641   6.219
 1631TIP3    H2 4835   3.930   0.493   6.253
 1632TIP3   OH2 4836   0.318   4.304   0.863
 1632TIP3    H1 4837   0.388   4.369   0.863
 1632TIP3    H2 4838   0.262   4.330   0.789
 1633TIP3   OH2 4839   6.432   0.122   6.262
 1633TIP3    H1 4840   6.446   0.201   6.211
 1633TIP3    H2 4841   6.519   0.086   6.277
 1634TIP3   OH2 4842   2.384   4.176   4.395
 1634TIP3    H1 4843   2.475   4.159   4.419
 1634TIP3    H2 4844   2.368   4.266   4.423
 1635TIP3   OH2 4845   4.053   5.777   4.782
 1635TIP3    H1 4846   3.998   5.719   4.835
 1635TIP3    H2 4847   3.999   5.855   4.770
 1636TIP3   OH2 4848   1.707   5.898   6.630
 1636TIP3    H1 4849   1.719   5.960   6.702
 1636TIP3    H2 4850   1.709   5.951   6.551
 1637TIP3   OH2 4851   0.473   0.313   4.791
 1637TIP3    H1 4852   0.468   0.250   4.863
 1637TIP3    H2 4853   0.567   0.324   4.776
 1638TIP3   OH2 4854   7.541   2.942   1.446
 1638TIP3    H1 4855   7.506   2.861   1.483
 1638TIP3    H2 4856   7.595   2.913   1.373
 1639TIP3   OH2 4857   1.623   7.083   4.499
 1639TIP3    H1 4858   1.691   7.020   4.524
 1639TIP3    H2 4859   1.669   7.152   4.452
 1640TIP3   OH2 4860   4.165   5.364   1.413
 1640TIP3    H1 4861   4.119   5.295   1.462
 1640TIP3    H2 4862   4.157   5.337   1.321
 1641TIP3   OH2 4863   0.837   3.323   0.175
 1641TIP3    H1 4864   0.803   3.397   0.125
 1641TIP3    H2 4865   0.929   3.344   0.191
 1642TIP3   OH2 4866   0.472   0.870   2.211
 1642TIP3    H1 4867   0.509   0.810   2.275
 1642TIP3    H2 4868   0.462   0.953   2.258
 1643TIP3   OH2 4869   7.173   5.092   5.964
 1643TIP3    H1 4870   7.217   5.133   5.890
 1643TIP3    H2 4871   7.195   5.147   6.039
 1644TIP3   OH2 4872   6.050   4.624   5.714
 1644TIP3    H1 4873   6.023   4.607   5.805
 1644TIP3    H2 4874   5.971   4.659   5.672
 1645TIP3   OH2 4875   0.109   6.409   1.508
 1645TIP3    H1 4876   0.122   6.479   1.443
 1645TIP3    H2 4877   0.195   6.368   1.516
 1646TIP3   OH2 4878   2.288   2.842   3.373
 1646TIP3    H1 4879   2.224   2.834   3.302
 1646TIP3    H2 4880   2.369   2.808   3.336
 1647TIP3   OH2 4881   6.158   2.421   2.962
 1647TIP3    H1 4882   6.119   2.336   2.984
 1647TIP3    H2 4883   6.145   2.429   2.867
 1648TIP3   OH2 4884   7.933   4.933   0.752
 1648TIP3    H1 4885   7.878   4.952   0.675
 1648TIP3    H2 4886   7.932   4.837   0.759
 1649TIP3   OH2 4887   6.122   0.054   5.687
 1649TIP3    H1 4888   6.042   0.026   5.731
 1649TIP3    H2 4889   6.192   0.021   5.743
 1650TIP3   OH2 4890   1.881   4.674   5.005
 1650TIP3    H1 4891   1.802   4.643   5.050
 1650TIP3    H2 4892   1.876   4.770   5.012
 1651TIP3   OH2 4893   2.646   0.587   2.648
 1651TIP3    H1 4894   2.639   0.682   2.638
 1651TIP3    H2 4895   2.555   0.556   2.646
 1652TIP3   OH2 4896   0.812   5.446   0.792
 1652TIP3    H1 4897   0.893   5.413   0.831
 1652TIP3    H2 4898   0.784   5.375   0.733
 1653TIP3   OH2 4899   4.500   2.403   0.031
 1653TIP3    H1 4900   4.470   2.348   0.104
 1653TIP3    H2 4901   4.438   2.476   0.030
 1654TIP3   OH2 4902   2.812   6.953   5.459
 1654TIP3    H1 4903   2.864   6.879   5.428
 1654TIP3    H2 4904   2.733   6.913   5.495
 1655TIP3   OH2 4905   4.307   6.523   4.495
 1655TIP3    H1 4906   4.343   6.434   4.499
 1655TIP3    H2 4907   4.213   6.511   4.505
 1656TIP3   OH2 4908   0.932   2.185   2.605
 1656TIP3    H1 4909   0.938   2.090   2.595
 1656TIP3    H2 4910   1.018   2.211   2.636
 1657TIP3   OH2 4911   3.973   1.024   0.909
 1657TIP3    H1 4912   3.989   0.965   0.836
 1657TIP3    H2 4913   3.914   0.975   0.967
 1658TIP3   OH2 4914   4.726   7.633   1.691
 1658TIP3    H1 4915   4.774   7.634   1.774
 1658TIP3    H2 4916   4.662   7.704   1.699
 1659TIP3   OH2 4917   4.100   1.753   6.630
 1659TIP3    H1 4918   4.174   1.810   6.650
 1659TIP3    H2 4919   4.128   1.666   6.659
 1660TIP3   OH2 4920   0.842   2.131   4.531
 1660TIP3    H1 4921   0.881   2.218   4.535
 1660TIP3    H2 4922   0.750   2.146   4.509
 1661TIP3   OH2 4923   5.283   4.012   6.429
 1661TIP3    H1 4924   5.378   4.010   6.418
 1661TIP3    H2 4925   5.258   3.920   6.435
 1662TIP3   OH2 4926   5.774   5.874   2.755
 1662TIP3    H1 4927   5.740   5.914   2.835
 1662TIP3    H2 4928   5.831   5.941   2.717
 1663TIP3   OH2 4929   4.475   7.213   4.062
 1663TIP3    H1 4930   4.511   7.145   4.120
 1663TIP3    H2 4931   4.547   7.235   4.004
 1664TIP3   OH2 4932   4.540   3.439   5.757
 1664TIP3    H1 4933   4.579   3.353   5.775
 1664TIP3    H2 4934   4.456   3.418   5.716
 1665TIP3   OH2 4935   2.875   3.895   5.568
 1665TIP3    H1 4936   2.822   3.883   5.489
 1665TIP3    H2 4937   2.952   3.944   5.538
 1666TIP3   OH2 4938   7.546   0.080   4.084
 1666TIP3    H1 4939   7.491   0.133   4.142
 1666TIP3    H2 4940   7.631   0.124   4.086
 1667TIP3   OH2 4941   0.570   0.089   0.046
 1667TIP3    H1 4942   0.639   0.129  -0.006
 1667TIP3    H2 4943   0.591  -0.005   0.046
 1668TIP3   OH2 4944   5.130   5.805   4.981
 1668TIP3    H1 4945   5.101   5.795   5.071
 1668TIP3    H2 4946   5.127   5.717   4.944
 1669TIP3   OH2 4947   1.912   1.928   2.365
 1669TIP3    H1 4948   1.921   1.852   2.307
 1669TIP3    H2 4949   1.825   1.919   2.403
 1670TIP3   OH2 4950   4.594   3.219   1.896
 1670TIP3    H1 4951   4.678   3.175   1.880
 1670TIP3    H2 4952   4.589   3.286   1.828
 1671TIP3   OH2 4953   2.477   2.795   2.719
 1671TIP3    H1 4954   2.499   2.705   2.694
 1671TIP3    H2 4955   2.556   2.828   2.762
 1672TIP3   OH2 4956   5.110   1.871   6.381
 1672TIP3    H1 4957   5.049   1.862   6.308
 1672TIP3    H2 4958   5.180   1.809   6.362
 1673TIP3   OH2 4959   0.763   2.740   0.939
 1673TIP3    H1 4960   0.723   2.824   0.962
 1673TIP3    H2 4961   0.857   2.757   0.935
 1674TIP3   OH2 4962   8.061   4.139   4.348
 1674TIP3    H1 4963   8.042   4.065   4.407
 1674TIP3    H2 4964   8.086   4.211   4.407
 1675TIP3   OH2 4965   6.217   2.030   0.458
 1675TIP3    H1 4966   6.304   2.026   0.498
 1675TIP3    H2 4967   6.183   2.115   0.486
 1676TIP3   OH2 4968   3.892   0.912   5.698
 1676TIP3    H1 4969   3.890   0.954   5.784
 1676TIP3    H2 4970   3.886   0.819   5.716
 1677TIP3   OH2 4971   0.936   1.032   2.066
 1677TIP3    H1 4972   1.028   1.054   2.084
 1677TIP3    H2 4973   0.909   1.094   1.998
 1678TIP3   OH2 4974   7.276   7.540   5.223
 1678TIP3    H1 4975   7.297   7.491   5.143
 1678TIP3    H2 4976   7.353   7.529   5.278
 1679TIP3   OH2 4977   4.218   6.692   4.258
 1679TIP3    H1 4978   4.282   6.651   4.316
 1679TIP3    H2 4979   4.190   6.621   4.200
 1680TIP3   OH2 4980   5.258   3.505   4.450
 1680TIP3    H1 4981   5.187   3.441   4.439
 1680TIP3    H2 4982   5.283   3.529   4.361
 1681TIP3   OH2 4983   4.444   4.091   6.790
 1681TIP3    H1 4984   4.491   4.010   6.810
 1681TIP3    H2 4985   4.406   4.075   6.703
 1682TIP3   OH2 4986   4.177   2.836   6.450
 1682TIP3    H1 4987   4.260   2.815   6.492
 1682TIP3    H2 4988   4.171   2.932   6.456
 1683TIP3   OH2 4989   5.053   6.034   1.342
 1683TIP3    H1 4990   5.089   6.098   1.404
 1683TIP3    H2 4991   5.082   6.065   1.257
 1684TIP3   OH2 4992   5.334   1.369   0.174
 1684TIP3    H1 4993   5.378   1.292   0.210
 1684TIP3    H2 4994   5.248   1.369   0.216
 1685TIP3   OH2 4995   6.933   2.268   0.975
 1685TIP3    H1 4996   6.990   2.341   1.000
 1685TIP3    H2 4997   6.957   2.197   1.035
 1686TIP3   OH2 4998   1.886   0.721   4.781
 1686TIP3    H1 4999   1.924   0.776   4.851
 1686TIP3    H2 5000   1.893   0.775   4.702
 1687TIP3   OH2 5001   3.636   5.594   0.454
 1687TIP3    H1 5002   3.634   5.553   0.540
 1687TIP3    H2 5003   3.696   5.668   0.462
 1688TIP3   OH2 5004   1.877   6.361   3.362
 1688TIP3    H1 5005   1.783   6.341   3.362
 1688TIP3    H2 5006   1.883   6.450   3.328
 1689TIP3   OH2 5007   5.597   4.669   3.671
 1689TIP3    H1 5008   5.538   4.716   3.612
 1689TIP3    H2 5009   5.662   4.629   3.614
 1690TIP3   OH2 5010   1.885   1.828   4.952
 1690TIP3    H1 5011   1.892   1.740   4.914
 1690TIP3    H2 5012   1.893   1.886   4.876
 1691TIP3   OH2 5013   4.310   2.707   0.645
 1691TIP3    H1 5014   4.386   2.749   0.606
 1691TIP3    H2 5015   4.236   2.742   0.595
 1692TIP3   OH2 5016   5.184   6.475   5.002
 1692TIP3    H1 5017   5.202   6.417   5.077
 1692TIP3    H2 5018   5.244   6.548   5.014
 1693TIP3   OH2 5019   0.940   5.359   4.194
 1693TIP3    H1 5020   0.876   5.423   4.225
 1693TIP3    H2 5021   0.987   5.332   4.273
 1694TIP3   OH2 5022   1.084   7.317   6.552
 1694TIP3    H1 5023   1.007   7.262   6.565
 1694TIP3    H2 5024   1.081   7.341   6.459
 1695TIP3   OH2 5025   5.253   7.889   1.297
 1695TIP3    H1 5026   5.335   7.909   1.342
 1695TIP3    H2 5027   5.222   7.808   1.338
 1696TIP3   OH2 5028   1.408   5.933   3.160
 1696TIP3    H1 5029   1.501   5.915   3.170
 1696TIP3    H2 5030   1.390   5.915   3.067
 1697TIP3   OH2 5031   0.097   3.256   3.762
 1697TIP3    H1 5032   0.084   3.292   3.850
 1697TIP3    H2 5033   0.064   3.167   3.767
 1698TIP3   OH2 5034   3.236   0.620   6.809
 1698TIP3    H1 5035   3.147   0.654   6.817
 1698TIP3    H2 5036   3.280   0.682   6.751
 1699TIP3   OH2 5037   0.586   7.101   6.860
 1699TIP3    H1 5038   0.606   7.188   6.826
 1699TIP3    H2 5039   0.504   7.113   6.909
 1700TIP3   OH2 5040   7.326   5.972   0.071
 1700TIP3    H1 5041   7.365   5.910   0.132
 1700TIP3    H2 5042   7.238   5.988   0.105
 1701TIP3   OH2 5043   6.456   5.802   2.483
 1701TIP3    H1 5044   6.366   5.772   2.493
 1701TIP3    H2 5045   6.487   5.757   2.404
 1702TIP3   OH2 5046   5.013   4.384   3.687
 1702TIP3    H1 5047   5.051   4.298   3.708
 1702TIP3    H2 5048   5.086   4.445   3.696
 1703TIP3   OH2 5049   8.225   0.820   3.327
 1703TIP3    H1 5050   8.232   0.818   3.231
 1703TIP3    H2 5051   8.134   0.846   3.343
 1704TIP3   OH2 5052   7.064   7.200   3.417
 1704TIP3    H1 5053   6.974   7.172   3.400
 1704TIP3    H2 5054   7.112   7.176   3.337
 1705TIP3   OH2 5055   7.545   3.521   1.046
 1705TIP3    H1 5056   7.479   3.536   0.979
 1705TIP3    H2 5057   7.578   3.433   1.028
 1706TIP3   OH2 5058   6.623   5.054   3.391
 1706TIP3    H1 5059   6.549   5.103   3.429
 1706TIP3    H2 5060   6.589   4.966   3.378
 1707TIP3   OH2 5061   1.176   4.980   0.513
 1707TIP3    H1 5062   1.134   4.989   0.428
 1707TIP3    H2 5063   1.111   5.012   0.576
 1708TIP3   OH2 5064   3.948   6.607   3.218
 1708TIP3    H1 5065   3.940   6.627   3.311
 1708TIP3    H2 5066   4.007   6.531   3.215
 1709TIP3   OH2 5067   8.067   0.121   3.055
 1709TIP3    H1 5068   8.062   0.038   3.103
 1709TIP3    H2 5069   8.153   0.120   3.015
 1710TIP3   OH2 5070   5.294   3.398   6.188
 1710TIP3    H1 5071   5.216   3.451   6.171
 1710TIP3    H2 5072   5.364   3.442   6.140
 1711TIP3   OH2 5073   6.450   7.096   4.984
 1711TIP3    H1 5074   6.496   7.088   4.900
 1711TIP3    H2 5075   6.498   7.040   5.044
 1712TIP3   OH2 5076   6.308   6.013   2.986
 1712TIP3    H1 5077   6.286   5.926   2.953
 1712TIP3    H2 5078   6.311   6.068   2.908
 1713TIP3   OH2 5079   6.080   3.075   5.386
 1713TIP3    H1 5080   6.005   3.118   5.427
 1713TIP3    H2 5081   6.126   3.145   5.341
 1714TIP3   OH2 5082   2.724   2.880   4.668
 1714TIP3    H1 5083   2.670   2.937   4.722
 1714TIP3    H2 5084   2.796   2.853   4.725
 1715TIP3   OH2 5085   3.452   1.111   1.029
 1715TIP3    H1 5086   3.446   1.176   1.098
 1715TIP3    H2 5087   3.368   1.065   1.032
 1716TIP3   OH2 5088   7.196   0.768   2.875
 1716TIP3    H1 5089   7.233   0.845   2.833
 1716TIP3    H2 5090   7.215   0.696   2.815
 1717TIP3   OH2 5091   6.479   5.899   6.245
 1717TIP3    H1 5092   6.568   5.909   6.211
 1717TIP3    H2 5093   6.423   5.923   6.171
 1718TIP3   OH2 5094   5.278   6.287   2.914
 1718TIP3    H1 5095   5.275   6.382   2.902
 1718TIP3    H2 5096   5.330   6.274   2.993
 1719TIP3   OH2 5097   7.945   5.649   2.796
 1719TIP3    H1 5098   7.947   5.625   2.704
 1719TIP3    H2 5099   7.903   5.575   2.840
 1720TIP3   OH2 5100   4.547   5.641   4.423
 1720TIP3    H1 5101   4.484   5.587   4.376
 1720TIP3    H2 5102   4.623   5.585   4.436
 1721TIP3   OH2 5103   3.726   5.897   0.966
 1721TIP3    H1 5104   3.735   5.992   0.972
 1721TIP3    H2 5105   3.687   5.882   0.880
 1722TIP3   OH2 5106   6.171   4.144   2.370
 1722TIP3    H1 5107   6.259   4.148   2.408
 1722TIP3    H2 5108   6.161   4.227   2.324
 1723TIP3   OH2 5109  -0.007   1.503   3.650
 1723TIP3    H1 5110   0.038   1.478   3.569
 1723TIP3    H2 5111   0.057   1.489   3.719
 1724TIP3   OH2 5112   3.439   5.779   5.043
 1724TIP3    H1 5113   3.493   5.803   5.118
 1724TIP3    H2 5114   3.353   5.817   5.063
 1725TIP3   OH2 5115   6.464   5.314   3.500
 1725TIP3    H1 5116   6.434   5.342   3.586
 1725TIP3    H2 5117   6.405   5.242   3.477
 1726TIP3   OH2 5118   2.152   1.458   1.084
 1726TIP3    H1 5119   2.095   1.421   1.016
 1726TIP3    H2 5120   2.150   1.394   1.154
 1727TIP3   OH2 5121   5.519   6.024   3.422
 1727TIP3    H1 5122   5.614   6.027   3.430
 1727TIP3    H2 5123   5.496   6.106   3.377
 1728TIP3   OH2 5124   8.015   2.786   4.783
 1728TIP3    H1 5125   8.040   2.847   4.713
 1728TIP3    H2 5126   8.014   2.840   4.862
 1729TIP3   OH2 5127   0.734   0.163   6.778
 1729TIP3    H1 5128   0.766   0.073   6.772
 1729TIP3    H2 5129   0.648   0.155   6.818
 1730TIP3   OH2 5130   0.197   2.997   4.179
 1730TIP3    H1 5131   0.219   3.042   4.097
 1730TIP3    H2 5132   0.132   3.054   4.220
 1731TIP3   OH2 5133   6.060   5.061   6.109
 1731TIP3    H1 5134   6.076   5.063   6.204
 1731TIP3    H2 5135   5.966   5.076   6.100
 1732TIP3   OH2 5136  -0.016   6.279   2.671
 1732TIP3    H1 5137  -0.085   6.340   2.644
 1732TIP3    H2 5138   0.059   6.302   2.615
 1733TIP3   OH2 5139   6.329   0.069   4.155
 1733TIP3    H1 5140   6.266   0.104   4.218
 1733TIP3    H2 5141   6.299  -0.020   4.137
 1734TIP3   OH2 5142   0.781   7.090   4.878
 1734TIP3    H1 5143   0.850   7.118   4.938
 1734TIP3    H2 5144   0.789   6.995   4.874
 1735TIP3   OH2 5145   2.323   5.248   4.279
 1735TIP3    H1 5146   2.404   5.298   4.279
 1735TIP3    H2 5147   2.350   5.159   4.253
 1736TIP3   OH2 5148   6.563   2.134   6.012
 1736TIP3    H1 5149   6.519   2.160   6.092
 1736TIP3    H2 5150   6.616   2.210   5.987
 1737TIP3   OH2 5151   4.291   6.425   5.570
 1737TIP3    H1 5152   4.379   6.414   5.607
 1737TIP3    H2 5153   4.268   6.338   5.537
 1738TIP3   OH2 5154   4.612   5.450   0.405
 1738TIP3    H1 5155   4.521   5.477   0.395
 1738TIP3    H2 5156   4.612   5.357   0.381
 1739TIP3   OH2 5157   8.158   1.125   1.892
 1739TIP3    H1 5158   8.163   1.061   1.962
 1739TIP3    H2 5159   8.196   1.205   1.928
 1740TIP3   OH2 5160   5.233   6.258   4.186
 1740TIP3    H1 5161   5.202   6.186   4.240
 1740TIP3    H2 5162   5.322   6.275   4.216
 1741TIP3   OH2 5163   2.511   0.481   6.421
 1741TIP3    H1 5164   2.517   0.563   6.372
 1741TIP3    H2 5165   2.489   0.508   6.510
 1742TIP3   OH2 5166   6.658   1.962   0.517
 1742TIP3    H1 5167   6.665   1.892   0.452
 1742TIP3    H2 5168   6.748   1.985   0.538
 1743TIP3   OH2 5169   5.197   2.157   1.941
 1743TIP3    H1 5170   5.282   2.181   1.979
 1743TIP3    H2 5171   5.134   2.174   2.011
 1744TIP3   OH2 5172   5.008   1.329   6.813
 1744TIP3    H1 5173   5.078   1.376   6.858
 1744TIP3    H2 5174   4.929   1.351   6.863
 1745TIP3   OH2 5175   7.200   5.960   3.825
 1745TIP3    H1 5176   7.181   6.032   3.765
 1745TIP3    H2 5177   7.127   5.961   3.888
 1746TIP3   OH2 5178   5.739   7.634   4.990
 1746TIP3    H1 5179   5.742   7.545   5.024
 1746TIP3    H2 5180   5.646   7.657   4.991
 1747TIP3   OH2 5181   1.678   6.095   2.519
 1747TIP3    H1 5182   1.674   6.053   2.433
 1747TIP3    H2 5183   1.737   6.169   2.507
 1748TIP3   OH2 5184   1.069   7.398   2.193
 1748TIP3    H1 5185   1.016   7.440   2.261
 1748TIP3    H2 5186   1.159   7.416   2.220
 1749TIP3   OH2 5187   5.447   1.190   0.354
 1749TIP3    H1 5188   5.427   1.179   0.447
 1749TIP3    H2 5189   5.487   1.108   0.328
 1750TIP3   OH2 5190   8.005   3.833   3.814
 1750TIP3    H1 5191   8.067   3.854   3.745
 1750TIP3    H2 5192   8.018   3.740   3.831
 1751TIP3   OH2 5193   7.304   6.017   4.466
 1751TIP3    H1 5194   7.316   6.075   4.541
 1751TIP3    H2 5195   7.328   6.070   4.390
 1752TIP3   OH2 5196   6.504   5.771   3.690
 1752TIP3    H1 5197   6.571   5.739   3.629
 1752TIP3    H2 5198   6.549   5.836   3.744
 1753TIP3   OH2 5199   3.403   4.036   3.630
 1753TIP3    H1 5200   3.481   4.091   3.622
 1753TIP3    H2 5201   3.345   4.086   3.687
 1754TIP3   OH2 5202   1.609   4.104   4.432
 1754TIP3    H1 5203   1.682   4.072   4.380
 1754TIP3    H2 5204   1.544   4.034   4.427
 1755TIP3   OH2 5205   4.825   5.446   4.758
 1755TIP3    H1 5206   4.804   5.353   4.748
 1755TIP3    H2 5207   4.821   5.481   4.669
 1756TIP3   OH2 5208   4.770   4.404   6.292
 1756TIP3    H1 5209   4.798   4.494   6.275
 1756TIP3    H2 5210   4.773   4.395   6.387
 1757TIP3   OH2 5211   8.320   0.612   2.785
 1757TIP3    H1 5212   8.325   0.634   2.692
 1757TIP3    H2 5213   8.379   0.674   2.827
 1758TIP3   OH2 5214   4.608   5.169   3.079
 1758TIP3    H1 5215   4.654   5.252   3.067
 1758TIP3    H2 5216   4.638   5.136   3.164
 1759TIP3   OH2 5217   0.584   2.530   0.149
 1759TIP3    H1 5218   0.489   2.540   0.150
 1759TIP3    H2 5219   0.611   2.549   0.239
 1760TIP3   OH2 5220   1.140   1.046   3.278
 1760TIP3    H1 5221   1.059   1.058   3.327
 1760TIP3    H2 5222   1.210   1.062   3.342
 1761TIP3   OH2 5223   2.063   2.162   5.166
 1761TIP3    H1 5224   2.120   2.203   5.231
 1761TIP3    H2 5225   2.122   2.110   5.112
 1762TIP3   OH2 5226   0.688   4.890   6.032
 1762TIP3    H1 5227   0.628   4.815   6.030
 1762TIP3    H2 5228   0.716   4.897   6.123
 1763TIP3   OH2 5229   5.314   7.121   0.023
 1763TIP3    H1 5230   5.262   7.089   0.097
 1763TIP3    H2 5231   5.340   7.210   0.048
 1764TIP3   OH2 5232   0.519   5.121   4.397
 1764TIP3    H1 5233   0.479   5.101   4.482
 1764TIP3    H2 5234   0.569   5.042   4.375
 1765TIP3   OH2 5235   0.333   6.298   1.438
 1765TIP3    H1 5236   0.288   6.252   1.367
 1765TIP3    H2 5237   0.418   6.255   1.444
 1766TIP3   OH2 5238   8.203   3.492   1.772
 1766TIP3    H1 5239   8.240   3.577   1.749
 1766TIP3    H2 5240   8.263   3.429   1.733
 1767TIP3   OH2 5241   3.398   7.758   2.600
 1767TIP3    H1 5242   3.447   7.781   2.679
 1767TIP3    H2 5243   3.314   7.726   2.632
 1768TIP3   OH2 5244   5.295   5.365   5.310
 1768TIP3    H1 5245   5.265   5.325   5.228
 1768TIP3    H2 5246   5.388   5.345   5.314
 1769TIP3   OH2 5247   3.234   3.535   0.773
 1769TIP3    H1 5248   3.278   3.620   0.772
 1769TIP3    H2 5249   3.169   3.542   0.703
 1770TIP3   OH2 5250   3.882   7.731   5.095
 1770TIP3    H1 5251   3.939   7.780   5.035
 1770TIP3    H2 5252   3.915   7.754   5.182
 1771TIP3   OH2 5253   0.177   5.667   0.920
 1771TIP3    H1 5254   0.146   5.607   0.988
 1771TIP3    H2 5255   0.247   5.619   0.876
 1772TIP3   OH2 5256   3.780   4.509   3.850
 1772TIP3    H1 5257   3.843   4.580   3.844
 1772TIP3    H2 5258   3.805   4.449   3.779
 1773TIP3   OH2 5259   5.304   0.368   0.299
 1773TIP3    H1 5260   5.276   0.290   0.251
 1773TIP3    H2 5261   5.346   0.335   0.378
 1774TIP3   OH2 5262   4.726   3.962   2.956
 1774TIP3    H1 5263   4.656   3.996   2.899
 1774TIP3    H2 5264   4.699   3.873   2.976
 1775TIP3   OH2 5265   7.732   6.929   2.639
 1775TIP3    H1 5266   7.676   6.855   2.662
 1775TIP3    H2 5267   7.820   6.893   2.636
 1776TIP3   OH2 5268   3.396   2.886   2.680
 1776TIP3    H1 5269   3.330   2.896   2.611
 1776TIP3    H2 5270   3.473   2.852   2.635
 1777TIP3   OH2 5271   3.623   3.109   5.735
 1777TIP3    H1 5272   3.627   3.085   5.828
 1777TIP3    H2 5273   3.675   3.042   5.691
 1778TIP3   OH2 5274   1.410   4.655   6.178
 1778TIP3    H1 5275   1.428   4.650   6.084
 1778TIP3    H2 5276   1.443   4.741   6.204
 1779TIP3   OH2 5277   3.167   6.946   0.836
 1779TIP3    H1 5278   3.215   6.917   0.914
 1779TIP3    H2 5279   3.209   6.899   0.764
 1780TIP3   OH2 5280   5.755   4.027   0.084
 1780TIP3    H1 5281   5.786   4.093   0.146
 1780TIP3    H2 5282   5.732   4.076   0.006
 1781TIP3   OH2 5283   4.427   2.536   4.364
 1781TIP3    H1 5284   4.413   2.593   4.288
 1781TIP3    H2 5285   4.374   2.458   4.346
 1782TIP3   OH2 5286   2.791   7.597   1.519
 1782TIP3    H1 5287   2.812   7.537   1.591
 1782TIP3    H2 5288   2.713   7.558   1.478
 1783TIP3   OH2 5289   4.104   3.211   6.753
 1783TIP3    H1 5290   4.123   3.258   6.834
 1783TIP3    H2 5291   4.048   3.138   6.780
 1784TIP3   OH2 5292   0.767   4.870   1.137
 1784TIP3    H1 5293   0.693   4.813   1.119
 1784TIP3    H2 5294   0.740   4.922   1.212
 1785TIP3   OH2 5295   8.145   1.178   3.150
 1785TIP3    H1 5296   8.233   1.143   3.139
 1785TIP3    H2 5297   8.157   1.261   3.194
 1786TIP3   OH2 5298   0.485   6.645   3.206
 1786TIP3    H1 5299   0.545   6.589   3.255
 1786TIP3    H2 5300   0.481   6.606   3.119
 1787TIP3   OH2 5301   6.965   0.186   2.919
 1787TIP3    H1 5302   6.896   0.247   2.944
 1787TIP3    H2 5303   7.030   0.193   2.989
 1788TIP3   OH2 5304   1.986   3.105   1.098
 1788TIP3    H1 5305   2.060   3.158   1.068
 1788TIP3    H2 5306   1.912   3.165   1.099
 1789TIP3   OH2 5307   1.984   2.611   6.020
 1789TIP3    H1 5308   1.974   2.593   6.114
 1789TIP3    H2 5309   1.894   2.628   5.990
 1790TIP3   OH2 5310   0.415   5.647   3.610
 1790TIP3    H1 5311   0.328   5.611   3.592
 1790TIP3    H2 5312   0.424   5.642   3.705
 1791TIP3   OH2 5313   1.289   0.706   0.479
 1791TIP3    H1 5314   1.226   0.749   0.422
 1791TIP3    H2 5315   1.303   0.768   0.551
 1792TIP3   OH2 5316   7.779   6.275   2.723
 1792TIP3    H1 5317   7.728   6.202   2.690
 1792TIP3    H2 5318   7.842   6.295   2.654
 1793TIP3   OH2 5319   5.025   5.188   5.414
 1793TIP3    H1 5320   5.033   5.210   5.321
 1793TIP3    H2 5321   5.115   5.185   5.446
 1794TIP3   OH2 5322   2.670   3.687   2.388
 1794TIP3    H1 5323   2.765   3.678   2.381
 1794TIP3    H2 5324   2.653   3.780   2.374
 1795TIP3   OH2 5325   0.815   4.416   0.901
 1795TIP3    H1 5326   0.852   4.368   0.974
 1795TIP3    H2 5327   0.886   4.473   0.871
 1796TIP3   OH2 5328   6.872   0.249   6.646
 1796TIP3    H1 5329   6.859   0.172   6.702
 1796TIP3    H2 5330   6.791   0.254   6.595
 1797TIP3   OH2 5331   2.534   2.926   0.596
 1797TIP3    H1 5332   2.522   3.003   0.541
 1797TIP3    H2 5333   2.493   2.854   0.548
 1798TIP3   OH2 5334   3.113   3.234   1.446
 1798TIP3    H1 5335   3.050   3.186   1.500
 1798TIP3    H2 5336   3.066   3.250   1.364
 1799TIP3   OH2 5337   3.305   0.440   0.743
 1799TIP3    H1 5338   3.300   0.405   0.654
 1799TIP3    H2 5339   3.396   0.430   0.769
 1800TIP3   OH2 5340   4.997   5.861   2.408
 1800TIP3    H1 5341   4.927   5.916   2.443
 1800TIP3    H2 5342   5.041   5.916   2.343
 1801TIP3   OH2 5343   0.452   1.348   5.843
 1801TIP3    H1 5344   0.468   1.431   5.798
 1801TIP3    H2 5345   0.433   1.373   5.933
 1802TIP3   OH2 5346   1.800   0.840   6.643
 1802TIP3    H1 5347   1.783   0.802   6.557
 1802TIP3    H2 5348   1.734   0.801   6.701
 1803TIP3   OH2 5349   3.711   1.126   4.051
 1803TIP3    H1 5350   3.712   1.198   4.113
 1803TIP3    H2 5351   3.626   1.132   4.007
 1804TIP3   OH2 5352   7.766   4.975   0.516
 1804TIP3    H1 5353   7.760   5.064   0.549
 1804TIP3    H2 5354   7.676   4.953   0.489
 1805TIP3   OH2 5355   4.812   5.777   4.372
 1805TIP3    H1 5356   4.798   5.816   4.459
 1805TIP3    H2 5357   4.783   5.686   4.382
 1806TIP3   OH2 5358   3.604   6.361   6.212
 1806TIP3    H1 5359   3.655   6.420   6.157
 1806TIP3    H2 5360   3.638   6.274   6.192
 1807TIP3   OH2 5361   7.011   1.091   0.855
 1807TIP3    H1 5362   6.962   1.160   0.900
 1807TIP3    H2 5363   6.970   1.010   0.884
 1808TIP3   OH2 5364   3.365   2.798   4.726
 1808TIP3    H1 5365   3.407   2.713   4.741
 1808TIP3    H2 5366   3.438   2.858   4.708
 1809TIP3   OH2 5367   6.163   3.446   4.768
 1809TIP3    H1 5368   6.250   3.476   4.740
 1809TIP3    H2 5369   6.177   3.415   4.858
 1810TIP3   OH2 5370   1.425   3.384   1.928
 1810TIP3    H1 5371   1.452   3.387   2.020
 1810TIP3    H2 5372   1.451   3.297   1.898
 1811TIP3   OH2 5373   6.659   5.211   1.081
 1811TIP3    H1 5374   6.753   5.198   1.070
 1811TIP3    H2 5375   6.632   5.143   1.142
 1812TIP3   OH2 5376   3.963   6.614   5.826
 1812TIP3    H1 5377   4.052   6.587   5.803
 1812TIP3    H2 5378   3.972   6.650   5.915
 1813TIP3   OH2 5379   3.333   5.999   6.527
 1813TIP3    H1 5380   3.305   5.918   6.570
 1813TIP3    H2 5381   3.303   6.068   6.586
 1814TIP3   OH2 5382   5.298   2.867   2.734
 1814TIP3    H1 5383   5.351   2.816   2.795
 1814TIP3    H2 5384   5.252   2.801   2.682
 1815TIP3   OH2 5385   5.659   3.004   5.761
 1815TIP3    H1 5386   5.744   2.976   5.794
 1815TIP3    H2 5387   5.671   3.096   5.737
 1816TIP3   OH2 5388   7.056   4.383   0.197
 1816TIP3    H1 5389   7.057   4.426   0.283
 1816TIP3    H2 5390   7.130   4.421   0.151
 1817TIP3   OH2 5391   4.821   2.800   1.710
 1817TIP3    H1 5392   4.858   2.727   1.759
 1817TIP3    H2 5393   4.746   2.762   1.664
 1818TIP3   OH2 5394   0.188   7.373   0.976
 1818TIP3    H1 5395   0.234   7.383   0.893
 1818TIP3    H2 5396   0.143   7.289   0.970
 1819TIP3   OH2 5397   4.158   7.364   1.531
 1819TIP3    H1 5398   4.189   7.398   1.447
 1819TIP3    H2 5399   4.231   7.378   1.591
 1820TIP3   OH2 5400   0.290   7.724   3.969
 1820TIP3    H1 5401   0.337   7.781   4.031
 1820TIP3    H2 5402   0.238   7.785   3.916
 1821TIP3   OH2 5403   5.310   0.418   3.800
 1821TIP3    H1 5404   5.335   0.350   3.737
 1821TIP3    H2 5405   5.254   0.477   3.750
 1822TIP3   OH2 5406   5.899   6.378   0.480
 1822TIP3    H1 5407   5.900   6.448   0.546
 1822TIP3    H2 5408   5.920   6.299   0.529
 1823TIP3   OH2 5409   8.030   6.284   1.164
 1823TIP3    H1 5410   7.972   6.264   1.090
 1823TIP3    H2 5411   8.027   6.205   1.219
 1824TIP3   OH2 5412   8.389   4.558   0.339
 1824TIP3    H1 5413   8.476   4.588   0.363
 1824TIP3    H2 5414   8.403   4.470   0.302
 1825TIP3   OH2 5415   0.481   2.074   4.287
 1825TIP3    H1 5416   0.421   2.098   4.216
 1825TIP3    H2 5417   0.564   2.058   4.243
 1826TIP3   OH2 5418   1.901   0.711   4.392
 1826TIP3    H1 5419   1.870   0.777   4.331
 1826TIP3    H2 5420   1.846   0.721   4.470
 1827TIP3   OH2 5421   0.989   4.467   6.250
 1827TIP3    H1 5422   0.913   4.413   6.231
 1827TIP3    H2 5423   1.000   4.522   6.172
 1828TIP3   OH2 5424   5.439   1.602   2.251
 1828TIP3    H1 5425   5.386   1.651   2.189
 1828TIP3    H2 5426   5.423   1.510   2.230
 1829TIP3   OH2 5427   0.491   7.476   5.574
 1829TIP3    H1 5428   0.583   7.455   5.556
 1829TIP3    H2 5429   0.473   7.435   5.659
 1830TIP3   OH2 5430   3.250   7.421  -0.020
 1830TIP3    H1 5431   3.181   7.477  -0.053
 1830TIP3    H2 5432   3.292   7.472   0.050
 1831TIP3   OH2 5433   2.606   7.383   0.783
 1831TIP3    H1 5434   2.559   7.446   0.729
 1831TIP3    H2 5435   2.631   7.313   0.722
 1832TIP3   OH2 5436   7.407   7.423   4.155
 1832TIP3    H1 5437   7.467   7.357   4.189
 1832TIP3    H2 5438   7.462   7.477   4.097
 1833TIP3   OH2 5439   0.101   3.550   1.345
 1833TIP3    H1 5440   0.133   3.507   1.266
 1833TIP3    H2 5441   0.175   3.602   1.376
 1834TIP3   OH2 5442   3.632   2.956   4.038
 1834TIP3    H1 5443   3.631   3.035   4.092
 1834TIP3    H2 5444   3.598   2.986   3.953
 1835TIP3   OH2 5445   1.937   1.250   3.348
 1835TIP3    H1 5446   1.862   1.309   3.352
 1835TIP3    H2 5447   1.988   1.279   3.273
 1836TIP3   OH2 5448   1.245   7.280   0.993
 1836TIP3    H1 5449   1.280   7.300   1.080
 1836TIP3    H2 5450   1.154   7.311   0.997
 1837TIP3   OH2 5451   3.547   4.943   2.931
 1837TIP3    H1 5452   3.540   4.990   3.014
 1837TIP3    H2 5453   3.557   4.851   2.956
 1838TIP3   OH2 5454   3.423   2.818   4.176
 1838TIP3    H1 5455   3.381   2.796   4.093
 1838TIP3    H2 5456   3.517   2.814   4.158
 1839TIP3   OH2 5457   4.598   5.114   4.564
 1839TIP3    H1 5458   4.606   5.063   4.483
 1839TIP3    H2 5459   4.672   5.086   4.618
 1840TIP3   OH2 5460   0.328   5.516   0.770
 1840TIP3    H1 5461   0.299   5.433   0.731
 1840TIP3    H2 5462   0.415   5.530   0.734
 1841TIP3   OH2 5463   0.424   4.632   6.344
 1841TIP3    H1 5464   0.415   4.538   6.326
 1841TIP3    H2 5465   0.514   4.642   6.377
 1842TIP3   OH2 5466   3.329   1.625   1.383
 1842TIP3    H1 5467   3.281   1.579   1.314
 1842TIP3    H2 5468   3.378   1.556   1.428
 1843TIP3   OH2 5469   5.250   0.072   4.816
 1843TIP3    H1 5470   5.248   0.079   4.721
 1843TIP3    H2 5471   5.314   0.137   4.844
 1844TIP3   OH2 5472   7.837   4.558   6.740
 1844TIP3    H1 5473   7.918   4.508   6.735
 1844TIP3    H2 5474   7.861   4.647   6.714
 1845TIP3   OH2 5475   2.179   4.522   1.686
 1845TIP3    H1 5476   2.180   4.591   1.620
 1845TIP3    H2 5477   2.271   4.511   1.710
 1846TIP3   OH2 5478   7.668   2.235   2.008
 1846TIP3    H1 5479   7.599   2.273   2.062
 1846TIP3    H2 5480   7.744   2.291   2.022
 1847TIP3   OH2 5481   8.042   2.267   0.656
 1847TIP3    H1 5482   8.011   2.269   0.566
 1847TIP3    H2 5483   8.121   2.322   0.655
 1848TIP3   OH2 5484   3.562   2.054   3.457
 1848TIP3    H1 5485   3.545   2.019   3.369
 1848TIP3    H2 5486   3.487   2.023   3.509
 1849TIP3   OH2 5487   8.210   3.483   4.722
 1849TIP3    H1 5488   8.135   3.428   4.697
 1849TIP3    H2 5489   8.203   3.492   4.817
 1850TIP3   OH2 5490   6.662   1.068   1.707
 1850TIP3    H1 5491   6.687   1.156   1.736
 1850TIP3    H2 5492   6.743   1.017   1.714
 1851TIP3   OH2 5493   4.090   4.714   3.581
 1851TIP3    H1 5494   4.111   4.710   3.675
 1851TIP3    H2 5495   4.162   4.667   3.539
 1852TIP3   OH2 5496   7.441   4.996   1.492
 1852TIP3    H1 5497   7.433   5.023   1.401
 1852TIP3    H2 5498   7.430   4.901   1.490
 1853TIP3   OH2 5499   5.150   3.513   3.392
 1853TIP3    H1 5500   5.108   3.453   3.453
 1853TIP3    H2 5501   5.211   3.563   3.446
 1854TIP3   OH2 5502   6.181   0.370   6.027
 1854TIP3    H1 5503   6.148   0.348   5.940
 1854TIP3    H2 5504   6.139   0.454   6.047
 1855TIP3   OH2 5505   5.038   2.930   6.188
 1855TIP3    H1 5506   5.060   3.018   6.159
 1855TIP3    H2 5507   4.995   2.889   6.113
 1856TIP3   OH2 5508   0.215   6.134   6.477
 1856TIP3    H1 5509   0.202   6.226   6.498
 1856TIP3    H2 5510   0.263   6.099   6.552
 1857TIP3   OH2 5511   5.004   6.377   3.092
 1857TIP3    H1 5512   4.952   6.447   3.132
 1857TIP3    H2 5513   5.045   6.418   3.016
 1858TIP3   OH2 5514   7.986   7.235   1.775
 1858TIP3    H1 5515   7.931   7.158   1.786
 1858TIP3    H2 5516   7.951   7.299   1.837
 1859TIP3   OH2 5517   5.705   3.730   4.852
 1859TIP3    H1 5518   5.692   3.652   4.906
 1859TIP3    H2 5519   5.704   3.803   4.914
 1860TIP3   OH2 5520   0.371   1.710   1.697
 1860TIP3    H1 5521   0.411   1.792   1.726
 1860TIP3    H2 5522   0.372   1.714   1.601
 1861TIP3   OH2 5523   1.332   0.252   1.470
 1861TIP3    H1 5524   1.273   0.327   1.478
 1861TIP3    H2 5525   1.417   0.291   1.446
 1862TIP3   OH2 5526   2.807   3.641   4.642
 1862TIP3    H1 5527   2.821   3.669   4.552
 1862TIP3    H2 5528   2.717   3.607   4.643
 1863TIP3   OH2 5529   4.493   6.705   5.780
 1863TIP3    H1 5530   4.484   6.739   5.868
 1863TIP3    H2 5531   4.582   6.729   5.753
 1864TIP3   OH2 5532   5.695   0.128   0.575
 1864TIP3    H1 5533   5.754   0.180   0.521
 1864TIP3    H2 5534   5.751   0.090   0.643
 1865TIP3   OH2 5535   1.981   4.756   3.182
 1865TIP3    H1 5536   1.973   4.706   3.264
 1865TIP3    H2 5537   2.021   4.839   3.209
 1866TIP3   OH2 5538   1.406   3.063   5.738
 1866TIP3    H1 5539   1.365   3.149   5.729
 1866TIP3    H2 5540   1.340   3.010   5.782
 1867TIP3   OH2 5541   2.346   7.133   3.705
 1867TIP3    H1 5542   2.433   7.138   3.667
 1867TIP3    H2 5543   2.361   7.134   3.800
 1868TIP3   OH2 5544   0.872   1.100   0.426
 1868TIP3    H1 5545   0.826   1.071   0.505
 1868TIP3    H2 5546   0.835   1.047   0.356
 1869TIP3   OH2 5547   6.333   0.440   5.337
 1869TIP3    H1 5548   6.418   0.450   5.380
 1869TIP3    H2 5549   6.345   0.479   5.250
 1870TIP3   OH2 5550   4.400   3.681   0.958
 1870TIP3    H1 5551   4.431   3.653   0.872
 1870TIP3    H2 5552   4.477   3.720   1.000
 1871TIP3   OH2 5553   4.169   4.458   5.292
 1871TIP3    H1 5554   4.206   4.397   5.228
 1871TIP3    H2 5555   4.229   4.532   5.291
 1872TIP3   OH2 5556   0.876   2.299   2.350
 1872TIP3    H1 5557   0.897   2.263   2.436
 1872TIP3    H2 5558   0.847   2.389   2.368
 1873TIP3   OH2 5559   1.723   2.447   1.164
 1873TIP3    H1 5560   1.769   2.412   1.088
 1873TIP3    H2 5561   1.637   2.472   1.130
 1874TIP3   OH2 5562   3.249   1.850   2.866
 1874TIP3    H1 5563   3.211   1.913   2.805
 1874TIP3    H2 5564   3.205   1.768   2.847
 1875TIP3   OH2 5565   2.696   4.643   3.149
 1875TIP3    H1 5566   2.627   4.673   3.208
 1875TIP3    H2 5567   2.653   4.577   3.094
 1876TIP3   OH2 5568   5.315   3.340   1.969
 1876TIP3    H1 5569   5.382   3.408   1.967
 1876TIP3    H2 5570   5.248   3.371   1.908
 1877TIP3   OH2 5571   7.812   3.207   3.938
 1877TIP3    H1 5572   7.828   3.258   3.858
 1877TIP3    H2 5573   7.840   3.118   3.915
 1878TIP3   OH2 5574   2.292   7.321   0.784
 1878TIP3    H1 5575   2.238   7.389   0.744
 1878TIP3    H2 5576   2.357   7.369   0.836
 1879TIP3   OH2 5577   1.404   3.914   2.248
 1879TIP3    H1 5578   1.395   3.825   2.215
 1879TIP3    H2 5579   1.498   3.932   2.242
 1880TIP3   OH2 5580   6.498   7.639   1.122
 1880TIP3    H1 5581   6.548   7.720   1.113
 1880TIP3    H2 5582   6.511   7.613   1.213
 1881TIP3   OH2 5583   2.992   5.307   4.195
 1881TIP3    H1 5584   3.078   5.306   4.153
 1881TIP3    H2 5585   2.932   5.340   4.127
 1882TIP3   OH2 5586   2.837   3.189   1.563
 1882TIP3    H1 5587   2.850   3.208   1.470
 1882TIP3    H2 5588   2.742   3.195   1.575
 1883TIP3   OH2 5589   5.437   2.022   2.869
 1883TIP3    H1 5590   5.416   2.102   2.822
 1883TIP3    H2 5591   5.526   2.000   2.841
 1884TIP3   OH2 5592   6.844   0.500   0.785
 1884TIP3    H1 5593   6.784   0.572   0.806
 1884TIP3    H2 5594   6.798   0.450   0.717
 1885TIP3   OH2 5595   6.761   1.488   4.150
 1885TIP3    H1 5596   6.681   1.436   4.152
 1885TIP3    H2 5597   6.794   1.486   4.240
 1886TIP3   OH2 5598   1.124   4.520   4.384
 1886TIP3    H1 5599   1.219   4.517   4.373
 1886TIP3    H2 5600   1.094   4.432   4.363
 1887TIP3   OH2 5601   3.644   6.014   5.099
 1887TIP3    H1 5602   3.636   6.099   5.141
 1887TIP3    H2 5603   3.635   5.951   5.170
 1888TIP3   OH2 5604   1.827   2.927   5.121
 1888TIP3    H1 5605   1.775   2.869   5.065
 1888TIP3    H2 5606   1.867   2.869   5.185
 1889TIP3   OH2 5607   1.534   1.957   6.377
 1889TIP3    H1 5608   1.604   2.018   6.400
 1889TIP3    H2 5609   1.459   2.013   6.356
 1890TIP3   OH2 5610   1.551   0.060   5.559
 1890TIP3    H1 5611   1.474   0.045   5.504
 1890TIP3    H2 5612   1.623   0.018   5.512
 1891TIP3   OH2 5613   4.603   3.930   0.846
 1891TIP3    H1 5614   4.627   3.933   0.938
 1891TIP3    H2 5615   4.657   3.859   0.809
 1892TIP3   OH2 5616   4.862   2.507   0.599
 1892TIP3    H1 5617   4.924   2.440   0.569
 1892TIP3    H2 5618   4.877   2.581   0.540
 1893TIP3   OH2 5619   7.022   1.497   1.135
 1893TIP3    H1 5620   7.031   1.460   1.223
 1893TIP3    H2 5621   6.943   1.551   1.139
 1894TIP3   OH2 5622   8.131   1.421   4.756
 1894TIP3    H1 5623   8.101   1.462   4.837
 1894TIP3    H2 5624   8.211   1.469   4.733
 1895TIP3   OH2 5625   3.171   1.432   3.872
 1895TIP3    H1 5626   3.140   1.375   3.943
 1895TIP3    H2 5627   3.162   1.521   3.907
 1896TIP3   OH2 5628   7.886   3.515   2.665
 1896TIP3    H1 5629   7.833   3.442   2.697
 1896TIP3    H2 5630   7.839   3.593   2.695
 1897TIP3   OH2 5631   2.820   6.496   2.987
 1897TIP3    H1 5632   2.896   6.447   2.955
 1897TIP3    H2 5633   2.785   6.442   3.058
 1898TIP3   OH2 5634   2.346   1.474   3.817
 1898TIP3    H1 5635   2.402   1.487   3.741
 1898TIP3    H2 5636   2.330   1.380   3.820
 1899TIP3   OH2 5637   4.834   2.409   4.099
 1899TIP3    H1 5638   4.741   2.401   4.122
 1899TIP3    H2 5639   4.833   2.434   4.007
 1900TIP3   OH2 5640   2.902   6.670   6.768
 1900TIP3    H1 5641   2.903   6.717   6.684
 1900TIP3    H2 5642   2.965   6.717   6.823
 1901TIP3   OH2 5643   5.443   3.248   1.526
 1901TIP3    H1 5644   5.529   3.260   1.566
 1901TIP3    H2 5645   5.443   3.307   1.451
 1902TIP3   OH2 5646   1.254   6.374   5.811
 1902TIP3    H1 5647   1.202   6.305   5.852
 1902TIP3    H2 5648   1.340   6.367   5.853
 1903TIP3   OH2 5649   0.652   1.576   3.632
 1903TIP3    H1 5650   0.583   1.641   3.617
 1903TIP3    H2 5651   0.701   1.573   3.550
 1904TIP3   OH2 5652   5.789   4.085   3.986
 1904TIP3    H1 5653   5.832   4.002   3.966
 1904TIP3    H2 5654   5.824   4.147   3.923
 1905TIP3   OH2 5655   5.682   7.080   6.247
 1905TIP3    H1 5656   5.728   7.051   6.326
 1905TIP3    H2 5657   5.661   6.999   6.200
 1906TIP3   OH2 5658   7.656   1.182   2.561
 1906TIP3    H1 5659   7.706   1.180   2.643
 1906TIP3    H2 5660   7.586   1.118   2.574
 1907TIP3   OH2 5661   5.836   4.528   1.841
 1907TIP3    H1 5662   5.824   4.451   1.896
 1907TIP3    H2 5663   5.842   4.492   1.752
 1908TIP3   OH2 5664   0.557   2.455   3.129
 1908TIP3    H1 5665   0.461   2.448   3.131
 1908TIP3    H2 5666   0.580   2.502   3.209
 1909TIP3   OH2 5667   4.744   1.560   2.477
 1909TIP3    H1 5668   4.717   1.502   2.405
 1909TIP3    H2 5669   4.676   1.547   2.543
 1910TIP3   OH2 5670   5.652   6.319   4.717
 1910TIP3    H1 5671   5.746   6.309   4.700
 1910TIP3    H2 5672   5.639   6.278   4.802
 1911TIP3   OH2 5673   4.983   2.783   6.422
 1911TIP3    H1 5674   4.998   2.857   6.363
 1911TIP3    H2 5675   4.937   2.821   6.497
 1912TIP3   OH2 5676   7.775   7.276   6.513
 1912TIP3    H1 5677   7.721   7.292   6.435
 1912TIP3    H2 5678   7.720   7.303   6.586
 1913TIP3   OH2 5679   5.275   6.635   5.778
 1913TIP3    H1 5680   5.367   6.609   5.787
 1913TIP3    H2 5681   5.253   6.674   5.863
 1914TIP3   OH2 5682   6.622   2.520   4.966
 1914TIP3    H1 5683   6.558   2.563   5.024
 1914TIP3    H2 5684   6.654   2.591   4.911
 1915TIP3   OH2 5685   6.549   7.588   0.581
 1915TIP3    H1 5686   6.577   7.536   0.506
 1915TIP3    H2 5687   6.571   7.533   0.657
 1916TIP3   OH2 5688   1.151   3.595   0.629
 1916TIP3    H1 5689   1.223   3.533   0.639
 1916TIP3    H2 5690   1.075   3.541   0.606
 1917TIP3   OH2 5691   3.928   0.589   4.308
 1917TIP3    H1 5692   3.861   0.638   4.355
 1917TIP3    H2 5693   3.999   0.651   4.294
 1918TIP3   OH2 5694   6.163   6.019   0.308
 1918TIP3    H1 5695   6.133   6.106   0.283
 1918TIP3    H2 5696   6.150   5.966   0.229
 1919TIP3   OH2 5697   8.281   5.287   2.587
 1919TIP3    H1 5698   8.210   5.294   2.523
 1919TIP3    H2 5699   8.322   5.373   2.587
 1920TIP3   OH2 5700   1.722   5.643   2.987
 1920TIP3    H1 5701   1.813   5.643   2.956
 1920TIP3    H2 5702   1.696   5.551   2.986
 1921TIP3   OH2 5703   2.530   5.498   2.022
 1921TIP3    H1 5704   2.495   5.410   2.010
 1921TIP3    H2 5705   2.531   5.511   2.117
 1922TIP3   OH2 5706   2.535   3.805   4.449
 1922TIP3    H1 5707   2.510   3.863   4.522
 1922TIP3    H2 5708   2.539   3.718   4.489
 1923TIP3   OH2 5709   5.521   4.352   3.661
 1923TIP3    H1 5710   5.616   4.337   3.666
 1923TIP3    H2 5711   5.491   4.339   3.751
 1924TIP3   OH2 5712   1.207   3.534   3.990
 1924TIP3    H1 5713   1.250   3.454   3.960
 1924TIP3    H2 5714   1.158   3.508   4.068
 1925TIP3   OH2 5715   4.828   1.630   0.418
 1925TIP3    H1 5716   4.831   1.571   0.342
 1925TIP3    H2 5717   4.748   1.605   0.464
 1926TIP3   OH2 5718   1.134   7.335   0.340
 1926TIP3    H1 5719   1.152   7.356   0.249
 1926TIP3    H2 5720   1.219   7.333   0.383
 1927TIP3   OH2 5721   7.024   2.878   6.594
 1927TIP3    H1 5722   6.976   2.903   6.673
 1927TIP3    H2 5723   7.016   2.782   6.591
 1928TIP3   OH2 5724   2.089   5.426   5.630
 1928TIP3    H1 5725   2.018   5.396   5.686
 1928TIP3    H2 5726   2.068   5.393   5.543
 1929TIP3   OH2 5727   7.187   2.379   3.218
 1929TIP3    H1 5728   7.235   2.452   3.256
 1929TIP3    H2 5729   7.107   2.371   3.271
 1930TIP3   OH2 5730   4.258   7.611   6.828
 1930TIP3    H1 5731   4.171   7.651   6.826
 1930TIP3    H2 5732   4.305   7.652   6.755
 1931TIP3   OH2 5733   0.165   6.092   4.292
 1931TIP3    H1 5734   0.260   6.092   4.303
 1931TIP3    H2 5735   0.132   6.035   4.361
 1932TIP3   OH2 5736   1.366   5.373   2.856
 1932TIP3    H1 5737   1.398   5.433   2.789
 1932TIP3    H2 5738   1.344   5.293   2.808
 1933TIP3   OH2 5739   2.761   4.940   3.048
 1933TIP3    H1 5740   2.787   4.851   3.071
 1933TIP3    H2 5741   2.719   4.931   2.963
 1934TIP3   OH2 5742   4.600   3.644   2.712
 1934TIP3    H1 5743   4.676   3.687   2.674
 1934TIP3    H2 5744   4.576   3.577   2.647
 1935TIP3   OH2 5745   2.111   6.764   3.099
 1935TIP3    H1 5746   2.039   6.726   3.150
 1935TIP3    H2 5747   2.070   6.790   3.017
 1936TIP3   OH2 5748   0.963   3.861   6.830
 1936TIP3    H1 5749   0.985   3.936   6.884
 1936TIP3    H2 5750   1.047   3.831   6.795
 1937TIP3   OH2 5751   7.660   5.968   2.774
 1937TIP3    H1 5752   7.750   5.961   2.806
 1937TIP3    H2 5753   7.642   5.884   2.732
 1938TIP3   OH2 5754   8.276   3.838   3.762
 1938TIP3    H1 5755   8.252   3.863   3.673
 1938TIP3    H2 5756   8.364   3.802   3.754
 1939TIP3   OH2 5757   2.112   0.966   4.707
 1939TIP3    H1 5758   2.053   1.032   4.670
 1939TIP3    H2 5759   2.125   0.903   4.635
 1940TIP3   OH2 5760   0.131   5.879   2.419
 1940TIP3    H1 5761   0.082   5.802   2.389
 1940TIP3    H2 5762   0.064   5.942   2.442
 1941TIP3   OH2 5763   1.680   5.912   0.170
 1941TIP3    H1 5764   1.703   5.850   0.101
 1941TIP3    H2 5765   1.763   5.949   0.198
 1942TIP3   OH2 5766   2.240  -0.046   3.308
 1942TIP3    H1 5767   2.194  -0.001   3.238
 1942TIP3    H2 5768   2.264  -0.131   3.271
 1943TIP3   OH2 5769   0.438   3.243   3.112
 1943TIP3    H1 5770   0.404   3.224   3.024
 1943TIP3    H2 5771   0.450   3.156   3.152
 1944TIP3   OH2 5772   5.519   0.384   1.602
 1944TIP3    H1 5773   5.590   0.396   1.664
 1944TIP3    H2 5774   5.473   0.305   1.633
 1945TIP3   OH2 5775   0.804   7.420   3.335
 1945TIP3    H1 5776   0.789   7.510   3.304
 1945TIP3    H2 5777   0.719   7.392   3.368
 1946TIP3   OH2 5778   6.296   5.326   1.844
 1946TIP3    H1 5779   6.260   5.293   1.926
 1946TIP3    H2 5780   6.389   5.339   1.862
 1947TIP3   OH2 5781   8.151   4.444   5.630
 1947TIP3    H1 5782   8.191   4.507   5.570
 1947TIP3    H2 5783   8.104   4.499   5.694
 1948TIP3   OH2 5784   6.005   0.480   3.355
 1948TIP3    H1 5785   6.038   0.444   3.438
 1948TIP3    H2 5786   5.923   0.524   3.380
 1949TIP3   OH2 5787   6.019   5.657   0.323
 1949TIP3    H1 5788   5.978   5.573   0.344
 1949TIP3    H2 5789   5.963   5.694   0.254
 1950TIP3   OH2 5790   2.252   6.409   4.273
 1950TIP3    H1 5791   2.219   6.430   4.186
 1950TIP3    H2 5792   2.285   6.492   4.307
 1951TIP3   OH2 5793   4.698   3.882   2.400
 1951TIP3    H1 5794   4.719   3.864   2.492
 1951TIP3    H2 5795   4.735   3.808   2.352
 1952TIP3   OH2 5796   5.419   5.610   0.095
 1952TIP3    H1 5797   5.433   5.650   0.181
 1952TIP3    H2 5798   5.432   5.516   0.110
 1953TIP3   OH2 5799   5.549   0.061   0.358
 1953TIP3    H1 5800   5.587   0.127   0.299
 1953TIP3    H2 5801   5.599   0.071   0.439
 1954TIP3   OH2 5802   7.457   5.029   1.935
 1954TIP3    H1 5803   7.530   5.016   1.875
 1954TIP3    H2 5804   7.468   5.118   1.968
 1955TIP3   OH2 5805   3.517   6.240   0.372
 1955TIP3    H1 5806   3.428   6.269   0.392
 1955TIP3    H2 5807   3.506   6.176   0.301
 1956TIP3   OH2 5808   5.485   1.421   2.802
 1956TIP3    H1 5809   5.564   1.474   2.814
 1956TIP3    H2 5810   5.422   1.458   2.864
 1957TIP3   OH2 5811   4.280   1.330   5.406
 1957TIP3    H1 5812   4.266   1.370   5.492
 1957TIP3    H2 5813   4.197   1.342   5.360
 1958TIP3   OH2 5814   8.352   4.682   2.302
 1958TIP3    H1 5815   8.396   4.671   2.218
 1958TIP3    H2 5816   8.262   4.706   2.279
 1959TIP3   OH2 5817   1.555   1.484   1.318
 1959TIP3    H1 5818   1.559   1.494   1.413
 1959TIP3    H2 5819   1.482   1.540   1.291
 1960TIP3   OH2 5820   4.733   4.660   0.200
 1960TIP3    H1 5821   4.754   4.678   0.109
 1960TIP3    H2 5822   4.662   4.720   0.221
 1961TIP3   OH2 5823   5.449   7.190   4.620
 1961TIP3    H1 5824   5.535   7.226   4.641
 1961TIP3    H2 5825   5.393   7.267   4.613
 1962TIP3   OH2 5826   4.000   2.688   5.870
 1962TIP3    H1 5827   3.987   2.595   5.888
 1962TIP3    H2 5828   4.091   2.706   5.894
 1963TIP3   OH2 5829   3.639   0.403   3.999
 1963TIP3    H1 5830   3.721   0.402   4.049
 1963TIP3    H2 5831   3.667   0.408   3.908
 1964TIP3   OH2 5832   2.827   1.407   0.643
 1964TIP3    H1 5833   2.837   1.477   0.579
 1964TIP3    H2 5834   2.804   1.451   0.725
 1965TIP3   OH2 5835   4.082   7.096   5.939
 1965TIP3    H1 5836   4.177   7.091   5.931
 1965TIP3    H2 5837   4.067   7.140   6.023
 1966TIP3   OH2 5838   5.486   6.354   6.173
 1966TIP3    H1 5839   5.445   6.308   6.099
 1966TIP3    H2 5840   5.424   6.343   6.245
 1967TIP3   OH2 5841   2.891   7.638   2.225
 1967TIP3    H1 5842   2.919   7.704   2.288
 1967TIP3    H2 5843   2.811   7.601   2.262
 1968TIP3   OH2 5844   7.177   6.276   2.702
 1968TIP3    H1 5845   7.091   6.246   2.672
 1968TIP3    H2 5846   7.160   6.315   2.788
 1969TIP3   OH2 5847   4.661   2.410   3.805
 1969TIP3    H1 5848   4.639   2.493   3.762
 1969TIP3    H2 5849   4.631   2.421   3.895
 1970TIP3   OH2 5850   1.196   4.757   3.450
 1970TIP3    H1 5851   1.140   4.682   3.429
 1970TIP3    H2 5852   1.135   4.825   3.478
 1971TIP3   OH2 5853   5.031   4.177   5.794
 1971TIP3    H1 5854   4.976   4.245   5.754
 1971TIP3    H2 5855   5.019   4.189   5.889
 1972TIP3   OH2 5856   8.169   3.773   0.801
 1972TIP3    H1 5857   8.239   3.794   0.740
 1972TIP3    H2 5858   8.132   3.858   0.825
 1973TIP3   OH2 5859   2.631   4.504   5.214
 1973TIP3    H1 5860   2.565   4.537   5.275
 1973TIP3    H2 5861   2.579   4.464   5.143
 1974TIP3   OH2 5862   1.521   7.595   4.634
 1974TIP3    H1 5863   1.499   7.614   4.725
 1974TIP3    H2 5864   1.471   7.516   4.613
 1975TIP3   OH2 5865   0.892   1.354   2.231
 1975TIP3    H1 5866   0.831   1.397   2.172
 1975TIP3    H2 5867   0.839   1.290   2.279
 1976TIP3   OH2 5868   3.985   4.254   1.556
 1976TIP3    H1 5869   3.945   4.340   1.572
 1976TIP3    H2 5870   4.033   4.235   1.636
 1977TIP3   OH2 5871   4.399   6.917   4.082
 1977TIP3    H1 5872   4.489   6.935   4.053
 1977TIP3    H2 5873   4.409   6.864   4.160
 1978TIP3   OH2 5874   4.997   4.852   0.799
 1978TIP3    H1 5875   5.081   4.823   0.765
 1978TIP3    H2 5876   4.941   4.859   0.722
 1979TIP3   OH2 5877   2.785   6.335   1.982
 1979TIP3    H1 5878   2.731   6.362   1.908
 1979TIP3    H2 5879   2.828   6.255   1.952
 1980TIP3   OH2 5880   3.513   7.852   2.819
 1980TIP3    H1 5881   3.469   7.811   2.894
 1980TIP3    H2 5882   3.573   7.915   2.860
 1981TIP3   OH2 5883   6.001   4.369   6.678
 1981TIP3    H1 5884   5.963   4.378   6.590
 1981TIP3    H2 5885   6.077   4.427   6.677
 1982TIP3   OH2 5886   4.381   7.874   2.558
 1982TIP3    H1 5887   4.441   7.812   2.600
 1982TIP3    H2 5888   4.316   7.819   2.515
 1983TIP3   OH2 5889   1.793   5.203   0.750
 1983TIP3    H1 5890   1.822   5.266   0.684
 1983TIP3    H2 5891   1.871   5.151   0.770
 1984TIP3   OH2 5892   0.522   4.714   3.405
 1984TIP3    H1 5893   0.606   4.679   3.375
 1984TIP3    H2 5894   0.546   4.792   3.455
 1985TIP3   OH2 5895   3.220   0.754   0.033
 1985TIP3    H1 5896   3.254   0.839   0.003
 1985TIP3    H2 5897   3.298   0.699   0.042
 1986TIP3   OH2 5898   3.687   6.968   2.313
 1986TIP3    H1 5899   3.732   6.913   2.378
 1986TIP3    H2 5900   3.748   6.973   2.240
 1987TIP3   OH2 5901   3.315   0.494   0.314
 1987TIP3    H1 5902   3.233   0.461   0.350
 1987TIP3    H2 5903   3.339   0.430   0.247
 1988TIP3   OH2 5904   5.112   0.711   4.789
 1988TIP3    H1 5905   5.188   0.728   4.733
 1988TIP3    H2 5906   5.038   0.708   4.728
 1989TIP3   OH2 5907   3.924   2.750   2.336
 1989TIP3    H1 5908   3.838   2.751   2.377
 1989TIP3    H2 5909   3.936   2.660   2.306
 1990TIP3   OH2 5910   5.936   4.848   5.885
 1990TIP3    H1 5911   5.980   4.906   5.947
 1990TIP3    H2 5912   5.849   4.834   5.922
 1991TIP3   OH2 5913   8.322   4.303   1.646
 1991TIP3    H1 5914   8.237   4.347   1.653
 1991TIP3    H2 5915   8.353   4.296   1.736
 1992TIP3   OH2 5916   1.010   4.001   6.422
 1992TIP3    H1 5917   1.077   4.050   6.468
 1992TIP3    H2 5918   0.945   4.066   6.396
 1993TIP3   OH2 5919   7.663   1.533   5.082
 1993TIP3    H1 5920   7.582   1.486   5.100
 1993TIP3    H2 5921   7.721   1.467   5.043
 1994TIP3   OH2 5922   2.434   5.070   3.671
 1994TIP3    H1 5923   2.422   5.080   3.766
 1994TIP3    H2 5924   2.508   5.009   3.663
 1995TIP3   OH2 5925   7.274   1.916   1.656
 1995TIP3    H1 5926   7.335   1.975   1.701
 1995TIP3    H2 5927   7.219   1.974   1.604
 1996TIP3   OH2 5928   2.140   1.415   6.447
 1996TIP3    H1 5929   2.050   1.448   6.444
 1996TIP3    H2 5930   2.135   1.336   6.501
 1997TIP3   OH2 5931   6.186   7.373   0.890
 1997TIP3    H1 5932   6.115   7.323   0.851
 1997TIP3    H2 5933   6.157   7.464   0.887
 1998TIP3   OH2 5934   6.968   3.429   1.458
 1998TIP3    H1 5935   7.052   3.385   1.447
 1998TIP3    H2 5936   6.916   3.399   1.384
 1999TIP3   OH2 5937   6.939   6.320   1.357
 1999TIP3    H1 5938   6.855   6.278   1.377
 1999TIP3    H2 5939   7.001   6.283   1.420
 2000TIP3   OH2 5940   5.331   1.415   1.680
 2000TIP3    H1 5941   5.270   1.455   1.742
 2000TIP3    H2 5942   5.382   1.489   1.646
 2001TIP3   OH2 5943   5.188   5.135   6.789
 2001TIP3    H1 5944   5.254   5.202   6.772
 2001TIP3    H2 5945   5.107   5.184   6.803
 2002TIP3   OH2 5946   7.708   7.535   2.522
 2002TIP3    H1 5947   7.643   7.587   2.476
 2002TIP3    H2 5948   7.692   7.552   2.615
 2003TIP3   OH2 5949   8.277   0.380   1.493
 2003TIP3    H1 5950   8.270   0.354   1.585
 2003TIP3    H2 5951   8.342   0.450   1.493
 2004TIP3   OH2 5952   6.920   1.044   5.807
 2004TIP3    H1 5953   6.959   1.104   5.871
 2004TIP3    H2 5954   6.842   1.090   5.776
 2005TIP3   OH2 5955   0.986   7.451   2.941
 2005TIP3    H1 5956   0.994   7.385   2.872
 2005TIP3    H2 5957   1.074   7.489   2.948
 2006TIP3   OH2 5958   0.055   0.101   6.036
 2006TIP3    H1 5959   0.141   0.145   6.034
 2006TIP3    H2 5960  -0.008   0.172   6.050
 2007TIP3   OH2 5961   0.860   6.361   0.908
 2007TIP3    H1 5962   0.910   6.299   0.854
 2007TIP3    H2 5963   0.821   6.422   0.845
 2008TIP3   OH2 5964   2.587   6.775   0.012
 2008TIP3    H1 5965   2.492   6.773   0.012
 2008TIP3    H2 5966   2.610   6.852   0.064
 2009TIP3   OH2 5967   4.024   2.001   0.757
 2009TIP3    H1 5968   4.053   2.033   0.843
 2009TIP3    H2 5969   4.039   2.075   0.698
 2010TIP3   OH2 5970   1.957   2.485   4.064
 2010TIP3    H1 5971   2.038   2.455   4.023
 2010TIP3    H2 5972   1.940   2.570   4.022
 2011TIP3   OH2 5973   3.560   0.418   3.574
 2011TIP3    H1 5974   3.561   0.354   3.645
 2011TIP3    H2 5975   3.485   0.394   3.520
 2012TIP3   OH2 5976   2.858   3.153   6.243
 2012TIP3    H1 5977   2.876   3.170   6.336
 2012TIP3    H2 5978   2.890   3.231   6.198
 2013TIP3   OH2 5979   2.572   4.692   2.295
 2013TIP3    H1 5980   2.479   4.698   2.319
 2013TIP3    H2 5981   2.604   4.782   2.298
 2014TIP3   OH2 5982   7.585   2.247   1.151
 2014TIP3    H1 5983   7.593   2.155   1.174
 2014TIP3    H2 5984   7.620   2.253   1.062
 2015TIP3   OH2 5985   4.220   7.686   3.244
 2015TIP3    H1 5986   4.157   7.689   3.316
 2015TIP3    H2 5987   4.170   7.652   3.169
 2016TIP3   OH2 5988   6.595   0.559   6.693
 2016TIP3    H1 5989   6.578   0.468   6.717
 2016TIP3    H2 5990   6.587   0.561   6.597
 2017TIP3   OH2 5991   3.020   3.791   6.703
 2017TIP3    H1 5992   2.993   3.725   6.766
 2017TIP3    H2 5993   2.984   3.761   6.619
 2018TIP3   OH2 5994   8.226   5.864   6.084
 2018TIP3    H1 5995   8.195   5.947   6.121
 2018TIP3    H2 5996   8.147   5.821   6.052
 2019TIP3   OH2 5997   6.184   0.152   6.416
 2019TIP3    H1 5998   6.266   0.121   6.376
 2019TIP3    H2 5999   6.122   0.157   6.343
 2020TIP3   OH2 6000   5.536   0.475   5.768
 2020TIP3    H1 6001   5.539   0.565   5.737
 2020TIP3    H2 6002   5.533   0.482   5.863
 2021TIP3   OH2 6003   5.766   3.487   3.707
 2021TIP3    H1 6004   5.856   3.513   3.689
 2021TIP3    H2 6005   5.759   3.487   3.802
 2022TIP3   OH2 6006   2.330   5.732   3.662
 2022TIP3    H1 6007   2.301   5.790   3.591
 2022TIP3    H2 6008   2.325   5.644   3.624
 2023TIP3   OH2 6009   7.828   3.828   5.867
 2023TIP3    H1 6010   7.847   3.809   5.959
 2023TIP3    H2 6011   7.899   3.886   5.840
 2024TIP3   OH2 6012   0.019   2.877   2.178
 2024TIP3    H1 6013  -0.076   2.868   2.179
 2024TIP3    H2 6014   0.037   2.957   2.227
 2025TIP3   OH2 6015   4.358   4.295   5.086
 2025TIP3    H1 6016   4.295   4.233   5.049
 2025TIP3    H2 6017   4.431   4.241   5.115
 2026TIP3   OH2 6018   4.229   2.367   1.176
 2026TIP3    H1 6019   4.240   2.451   1.220
 2026TIP3    H2 6020   4.135   2.358   1.163
 2027TIP3   OH2 6021   1.741   6.017   3.652
 2027TIP3    H1 6022   1.710   6.083   3.715
 2027TIP3    H2 6023   1.664   5.997   3.599
 2028TIP3   OH2 6024   7.252   0.154   0.464
 2028TIP3    H1 6025   7.270   0.068   0.502
 2028TIP3    H2 6026   7.174   0.141   0.411
 2029TIP3   OH2 6027   8.215   6.914   3.005
 2029TIP3    H1 6028   8.224   6.820   2.986
 2029TIP3    H2 6029   8.278   6.956   2.947
 2030TIP3   OH2 6030   6.095   2.610   0.707
 2030TIP3    H1 6031   6.143   2.611   0.790
 2030TIP3    H2 6032   6.150   2.558   0.649
 2031TIP3   OH2 6033   4.421   0.899   4.587
 2031TIP3    H1 6034   4.480   0.954   4.536
 2031TIP3    H2 6035   4.367   0.961   4.637
 2032TIP3   OH2 6036   4.197   2.856   2.316
 2032TIP3    H1 6037   4.263   2.791   2.294
 2032TIP3    H2 6038   4.113   2.810   2.302
 2033TIP3   OH2 6039   4.793   4.206   2.710
 2033TIP3    H1 6040   4.732   4.181   2.641
 2033TIP3    H2 6041   4.737   4.235   2.782
 2034TIP3   OH2 6042   3.585   1.119   4.304
 2034TIP3    H1 6043   3.529   1.190   4.335
 2034TIP3    H2 6044   3.674   1.155   4.308
 2035TIP3   OH2 6045   0.494   2.281   2.358
 2035TIP3    H1 6046   0.418   2.271   2.301
 2035TIP3    H2 6047   0.457   2.300   2.444
 2036TIP3   OH2 6048   3.948   4.638   1.396
 2036TIP3    H1 6049   3.901   4.558   1.420
 2036TIP3    H2 6050   4.040   4.615   1.401
 2037TIP3   OH2 6051   5.702   1.832   3.129
 2037TIP3    H1 6052   5.780   1.827   3.184
 2037TIP3    H2 6053   5.733   1.808   3.042
 2038TIP3   OH2 6054   3.388   0.234   4.621
 2038TIP3    H1 6055   3.357   0.291   4.551
 2038TIP3    H2 6056   3.347   0.150   4.603
 2039TIP3   OH2 6057   5.140   0.199   3.884
 2039TIP3    H1 6058   5.058   0.248   3.882
 2039TIP3    H2 6059   5.208   0.266   3.888
 2040TIP3   OH2 6060   0.030   5.037   2.665
 2040TIP3    H1 6061   0.045   4.978   2.591
 2040TIP3    H2 6062  -0.009   5.115   2.626
 2041TIP3   OH2 6063   4.403   6.331   4.103
 2041TIP3    H1 6064   4.338   6.261   4.095
 2041TIP3    H2 6065   4.486   6.289   4.081
 2042TIP3   OH2 6066   1.803   5.350   0.459
 2042TIP3    H1 6067   1.821   5.415   0.391
 2042TIP3    H2 6068   1.850   5.271   0.430
 2043TIP3   OH2 6069   4.225   1.157   4.621
 2043TIP3    H1 6070   4.274   1.205   4.688
 2043TIP3    H2 6071   4.276   1.170   4.540
 2044TIP3   OH2 6072   0.766   0.612   2.318
 2044TIP3    H1 6073   0.737   0.646   2.234
 2044TIP3    H2 6074   0.713   0.659   2.383
 2045TIP3   OH2 6075   0.095   6.495   6.504
 2045TIP3    H1 6076   0.067   6.551   6.577
 2045TIP3    H2 6077   0.190   6.488   6.513
 2046TIP3   OH2 6078   6.280   6.902   3.072
 2046TIP3    H1 6079   6.229   6.821   3.065
 2046TIP3    H2 6080   6.328   6.893   3.154
 2047TIP3   OH2 6081   7.012   5.311   0.308
 2047TIP3    H1 6082   6.991   5.400   0.280
 2047TIP3    H2 6083   6.978   5.306   0.397
 2048TIP3   OH2 6084   6.560   3.802   6.573
 2048TIP3    H1 6085   6.559   3.889   6.614
 2048TIP3    H2 6086   6.599   3.816   6.487
 2049TIP3   OH2 6087   7.568   1.152   5.993
 2049TIP3    H1 6088   7.617   1.193   5.922
 2049TIP3    H2 6089   7.631   1.095   6.036
 2050TIP3   OH2 6090   2.672   1.864   4.435
 2050TIP3    H1 6091   2.762   1.834   4.449
 2050TIP3    H2 6092   2.620   1.784   4.443
 2051TIP3   OH2 6093   2.763   0.193   3.244
 2051TIP3    H1 6094   2.673   0.178   3.213
 2051TIP3    H2 6095   2.779   0.122   3.305
 2052TIP3   OH2 6096   6.833   2.187   2.102
 2052TIP3    H1 6097   6.837   2.275   2.139
 2052TIP3    H2 6098   6.743   2.178   2.070
 2053TIP3   OH2 6099   2.281   3.377   6.516
 2053TIP3    H1 6100   2.272   3.315   6.588
 2053TIP3    H2 6101   2.196   3.419   6.510
 2054TIP3   OH2 6102   5.809   1.922   3.784
 2054TIP3    H1 6103   5.900   1.930   3.813
 2054TIP3    H2 6104   5.804   1.975   3.705
 2055TIP3   OH2 6105   6.456   5.833   6.508
 2055TIP3    H1 6106   6.488   5.863   6.423
 2055TIP3    H2 6107   6.372   5.877   6.519
 2056TIP3   OH2 6108   3.936   1.295   0.247
 2056TIP3    H1 6109   3.909   1.307   0.338
 2056TIP3    H2 6110   3.899   1.211   0.222
 2057TIP3   OH2 6111   2.035   2.718   0.381
 2057TIP3    H1 6112   1.994   2.661   0.446
 2057TIP3    H2 6113   2.106   2.664   0.345
 2058TIP3   OH2 6114   0.453   5.220   2.333
 2058TIP3    H1 6115   0.530   5.166   2.311
 2058TIP3    H2 6116   0.410   5.235   2.249
 2059TIP3   OH2 6117   7.046   5.879   0.138
 2059TIP3    H1 6118   7.036   5.808   0.202
 2059TIP3    H2 6119   6.960   5.921   0.135
 2060TIP3   OH2 6120   1.154   5.779   2.476
 2060TIP3    H1 6121   1.121   5.763   2.565
 2060TIP3    H2 6122   1.246   5.802   2.489
 2061TIP3   OH2 6123   1.520   2.957   6.173
 2061TIP3    H1 6124   1.545   3.013   6.247
 2061TIP3    H2 6125   1.459   2.894   6.211
 2062TIP3   OH2 6126   2.158   1.162   0.427
 2062TIP3    H1 6127   2.183   1.088   0.371
 2062TIP3    H2 6128   2.240   1.189   0.469
 2063TIP3   OH2 6129   2.787   7.453   2.666
 2063TIP3    H1 6130   2.845   7.434   2.740
 2063TIP3    H2 6131   2.795   7.376   2.610
 2064TIP3   OH2 6132   7.456   1.260   3.357
 2064TIP3    H1 6133   7.457   1.203   3.280
 2064TIP3    H2 6134   7.443   1.199   3.430
 2065TIP3   OH2 6135   4.084   4.212   1.308
 2065TIP3    H1 6136   4.154   4.148   1.320
 2065TIP3    H2 6137   4.040   4.216   1.393
 2066TIP3   OH2 6138   5.906   0.907   6.820
 2066TIP3    H1 6139   5.894   0.999   6.844
 2066TIP3    H2 6140   5.838   0.890   6.755
 2067TIP3   OH2 6141   3.124   2.962   1.346
 2067TIP3    H1 6142   3.182   2.993   1.277
 2067TIP3    H2 6143   3.177   2.963   1.426
 2068TIP3   OH2 6144   3.257   4.363   4.440
 2068TIP3    H1 6145   3.186   4.425   4.456
 2068TIP3    H2 6146   3.330   4.418   4.410
 2069TIP3   OH2 6147   4.135   4.426   0.625
 2069TIP3    H1 6148   4.215   4.412   0.575
 2069TIP3    H2 6149   4.067   4.380   0.576
 2070TIP3   OH2 6150   5.598   7.774   4.101
 2070TIP3    H1 6151   5.629   7.747   4.187
 2070TIP3    H2 6152   5.612   7.869   4.099
 2071TIP3   OH2 6153   0.311   0.385   4.577
 2071TIP3    H1 6154   0.301   0.297   4.541
 2071TIP3    H2 6155   0.376   0.375   4.647
 2072TIP3   OH2 6156   3.839   2.542   5.304
 2072TIP3    H1 6157   3.918   2.596   5.299
 2072TIP3    H2 6158   3.767   2.603   5.283
 2073TIP3   OH2 6159   0.132   7.152   0.796
 2073TIP3    H1 6160   0.050   7.182   0.834
 2073TIP3    H2 6161   0.107   7.085   0.732
 2074TIP3   OH2 6162   1.970   1.221   0.191
 2074TIP3    H1 6163   2.008   1.177   0.267
 2074TIP3    H2 6164   2.043   1.267   0.150
 2075TIP3   OH2 6165   6.129   5.856   1.514
 2075TIP3    H1 6166   6.160   5.834   1.602
 2075TIP3    H2 6167   6.034   5.844   1.518
 2076TIP3   OH2 6168   3.197   4.856   3.955
 2076TIP3    H1 6169   3.186   4.791   4.023
 2076TIP3    H2 6170   3.176   4.940   3.997
 2077TIP3   OH2 6171   5.779   1.242   0.996
 2077TIP3    H1 6172   5.753   1.157   0.961
 2077TIP3    H2 6173   5.852   1.269   0.940
 2078TIP3   OH2 6174   5.642   3.894   2.865
 2078TIP3    H1 6175   5.674   3.984   2.865
 2078TIP3    H2 6176   5.554   3.899   2.901
 2079TIP3   OH2 6177   0.082   6.799   4.468
 2079TIP3    H1 6178   0.141   6.763   4.402
 2079TIP3    H2 6179   0.105   6.752   4.548
 2080TIP3   OH2 6180   1.832   7.650   5.700
 2080TIP3    H1 6181   1.766   7.673   5.765
 2080TIP3    H2 6182   1.913   7.691   5.733
 2081TIP3   OH2 6183   5.769   6.642   5.835
 2081TIP3    H1 6184   5.752   6.610   5.923
 2081TIP3    H2 6185   5.812   6.726   5.847
 2082TIP3   OH2 6186   0.618   5.109   3.131
 2082TIP3    H1 6187   0.584   5.171   3.066
 2082TIP3    H2 6188   0.570   5.028   3.114
 2083TIP3   OH2 6189   0.276   0.540   5.789
 2083TIP3    H1 6190   0.283   0.582   5.703
 2083TIP3    H2 6191   0.239   0.607   5.846
 2084TIP3   OH2 6192   8.222   5.726   2.586
 2084TIP3    H1 6193   8.222   5.818   2.612
 2084TIP3    H2 6194   8.294   5.719   2.524
 2085TIP3   OH2 6195   3.097   7.340   3.421
 2085TIP3    H1 6196   3.156   7.391   3.366
 2085TIP3    H2 6197   3.136   7.345   3.509
 2086TIP3   OH2 6198   8.203   1.327   6.011
 2086TIP3    H1 6199   8.154   1.258   6.056
 2086TIP3    H2 6200   8.240   1.380   6.081
 2087TIP3   OH2 6201   8.335   4.347   2.193
 2087TIP3    H1 6202   8.256   4.389   2.228
 2087TIP3    H2 6203   8.382   4.317   2.271
 2088TIP3   OH2 6204   3.288   4.502   0.578
 2088TIP3    H1 6205   3.194   4.493   0.593
 2088TIP3    H2 6206   3.296   4.582   0.526
 2089TIP3   OH2 6207   3.164   4.498   3.419
 2089TIP3    H1 6208   3.228   4.440   3.377
 2089TIP3    H2 6209   3.080   4.452   3.409
 2090TIP3   OH2 6210   6.959   5.751   3.719
 2090TIP3    H1 6211   7.054   5.746   3.713
 2090TIP3    H2 6212   6.928   5.702   3.643
 2091TIP3   OH2 6213   4.581   4.365   6.718
 2091TIP3    H1 6214   4.573   4.270   6.729
 2091TIP3    H2 6215   4.496   4.399   6.743
 2092TIP3   OH2 6216   3.622   2.699   5.212
 2092TIP3    H1 6217   3.620   2.720   5.119
 2092TIP3    H2 6218   3.575   2.770   5.254
 2093TIP3   OH2 6219   2.616   3.022   0.275
 2093TIP3    H1 6220   2.565   3.084   0.224
 2093TIP3    H2 6221   2.582   2.936   0.250
 2094TIP3   OH2 6222   2.759   7.672   3.402
 2094TIP3    H1 6223   2.789   7.693   3.314
 2094TIP3    H2 6224   2.701   7.744   3.425
 2095TIP3   OH2 6225   0.568   2.781   4.112
 2095TIP3    H1 6226   0.509   2.819   4.177
 2095TIP3    H2 6227   0.650   2.765   4.159
 2096TIP3   OH2 6228   7.184   4.056   2.268
 2096TIP3    H1 6229   7.148   3.970   2.248
 2096TIP3    H2 6230   7.214   4.090   2.184
 2097TIP3   OH2 6231   7.948   2.994   4.975
 2097TIP3    H1 6232   7.888   3.059   4.940
 2097TIP3    H2 6233   8.034   3.034   4.969
 2098TIP3   OH2 6234   5.551   0.753   0.855
 2098TIP3    H1 6235   5.481   0.817   0.868
 2098TIP3    H2 6236   5.518   0.673   0.896
 2099TIP3   OH2 6237   6.248   2.940   3.377
 2099TIP3    H1 6238   6.199   2.942   3.295
 2099TIP3    H2 6239   6.308   3.014   3.372
 2100TIP3   OH2 6240   4.346   0.779   6.137
 2100TIP3    H1 6241   4.392   0.774   6.220
 2100TIP3    H2 6242   4.276   0.843   6.152
 2101TIP3   OH2 6243   0.148   6.584   3.825
 2101TIP3    H1 6244   0.065   6.630   3.811
 2101TIP3    H2 6245   0.180   6.619   3.908
 2102TIP3   OH2 6246   3.542   4.726   0.787
 2102TIP3    H1 6247   3.581   4.732   0.874
 2102TIP3    H2 6248   3.560   4.636   0.759
 2103TIP3   OH2 6249   2.666   6.956   2.025
 2103TIP3    H1 6250   2.602   6.924   1.962
 2103TIP3    H2 6251   2.617   6.964   2.107
 2104TIP3   OH2 6252   1.495   4.182   3.628
 2104TIP3    H1 6253   1.527   4.118   3.691
 2104TIP3    H2 6254   1.539   4.159   3.546
 2105TIP3   OH2 6255   7.368   2.301   2.458
 2105TIP3    H1 6256   7.339   2.236   2.523
 2105TIP3    H2 6257   7.332   2.384   2.490
 2106TIP3   OH2 6258   2.050   4.564   0.064
 2106TIP3    H1 6259   1.962   4.546   0.032
 2106TIP3    H2 6260   2.039   4.577   0.158
 2107TIP3   OH2 6261   6.359   6.180   5.321
 2107TIP3    H1 6262   6.429   6.234   5.359
 2107TIP3    H2 6263   6.401   6.097   5.299
 2108TIP3   OH2 6264   4.679   3.876   5.002
 2108TIP3    H1 6265   4.617   3.802   4.999
 2108TIP3    H2 6266   4.713   3.881   4.913
 2109TIP3   OH2 6267   1.528   7.405   6.899
 2109TIP3    H1 6268   1.497   7.349   6.827
 2109TIP3    H2 6269   1.449   7.450   6.930
 2110TIP3   OH2 6270   4.157   4.635   6.381
 2110TIP3    H1 6271   4.158   4.622   6.286
 2110TIP3    H2 6272   4.240   4.599   6.411
 2111TIP3   OH2 6273   5.356   5.984   5.153
 2111TIP3    H1 6274   5.431   5.937   5.118
 2111TIP3    H2 6275   5.304   6.007   5.076
 2112TIP3   OH2 6276   6.146   6.300   2.035
 2112TIP3    H1 6277   6.108   6.217   2.007
 2112TIP3    H2 6278   6.223   6.311   1.978
 2113TIP3   OH2 6279   5.705   2.705   6.722
 2113TIP3    H1 6280   5.699   2.789   6.678
 2113TIP3    H2 6281   5.655   2.645   6.666
 2114TIP3   OH2 6282   1.594   5.321   3.102
 2114TIP3    H1 6283   1.542   5.400   3.090
 2114TIP3    H2 6284   1.584   5.272   3.020
 2115TIP3   OH2 6285   0.513   1.104   3.235
 2115TIP3    H1 6286   0.584   1.133   3.292
 2115TIP3    H2 6287   0.517   1.008   3.239
 2116TIP3   OH2 6288   7.151   7.621   4.814
 2116TIP3    H1 6289   7.222   7.677   4.842
 2116TIP3    H2 6290   7.106   7.596   4.895
 2117TIP3   OH2 6291   6.917   2.979   2.768
 2117TIP3    H1 6292   6.924   3.073   2.755
 2117TIP3    H2 6293   6.892   2.969   2.860
 2118TIP3   OH2 6294   1.706   2.576   2.806
 2118TIP3    H1 6295   1.697   2.481   2.801
 2118TIP3    H2 6296   1.778   2.597   2.747
 2119TIP3   OH2 6297   4.929   2.894   5.690
 2119TIP3    H1 6298   5.023   2.911   5.698
 2119TIP3    H2 6299   4.895   2.967   5.638
 2120TIP3   OH2 6300   4.572   7.506   5.439
 2120TIP3    H1 6301   4.660   7.538   5.416
 2120TIP3    H2 6302   4.545   7.455   5.362
 2121TIP3   OH2 6303   7.255   2.135   5.935
 2121TIP3    H1 6304   7.263   2.142   6.030
 2121TIP3    H2 6305   7.344   2.149   5.902
 2122TIP3   OH2 6306   6.645   3.295   2.364
 2122TIP3    H1 6307   6.716   3.233   2.375
 2122TIP3    H2 6308   6.672   3.350   2.290
 2123TIP3   OH2 6309   7.979   4.895   6.162
 2123TIP3    H1 6310   7.898   4.852   6.188
 2123TIP3    H2 6311   8.048   4.834   6.190
 2124TIP3   OH2 6312   1.061   7.096   3.911
 2124TIP3    H1 6313   1.144   7.102   3.958
 2124TIP3    H2 6314   0.995   7.115   3.978
 2125TIP3   OH2 6315   3.313   2.702   2.040
 2125TIP3    H1 6316   3.278   2.666   1.959
 2125TIP3    H2 6317   3.251   2.771   2.065
 2126TIP3   OH2 6318   4.097   3.652   0.164
 2126TIP3    H1 6319   4.098   3.679   0.072
 2126TIP3    H2 6320   4.048   3.570   0.164
 2127TIP3   OH2 6321   4.215   1.670   0.622
 2127TIP3    H1 6322   4.165   1.710   0.550
 2127TIP3    H2 6323   4.194   1.577   0.617
 2128TIP3   OH2 6324   3.589   1.055   3.122
 2128TIP3    H1 6325   3.547   1.040   3.037
 2128TIP3    H2 6326   3.654   1.123   3.105
 2129TIP3   OH2 6327   2.631   5.425   1.190
 2129TIP3    H1 6328   2.608   5.344   1.236
 2129TIP3    H2 6329   2.549   5.473   1.182
 2130TIP3   OH2 6330   3.686   2.754   1.331
 2130TIP3    H1 6331   3.666   2.827   1.389
 2130TIP3    H2 6332   3.626   2.766   1.256
 2131TIP3   OH2 6333   6.491   3.342   1.643
 2131TIP3    H1 6334   6.552   3.416   1.645
 2131TIP3    H2 6335   6.545   3.265   1.663
 2132TIP3   OH2 6336   0.146   1.701   5.703
 2132TIP3    H1 6337   0.122   1.753   5.627
 2132TIP3    H2 6338   0.140   1.610   5.673
 2133TIP3   OH2 6339   4.940   6.967   4.197
 2133TIP3    H1 6340   5.004   7.012   4.142
 2133TIP3    H2 6341   4.979   6.881   4.214
 2134TIP3   OH2 6342   1.266   2.955   4.453
 2134TIP3    H1 6343   1.234   3.023   4.394
 2134TIP3    H2 6344   1.331   2.999   4.508
 2135TIP3   OH2 6345   2.902   0.144   5.660
 2135TIP3    H1 6346   2.851   0.088   5.602
 2135TIP3    H2 6347   2.992   0.113   5.650
 2136TIP3   OH2 6348   5.343   4.242   6.017
 2136TIP3    H1 6349   5.267   4.184   6.007
 2136TIP3    H2 6350   5.415   4.194   5.976
 2137TIP3   OH2 6351   1.332   2.391   5.993
 2137TIP3    H1 6352   1.272   2.354   6.057
 2137TIP3    H2 6353   1.289   2.471   5.963
 2138TIP3   OH2 6354   4.494   5.099   0.404
 2138TIP3    H1 6355   4.424   5.161   0.423
 2138TIP3    H2 6356   4.507   5.051   0.486
 2139TIP3   OH2 6357   8.060   5.066   4.523
 2139TIP3    H1 6358   8.147   5.025   4.519
 2139TIP3    H2 6359   8.065   5.124   4.599
 2140TIP3   OH2 6360   2.267   2.982   3.818
 2140TIP3    H1 6361   2.329   3.030   3.762
 2140TIP3    H2 6362   2.204   2.944   3.757
 2141TIP3   OH2 6363   2.053   0.432   5.920
 2141TIP3    H1 6364   1.989   0.377   5.966
 2141TIP3    H2 6365   2.120   0.451   5.987
 2142TIP3   OH2 6366   8.347   4.982   4.565
 2142TIP3    H1 6367   8.362   4.891   4.591
 2142TIP3    H2 6368   8.352   5.031   4.647
 2143TIP3   OH2 6369   1.603   6.589   2.544
 2143TIP3    H1 6370   1.600   6.503   2.585
 2143TIP3    H2 6371   1.540   6.641   2.593
 2144TIP3   OH2 6372   2.456   0.053   6.437
 2144TIP3    H1 6373   2.387   0.117   6.417
 2144TIP3    H2 6374   2.434  -0.024   6.385
 2145TIP3   OH2 6375   4.320   0.246   6.106
 2145TIP3    H1 6376   4.351   0.323   6.059
 2145TIP3    H2 6377   4.234   0.227   6.069
 2146TIP3   OH2 6378   6.080   0.920   3.788
 2146TIP3    H1 6379   6.044   0.923   3.876
 2146TIP3    H2 6380   6.175   0.913   3.801
 2147TIP3   OH2 6381   1.987   7.864   4.433
 2147TIP3    H1 6382   1.929   7.810   4.487
 2147TIP3    H2 6383   2.064   7.809   4.419
 2148TIP3   OH2 6384   5.414   2.899   4.312
 2148TIP3    H1 6385   5.438   2.917   4.221
 2148TIP3    H2 6386   5.394   2.805   4.314
 2149TIP3   OH2 6387   8.012   6.302   1.658
 2149TIP3    H1 6388   7.986   6.211   1.676
 2149TIP3    H2 6389   8.103   6.296   1.630
 2150TIP3   OH2 6390   4.098   5.344   4.589
 2150TIP3    H1 6391   4.033   5.412   4.571
 2150TIP3    H2 6392   4.145   5.333   4.506
 2151TIP3   OH2 6393   0.631   5.503   0.295
 2151TIP3    H1 6394   0.646   5.597   0.304
 2151TIP3    H2 6395   0.576   5.494   0.217
 2152TIP3   OH2 6396   2.947   0.243   2.726
 2152TIP3    H1 6397   2.946   0.333   2.759
 2152TIP3    H2 6398   2.880   0.198   2.778
 2153TIP3   OH2 6399   3.037   4.105   3.131
 2153TIP3    H1 6400   3.128   4.093   3.160
 2153TIP3    H2 6401   3.033   4.195   3.100
 2154TIP3   OH2 6402   4.721   1.390   0.200
 2154TIP3    H1 6403   4.718   1.337   0.280
 2154TIP3    H2 6404   4.660   1.347   0.140
 2155TIP3   OH2 6405   7.536   6.120   1.884
 2155TIP3    H1 6406   7.604   6.128   1.951
 2155TIP3    H2 6407   7.583   6.087   1.807
 2156TIP3   OH2 6408   2.452   6.377   4.562
 2156TIP3    H1 6409   2.528   6.359   4.506
 2156TIP3    H2 6410   2.386   6.314   4.533
 2157TIP3   OH2 6411   4.506   3.300   0.934
 2157TIP3    H1 6412   4.523   3.383   0.978
 2157TIP3    H2 6413   4.528   3.316   0.842
 2158TIP3   OH2 6414   0.905   0.162   1.013
 2158TIP3    H1 6415   0.828   0.112   1.041
 2158TIP3    H2 6416   0.872   0.250   0.995
 2159TIP3   OH2 6417   0.248   4.993   3.510
 2159TIP3    H1 6418   0.176   5.021   3.566
 2159TIP3    H2 6419   0.246   4.897   3.515
 2160TIP3   OH2 6420   7.463   0.304   0.950
 2160TIP3    H1 6421   7.436   0.232   0.894
 2160TIP3    H2 6422   7.536   0.346   0.902
 2161TIP3   OH2 6423   6.149   0.259   2.887
 2161TIP3    H1 6424   6.123   0.288   2.974
 2161TIP3    H2 6425   6.214   0.191   2.903
 2162TIP3   OH2 6426   8.285   3.381   1.350
 2162TIP3    H1 6427   8.306   3.288   1.359
 2162TIP3    H2 6428   8.366   3.426   1.373
 2163TIP3   OH2 6429   6.105   1.909  -0.006
 2163TIP3    H1 6430   6.185   1.951   0.026
 2163TIP3    H2 6431   6.040   1.927   0.061
 2164TIP3   OH2 6432   7.485   5.556   3.893
 2164TIP3    H1 6433   7.500   5.467   3.925
 2164TIP3    H2 6434   7.392   5.559   3.870
 2165TIP3   OH2 6435   7.509   0.056   4.605
 2165TIP3    H1 6436   7.508   0.149   4.580
 2165TIP3    H2 6437   7.471   0.055   4.693
 2166TIP3   OH2 6438   0.226   1.221   0.152
 2166TIP3    H1 6439   0.195   1.296   0.202
 2166TIP3    H2 6440   0.297   1.255   0.098
 2167TIP3   OH2 6441   1.163   2.211   3.349
 2167TIP3    H1 6442   1.181   2.118   3.336
 2167TIP3    H2 6443   1.089   2.229   3.291
 2168TIP3   OH2 6444   6.433   2.764   4.673
 2168TIP3    H1 6445   6.455   2.763   4.766
 2168TIP3    H2 6446   6.339   2.783   4.670
 2169TIP3   OH2 6447   7.069   6.640   4.037
 2169TIP3    H1 6448   7.103   6.701   3.972
 2169TIP3    H2 6449   7.148   6.600   4.075
 2170TIP3   OH2 6450   2.355   6.691   6.208
 2170TIP3    H1 6451   2.300   6.614   6.217
 2170TIP3    H2 6452   2.435   6.659   6.165
 2171TIP3   OH2 6453   6.303   4.723   1.072
 2171TIP3    H1 6454   6.211   4.711   1.052
 2171TIP3    H2 6455   6.320   4.816   1.056
 2172TIP3   OH2 6456   4.477   4.405   1.315
 2172TIP3    H1 6457   4.416   4.440   1.249
 2172TIP3    H2 6458   4.544   4.473   1.324
 2173TIP3   OH2 6459   5.006   7.176   0.199
 2173TIP3    H1 6460   5.020   7.244   0.264
 2173TIP3    H2 6461   5.017   7.094   0.247
 2174TIP3   OH2 6462   4.548   1.695   3.879
 2174TIP3    H1 6463   4.634   1.737   3.885
 2174TIP3    H2 6464   4.567   1.606   3.848
 2175TIP3   OH2 6465   4.072   0.571   6.544
 2175TIP3    H1 6466   4.147   0.621   6.511
 2175TIP3    H2 6467   4.003   0.587   6.479
 2176TIP3   OH2 6468   3.419   6.134   1.388
 2176TIP3    H1 6469   3.332   6.109   1.357
 2176TIP3    H2 6470   3.403   6.180   1.470
 2177TIP3   OH2 6471   3.214   4.070   6.379
 2177TIP3    H1 6472   3.125   4.051   6.349
 2177TIP3    H2 6473   3.212   4.053   6.473
 2178TIP3   OH2 6474   6.363   1.542   6.144
 2178TIP3    H1 6475   6.370   1.622   6.196
 2178TIP3    H2 6476   6.272   1.540   6.115
 2179TIP3   OH2 6477   5.660   2.207   0.273
 2179TIP3    H1 6478   5.753   2.224   0.287
 2179TIP3    H2 6479   5.618   2.233   0.355
 2180TIP3   OH2 6480   0.040   4.442   1.461
 2180TIP3    H1 6481  -0.041   4.410   1.502
 2180TIP3    H2 6482   0.098   4.365   1.461
 2181TIP3   OH2 6483   5.508   3.996   1.352
 2181TIP3    H1 6484   5.436   3.978   1.292
 2181TIP3    H2 6485   5.477   3.964   1.437
 2182TIP3   OH2 6486   7.279   0.168   1.134
 2182TIP3    H1 6487   7.255   0.152   1.225
 2182TIP3    H2 6488   7.261   0.261   1.120
 2183TIP3   OH2 6489   0.587   3.818   0.867
 2183TIP3    H1 6490   0.512   3.759   0.855
 2183TIP3    H2 6491   0.597   3.861   0.782
 2184TIP3   OH2 6492   1.239   2.863   3.305
 2184TIP3    H1 6493   1.318   2.869   3.252
 2184TIP3    H2 6494   1.218   2.953   3.328
 2185TIP3   OH2 6495   6.797   0.309   1.667
 2185TIP3    H1 6496   6.821   0.217   1.678
 2185TIP3    H2 6497   6.822   0.350   1.750
 2186TIP3   OH2 6498   3.436   1.942   0.967
 2186TIP3    H1 6499   3.361   1.932   1.025
 2186TIP3    H2 6500   3.480   2.021   0.999
 2187TIP3   OH2 6501   3.046   4.191   2.176
 2187TIP3    H1 6502   2.953   4.176   2.161
 2187TIP3    H2 6503   3.072   4.120   2.236
 2188TIP3   OH2 6504   8.272   7.253   6.692
 2188TIP3    H1 6505   8.220   7.234   6.614
 2188TIP3    H2 6506   8.207   7.272   6.760
 2189TIP3   OH2 6507   5.244   4.439   3.388
 2189TIP3    H1 6508   5.259   4.351   3.354
 2189TIP3    H2 6509   5.300   4.495   3.336
 2190TIP3   OH2 6510  -0.035   4.117   1.028
 2190TIP3    H1 6511  -0.033   4.210   1.005
 2190TIP3    H2 6512   0.054   4.087   1.009
 2191TIP3   OH2 6513   0.680   5.783   1.157
 2191TIP3    H1 6514   0.733   5.863   1.155
 2191TIP3    H2 6515   0.734   5.720   1.204
 2192TIP3   OH2 6516   1.106   7.571   1.090
 2192TIP3    H1 6517   1.150   7.647   1.052
 2192TIP3    H2 6518   1.177   7.513   1.118
 2193TIP3   OH2 6519   5.786   7.665   1.533
 2193TIP3    H1 6520   5.761   7.750   1.497
 2193TIP3    H2 6521   5.842   7.625   1.466
 2194TIP3   OH2 6522   7.900   0.668   4.853
 2194TIP3    H1 6523   7.910   0.670   4.758
 2194TIP3    H2 6524   7.951   0.742   4.884
 2195TIP3   OH2 6525   2.440   1.818   6.491
 2195TIP3    H1 6526   2.431   1.727   6.519
 2195TIP3    H2 6527   2.422   1.870   6.569
 2196TIP3   OH2 6528   4.167   4.621   4.981
 2196TIP3    H1 6529   4.101   4.688   4.995
 2196TIP3    H2 6530   4.125   4.539   5.009
 2197TIP3   OH2 6531   1.226   7.487   3.796
 2197TIP3    H1 6532   1.179   7.442   3.726
 2197TIP3    H2 6533   1.166   7.555   3.825
 2198TIP3   OH2 6534   4.607   2.187   3.310
 2198TIP3    H1 6535   4.677   2.122   3.309
 2198TIP3    H2 6536   4.535   2.144   3.355
 2199TIP3   OH2 6537   4.839   7.921   6.329
 2199TIP3    H1 6538   4.868   7.873   6.250
 2199TIP3    H2 6539   4.851   7.858   6.400
 2200TIP3   OH2 6540   2.408   6.382   6.461
 2200TIP3    H1 6541   2.415   6.329   6.382
 2200TIP3    H2 6542   2.499   6.394   6.490
 2201TIP3   OH2 6543   5.029   7.790   0.756
 2201TIP3    H1 6544   4.986   7.706   0.771
 2201TIP3    H2 6545   4.958   7.854   0.753
 2202TIP3   OH2 6546   7.654   5.283   1.819
 2202TIP3    H1 6547   7.619   5.295   1.907
 2202TIP3    H2 6548   7.576   5.275   1.763
 2203TIP3   OH2 6549   7.795   5.508   0.754
 2203TIP3    H1 6550   7.707   5.504   0.715
 2203TIP3    H2 6551   7.840   5.577   0.706
 2204TIP3   OH2 6552   1.824   6.574   6.681
 2204TIP3    H1 6553   1.860   6.653   6.721
 2204TIP3    H2 6554   1.743   6.603   6.639
 2205TIP3   OH2 6555   6.571   5.760   1.373
 2205TIP3    H1 6556   6.649   5.761   1.428
 2205TIP3    H2 6557   6.506   5.713   1.426
 2206TIP3   OH2 6558   6.761   7.502   1.083
 2206TIP3    H1 6559   6.783   7.595   1.088
 2206TIP3    H2 6560   6.824   7.466   1.022
 2207TIP3   OH2 6561   0.486   0.326   0.137
 2207TIP3    H1 6562   0.392   0.313   0.140
 2207TIP3    H2 6563   0.522   0.242   0.110
 2208TIP3   OH2 6564   0.747   4.659   4.323
 2208TIP3    H1 6565   0.788   4.582   4.361
 2208TIP3    H2 6566   0.687   4.625   4.257
 2209TIP3   OH2 6567   4.851   5.341   2.837
 2209TIP3    H1 6568   4.922   5.300   2.888
 2209TIP3    H2 6569   4.789   5.269   2.821
 2210TIP3   OH2 6570   7.241   1.146   6.540
 2210TIP3    H1 6571   7.304   1.170   6.473
 2210TIP3    H2 6572   7.216   1.056   6.519
 2211TIP3   OH2 6573   6.581   2.707   0.309
 2211TIP3    H1 6574   6.487   2.700   0.292
 2211TIP3    H2 6575   6.600   2.635   0.369
 2212TIP3   OH2 6576   4.911   2.950   5.180
 2212TIP3    H1 6577   4.899   2.873   5.236
 2212TIP3    H2 6578   4.954   2.916   5.101
 2213TIP3   OH2 6579   3.696   7.459   4.207
 2213TIP3    H1 6580   3.660   7.454   4.119
 2213TIP3    H2 6581   3.678   7.373   4.246
 2214TIP3   OH2 6582   2.178   6.762   4.022
 2214TIP3    H1 6583   2.232   6.697   4.067
 2214TIP3    H2 6584   2.095   6.718   4.006
 2215TIP3   OH2 6585   1.975   7.377   3.694
 2215TIP3    H1 6586   1.935   7.305   3.742
 2215TIP3    H2 6587   2.042   7.335   3.640
 2216TIP3   OH2 6588   3.249   3.898   0.373
 2216TIP3    H1 6589   3.175   3.846   0.343
 2216TIP3    H2 6590   3.267   3.866   0.461
 2217TIP3   OH2 6591   3.437   7.140   5.135
 2217TIP3    H1 6592   3.469   7.052   5.155
 2217TIP3    H2 6593   3.396   7.131   5.049
 2218TIP3   OH2 6594   4.797   6.060   5.620
 2218TIP3    H1 6595   4.854   5.996   5.576
 2218TIP3    H2 6596   4.733   6.085   5.554
 2219TIP3   OH2 6597   1.788   4.244   1.634
 2219TIP3    H1 6598   1.867   4.254   1.687
 2219TIP3    H2 6599   1.797   4.309   1.565
 2220TIP3   OH2 6600   0.236   6.144   1.201
 2220TIP3    H1 6601   0.293   6.076   1.237
 2220TIP3    H2 6602   0.216   6.114   1.112
 2221TIP3   OH2 6603   6.688   4.944   3.083
 2221TIP3    H1 6604   6.593   4.928   3.078
 2221TIP3    H2 6605   6.713   4.966   2.993
 2222TIP3   OH2 6606   0.560   5.422   6.057
 2222TIP3    H1 6607   0.538   5.341   6.102
 2222TIP3    H2 6608   0.480   5.475   6.064
 2223TIP3   OH2 6609   1.203   6.483   6.102
 2223TIP3    H1 6610   1.214   6.554   6.165
 2223TIP3    H2 6611   1.146   6.420   6.147
 2224TIP3   OH2 6612   0.908   6.582   0.345
 2224TIP3    H1 6613   0.842   6.651   0.337
 2224TIP3    H2 6614   0.981   6.624   0.391
 2225TIP3   OH2 6615   3.381   1.284   1.221
 2225TIP3    H1 6616   3.346   1.264   1.308
 2225TIP3    H2 6617   3.323   1.351   1.186
 2226TIP3   OH2 6618   1.051   3.710   2.641
 2226TIP3    H1 6619   0.985   3.751   2.584
 2226TIP3    H2 6620   1.044   3.757   2.724
 2227TIP3   OH2 6621   3.180   6.141   1.935
 2227TIP3    H1 6622   3.187   6.085   2.012
 2227TIP3    H2 6623   3.155   6.227   1.971
 2228TIP3   OH2 6624   6.010   1.230   0.840
 2228TIP3    H1 6625   5.991   1.308   0.789
 2228TIP3    H2 6626   6.097   1.245   0.877
 2229TIP3   OH2 6627   4.337   3.111   3.527
 2229TIP3    H1 6628   4.265   3.114   3.591
 2229TIP3    H2 6629   4.368   3.201   3.522
 2230TIP3   OH2 6630   0.306   6.062   6.706
 2230TIP3    H1 6631   0.263   5.990   6.752
 2230TIP3    H2 6632   0.342   6.117   6.776
 2231TIP3   OH2 6633   2.107   7.915   4.136
 2231TIP3    H1 6634   2.147   7.884   4.217
 2231TIP3    H2 6635   2.106   7.837   4.079
 2232TIP3   OH2 6636   7.609   1.618   1.255
 2232TIP3    H1 6637   7.689   1.565   1.264
 2232TIP3    H2 6638   7.611   1.677   1.331
 2233TIP3   OH2 6639   8.245   3.411   5.323
 2233TIP3    H1 6640   8.294   3.483   5.284
 2233TIP3    H2 6641   8.276   3.406   5.414
 2234TIP3   OH2 6642   7.771   3.130   1.198
 2234TIP3    H1 6643   7.693   3.184   1.202
 2234TIP3    H2 6644   7.742   3.044   1.231
 2235TIP3   OH2 6645   7.141   5.258   1.338
 2235TIP3    H1 6646   7.203   5.330   1.324
 2235TIP3    H2 6647   7.168   5.191   1.274
 2236TIP3   OH2 6648   2.875   7.357   0.696
 2236TIP3    H1 6649   2.855   7.268   0.666
 2236TIP3    H2 6650   2.793   7.388   0.735
 2237TIP3   OH2 6651   7.944   2.489   6.525
 2237TIP3    H1 6652   7.856   2.526   6.511
 2237TIP3    H2 6653   7.929   2.395   6.530
 2238TIP3   OH2 6654   0.668   3.345   2.859
 2238TIP3    H1 6655   0.585   3.310   2.827
 2238TIP3    H2 6656   0.656   3.353   2.954
 2239TIP3   OH2 6657   6.185   6.671   2.981
 2239TIP3    H1 6658   6.093   6.664   3.005
 2239TIP3    H2 6659   6.185   6.670   2.885
 2240TIP3   OH2 6660   2.723   4.898   4.971
 2240TIP3    H1 6661   2.749   4.807   4.975
 2240TIP3    H2 6662   2.774   4.942   5.039
 2241TIP3   OH2 6663   6.652   4.360   1.507
 2241TIP3    H1 6664   6.596   4.283   1.502
 2241TIP3    H2 6665   6.725   4.334   1.564
 2242TIP3   OH2 6666   7.428   4.374   2.656
 2242TIP3    H1 6667   7.432   4.316   2.731
 2242TIP3    H2 6668   7.357   4.340   2.602
 2243TIP3   OH2 6669   7.548   3.108   2.983
 2243TIP3    H1 6670   7.611   3.140   2.918
 2243TIP3    H2 6671   7.477   3.071   2.931
 2244TIP3   OH2 6672   1.613   0.851   4.397
 2244TIP3    H1 6673   1.526   0.884   4.375
 2244TIP3    H2 6674   1.598   0.760   4.423
 2245TIP3   OH2 6675   1.769   1.802   6.572
 2245TIP3    H1 6676   1.845   1.841   6.529
 2245TIP3    H2 6677   1.695   1.824   6.515
 2246TIP3   OH2 6678   2.087   1.557   3.916
 2246TIP3    H1 6679   2.175   1.549   3.878
 2246TIP3    H2 6680   2.090   1.504   3.996
 2247TIP3   OH2 6681   6.103   4.517   3.682
 2247TIP3    H1 6682   6.115   4.609   3.707
 2247TIP3    H2 6683   6.112   4.469   3.765
 2248TIP3   OH2 6684   4.532   7.485   3.896
 2248TIP3    H1 6685   4.462   7.420   3.897
 2248TIP3    H2 6686   4.599   7.446   3.839
 2249TIP3   OH2 6687   6.197   0.930   2.374
 2249TIP3    H1 6688   6.184   1.020   2.405
 2249TIP3    H2 6689   6.214   0.880   2.453
 2250TIP3   OH2 6690   0.525   6.633   6.028
 2250TIP3    H1 6691   0.568   6.577   6.093
 2250TIP3    H2 6692   0.585   6.707   6.017
 2251TIP3   OH2 6693   1.123   0.462   3.347
 2251TIP3    H1 6694   1.140   0.383   3.295
 2251TIP3    H2 6695   1.180   0.529   3.308
 2252TIP3   OH2 6696   8.239   2.446   0.595
 2252TIP3    H1 6697   8.253   2.529   0.640
 2252TIP3    H2 6698   8.175   2.466   0.527
 2253TIP3   OH2 6699   0.632   0.154   4.167
 2253TIP3    H1 6700   0.635   0.199   4.252
 2253TIP3    H2 6701   0.577   0.078   4.183
 2254TIP3   OH2 6702   1.336   6.752   6.828
 2254TIP3    H1 6703   1.284   6.684   6.870
 2254TIP3    H2 6704   1.340   6.726   6.736
 2255TIP3   OH2 6705   3.127   4.916   5.923
 2255TIP3    H1 6706   3.171   4.832   5.930
 2255TIP3    H2 6707   3.189   4.972   5.878
 2256TIP3   OH2 6708   1.115   3.433   1.678
 2256TIP3    H1 6709   1.109   3.389   1.592
 2256TIP3    H2 6710   1.104   3.362   1.741
 2257TIP3   OH2 6711   2.873   7.665   4.147
 2257TIP3    H1 6712   2.875   7.580   4.192
 2257TIP3    H2 6713   2.965   7.683   4.127
 2258TIP3   OH2 6714   0.844   1.329   5.774
 2258TIP3    H1 6715   0.934   1.343   5.744
 2258TIP3    H2 6716   0.848   1.342   5.869
 2259TIP3   OH2 6717   3.521   1.003   0.264
 2259TIP3    H1 6718   3.601   0.956   0.239
 2259TIP3    H2 6719   3.469   0.937   0.311
 2260TIP3   OH2 6720   3.636   1.248   6.108
 2260TIP3    H1 6721   3.668   1.234   6.198
 2260TIP3    H2 6722   3.599   1.164   6.082
 2261TIP3   OH2 6723   8.114   3.215   1.615
 2261TIP3    H1 6724   8.138   3.281   1.550
 2261TIP3    H2 6725   8.031   3.180   1.584
 2262TIP3   OH2 6726   3.551   7.401   5.952
 2262TIP3    H1 6727   3.584   7.329   5.898
 2262TIP3    H2 6728   3.500   7.455   5.892
 2263TIP3   OH2 6729   8.151   6.826   3.820
 2263TIP3    H1 6730   8.236   6.815   3.776
 2263TIP3    H2 6731   8.171   6.816   3.913
 2264TIP3   OH2 6732   0.301   3.719   1.350
 2264TIP3    H1 6733   0.338   3.786   1.408
 2264TIP3    H2 6734   0.319   3.751   1.261
 2265TIP3   OH2 6735   5.405   0.969   4.466
 2265TIP3    H1 6736   5.491   0.999   4.497
 2265TIP3    H2 6737   5.356   1.050   4.449
 2266TIP3   OH2 6738   0.774   3.115   4.914
 2266TIP3    H1 6739   0.718   3.191   4.896
 2266TIP3    H2 6740   0.795   3.122   5.007
 2267TIP3   OH2 6741   3.520   7.550   3.293
 2267TIP3    H1 6742   3.611   7.520   3.288
 2267TIP3    H2 6743   3.524   7.634   3.340
 2268TIP3   OH2 6744   2.005   3.259   6.173
 2268TIP3    H1 6745   2.066   3.190   6.147
 2268TIP3    H2 6746   2.037   3.338   6.130
 2269TIP3   OH2 6747   2.261   4.390   2.789
 2269TIP3    H1 6748   2.332   4.386   2.725
 2269TIP3    H2 6749   2.267   4.308   2.838
 2270TIP3   OH2 6750   0.296   6.229   2.352
 2270TIP3    H1 6751   0.329   6.315   2.324
 2270TIP3    H2 6752   0.347   6.207   2.429
 2271TIP3   OH2 6753   7.942   7.677   1.324
 2271TIP3    H1 6754   7.912   7.706   1.410
 2271TIP3    H2 6755   8.028   7.717   1.314
 2272TIP3   OH2 6756   0.190   4.973   1.984
 2272TIP3    H1 6757   0.235   4.890   1.971
 2272TIP3    H2 6758   0.099   4.956   1.960
 2273TIP3   OH2 6759   2.801   7.442   5.872
 2273TIP3    H1 6760   2.862   7.467   5.802
 2273TIP3    H2 6761   2.833   7.488   5.949
 2274TIP3   OH2 6762   0.516   2.705   1.978
 2274TIP3    H1 6763   0.574   2.695   2.053
 2274TIP3    H2 6764   0.430   2.724   2.016
 2275TIP3   OH2 6765   5.883   2.886   1.214
 2275TIP3    H1 6766   5.924   2.889   1.128
 2275TIP3    H2 6767   5.910   2.968   1.256
 2276TIP3   OH2 6768   2.655   6.725   4.792
 2276TIP3    H1 6769   2.722   6.691   4.733
 2276TIP3    H2 6770   2.636   6.813   4.759
 2277TIP3   OH2 6771   2.272   3.712   0.890
 2277TIP3    H1 6772   2.266   3.672   0.803
 2277TIP3    H2 6773   2.271   3.638   0.951
 2278TIP3   OH2 6774   5.002   4.429   5.678
 2278TIP3    H1 6775   4.922   4.468   5.713
 2278TIP3    H2 6776   4.978   4.397   5.591
 2279TIP3   OH2 6777   1.524   7.894   4.183
 2279TIP3    H1 6778   1.618   7.905   4.195
 2279TIP3    H2 6779   1.488   7.983   4.186
 2280TIP3   OH2 6780   5.805   2.464   3.582
 2280TIP3    H1 6781   5.806   2.541   3.638
 2280TIP3    H2 6782   5.811   2.498   3.493
 2281TIP3   OH2 6783   1.763   0.557   1.419
 2281TIP3    H1 6784   1.835   0.495   1.431
 2281TIP3    H2 6785   1.732   0.576   1.507
 2282TIP3   OH2 6786   0.047   0.843   0.942
 2282TIP3    H1 6787   0.058   0.929   0.982
 2282TIP3    H2 6788   0.116   0.839   0.875
 2283TIP3   OH2 6789   3.323   3.003   0.507
 2283TIP3    H1 6790   3.372   3.039   0.433
 2283TIP3    H2 6791   3.303   3.079   0.562
 2284TIP3   OH2 6792   7.919   3.036   2.596
 2284TIP3    H1 6793   7.906   3.122   2.555
 2284TIP3    H2 6794   7.936   3.055   2.688
 2285TIP3   OH2 6795  -0.019   7.723   4.430
 2285TIP3    H1 6796   0.065   7.683   4.452
 2285TIP3    H2 6797  -0.064   7.733   4.514
 2286TIP3   OH2 6798   4.187   5.381   0.137
 2286TIP3    H1 6799   4.106   5.337   0.162
 2286TIP3    H2 6800   4.169   5.474   0.151
 2287TIP3   OH2 6801   3.708   2.148   4.042
 2287TIP3    H1 6802   3.703   2.181   3.953
 2287TIP3    H2 6803   3.737   2.057   4.033
 2288TIP3   OH2 6804   1.875   7.266   2.822
 2288TIP3    H1 6805   1.968   7.266   2.845
 2288TIP3    H2 6806   1.846   7.176   2.834
 2289TIP3   OH2 6807   6.722   0.063   6.794
 2289TIP3    H1 6808   6.676   0.055   6.877
 2289TIP3    H2 6809   6.771  -0.019   6.786
 2290TIP3   OH2 6810   5.136   1.631   5.346
 2290TIP3    H1 6811   5.049   1.663   5.322
 2290TIP3    H2 6812   5.165   1.582   5.269
 2291TIP3   OH2 6813   5.880   1.804   2.110
 2291TIP3    H1 6814   5.872   1.723   2.161
 2291TIP3    H2 6815   5.876   1.873   2.175
 2292TIP3   OH2 6816   1.687   5.042   0.418
 2292TIP3    H1 6817   1.662   5.027   0.509
 2292TIP3    H2 6818   1.750   4.972   0.399
 2293TIP3   OH2 6819   0.140   3.932   6.326
 2293TIP3    H1 6820   0.120   3.957   6.416
 2293TIP3    H2 6821   0.222   3.885   6.331
 2294TIP3   OH2 6822   7.402   3.518   4.485
 2294TIP3    H1 6823   7.452   3.532   4.405
 2294TIP3    H2 6824   7.465   3.482   4.547
 2295TIP3   OH2 6825   2.535   5.816   3.447
 2295TIP3    H1 6826   2.594   5.846   3.515
 2295TIP3    H2 6827   2.455   5.867   3.460
 2296TIP3   OH2 6828   1.160   2.307   2.368
 2296TIP3    H1 6829   1.105   2.270   2.299
 2296TIP3    H2 6830   1.116   2.388   2.394
 2297TIP3   OH2 6831   6.388   3.984   0.338
 2297TIP3    H1 6832   6.438   3.941   0.268
 2297TIP3    H2 6833   6.402   4.078   0.323
 2298TIP3   OH2 6834   7.378   6.898   6.225
 2298TIP3    H1 6835   7.367   6.804   6.237
 2298TIP3    H2 6836   7.393   6.908   6.131
 2299TIP3   OH2 6837   5.528   1.523   3.880
 2299TIP3    H1 6838   5.584   1.467   3.934
 2299TIP3    H2 6839   5.560   1.612   3.896
 2300TIP3   OH2 6840   0.061   2.181   6.892
 2300TIP3    H1 6841   0.072   2.276   6.900
 2300TIP3    H2 6842   0.150   2.147   6.890
 2301TIP3   OH2 6843   6.282   7.837   6.226
 2301TIP3    H1 6844   6.195   7.808   6.200
 2301TIP3    H2 6845   6.292   7.805   6.315
 2302TIP3   OH2 6846   5.468   0.909   6.694
 2302TIP3    H1 6847   5.430   0.832   6.736
 2302TIP3    H2 6848   5.400   0.941   6.635
 2303TIP3   OH2 6849   1.004   7.997   2.553
 2303TIP3    H1 6850   1.038   7.908   2.539
 2303TIP3    H2 6851   0.993   8.032   2.464
 2304TIP3   OH2 6852   6.221   5.382   4.097
 2304TIP3    H1 6853   6.267   5.409   4.176
 2304TIP3    H2 6854   6.263   5.431   4.026
 2305TIP3   OH2 6855   4.568   5.587   1.225
 2305TIP3    H1 6856   4.573   5.623   1.314
 2305TIP3    H2 6857   4.632   5.515   1.224
 2306TIP3   OH2 6858   4.792   4.393   4.578
 2306TIP3    H1 6859   4.706   4.396   4.619
 2306TIP3    H2 6860   4.815   4.486   4.566
 2307TIP3   OH2 6861   1.354   0.274   2.888
 2307TIP3    H1 6862   1.426   0.260   2.827
 2307TIP3    H2 6863   1.280   0.301   2.833
 2308TIP3   OH2 6864   3.181   4.338   6.669
 2308TIP3    H1 6865   3.270   4.332   6.635
 2308TIP3    H2 6866   3.147   4.248   6.664
 2309TIP3   OH2 6867   7.121   6.527   0.705
 2309TIP3    H1 6868   7.129   6.463   0.635
 2309TIP3    H2 6869   7.029   6.523   0.732
 2310TIP3   OH2 6870   4.046   2.688   2.733
 2310TIP3    H1 6871   4.015   2.778   2.739
 2310TIP3    H2 6872   4.131   2.694   2.689
 2311TIP3   OH2 6873   5.236   3.989   3.503
 2311TIP3    H1 6874   5.143   4.008   3.492
 2311TIP3    H2 6875   5.240   3.933   3.581
 2312TIP3   OH2 6876   6.900   6.767   5.379
 2312TIP3    H1 6877   6.941   6.682   5.397
 2312TIP3    H2 6878   6.913   6.818   5.459
 2313TIP3   OH2 6879   1.105   2.182   5.016
 2313TIP3    H1 6880   1.139   2.133   4.941
 2313TIP3    H2 6881   1.030   2.131   5.046
 2314TIP3   OH2 6882   7.889   4.618   3.290
 2314TIP3    H1 6883   7.907   4.545   3.350
 2314TIP3    H2 6884   7.806   4.594   3.248
 2315TIP3   OH2 6885   3.223   5.200   2.943
 2315TIP3    H1 6886   3.128   5.198   2.954
 2315TIP3    H2 6887   3.236   5.191   2.849
 2316TIP3   OH2 6888   1.254   7.252   3.104
 2316TIP3    H1 6889   1.287   7.171   3.143
 2316TIP3    H2 6890   1.273   7.320   3.169
 2317TIP3   OH2 6891   2.008   4.028   4.759
 2317TIP3    H1 6892   2.030   4.107   4.808
 2317TIP3    H2 6893   2.080   4.016   4.698
 2318TIP3   OH2 6894   6.395   4.887   0.156
 2318TIP3    H1 6895   6.334   4.875   0.228
 2318TIP3    H2 6896   6.418   4.980   0.159
 2319TIP3   OH2 6897   2.104   5.718   1.126
 2319TIP3    H1 6898   2.109   5.786   1.193
 2319TIP3    H2 6899   2.020   5.734   1.083
 2320TIP3   OH2 6900   2.046   6.267   3.834
 2320TIP3    H1 6901   1.959   6.302   3.818
 2320TIP3    H2 6902   2.095   6.287   3.754
 2321TIP3   OH2 6903   0.449   0.137   0.460
 2321TIP3    H1 6904   0.534   0.092   0.463
 2321TIP3    H2 6905   0.404   0.097   0.386
 2322TIP3   OH2 6906   3.699   2.364   2.423
 2322TIP3    H1 6907   3.692   2.281   2.472
 2322TIP3    H2 6908   3.760   2.417   2.475
 2323TIP3   OH2 6909   5.632   6.195   1.162
 2323TIP3    H1 6910   5.554   6.167   1.209
 2323TIP3    H2 6911   5.700   6.201   1.228
 2324TIP3   OH2 6912   5.396   1.348   4.129
 2324TIP3    H1 6913   5.489   1.329   4.136
 2324TIP3    H2 6914   5.367   1.298   4.052
 2325TIP3   OH2 6915   6.674   2.849   4.412
 2325TIP3    H1 6916   6.618   2.901   4.469
 2325TIP3    H2 6917   6.640   2.759   4.420
 2326TIP3   OH2 6918   8.038   5.005   3.987
 2326TIP3    H1 6919   7.943   5.012   3.994
 2326TIP3    H2 6920   8.063   4.941   4.053
 2327TIP3   OH2 6921  -0.018   2.704   4.669
 2327TIP3    H1 6922   0.071   2.668   4.661
 2327TIP3    H2 6923  -0.027   2.723   4.763
 2328TIP3   OH2 6924   0.392   7.875   1.196
 2328TIP3    H1 6925   0.388   7.962   1.156
 2328TIP3    H2 6926   0.471   7.836   1.160
 2329TIP3   OH2 6927   4.834   5.680   5.092
 2329TIP3    H1 6928   4.864   5.645   5.007
 2329TIP3    H2 6929   4.743   5.650   5.099
 2330TIP3   OH2 6930   0.299   2.230   3.485
 2330TIP3    H1 6931   0.285   2.262   3.574
 2330TIP3    H2 6932   0.225   2.264   3.435
 2331TIP3   OH2 6933   2.759   4.977   1.868
 2331TIP3    H1 6934   2.762   5.063   1.827
 2331TIP3    H2 6935   2.675   4.940   1.839
 2332TIP3   OH2 6936   6.871   6.451   2.964
 2332TIP3    H1 6937   6.868   6.544   2.985
 2332TIP3    H2 6938   6.797   6.438   2.904
 2333TIP3   OH2 6939   1.348   0.547   5.768
 2333TIP3    H1 6940   1.401   0.526   5.691
 2333TIP3    H2 6941   1.409   0.589   5.828
 2334TIP3   OH2 6942   6.680   0.247   3.587
 2334TIP3    H1 6943   6.639   0.171   3.544
 2334TIP3    H2 6944   6.688   0.220   3.679
 2335TIP3   OH2 6945   0.428   6.215   0.093
 2335TIP3    H1 6946   0.427   6.123   0.068
 2335TIP3    H2 6947   0.385   6.260   0.020
 2336TIP3   OH2 6948   8.130   2.137   2.882
 2336TIP3    H1 6949   8.141   2.218   2.833
 2336TIP3    H2 6950   8.098   2.074   2.817
 2337TIP3   OH2 6951   7.049   6.682   4.644
 2337TIP3    H1 6952   6.972   6.629   4.624
 2337TIP3    H2 6953   7.096   6.689   4.560
 2338TIP3   OH2 6954   7.848   1.023   4.973
 2338TIP3    H1 6955   7.886   1.055   5.055
 2338TIP3    H2 6956   7.922   1.018   4.913
 2339TIP3   OH2 6957   4.557   1.278   2.762
 2339TIP3    H1 6958   4.515   1.231   2.834
 2339TIP3    H2 6959   4.649   1.283   2.788
 2340TIP3   OH2 6960   0.722   4.125   0.549
 2340TIP3    H1 6961   0.664   4.050   0.540
 2340TIP3    H2 6962   0.665   4.201   0.538
 2341TIP3   OH2 6963   7.470   6.947   0.724
 2341TIP3    H1 6964   7.406   6.884   0.758
 2341TIP3    H2 6965   7.537   6.892   0.683
 2342TIP3   OH2 6966   1.371   5.893   1.332
 2342TIP3    H1 6967   1.385   5.987   1.322
 2342TIP3    H2 6968   1.300   5.872   1.270
 2343TIP3   OH2 6969   2.683   1.691   6.672
 2343TIP3    H1 6970   2.596   1.666   6.642
 2343TIP3    H2 6971   2.672   1.708   6.766
 2344TIP3   OH2 6972   1.083   6.956   5.716
 2344TIP3    H1 6973   1.081   7.047   5.744
 2344TIP3    H2 6974   1.075   6.906   5.798
 2345TIP3   OH2 6975   5.087   5.618   0.904
 2345TIP3    H1 6976   5.160   5.591   0.960
 2345TIP3    H2 6977   5.009   5.584   0.948
 2346TIP3   OH2 6978   3.233   2.919   6.549
 2346TIP3    H1 6979   3.231   2.926   6.644
 2346TIP3    H2 6980   3.324   2.894   6.529
 2347TIP3   OH2 6981   7.778   2.861   5.633
 2347TIP3    H1 6982   7.714   2.790   5.621
 2347TIP3    H2 6983   7.862   2.821   5.612
 2348TIP3   OH2 6984   2.162   7.458   3.890
 2348TIP3    H1 6985   2.215   7.380   3.904
 2348TIP3    H2 6986   2.125   7.447   3.803
 2349TIP3   OH2 6987   3.125   4.051   6.677
 2349TIP3    H1 6988   3.085   3.966   6.696
 2349TIP3    H2 6989   3.215   4.043   6.709
 2350TIP3   OH2 6990   4.408   4.983   1.747
 2350TIP3    H1 6991   4.413   5.061   1.802
 2350TIP3    H2 6992   4.456   4.917   1.796
 2351TIP3   OH2 6993   1.115   5.904   2.052
 2351TIP3    H1 6994   1.037   5.849   2.065
 2351TIP3    H2 6995   1.082   5.981   2.005
 2352TIP3   OH2 6996   2.989   1.553   6.773
 2352TIP3    H1 6997   2.900   1.534   6.743
 2352TIP3    H2 6998   3.011   1.478   6.829
 2353TIP3   OH2 6999   2.083   4.768   2.637
 2353TIP3    H1 7000   2.003   4.786   2.589
 2353TIP3    H2 7001   2.096   4.674   2.628
 2354TIP3   OH2 7002   5.135   1.578   3.582
 2354TIP3    H1 7003   5.101   1.529   3.507
 2354TIP3    H2 7004   5.061   1.628   3.615
 2355TIP3   OH2 7005   5.398   0.510   6.356
 2355TIP3    H1 7006   5.385   0.429   6.307
 2355TIP3    H2 7007   5.441   0.569   6.295
 2356TIP3   OH2 7008   2.468   3.919   2.504
 2356TIP3    H1 7009   2.474   3.956   2.416
 2356TIP3    H2 7010   2.402   3.972   2.548
 2357TIP3   OH2 7011   1.015   0.172   3.449
 2357TIP3    H1 7012   1.030   0.154   3.542
 2357TIP3    H2 7013   0.925   0.204   3.445
 2358TIP3   OH2 7014   3.507   5.603   5.860
 2358TIP3    H1 7015   3.576   5.587   5.924
 2358TIP3    H2 7016   3.539   5.676   5.807
 2359TIP3   OH2 7017   8.080   7.216   0.007
 2359TIP3    H1 7018   8.078   7.304  -0.030
 2359TIP3    H2 7019   8.093   7.230   0.101
 2360TIP3   OH2 7020   1.372   0.452   4.252
 2360TIP3    H1 7021   1.429   0.505   4.197
 2360TIP3    H2 7022   1.349   0.377   4.197
 2361TIP3   OH2 7023   2.350   1.239   4.132
 2361TIP3    H1 7024   2.401   1.297   4.188
 2361TIP3    H2 7025   2.387   1.152   4.149
 2362TIP3   OH2 7026   8.048   6.152   3.936
 2362TIP3    H1 7027   7.962   6.191   3.922
 2362TIP3    H2 7028   8.082   6.135   3.848
 2363TIP3   OH2 7029   8.180   3.280   4.032
 2363TIP3    H1 7030   8.245   3.298   3.963
 2363TIP3    H2 7031   8.123   3.357   4.031
 2364TIP3   OH2 7032   1.170   1.775   4.525
 2364TIP3    H1 7033   1.145   1.705   4.465
 2364TIP3    H2 7034   1.136   1.855   4.485
 2365TIP3   OH2 7035   0.353   6.427   6.618
 2365TIP3    H1 7036   0.448   6.410   6.617
 2365TIP3    H2 7037   0.321   6.380   6.695
 2366TIP3   OH2 7038   0.828   3.101   4.341
 2366TIP3    H1 7039   0.845   3.169   4.406
 2366TIP3    H2 7040   0.916   3.072   4.314
 2367TIP3   OH2 7041   2.058   0.078   6.594
 2367TIP3    H1 7042   2.010   0.000   6.569
 2367TIP3    H2 7043   2.132   0.046   6.645
 2368TIP3   OH2 7044   4.313   3.678   6.054
 2368TIP3    H1 7045   4.245   3.703   6.116
 2368TIP3    H2 7046   4.267   3.664   5.971
 2369TIP3   OH2 7047   6.758   4.116   6.865
 2369TIP3    H1 7048   6.695   4.049   6.890
 2369TIP3    H2 7049   6.717   4.160   6.790
 2370TIP3   OH2 7050   4.230   5.122   2.095
 2370TIP3    H1 7051   4.148   5.101   2.052
 2370TIP3    H2 7052   4.291   5.141   2.023
 2371TIP3   OH2 7053   4.817   7.351   5.982
 2371TIP3    H1 7054   4.906   7.359   6.016
 2371TIP3    H2 7055   4.774   7.433   6.008
 2372TIP3   OH2 7056   4.499   2.857   3.000
 2372TIP3    H1 7057   4.528   2.805   2.925
 2372TIP3    H2 7058   4.578   2.902   3.030
 2373TIP3   OH2 7059   2.850   6.773   0.918
 2373TIP3    H1 7060   2.779   6.814   0.868
 2373TIP3    H2 7061   2.848   6.681   0.892
 2374TIP3   OH2 7062   3.411   0.241   5.496
 2374TIP3    H1 7063   3.342   0.300   5.529
 2374TIP3    H2 7064   3.384   0.154   5.526
 2375TIP3   OH2 7065   4.179   1.367   6.002
 2375TIP3    H1 7066   4.206   1.312   5.929
 2375TIP3    H2 7067   4.212   1.322   6.080
 2376TIP3   OH2 7068   0.345   6.099   3.011
 2376TIP3    H1 7069   0.271   6.152   3.040
 2376TIP3    H2 7070   0.311   6.048   2.937
 2377TIP3   OH2 7071   3.264   3.689   2.491
 2377TIP3    H1 7072   3.182   3.653   2.524
 2377TIP3    H2 7073   3.260   3.782   2.513
 2378TIP3   OH2 7074   4.301   4.510   6.154
 2378TIP3    H1 7075   4.239   4.438   6.166
 2378TIP3    H2 7076   4.385   4.467   6.139
 2379TIP3   OH2 7077   8.273   3.568   6.649
 2379TIP3    H1 7078   8.234   3.606   6.727
 2379TIP3    H2 7079   8.205   3.575   6.582
 2380TIP3   OH2 7080   4.580   1.900   0.288
 2380TIP3    H1 7081   4.623   1.825   0.247
 2380TIP3    H2 7082   4.516   1.930   0.223
 2381TIP3   OH2 7083   2.845   6.935   0.345
 2381TIP3    H1 7084   2.931   6.908   0.377
 2381TIP3    H2 7085   2.792   6.855   0.347
 2382TIP3   OH2 7086   4.897   4.634   1.495
 2382TIP3    H1 7087   4.966   4.664   1.555
 2382TIP3    H2 7088   4.831   4.703   1.497
 2383TIP3   OH2 7089   6.334   3.721   2.194
 2383TIP3    H1 7090   6.421   3.713   2.232
 2383TIP3    H2 7091   6.284   3.773   2.258
 2384TIP3   OH2 7092   3.790   7.441   2.408
 2384TIP3    H1 7093   3.757   7.476   2.490
 2384TIP3    H2 7094   3.834   7.359   2.432
 2385TIP3   OH2 7095   0.528   6.341   6.088
 2385TIP3    H1 7096   0.445   6.386   6.100
 2385TIP3    H2 7097   0.504   6.251   6.066
 2386TIP3   OH2 7098   3.111   2.699   4.878
 2386TIP3    H1 7099   3.196   2.740   4.866
 2386TIP3    H2 7100   3.124   2.608   4.853
 2387TIP3   OH2 7101   6.145   5.229   2.458
 2387TIP3    H1 7102   6.137   5.307   2.514
 2387TIP3    H2 7103   6.236   5.202   2.468
 2388TIP3   OH2 7104   7.568   0.918   6.405
 2388TIP3    H1 7105   7.571   0.891   6.313
 2388TIP3    H2 7106   7.520   1.001   6.404
 2389TIP3   OH2 7107   3.557   3.226   6.674
 2389TIP3    H1 7108   3.605   3.144   6.667
 2389TIP3    H2 7109   3.608   3.288   6.622
 2390TIP3   OH2 7110   1.064   1.169   5.033
 2390TIP3    H1 7111   0.994   1.205   5.088
 2390TIP3    H2 7112   1.043   1.076   5.027
 2391TIP3   OH2 7113   3.069   0.151   6.564
 2391TIP3    H1 7114   3.030   0.174   6.480
 2391TIP3    H2 7115   2.996   0.146   6.625
 2392TIP3   OH2 7116   7.294   1.716   5.128
 2392TIP3    H1 7117   7.198   1.721   5.133
 2392TIP3    H2 7118   7.323   1.805   5.144
 2393TIP3   OH2 7119   7.169   2.090   4.398
 2393TIP3    H1 7120   7.129   2.066   4.315
 2393TIP3    H2 7121   7.202   2.179   4.384
 2394TIP3   OH2 7122   5.014   5.932   4.592
 2394TIP3    H1 7123   5.076   5.859   4.586
 2394TIP3    H2 7124   4.946   5.901   4.651
 2395TIP3   OH2 7125   8.226   0.905   6.317
 2395TIP3    H1 7126   8.281   0.977   6.349
 2395TIP3    H2 7127   8.248   0.899   6.224
 2396TIP3   OH2 7128   1.190   7.909   2.885
 2396TIP3    H1 7129   1.105   7.865   2.884
 2396TIP3    H2 7130   1.171   7.998   2.913
 2397TIP3   OH2 7131   6.946   6.128   0.819
 2397TIP3    H1 7132   6.930   6.200   0.879
 2397TIP3    H2 7133   6.882   6.141   0.749
 2398TIP3   OH2 7134   6.064   0.682   0.440
 2398TIP3    H1 7135   6.054   0.703   0.532
 2398TIP3    H2 7136   6.059   0.586   0.436
 2399TIP3   OH2 7137   6.505   5.652   5.920
 2399TIP3    H1 7138   6.541   5.624   5.836
 2399TIP3    H2 7139   6.470   5.571   5.958
 2400TIP3   OH2 7140   4.790   5.826   3.085
 2400TIP3    H1 7141   4.746   5.742   3.074
 2400TIP3    H2 7142   4.839   5.838   3.004
 2401TIP3   OH2 7143   8.384   6.725   3.985
 2401TIP3    H1 7144   8.299   6.696   4.017
 2401TIP3    H2 7145   8.410   6.795   4.045
 2402TIP3   OH2 7146   0.716   0.813   3.115
 2402TIP3    H1 7147   0.778   0.740   3.116
 2402TIP3    H2 7148   0.762   0.885   3.158
 2403TIP3   OH2 7149   6.906   0.013   5.517
 2403TIP3    H1 7150   6.927  -0.001   5.610
 2403TIP3    H2 7151   6.866   0.100   5.514
 2404TIP3   OH2 7152   5.121   1.345   4.616
 2404TIP3    H1 7153   5.086   1.363   4.528
 2404TIP3    H2 7154   5.081   1.411   4.672
 2405TIP3   OH2 7155   6.054   7.003   3.418
 2405TIP3    H1 7156   6.117   6.936   3.445
 2405TIP3    H2 7157   5.977   6.987   3.474
 2406TIP3   OH2 7158   8.214   2.578   2.787
 2406TIP3    H1 7159   8.230   2.605   2.877
 2406TIP3    H2 7160   8.169   2.653   2.747
 2407TIP3   OH2 7161   7.971   2.052   5.666
 2407TIP3    H1 7162   7.971   2.133   5.616
 2407TIP3    H2 7163   8.003   2.077   5.753
 2408TIP3   OH2 7164   3.118   5.123   0.604
 2408TIP3    H1 7165   3.124   5.068   0.682
 2408TIP3    H2 7166   3.024   5.126   0.584
 2409TIP3   OH2 7167   7.738   1.471   2.695
 2409TIP3    H1 7168   7.700   1.511   2.617
 2409TIP3    H2 7169   7.667   1.419   2.732
 2410TIP3   OH2 7170   7.020   5.716   5.150
 2410TIP3    H1 7171   7.087   5.727   5.218
 2410TIP3    H2 7172   6.940   5.750   5.189
 2411TIP3   OH2 7173   5.933   4.545   4.078
 2411TIP3    H1 7174   5.904   4.490   4.004
 2411TIP3    H2 7175   5.976   4.483   4.137
 2412TIP3   OH2 7176   4.891   7.220   6.280
 2412TIP3    H1 7177   4.921   7.181   6.198
 2412TIP3    H2 7178   4.908   7.153   6.346
 2413TIP3   OH2 7179   4.214   1.563   2.394
 2413TIP3    H1 7180   4.123   1.554   2.366
 2413TIP3    H2 7181   4.266   1.540   2.317
 2414TIP3   OH2 7182   1.720   6.041   2.250
 2414TIP3    H1 7183   1.694   6.131   2.228
 2414TIP3    H2 7184   1.720   5.995   2.166
 2415TIP3   OH2 7185   2.842   6.032   5.656
 2415TIP3    H1 7186   2.930   6.056   5.682
 2415TIP3    H2 7187   2.787   6.105   5.685
 2416TIP3   OH2 7188   7.297   0.517   4.371
 2416TIP3    H1 7189   7.276   0.475   4.287
 2416TIP3    H2 7190   7.227   0.581   4.384
 2417TIP3   OH2 7191  -0.058   5.471   6.157
 2417TIP3    H1 7192   0.001   5.531   6.204
 2417TIP3    H2 7193  -0.053   5.389   6.205
 2418TIP3   OH2 7194   7.892   0.761   6.778
 2418TIP3    H1 7195   7.797   0.754   6.771
 2418TIP3    H2 7196   7.925   0.723   6.697
 2419TIP3   OH2 7197   0.557   7.855   6.421
 2419TIP3    H1 7198   0.561   7.789   6.352
 2419TIP3    H2 7199   0.571   7.938   6.376
 2420TIP3   OH2 7200   1.799   7.477   4.745
 2420TIP3    H1 7201   1.722   7.424   4.728
 2420TIP3    H2 7202   1.871   7.429   4.704
 2421TIP3   OH2 7203   5.417   4.209   2.639
 2421TIP3    H1 7204   5.447   4.295   2.607
 2421TIP3    H2 7205   5.425   4.152   2.563
 2422TIP3   OH2 7206   6.212   5.626   0.801
 2422TIP3    H1 7207   6.165   5.703   0.832
 2422TIP3    H2 7208   6.290   5.622   0.856
 2423TIP3   OH2 7209   5.141   4.152   3.769
 2423TIP3    H1 7210   5.117   4.094   3.696
 2423TIP3    H2 7211   5.092   4.118   3.844
 2424TIP3   OH2 7212   1.625   5.600   0.226
 2424TIP3    H1 7213   1.600   5.583   0.317
 2424TIP3    H2 7214   1.577   5.679   0.203
 2425TIP3   OH2 7215   5.258   0.932   0.398
 2425TIP3    H1 7216   5.189   0.890   0.449
 2425TIP3    H2 7217   5.332   0.872   0.404
 2426TIP3   OH2 7218   7.579   2.296   5.155
 2426TIP3    H1 7219   7.654   2.327   5.103
 2426TIP3    H2 7220   7.619   2.263   5.236
 2427TIP3   OH2 7221   4.235   3.837   4.623
 2427TIP3    H1 7222   4.172   3.823   4.552
 2427TIP3    H2 7223   4.294   3.762   4.618
 2428TIP3   OH2 7224   6.366   5.925   0.917
 2428TIP3    H1 7225   6.404   5.842   0.888
 2428TIP3    H2 7226   6.371   5.921   1.013
 2429TIP3   OH2 7227   8.198   6.376   6.880
 2429TIP3    H1 7228   8.207   6.337   6.793
 2429TIP3    H2 7229   8.186   6.302   6.939
 2430TIP3   OH2 7230   3.555   1.333   0.619
 2430TIP3    H1 7231   3.595   1.319   0.704
 2430TIP3    H2 7232   3.479   1.275   0.618
 2431TIP3   OH2 7233   5.845   6.368   2.536
 2431TIP3    H1 7234   5.782   6.396   2.602
 2431TIP3    H2 7235   5.793   6.324   2.469
 2432TIP3   OH2 7236   3.717   4.255   3.136
 2432TIP3    H1 7237   3.800   4.224   3.100
 2432TIP3    H2 7238   3.679   4.179   3.180
 2433TIP3   OH2 7239   7.021   7.445   1.589
 2433TIP3    H1 7240   7.099   7.392   1.608
 2433TIP3    H2 7241   6.980   7.400   1.515
 2434TIP3   OH2 7242   1.577   1.148   5.198
 2434TIP3    H1 7243   1.545   1.140   5.109
 2434TIP3    H2 7244   1.613   1.237   5.203
 2435TIP3   OH2 7245   7.420   0.776   3.966
 2435TIP3    H1 7246   7.386   0.688   3.949
 2435TIP3    H2 7247   7.402   0.824   3.885
 2436TIP3   OH2 7248   0.923   3.397   2.785
 2436TIP3    H1 7249   0.968   3.448   2.853
 2436TIP3    H2 7250   0.830   3.419   2.795
 2437TIP3   OH2 7251   4.720   2.115   0.472
 2437TIP3    H1 7252   4.670   2.148   0.547
 2437TIP3    H2 7253   4.653   2.095   0.406
 2438TIP3   OH2 7254   0.145   3.569   3.385
 2438TIP3    H1 7255   0.230   3.607   3.407
 2438TIP3    H2 7256   0.165   3.494   3.330
 2439TIP3   OH2 7257   3.043   4.235   6.063
 2439TIP3    H1 7258   3.133   4.226   6.094
 2439TIP3    H2 7259   3.049   4.226   5.968
 2440TIP3   OH2 7260   5.837   7.748   3.432
 2440TIP3    H1 7261   5.856   7.687   3.503
 2440TIP3    H2 7262   5.907   7.733   3.368
 2441TIP3   OH2 7263   0.393   7.365   2.689
 2441TIP3    H1 7264   0.399   7.270   2.682
 2441TIP3    H2 7265   0.334   7.380   2.763
 2442TIP3   OH2 7266   3.399   1.910   5.986
 2442TIP3    H1 7267   3.466   1.962   5.942
 2442TIP3    H2 7268   3.436   1.821   5.990
 2443TIP3   OH2 7269   2.766   1.589   3.413
 2443TIP3    H1 7270   2.712   1.511   3.418
 2443TIP3    H2 7271   2.823   1.573   3.338
 2444TIP3   OH2 7272   2.418   2.480   4.497
 2444TIP3    H1 7273   2.338   2.428   4.487
 2444TIP3    H2 7274   2.485   2.416   4.521
 2445TIP3   OH2 7275   6.902   2.893   6.145
 2445TIP3    H1 7276   6.904   2.821   6.207
 2445TIP3    H2 7277   6.899   2.972   6.199
 2446TIP3   OH2 7278   2.171   1.491   0.459
 2446TIP3    H1 7279   2.108   1.504   0.388
 2446TIP3    H2 7280   2.201   1.401   0.449
 2447TIP3   OH2 7281   5.051   6.147   2.037
 2447TIP3    H1 7282   4.975   6.138   1.980
 2447TIP3    H2 7283   5.073   6.240   2.032
 2448TIP3   OH2 7284   5.539   5.370   1.025
 2448TIP3    H1 7285   5.525   5.296   1.084
 2448TIP3    H2 7286   5.600   5.337   0.959
 2449TIP3   OH2 7287   7.818   5.074   3.316
 2449TIP3    H1 7288   7.837   4.981   3.326
 2449TIP3    H2 7289   7.903   5.113   3.295
 2450TIP3   OH2 7290   3.831   2.735   0.941
 2450TIP3    H1 7291   3.841   2.765   0.851
 2450TIP3    H2 7292   3.851   2.812   0.994
 2451TIP3   OH2 7293   6.724   3.301   1.996
 2451TIP3    H1 7294   6.774   3.307   1.915
 2451TIP3    H2 7295   6.635   3.324   1.971
 2452TIP3   OH2 7296   0.524   5.346   2.034
 2452TIP3    H1 7297   0.459   5.410   2.062
 2452TIP3    H2 7298   0.476   5.288   1.975
 2453TIP3   OH2 7299   6.481   3.342   6.615
 2453TIP3    H1 7300   6.548   3.283   6.648
 2453TIP3    H2 7301   6.405   3.325   6.671
 2454TIP3   OH2 7302   7.626   0.006   1.459
 2454TIP3    H1 7303   7.692   0.057   1.412
 2454TIP3    H2 7304   7.555  -0.004   1.396
 2455TIP3   OH2 7305   6.318   7.266   5.464
 2455TIP3    H1 7306   6.249   7.272   5.530
 2455TIP3    H2 7307   6.385   7.329   5.493
 2456TIP3   OH2 7308   8.248   1.486   0.469
 2456TIP3    H1 7309   8.155   1.481   0.486
 2456TIP3    H2 7310   8.288   1.422   0.528
 2457TIP3   OH2 7311   3.717   2.166   0.350
 2457TIP3    H1 7312   3.662   2.244   0.340
 2457TIP3    H2 7313   3.671   2.099   0.299
 2458TIP3   OH2 7314   3.608   5.828   6.203
 2458TIP3    H1 7315   3.604   5.817   6.298
 2458TIP3    H2 7316   3.615   5.739   6.169
 2459TIP3   OH2 7317   3.668   5.528   5.140
 2459TIP3    H1 7318   3.740   5.467   5.125
 2459TIP3    H2 7319   3.670   5.545   5.234
 2460TIP3   OH2 7320   4.007   2.777   6.263
 2460TIP3    H1 7321   4.024   2.712   6.194
 2460TIP3    H2 7322   4.086   2.775   6.317
 2461TIP3   OH2 7323   7.388   2.314   1.619
 2461TIP3    H1 7324   7.459   2.252   1.636
 2461TIP3    H2 7325   7.410   2.354   1.535
 2462TIP3   OH2 7326   6.105   4.043   3.499
 2462TIP3    H1 7327   6.096   4.006   3.411
 2462TIP3    H2 7328   6.181   3.998   3.536
 2463TIP3   OH2 7329   3.710   6.342   2.047
 2463TIP3    H1 7330   3.799   6.377   2.036
 2463TIP3    H2 7331   3.678   6.385   2.127
 2464TIP3   OH2 7332   7.882   5.642   6.383
 2464TIP3    H1 7333   7.889   5.677   6.294
 2464TIP3    H2 7334   7.942   5.568   6.384
 2465TIP3   OH2 7335   4.711   7.074   1.840
 2465TIP3    H1 7336   4.616   7.085   1.852
 2465TIP3    H2 7337   4.741   7.159   1.807
 2466TIP3   OH2 7338   0.449   1.107   0.653
 2466TIP3    H1 7339   0.450   1.137   0.563
 2466TIP3    H2 7340   0.399   1.026   0.651
 2467TIP3   OH2 7341   4.548   2.032   2.132
 2467TIP3    H1 7342   4.480   2.062   2.071
 2467TIP3    H2 7343   4.511   1.953   2.172
 2468TIP3   OH2 7344   4.332   5.192   4.478
 2468TIP3    H1 7345   4.397   5.129   4.509
 2468TIP3    H2 7346   4.265   5.139   4.435
 2469TIP3   OH2 7347   4.556   3.419   1.662
 2469TIP3    H1 7348   4.618   3.358   1.623
 2469TIP3    H2 7349   4.471   3.392   1.627
 2470TIP3   OH2 7350   2.860   5.369  -0.004
 2470TIP3    H1 7351   2.827   5.339   0.081
 2470TIP3    H2 7352   2.929   5.433   0.019
 2471TIP3   OH2 7353   6.958   5.444   4.619
 2471TIP3    H1 7354   6.863   5.440   4.604
 2471TIP3    H2 7355   6.970   5.517   4.680
 2472TIP3   OH2 7356   6.753   0.405   4.540
 2472TIP3    H1 7357   6.755   0.495   4.505
 2472TIP3    H2 7358   6.813   0.356   4.483
 2473TIP3   OH2 7359   6.819   6.283   2.141
 2473TIP3    H1 7360   6.857   6.283   2.229
 2473TIP3    H2 7361   6.826   6.374   2.112
 2474TIP3   OH2 7362   6.039   0.369   1.171
 2474TIP3    H1 7363   6.038   0.273   1.173
 2474TIP3    H2 7364   6.131   0.392   1.185
 2475TIP3   OH2 7365   2.154   5.913   1.874
 2475TIP3    H1 7366   2.126   5.823   1.854
 2475TIP3    H2 7367   2.245   5.905   1.899
 2476TIP3   OH2 7368   8.358   2.997   3.857
 2476TIP3    H1 7369   8.310   3.014   3.776
 2476TIP3    H2 7370   8.315   3.052   3.923
 2477TIP3   OH2 7371   2.042   0.098   4.647
 2477TIP3    H1 7372   1.998   0.084   4.731
 2477TIP3    H2 7373   2.080   0.185   4.654
 2478TIP3   OH2 7374   1.919   2.068   5.872
 2478TIP3    H1 7375   1.833   2.075   5.914
 2478TIP3    H2 7376   1.951   2.158   5.867
 2479TIP3   OH2 7377   0.121   7.850   2.804
 2479TIP3    H1 7378   0.104   7.757   2.819
 2479TIP3    H2 7379   0.216   7.855   2.793
 2480TIP3   OH2 7380   6.723   4.682   3.261
 2480TIP3    H1 7381   6.743   4.750   3.198
 2480TIP3    H2 7382   6.785   4.612   3.242
 2481TIP3   OH2 7383   6.516   7.492   6.266
 2481TIP3    H1 7384   6.443   7.498   6.205
 2481TIP3    H2 7385   6.594   7.507   6.212
 2482TIP3   OH2 7386   2.159   0.178   3.116
 2482TIP3    H1 7387   2.211   0.236   3.172
 2482TIP3    H2 7388   2.202   0.183   3.031
 2483TIP3   OH2 7389   0.890   6.990   0.057
 2483TIP3    H1 7390   0.957   7.055   0.035
 2483TIP3    H2 7391   0.807   7.038   0.053
 2484TIP3   OH2 7392   5.905   7.822   0.676
 2484TIP3    H1 7393   5.824   7.816   0.625
 2484TIP3    H2 7394   5.938   7.909   0.657
 2485TIP3   OH2 7395   6.288   5.320   0.920
 2485TIP3    H1 7396   6.208   5.365   0.893
 2485TIP3    H2 7397   6.304   5.351   1.009
 2486TIP3   OH2 7398   3.184   6.959   2.369
 2486TIP3    H1 7399   3.202   6.881   2.317
 2486TIP3    H2 7400   3.271   6.999   2.382
 2487TIP3   OH2 7401   3.744   2.293   2.725
 2487TIP3    H1 7402   3.753   2.248   2.809
 2487TIP3    H2 7403   3.733   2.385   2.748
 2488TIP3   OH2 7404   4.627   7.554   2.005
 2488TIP3    H1 7405   4.677   7.630   1.975
 2488TIP3    H2 7406   4.538   7.586   2.017
 2489TIP3   OH2 7407   4.721   2.363   2.822
 2489TIP3    H1 7408   4.734   2.322   2.908
 2489TIP3    H2 7409   4.806   2.400   2.800
 2490TIP3   OH2 7410   6.825   7.725   4.249
 2490TIP3    H1 7411   6.907   7.695   4.209
 2490TIP3    H2 7412   6.836   7.820   4.259
 2491TIP3   OH2 7413   8.222   0.355   4.834
 2491TIP3    H1 7414   8.172   0.419   4.784
 2491TIP3    H2 7415   8.310   0.393   4.841
 2492TIP3   OH2 7416   7.033   0.306   3.950
 2492TIP3    H1 7417   7.033   0.218   3.912
 2492TIP3    H2 7418   6.979   0.358   3.889
 2493TIP3   OH2 7419   2.763   7.733   3.131
 2493TIP3    H1 7420   2.757   7.641   3.105
 2493TIP3    H2 7421   2.729   7.782   3.056
 2494TIP3   OH2 7422   6.299   7.585   2.120
 2494TIP3    H1 7423   6.328   7.676   2.118
 2494TIP3    H2 7424   6.309   7.559   2.211
 2495TIP3   OH2 7425   5.896   5.800   6.528
 2495TIP3    H1 7426   5.946   5.826   6.450
 2495TIP3    H2 7427   5.854   5.881   6.556
 2496TIP3   OH2 7428   1.237   1.020   0.349
 2496TIP3    H1 7429   1.237   1.004   0.443
 2496TIP3    H2 7430   1.324   1.055   0.331
 2497TIP3   OH2 7431   5.923   5.379   6.704
 2497TIP3    H1 7432   5.954   5.452   6.757
 2497TIP3    H2 7433   5.865   5.329   6.762
 2498TIP3   OH2 7434   2.125   7.413   6.048
 2498TIP3    H1 7435   2.057   7.345   6.052
 2498TIP3    H2 7436   2.193   7.375   5.992
 2499TIP3   OH2 7437   6.494   2.168   0.305
 2499TIP3    H1 7438   6.408   2.209   0.296
 2499TIP3    H2 7439   6.515   2.176   0.398
 2500TIP3   OH2 7440   4.569   6.197   0.834
 2500TIP3    H1 7441   4.541   6.116   0.875
 2500TIP3    H2 7442   4.553   6.183   0.740
 2501TIP3   OH2 7443   2.090   1.541   5.818
 2501TIP3    H1 7444   2.064   1.633   5.810
 2501TIP3    H2 7445   2.071   1.503   5.732
 2502TIP3   OH2 7446   7.226   4.855   0.379
 2502TIP3    H1 7447   7.143   4.883   0.339
 2502TIP3    H2 7448   7.199   4.788   0.442
 2503TIP3   OH2 7449   1.581   6.245   3.027
 2503TIP3    H1 7450   1.664   6.293   3.033
 2503TIP3    H2 7451   1.514   6.314   3.026
 2504TIP3   OH2 7452   0.765   1.129   5.580
 2504TIP3    H1 7453   0.783   1.197   5.645
 2504TIP3    H2 7454   0.671   1.115   5.585
 2505TIP3   OH2 7455   4.919   0.589   5.701
 2505TIP3    H1 7456   4.876   0.580   5.786
 2505TIP3    H2 7457   4.850   0.621   5.643
 2506TIP3   OH2 7458   3.178   6.595   4.795
 2506TIP3    H1 7459   3.204   6.552   4.877
 2506TIP3    H2 7460   3.246   6.570   4.732
 2507TIP3   OH2 7461   0.638   7.411   6.782
 2507TIP3    H1 7462   0.552   7.452   6.790
 2507TIP3    H2 7463   0.635   7.364   6.699
 2508TIP3   OH2 7464   3.188   4.402   4.920
 2508TIP3    H1 7465   3.163   4.457   4.846
 2508TIP3    H2 7466   3.263   4.448   4.959
 2509TIP3   OH2 7467   2.797   4.088   3.892
 2509TIP3    H1 7468   2.882   4.125   3.867
 2509TIP3    H2 7469   2.803   3.995   3.868
 2510TIP3   OH2 7470   6.540   5.454   2.489
 2510TIP3    H1 7471   6.532   5.451   2.584
 2510TIP3    H2 7472   6.450   5.463   2.457
 2511TIP3   OH2 7473   7.555   1.715   0.282
 2511TIP3    H1 7474   7.577   1.756   0.199
 2511TIP3    H2 7475   7.621   1.749   0.343
 2512TIP3   OH2 7476   6.445   4.690   5.462
 2512TIP3    H1 7477   6.399   4.698   5.545
 2512TIP3    H2 7478   6.529   4.650   5.484
 2513TIP3   OH2 7479   3.158   6.043   5.311
 2513TIP3    H1 7480   3.170   5.972   5.247
 2513TIP3    H2 7481   3.231   6.103   5.294
 2514TIP3   OH2 7482   6.773   2.469   3.490
 2514TIP3    H1 7483   6.775   2.384   3.446
 2514TIP3    H2 7484   6.714   2.456   3.564
 2515TIP3   OH2 7485   6.848   5.550   6.642
 2515TIP3    H1 7486   6.900   5.594   6.575
 2515TIP3    H2 7487   6.788   5.617   6.674
 2516TIP3   OH2 7488   0.884   7.199   4.645
 2516TIP3    H1 7489   0.888   7.270   4.709
 2516TIP3    H2 7490   0.885   7.119   4.698
 2517TIP3   OH2 7491   1.775   4.603   2.995
 2517TIP3    H1 7492   1.742   4.550   2.923
 2517TIP3    H2 7493   1.720   4.580   3.069
 2518TIP3   OH2 7494   5.975   3.317   6.106
 2518TIP3    H1 7495   5.912   3.277   6.165
 2518TIP3    H2 7496   6.019   3.242   6.064
 2519TIP3   OH2 7497   0.801   0.167   1.979
 2519TIP3    H1 7498   0.824   0.224   1.906
 2519TIP3    H2 7499   0.757   0.092   1.938
 2520TIP3   OH2 7500   1.546   6.845   2.871
 2520TIP3    H1 7501   1.512   6.844   2.782
 2520TIP3    H2 7502   1.569   6.754   2.889
 2521TIP3   OH2 7503   2.488   7.670   4.949
 2521TIP3    H1 7504   2.420   7.687   4.884
 2521TIP3    H2 7505   2.459   7.717   5.027
 2522TIP3   OH2 7506   2.520   5.880   4.905
 2522TIP3    H1 7507   2.611   5.850   4.914
 2522TIP3    H2 7508   2.510   5.899   4.812
 2523TIP3   OH2 7509   4.268   6.013   3.105
 2523TIP3    H1 7510   4.363   6.004   3.093
 2523TIP3    H2 7511   4.259   6.059   3.189
 2524TIP3   OH2 7512   2.706   5.074   4.732
 2524TIP3    H1 7513   2.791   5.113   4.710
 2524TIP3    H2 7514   2.704   5.071   4.827
 2525TIP3   OH2 7515   6.444   4.493   4.044
 2525TIP3    H1 7516   6.474   4.566   3.991
 2525TIP3    H2 7517   6.491   4.417   4.008
 2526TIP3   OH2 7518   4.934   2.838   2.772
 2526TIP3    H1 7519   4.951   2.787   2.851
 2526TIP3    H2 7520   4.962   2.781   2.700
 2527TIP3   OH2 7521   0.498   0.370   2.679
 2527TIP3    H1 7522   0.486   0.459   2.713
 2527TIP3    H2 7523   0.588   0.369   2.645
 2528TIP3   OH2 7524   1.529   5.311   2.580
 2528TIP3    H1 7525   1.552   5.219   2.593
 2528TIP3    H2 7526   1.437   5.317   2.607
 2529TIP3   OH2 7527   4.206   4.934   5.668
 2529TIP3    H1 7528   4.255   4.895   5.596
 2529TIP3    H2 7529   4.272   4.978   5.721
 2530TIP3   OH2 7530   7.302   1.065   6.113
 2530TIP3    H1 7531   7.343   1.122   6.049
 2530TIP3    H2 7532   7.303   0.978   6.073
 2531TIP3   OH2 7533   3.335   6.480   4.281
 2531TIP3    H1 7534   3.242   6.485   4.262
 2531TIP3    H2 7535   3.343   6.417   4.352
 2532TIP3   OH2 7536   2.801   5.613   5.689
 2532TIP3    H1 7537   2.770   5.692   5.733
 2532TIP3    H2 7538   2.722   5.575   5.650
 2533TIP3   OH2 7539   0.987   4.823   1.550
 2533TIP3    H1 7540   0.986   4.728   1.566
 2533TIP3    H2 7541   0.936   4.860   1.622
 2534TIP3   OH2 7542   3.938   2.680   4.110
 2534TIP3    H1 7543   3.952   2.602   4.056
 2534TIP3    H2 7544   4.008   2.677   4.175
 2535TIP3   OH2 7545   4.276   7.885   0.275
 2535TIP3    H1 7546   4.241   7.844   0.354
 2535TIP3    H2 7547   4.217   7.856   0.206
 2536TIP3   OH2 7548   6.168   1.176   1.209
 2536TIP3    H1 7549   6.077   1.161   1.184
 2536TIP3    H2 7550   6.166   1.181   1.305
 2537TIP3   OH2 7551   6.017   6.668   6.450
 2537TIP3    H1 7552   6.038   6.750   6.404
 2537TIP3    H2 7553   6.102   6.626   6.464
 2538TIP3   OH2 7554   0.371   0.073   1.778
 2538TIP3    H1 7555   0.302   0.120   1.826
 2538TIP3    H2 7556   0.323   0.016   1.718
 2539TIP3   OH2 7557   5.711   1.706   5.455
 2539TIP3    H1 7558   5.722   1.715   5.550
 2539TIP3    H2 7559   5.714   1.796   5.423
 2540TIP3   OH2 7560   1.564   2.859   3.628
 2540TIP3    H1 7561   1.644   2.848   3.578
 2540TIP3    H2 7562   1.579   2.937   3.681
 2541TIP3   OH2 7563   0.057   7.450  -0.012
 2541TIP3    H1 7564   0.150   7.443  -0.031
 2541TIP3    H2 7565   0.024   7.360  -0.016
 2542TIP3   OH2 7566   6.870   4.621   4.477
 2542TIP3    H1 7567   6.842   4.693   4.533
 2542TIP3    H2 7568   6.842   4.542   4.524
 2543TIP3   OH2 7569   5.679   5.201   3.298
 2543TIP3    H1 7570   5.766   5.163   3.310
 2543TIP3    H2 7571   5.620   5.126   3.306
 2544TIP3   OH2 7572   4.947   4.370   1.433
 2544TIP3    H1 7573   4.982   4.447   1.477
 2544TIP3    H2 7574   4.913   4.403   1.350
 2545TIP3   OH2 7575   7.562   1.634   1.781
 2545TIP3    H1 7576   7.490   1.580   1.814
 2545TIP3    H2 7577   7.634   1.618   1.841
 2546TIP3   OH2 7578   7.298   1.024   1.178
 2546TIP3    H1 7579   7.319   1.091   1.243
 2546TIP3    H2 7580   7.302   1.069   1.094
 2547TIP3   OH2 7581   1.184   1.688   4.176
 2547TIP3    H1 7582   1.125   1.678   4.102
 2547TIP3    H2 7583   1.156   1.621   4.238
 2548TIP3   OH2 7584   7.508   7.233   0.602
 2548TIP3    H1 7585   7.502   7.198   0.513
 2548TIP3    H2 7586   7.477   7.162   0.658
 2549TIP3   OH2 7587   6.906   1.566   1.948
 2549TIP3    H1 7588   6.950   1.650   1.955
 2549TIP3    H2 7589   6.834   1.571   2.011
 2550TIP3   OH2 7590   0.256   1.314   1.052
 2550TIP3    H1 7591   0.176   1.341   1.095
 2550TIP3    H2 7592   0.283   1.235   1.099
 2551TIP3   OH2 7593   5.423   2.266   1.725
 2551TIP3    H1 7594   5.392   2.185   1.765
 2551TIP3    H2 7595   5.389   2.264   1.636
 2552TIP3   OH2 7596   1.892   7.185   3.233
 2552TIP3    H1 7597   1.803   7.198   3.202
 2552TIP3    H2 7598   1.887   7.104   3.285
 2553TIP3   OH2 7599   8.234   0.542   1.240
 2553TIP3    H1 7600   8.185   0.616   1.275
 2553TIP3    H2 7601   8.315   0.580   1.206
 2554TIP3   OH2 7602   0.554   3.366   4.525
 2554TIP3    H1 7603   0.503   3.304   4.577
 2554TIP3    H2 7604   0.610   3.410   4.589
 2555TIP3   OH2 7605   3.433   7.071   2.390
 2555TIP3    H1 7606   3.419   7.165   2.373
 2555TIP3    H2 7607   3.518   7.052   2.351
 2556TIP3   OH2 7608   8.188   0.768   0.993
 2556TIP3    H1 7609   8.276   0.804   1.009
 2556TIP3    H2 7610   8.151   0.824   0.926
 2557TIP3   OH2 7611   7.649   4.299   4.284
 2557TIP3    H1 7612   7.662   4.219   4.232
 2557TIP3    H2 7613   7.729   4.306   4.336
 2558TIP3   OH2 7614   2.512   2.457   1.845
 2558TIP3    H1 7615   2.417   2.463   1.856
 2558TIP3    H2 7616   2.546   2.539   1.879
 2559TIP3   OH2 7617   5.057   0.408   4.768
 2559TIP3    H1 7618   5.116   0.469   4.813
 2559TIP3    H2 7619   5.104   0.324   4.770
 2560TIP3   OH2 7620   1.668   1.064   1.359
 2560TIP3    H1 7621   1.690   0.971   1.363
 2560TIP3    H2 7622   1.593   1.073   1.418
 2561TIP3   OH2 7623   6.072   2.706   5.991
 2561TIP3    H1 7624   6.086   2.752   6.073
 2561TIP3    H2 7625   6.025   2.626   6.015
 2562TIP3   OH2 7626   2.745   1.546   0.874
 2562TIP3    H1 7627   2.731   1.620   0.933
 2562TIP3    H2 7628   2.689   1.477   0.909
 2563TIP3   OH2 7629   3.050   2.833   3.483
 2563TIP3    H1 7630   3.015   2.797   3.565
 2563TIP3    H2 7631   3.130   2.878   3.509
 2564TIP3   OH2 7632   6.339   7.636   5.189
 2564TIP3    H1 7633   6.285   7.711   5.215
 2564TIP3    H2 7634   6.407   7.631   5.256
 2565TIP3   OH2 7635   3.676   2.578   2.722
 2565TIP3    H1 7636   3.771   2.578   2.715
 2565TIP3    H2 7637   3.649   2.666   2.695
 2566TIP3   OH2 7638   4.503   4.461   3.122
 2566TIP3    H1 7639   4.526   4.492   3.210
 2566TIP3    H2 7640   4.584   4.425   3.087
 2567TIP3   OH2 7641   3.480   4.212   2.536
 2567TIP3    H1 7642   3.416   4.275   2.502
 2567TIP3    H2 7643   3.560   4.230   2.487
 2568TIP3   OH2 7644   1.240   4.113   1.283
 2568TIP3    H1 7645   1.262   4.020   1.284
 2568TIP3    H2 7646   1.257   4.141   1.193
 2569TIP3   OH2 7647   3.078   3.759   0.188
 2569TIP3    H1 7648   3.038   3.672   0.181
 2569TIP3    H2 7649   3.133   3.766   0.110
 2570TIP3   OH2 7650   7.703   2.857   1.241
 2570TIP3    H1 7651   7.681   2.859   1.148
 2570TIP3    H2 7652   7.778   2.798   1.247
 2571TIP3   OH2 7653   3.468   0.203   4.078
 2571TIP3    H1 7654   3.376   0.219   4.056
 2571TIP3    H2 7655   3.509   0.290   4.075
 2572TIP3   OH2 7656   7.550   5.089   3.189
 2572TIP3    H1 7657   7.506   5.125   3.112
 2572TIP3    H2 7658   7.644   5.102   3.171
 2573TIP3   OH2 7659   0.540   2.354   1.119
 2573TIP3    H1 7660   0.498   2.423   1.067
 2573TIP3    H2 7661   0.616   2.396   1.158
 2574TIP3   OH2 7662   2.985   7.498   1.910
 2574TIP3    H1 7663   2.909   7.529   1.860
 2574TIP3    H2 7664   2.953   7.495   2.000
 2575TIP3   OH2 7665   0.354   2.620   4.699
 2575TIP3    H1 7666   0.343   2.589   4.788
 2575TIP3    H2 7667   0.399   2.704   4.707
 2576TIP3   OH2 7668   2.327   2.581   3.810
 2576TIP3    H1 7669   2.254   2.578   3.747
 2576TIP3    H2 7670   2.405   2.585   3.755
 2577TIP3   OH2 7671   0.162   3.967   1.328
 2577TIP3    H1 7672   0.175   3.960   1.422
 2577TIP3    H2 7673   0.147   3.877   1.299
 2578TIP3   OH2 7674   0.939   3.434   0.562
 2578TIP3    H1 7675   0.852   3.469   0.582
 2578TIP3    H2 7676   0.963   3.385   0.641
 2579TIP3   OH2 7677   0.899   3.745   6.060
 2579TIP3    H1 7678   0.848   3.726   6.139
 2579TIP3    H2 7679   0.989   3.755   6.091
 2580TIP3   OH2 7680   1.159   7.785   5.382
 2580TIP3    H1 7681   1.176   7.813   5.292
 2580TIP3    H2 7682   1.134   7.693   5.374
 2581TIP3   OH2 7683   3.766   7.501   5.314
 2581TIP3    H1 7684   3.847   7.532   5.356
 2581TIP3    H2 7685   3.780   7.515   5.221
 2582TIP3   OH2 7686   5.902   5.592   3.418
 2582TIP3    H1 7687   5.916   5.685   3.433
 2582TIP3    H2 7688   5.954   5.572   3.340
 2583TIP3   OH2 7689   1.491   5.007   5.218
 2583TIP3    H1 7690   1.499   4.939   5.152
 2583TIP3    H2 7691   1.414   4.983   5.269
 2584TIP3   OH2 7692   6.661   0.855   3.243
 2584TIP3    H1 7693   6.625   0.940   3.266
 2584TIP3    H2 7694   6.640   0.799   3.318
 2585TIP3   OH2 7695   2.254   2.645   4.655
 2585TIP3    H1 7696   2.299   2.730   4.654
 2585TIP3    H2 7697   2.319   2.584   4.619
 2586TIP3   OH2 7698   5.601   4.394   5.440
 2586TIP3    H1 7699   5.574   4.438   5.359
 2586TIP3    H2 7700   5.681   4.346   5.417
 2587TIP3   OH2 7701   2.741   1.765   1.329
 2587TIP3    H1 7702   2.770   1.857   1.336
 2587TIP3    H2 7703   2.656   1.770   1.285
 2588TIP3   OH2 7704   2.951   7.532   1.301
 2588TIP3    H1 7705   2.928   7.581   1.380
 2588TIP3    H2 7706   2.994   7.453   1.334
 2589TIP3   OH2 7707   5.020   2.783   6.812
 2589TIP3    H1 7708   4.946   2.815   6.760
 2589TIP3    H2 7709   5.096   2.792   6.755
 2590TIP3   OH2 7710   1.895   2.166   0.217
 2590TIP3    H1 7711   1.916   2.113   0.293
 2590TIP3    H2 7712   1.903   2.106   0.143
 2591TIP3   OH2 7713   3.853   4.160   2.910
 2591TIP3    H1 7714   3.773   4.109   2.896
 2591TIP3    H2 7715   3.849   4.229   2.844
 2592TIP3   OH2 7716   3.751   4.080   6.748
 2592TIP3    H1 7717   3.805   4.013   6.790
 2592TIP3    H2 7718   3.813   4.133   6.697
 2593TIP3   OH2 7719   7.777   4.195   3.056
 2593TIP3    H1 7720   7.694   4.239   3.072
 2593TIP3    H2 7721   7.840   4.242   3.110
 2594TIP3   OH2 7722   3.841   1.347   2.891
 2594TIP3    H1 7723   3.809   1.390   2.812
 2594TIP3    H2 7724   3.934   1.370   2.896
 2595TIP3   OH2 7725   0.117   4.018   3.946
 2595TIP3    H1 7726   0.212   4.022   3.936
 2595TIP3    H2 7727   0.096   4.084   4.011
 2596TIP3   OH2 7728   0.879   1.062   1.143
 2596TIP3    H1 7729   0.796   1.069   1.189
 2596TIP3    H2 7730   0.919   0.981   1.176
 2597TIP3   OH2 7731   1.374   3.239   6.681
 2597TIP3    H1 7732   1.456   3.285   6.661
 2597TIP3    H2 7733   1.342   3.210   6.595
 2598TIP3   OH2 7734   0.264   3.250   2.340
 2598TIP3    H1 7735   0.333   3.228   2.278
 2598TIP3    H2 7736   0.277   3.343   2.358
 2599TIP3   OH2 7737   0.517   5.111   4.052
 2599TIP3    H1 7738   0.475   5.190   4.085
 2599TIP3    H2 7739   0.455   5.041   4.068
 2600TIP3   OH2 7740   6.639   5.395   4.530
 2600TIP3    H1 7741   6.633   5.489   4.550
 2600TIP3    H2 7742   6.569   5.355   4.581
 2601TIP3   OH2 7743   7.651   7.699   1.916
 2601TIP3    H1 7744   7.731   7.700   1.862
 2601TIP3    H2 7745   7.642   7.608   1.943
 2602TIP3   OH2 7746   7.299   0.227   3.392
 2602TIP3    H1 7747   7.248   0.148   3.373
 2602TIP3    H2 7748   7.312   0.268   3.306
 2603TIP3   OH2 7749   6.400   3.531   4.160
 2603TIP3    H1 7750   6.401   3.496   4.249
 2603TIP3    H2 7751   6.492   3.547   4.139
 2604TIP3   OH2 7752   0.617   6.036   1.958
 2604TIP3    H1 7753   0.642   6.083   2.038
 2604TIP3    H2 7754   0.553   6.094   1.916
 2605TIP3   OH2 7755   2.462   3.187   0.476
 2605TIP3    H1 7756   2.445   3.270   0.432
 2605TIP3    H2 7757   2.408   3.123   0.430
 2606TIP3   OH2 7758   0.616   5.690   2.672
 2606TIP3    H1 7759   0.575   5.639   2.741
 2606TIP3    H2 7760   0.647   5.625   2.609
 2607TIP3   OH2 7761   7.556   6.419   6.823
 2607TIP3    H1 7762   7.468   6.390   6.846
 2607TIP3    H2 7763   7.613   6.346   6.850
 2608TIP3   OH2 7764   1.099   7.079   0.267
 2608TIP3    H1 7765   1.014   7.036   0.273
 2608TIP3    H2 7766   1.081   7.172   0.277
 2609TIP3   OH2 7767   4.782   4.212   2.344
 2609TIP3    H1 7768   4.716   4.209   2.413
 2609TIP3    H2 7769   4.851   4.153   2.374
 2610TIP3   OH2 7770   8.248   6.211   1.972
 2610TIP3    H1 7771   8.194   6.281   1.935
 2610TIP3    H2 7772   8.323   6.204   1.913
 2611TIP3   OH2 7773   5.463   6.755   3.161
 2611TIP3    H1 7774   5.540   6.706   3.134
 2611TIP3    H2 7775   5.495   6.813   3.231
 2612TIP3   OH2 7776   3.064   5.211   2.029
 2612TIP3    H1 7777   3.016   5.264   1.966
 2612TIP3    H2 7778   3.149   5.196   1.987
 2613TIP3   OH2 7779   6.365   6.533   0.369
 2613TIP3    H1 7780   6.359   6.445   0.407
 2613TIP3    H2 7781   6.287   6.578   0.402
 2614TIP3   OH2 7782   7.554   1.062   1.565
 2614TIP3    H1 7783   7.460   1.043   1.565
 2614TIP3    H2 7784   7.561   1.148   1.525
 2615TIP3   OH2 7785   8.169   4.077   1.546
 2615TIP3    H1 7786   8.219   4.157   1.562
 2615TIP3    H2 7787   8.165   4.034   1.632
 2616TIP3   OH2 7788   8.087   2.335   3.178
 2616TIP3    H1 7789   8.060   2.412   3.129
 2616TIP3    H2 7790   8.006   2.298   3.213
 2617TIP3   OH2 7791   3.301   4.957   6.615
 2617TIP3    H1 7792   3.208   4.964   6.592
 2617TIP3    H2 7793   3.344   5.021   6.558
 2618TIP3   OH2 7794   8.403   5.126   6.078
 2618TIP3    H1 7795   8.468   5.125   6.148
 2618TIP3    H2 7796   8.441   5.072   6.008
 2619TIP3   OH2 7797   1.140   4.357   2.037
 2619TIP3    H1 7798   1.197   4.342   1.962
 2619TIP3    H2 7799   1.066   4.407   2.002
 2620TIP3   OH2 7800   3.810   3.600   3.962
 2620TIP3    H1 7801   3.793   3.536   3.892
 2620TIP3    H2 7802   3.824   3.547   4.040
 2621TIP3   OH2 7803   7.291   6.245   6.183
 2621TIP3    H1 7804   7.317   6.164   6.138
 2621TIP3    H2 7805   7.197   6.252   6.168
 2622TIP3   OH2 7806   4.294   7.028   4.727
 2622TIP3    H1 7807   4.336   7.016   4.813
 2622TIP3    H2 7808   4.235   6.954   4.718
 2623TIP3   OH2 7809   0.495   0.284   3.473
 2623TIP3    H1 7810   0.417   0.290   3.529
 2623TIP3    H2 7811   0.536   0.202   3.499
 2624TIP3   OH2 7812   0.952   6.884   5.976
 2624TIP3    H1 7813   0.873   6.850   5.936
 2624TIP3    H2 7814   0.933   6.886   6.070
 2625TIP3   OH2 7815   5.816   0.272   5.750
 2625TIP3    H1 7816   5.783   0.358   5.774
 2625TIP3    H2 7817   5.911   0.280   5.754
 2626TIP3   OH2 7818   2.934   3.572   3.893
 2626TIP3    H1 7819   2.900   3.584   3.982
 2626TIP3    H2 7820   2.857   3.572   3.837
 2627TIP3   OH2 7821   7.223   7.921   5.812
 2627TIP3    H1 7822   7.176   7.944   5.732
 2627TIP3    H2 7823   7.165   7.860   5.858
 2628TIP3   OH2 7824   0.884   6.608   4.189
 2628TIP3    H1 7825   0.929   6.553   4.126
 2628TIP3    H2 7826   0.824   6.661   4.137
 2629TIP3   OH2 7827   1.724   3.608   4.136
 2629TIP3    H1 7828   1.688   3.528   4.174
 2629TIP3    H2 7829   1.814   3.612   4.170
 2630TIP3   OH2 7830   0.086   4.721   3.109
 2630TIP3    H1 7831   0.092   4.773   3.029
 2630TIP3    H2 7832   0.170   4.676   3.116
 2631TIP3   OH2 7833   8.331   2.491   3.451
 2631TIP3    H1 7834   8.317   2.585   3.462
 2631TIP3    H2 7835   8.314   2.454   3.538
 2632TIP3   OH2 7836   7.309   5.227   2.731
 2632TIP3    H1 7837   7.370   5.156   2.749
 2632TIP3    H2 7838   7.322   5.289   2.802
 2633TIP3   OH2 7839   4.077   3.551   1.693
 2633TIP3    H1 7840   4.125   3.593   1.622
 2633TIP3    H2 7841   4.120   3.466   1.704
 2634TIP3   OH2 7842   5.606   3.418   3.927
 2634TIP3    H1 7843   5.512   3.425   3.910
 2634TIP3    H2 7844   5.638   3.357   3.860
 2635TIP3   OH2 7845   2.658   1.947   5.332
 2635TIP3    H1 7846   2.707   1.908   5.260
 2635TIP3    H2 7847   2.591   2.000   5.289
 2636TIP3   OH2 7848   4.476   3.831   5.531
 2636TIP3    H1 7849   4.528   3.790   5.600
 2636TIP3    H2 7850   4.459   3.761   5.468
 2637TIP3   OH2 7851   1.745   7.104   6.593
 2637TIP3    H1 7852   1.781   7.144   6.672
 2637TIP3    H2 7853   1.667   7.057   6.623
 2638TIP3   OH2 7854   6.849   6.754   1.845
 2638TIP3    H1 7855   6.866   6.846   1.867
 2638TIP3    H2 7856   6.934   6.719   1.820
 2639TIP3   OH2 7857   1.648   7.523   2.258
 2639TIP3    H1 7858   1.612   7.439   2.285
 2639TIP3    H2 7859   1.630   7.582   2.332
 2640TIP3   OH2 7860   7.579   7.412   1.946
 2640TIP3    H1 7861   7.562   7.343   2.011
 2640TIP3    H2 7862   7.493   7.446   1.923
 2641TIP3   OH2 7863   1.885   7.657   3.759
 2641TIP3    H1 7864   1.860   7.569   3.728
 2641TIP3    H2 7865   1.979   7.650   3.777
 2642TIP3   OH2 7866   8.117   1.027   5.780
 2642TIP3    H1 7867   8.042   0.973   5.757
 2642TIP3    H2 7868   8.112   1.102   5.720
 2643TIP3   OH2 7869   0.459   0.776   5.361
 2643TIP3    H1 7870   0.484   0.771   5.453
 2643TIP3    H2 7871   0.434   0.868   5.349
 2644TIP3   OH2 7872   2.980   2.020   0.351
 2644TIP3    H1 7873   2.918   2.016   0.424
 2644TIP3    H2 7874   3.065   2.005   0.391
 2645TIP3   OH2 7875   5.090   6.102   2.976
 2645TIP3    H1 7876   5.089   6.124   3.069
 2645TIP3    H2 7877   5.142   6.172   2.936
 2646TIP3   OH2 7878   0.868   5.725   6.289
 2646TIP3    H1 7879   0.804   5.660   6.260
 2646TIP3    H2 7880   0.881   5.781   6.213
 2647TIP3   OH2 7881   2.202   3.182   6.706
 2647TIP3    H1 7882   2.188   3.102   6.757
 2647TIP3    H2 7883   2.179   3.157   6.617
 2648TIP3   OH2 7884   1.416   6.761   3.232
 2648TIP3    H1 7885   1.347   6.744   3.167
 2648TIP3    H2 7886   1.476   6.687   3.221
 2649TIP3   OH2 7887   0.241   4.206   6.798
 2649TIP3    H1 7888   0.252   4.229   6.706
 2649TIP3    H2 7889   0.314   4.251   6.842
 2650TIP3   OH2 7890   5.262   0.518   1.672
 2650TIP3    H1 7891   5.349   0.516   1.634
 2650TIP3    H2 7892   5.270   0.468   1.753
 2651TIP3   OH2 7893   2.779   6.737   5.837
 2651TIP3    H1 7894   2.780   6.707   5.747
 2651TIP3    H2 7895   2.756   6.830   5.832
 2652TIP3   OH2 7896   4.321   6.934   3.717
 2652TIP3    H1 7897   4.241   6.968   3.675
 2652TIP3    H2 7898   4.291   6.860   3.769
 2653TIP3   OH2 7899   8.007   5.438   4.879
 2653TIP3    H1 7900   7.965   5.512   4.836
 2653TIP3    H2 7901   8.101   5.455   4.871
 2654TIP3   OH2 7902   5.722   4.645   6.520
 2654TIP3    H1 7903   5.723   4.566   6.465
 2654TIP3    H2 7904   5.736   4.612   6.608
 2655TIP3   OH2 7905   2.103   1.525   0.738
 2655TIP3    H1 7906   2.175   1.568   0.785
 2655TIP3    H2 7907   2.126   1.534   0.646
 2656TIP3   OH2 7908   7.855   3.833   2.478
 2656TIP3    H1 7909   7.876   3.926   2.466
 2656TIP3    H2 7910   7.873   3.817   2.571
 2657TIP3   OH2 7911   1.296   6.914   3.007
 2657TIP3    H1 7912   1.252   6.996   2.985
 2657TIP3    H2 7913   1.362   6.903   2.938
 2658TIP3   OH2 7914   6.346   7.063   0.668
 2658TIP3    H1 7915   6.429   7.043   0.710
 2658TIP3    H2 7916   6.285   6.996   0.701
 2659TIP3   OH2 7917   3.600   0.584   1.738
 2659TIP3    H1 7918   3.551   0.504   1.723
 2659TIP3    H2 7919   3.599   0.630   1.654
 2660TIP3   OH2 7920   7.654   2.017   6.857
 2660TIP3    H1 7921   7.728   1.996   6.799
 2660TIP3    H2 7922   7.637   2.109   6.841
 2661TIP3   OH2 7923   0.966   6.040   3.930
 2661TIP3    H1 7924   1.031   6.048   3.860
 2661TIP3    H2 7925   0.913   5.965   3.906
 2662TIP3   OH2 7926   7.197   3.581   4.227
 2662TIP3    H1 7927   7.281   3.622   4.209
 2662TIP3    H2 7928   7.175   3.610   4.315
 2663TIP3   OH2 7929   4.701   5.081   3.316
 2663TIP3    H1 7930   4.625   5.053   3.368
 2663TIP3    H2 7931   4.775   5.037   3.357
 2664TIP3   OH2 7932   6.743   6.888   2.204
 2664TIP3    H1 7933   6.660   6.901   2.159
 2664TIP3    H2 7934   6.748   6.960   2.268
 2665TIP3   OH2 7935   5.107   4.737   5.274
 2665TIP3    H1 7936   5.129   4.709   5.363
 2665TIP3    H2 7937   5.192   4.759   5.234
 2666TIP3   OH2 7938   6.669   5.780   0.259
 2666TIP3    H1 7939   6.660   5.794   0.164
 2666TIP3    H2 7940   6.618   5.851   0.298
 2667TIP3   OH2 7941   1.295   4.909   3.228
 2667TIP3    H1 7942   1.211   4.880   3.265
 2667TIP3    H2 7943   1.314   4.991   3.273
 2668TIP3   OH2 7944   4.806   5.768   1.644
 2668TIP3    H1 7945   4.797   5.859   1.614
 2668TIP3    H2 7946   4.852   5.776   1.728
 2669TIP3   OH2 7947   0.276   6.690   6.211
 2669TIP3    H1 7948   0.370   6.672   6.200
 2669TIP3    H2 7949   0.233   6.625   6.155
 2670TIP3   OH2 7950   6.757   5.929   3.415
 2670TIP3    H1 7951   6.770   5.999   3.352
 2670TIP3    H2 7952   6.725   5.855   3.363
 2671TIP3   OH2 7953   3.011   4.015   0.112
 2671TIP3    H1 7954   2.953   3.993   0.039
 2671TIP3    H2 7955   3.035   3.931   0.150
 2672TIP3   OH2 7956   7.982   2.067   6.359
 2672TIP3    H1 7957   7.974   2.021   6.275
 2672TIP3    H2 7958   8.015   2.000   6.419
 2673TIP3   OH2 7959   0.943   6.967   0.527
 2673TIP3    H1 7960   1.027   6.998   0.561
 2673TIP3    H2 7961   0.909   7.041   0.477
 2674TIP3   OH2 7962   7.591   6.411   1.503
 2674TIP3    H1 7963   7.540   6.397   1.583
 2674TIP3    H2 7964   7.679   6.434   1.535
 2675TIP3   OH2 7965   2.816   6.954   4.504
 2675TIP3    H1 7966   2.841   6.952   4.411
 2675TIP3    H2 7967   2.729   6.915   4.506
 2676TIP3   OH2 7968   3.794   1.689   1.252
 2676TIP3    H1 7969   3.799   1.685   1.157
 2676TIP3    H2 7970   3.701   1.679   1.272
 2677TIP3   OH2 7971   0.138   2.557   1.573
 2677TIP3    H1 7972   0.081   2.606   1.632
 2677TIP3    H2 7973   0.226   2.569   1.607
 2678TIP3   OH2 7974   3.937   2.160   5.006
 2678TIP3    H1 7975   3.982   2.124   4.929
 2678TIP3    H2 7976   4.000   2.150   5.077
 2679TIP3   OH2 7977   2.959   7.432   6.678
 2679TIP3    H1 7978   3.013   7.353   6.691
 2679TIP3    H2 7979   3.022   7.504   6.678
 2680TIP3   OH2 7980   1.453   3.057   2.841
 2680TIP3    H1 7981   1.416   2.988   2.786
 2680TIP3    H2 7982   1.385   3.124   2.845
 2681TIP3   OH2 7983   1.397   4.415   4.832
 2681TIP3    H1 7984   1.455   4.377   4.766
 2681TIP3    H2 7985   1.309   4.386   4.806
 2682TIP3   OH2 7986   2.362   6.878   2.758
 2682TIP3    H1 7987   2.325   6.897   2.672
 2682TIP3    H2 7988   2.325   6.945   2.816
 2683TIP3   OH2 7989   4.871   3.509   1.384
 2683TIP3    H1 7990   4.780   3.522   1.410
 2683TIP3    H2 7991   4.871   3.427   1.334
 2684TIP3   OH2 7992   8.170   4.893   0.427
 2684TIP3    H1 7993   8.217   4.859   0.351
 2684TIP3    H2 7994   8.077   4.883   0.404
 2685TIP3   OH2 7995   5.074   3.999   0.913
 2685TIP3    H1 7996   4.982   3.999   0.887
 2685TIP3    H2 7997   5.095   4.091   0.929
 2686TIP3   OH2 7998   4.966   0.897   5.651
 2686TIP3    H1 7999   4.886   0.852   5.625
 2686TIP3    H2 8000   4.943   0.943   5.732
 2687TIP3   OH2 8001   1.042   6.688   2.283
 2687TIP3    H1 8002   1.044   6.738   2.201
 2687TIP3    H2 8003   0.956   6.646   2.284
 2688TIP3   OH2 8004   4.599   5.716   2.502
 2688TIP3    H1 8005   4.521   5.687   2.455
 2688TIP3    H2 8006   4.600   5.662   2.582
 2689TIP3   OH2 8007   4.358   1.036   0.805
 2689TIP3    H1 8008   4.325   1.087   0.731
 2689TIP3    H2 8009   4.347   1.094   0.881
 2690TIP3   OH2 8010   4.725   4.091   4.079
 2690TIP3    H1 8011   4.812   4.087   4.039
 2690TIP3    H2 8012   4.708   4.184   4.091
 2691TIP3   OH2 8013   0.678   6.340   2.408
 2691TIP3    H1 8014   0.738   6.395   2.356
 2691TIP3    H2 8015   0.614   6.402   2.444
 2692TIP3   OH2 8016   2.196   6.202   6.284
 2692TIP3    H1 8017   2.239   6.122   6.255
 2692TIP3    H2 8018   2.220   6.267   6.217
 2693TIP3   OH2 8019   7.998   3.295   4.716
 2693TIP3    H1 8020   7.911   3.317   4.684
 2693TIP3    H2 8021   8.014   3.206   4.686
 2694TIP3   OH2 8022   7.518   2.851   6.846
 2694TIP3    H1 8023   7.460   2.847   6.769
 2694TIP3    H2 8024   7.606   2.859   6.809
 2695TIP3   OH2 8025   3.944   3.933   2.371
 2695TIP3    H1 8026   3.987   3.933   2.285
 2695TIP3    H2 8027   3.873   3.870   2.362
 2696TIP3   OH2 8028   1.695   1.196   6.578
 2696TIP3    H1 8029   1.660   1.125   6.524
 2696TIP3    H2 8030   1.761   1.153   6.633
 2697TIP3   OH2 8031   0.892   0.873   5.531
 2697TIP3    H1 8032   0.857   0.866   5.619
 2697TIP3    H2 8033   0.885   0.965   5.509
 2698TIP3   OH2 8034   7.432   7.783   5.672
 2698TIP3    H1 8035   7.467   7.830   5.595
 2698TIP3    H2 8036   7.369   7.844   5.709
 2699TIP3   OH2 8037   2.278   3.335   0.789
 2699TIP3    H1 8038   2.230   3.261   0.753
 2699TIP3    H2 8039   2.309   3.305   0.875
 2700TIP3   OH2 8040   5.191   7.652   6.717
 2700TIP3    H1 8041   5.201   7.723   6.781
 2700TIP3    H2 8042   5.204   7.695   6.632
 2701TIP3   OH2 8043   7.384   2.652   4.238
 2701TIP3    H1 8044   7.355   2.583   4.297
 2701TIP3    H2 8045   7.353   2.625   4.152
 2702TIP3   OH2 8046   4.518   6.334   2.510
 2702TIP3    H1 8047   4.599   6.351   2.462
 2702TIP3    H2 8048   4.520   6.241   2.530
 2703TIP3   OH2 8049   5.225   4.073   2.119
 2703TIP3    H1 8050   5.208   4.008   2.188
 2703TIP3    H2 8051   5.139   4.114   2.103
 2704TIP3   OH2 8052   5.099   6.734   4.192
 2704TIP3    H1 8053   5.150   6.653   4.197
 2704TIP3    H2 8054   5.097   6.756   4.099
 2705TIP3   OH2 8055   0.647   4.880   1.595
 2705TIP3    H1 8056   0.678   4.881   1.505
 2705TIP3    H2 8057   0.678   4.963   1.632
 2706TIP3   OH2 8058   5.403   3.700   3.232
 2706TIP3    H1 8059   5.382   3.697   3.325
 2706TIP3    H2 8060   5.494   3.669   3.227
 2707TIP3   OH2 8061   1.002   1.785   6.610
 2707TIP3    H1 8062   1.088   1.820   6.633
 2707TIP3    H2 8063   0.944   1.861   6.615
 2708TIP3   OH2 8064   6.418   4.188   2.805
 2708TIP3    H1 8065   6.337   4.191   2.856
 2708TIP3    H2 8066   6.447   4.279   2.801
 2709TIP3   OH2 8067   7.960   0.729   1.136
 2709TIP3    H1 8068   8.035   0.759   1.084
 2709TIP3    H2 8069   7.900   0.691   1.071
 2710TIP3   OH2 8070   0.423   2.833   1.141
 2710TIP3    H1 8071   0.379   2.911   1.108
 2710TIP3    H2 8072   0.516   2.852   1.134
 2711TIP3   OH2 8073   3.998   6.601   1.189
 2711TIP3    H1 8074   3.940   6.656   1.136
 2711TIP3    H2 8075   4.060   6.663   1.228
 2712TIP3   OH2 8076   3.520   3.769   0.429
 2712TIP3    H1 8077   3.564   3.688   0.401
 2712TIP3    H2 8078   3.547   3.780   0.520
 2713TIP3   OH2 8079   2.385   2.756   0.432
 2713TIP3    H1 8080   2.331   2.680   0.408
 2713TIP3    H2 8081   2.450   2.762   0.362
 2714TIP3   OH2 8082   0.713   7.690   5.835
 2714TIP3    H1 8083   0.754   7.605   5.825
 2714TIP3    H2 8084   0.777   7.743   5.882
 2715TIP3   OH2 8085   2.068   4.289   4.871
 2715TIP3    H1 8086   2.028   4.356   4.815
 2715TIP3    H2 8087   2.003   4.274   4.939
 2716TIP3   OH2 8088   7.261   1.373   0.787
 2716TIP3    H1 8089   7.171   1.402   0.805
 2716TIP3    H2 8090   7.271   1.292   0.837
 2717TIP3   OH2 8091   4.206   1.820   6.277
 2717TIP3    H1 8092   4.211   1.731   6.312
 2717TIP3    H2 8093   4.264   1.819   6.201
 2718TIP3   OH2 8094   0.492   1.132   5.593
 2718TIP3    H1 8095   0.426   1.121   5.525
 2718TIP3    H2 8096   0.446   1.179   5.663
 2719TIP3   OH2 8097   3.725   5.532   0.005
 2719TIP3    H1 8098   3.674   5.516   0.084
 2719TIP3    H2 8099   3.730   5.628  -0.002
 2720TIP3   OH2 8100   3.400   3.977   2.040
 2720TIP3    H1 8101   3.368   4.012   1.957
 2720TIP3    H2 8102   3.433   3.890   2.018
 2721TIP3   OH2 8103   7.103   7.525   0.462
 2721TIP3    H1 8104   7.197   7.512   0.471
 2721TIP3    H2 8105   7.068   7.439   0.441
 2722TIP3   OH2 8106   1.680   6.428   1.113
 2722TIP3    H1 8107   1.668   6.441   1.207
 2722TIP3    H2 8108   1.591   6.422   1.078
 2723TIP3   OH2 8109   2.474   2.752   5.051
 2723TIP3    H1 8110   2.488   2.786   5.139
 2723TIP3    H2 8111   2.446   2.661   5.064
 2724TIP3   OH2 8112   0.359   4.404   0.205
 2724TIP3    H1 8113   0.420   4.332   0.223
 2724TIP3    H2 8114   0.272   4.367   0.220
 2725TIP3   OH2 8115   3.438   5.476   6.478
 2725TIP3    H1 8116   3.462   5.510   6.564
 2725TIP3    H2 8117   3.522   5.452   6.437
 2726TIP3   OH2 8118   5.013   2.527   5.461
 2726TIP3    H1 8119   5.045   2.488   5.542
 2726TIP3    H2 8120   4.926   2.489   5.450
 2727TIP3   OH2 8121   1.048   1.264   1.124
 2727TIP3    H1 8122   1.106   1.229   1.191
 2727TIP3    H2 8123   0.979   1.198   1.115
 2728TIP3   OH2 8124   3.914   3.021   5.123
 2728TIP3    H1 8125   3.977   3.034   5.194
 2728TIP3    H2 8126   3.931   2.932   5.093
 2729TIP3   OH2 8127   0.090   6.786   5.929
 2729TIP3    H1 8128   0.024   6.782   5.998
 2729TIP3    H2 8129   0.163   6.834   5.967
 2730TIP3   OH2 8130   1.150   3.136   1.563
 2730TIP3    H1 8131   1.073   3.079   1.557
 2730TIP3    H2 8132   1.182   3.122   1.652
 2731TIP3   OH2 8133   7.198   5.050   1.756
 2731TIP3    H1 8134   7.227   4.963   1.783
 2731TIP3    H2 8135   7.185   5.097   1.839
 2732TIP3   OH2 8136   7.486   3.136  -0.004
 2732TIP3    H1 8137   7.445   3.084   0.064
 2732TIP3    H2 8138   7.457   3.226   0.013
 2733TIP3   OH2 8139   6.496   3.520   0.003
 2733TIP3    H1 8140   6.407   3.504  -0.029
 2733TIP3    H2 8141   6.514   3.611  -0.019
 2734TIP3   OH2 8142   7.213   5.221   4.179
 2734TIP3    H1 8143   7.245   5.310   4.187
 2734TIP3    H2 8144   7.247   5.190   4.095
 2735TIP3   OH2 8145   6.868   1.924   2.579
 2735TIP3    H1 8146   6.782   1.950   2.611
 2735TIP3    H2 8147   6.851   1.891   2.490
 2736TIP3   OH2 8148   7.209   0.313   2.589
 2736TIP3    H1 8149   7.164   0.236   2.624
 2736TIP3    H2 8150   7.302   0.290   2.593
 2737TIP3   OH2 8151   1.360   6.937   1.055
 2737TIP3    H1 8152   1.391   7.018   1.015
 2737TIP3    H2 8153   1.358   6.873   0.984
 2738TIP3   OH2 8154   4.283   0.888   3.456
 2738TIP3    H1 8155   4.307   0.980   3.466
 2738TIP3    H2 8156   4.257   0.860   3.543
 2739TIP3   OH2 8157   4.341   4.998   1.450
 2739TIP3    H1 8158   4.369   5.033   1.534
 2739TIP3    H2 8159   4.396   5.043   1.386
 2740TIP3   OH2 8160   5.788   6.489   4.255
 2740TIP3    H1 8161   5.809   6.512   4.346
 2740TIP3    H2 8162   5.846   6.415   4.236
 2741TIP3   OH2 8163   3.919   4.986   3.146
 2741TIP3    H1 8164   3.894   5.030   3.064
 2741TIP3    H2 8165   3.851   4.920   3.159
 2742TIP3   OH2 8166   5.612   6.129   0.153
 2742TIP3    H1 8167   5.603   6.200   0.089
 2742TIP3    H2 8168   5.695   6.147   0.197
 2743TIP3   OH2 8169   7.741   5.013   5.984
 2743TIP3    H1 8170   7.826   5.056   5.994
 2743TIP3    H2 8171   7.735   4.992   5.891
 2744TIP3   OH2 8172   3.724   5.837   3.125
 2744TIP3    H1 8173   3.774   5.912   3.093
 2744TIP3    H2 8174   3.688   5.796   3.046
 2745TIP3   OH2 8175   7.944   2.151   2.131
 2745TIP3    H1 8176   7.989   2.234   2.145
 2745TIP3    H2 8177   7.893   2.137   2.211
 2746TIP3   OH2 8178   3.548   0.153   6.644
 2746TIP3    H1 8179   3.594   0.224   6.688
 2746TIP3    H2 8180   3.468   0.193   6.610
 2747TIP3   OH2 8181   1.373   1.995   5.968
 2747TIP3    H1 8182   1.426   1.949   5.903
 2747TIP3    H2 8183   1.310   2.044   5.917
 2748TIP3   OH2 8184   7.997   6.989   1.260
 2748TIP3    H1 8185   7.963   6.900   1.253
 2748TIP3    H2 8186   7.922   7.045   1.241
 2749TIP3   OH2 8187   8.343   6.438   4.070
 2749TIP3    H1 8188   8.331   6.380   4.146
 2749TIP3    H2 8189   8.434   6.424   4.044
 2750TIP3   OH2 8190   0.085   1.353   6.575
 2750TIP3    H1 8191   0.075   1.393   6.661
 2750TIP3    H2 8192   0.065   1.260   6.589
 2751TIP3   OH2 8193   5.256   1.108   5.891
 2751TIP3    H1 8194   5.248   1.139   5.982
 2751TIP3    H2 8195   5.274   1.187   5.840
 2752TIP3   OH2 8196   0.307   7.421   1.972
 2752TIP3    H1 8197   0.230   7.424   1.916
 2752TIP3    H2 8198   0.369   7.365   1.926
 2753TIP3   OH2 8199   2.056   0.504   2.860
 2753TIP3    H1 8200   2.040   0.592   2.825
 2753TIP3    H2 8201   2.149   0.490   2.847
 2754TIP3   OH2 8202   2.589   3.701   0.212
 2754TIP3    H1 8203   2.520   3.645   0.175
 2754TIP3    H2 8204   2.568   3.788   0.179
 2755TIP3   OH2 8205   6.091   5.541   6.380
 2755TIP3    H1 8206   6.111   5.579   6.466
 2755TIP3    H2 8207   6.039   5.609   6.336
 2756TIP3   OH2 8208   7.849   5.468   3.486
 2756TIP3    H1 8209   7.929   5.517   3.467
 2756TIP3    H2 8210   7.873   5.407   3.555
 2757TIP3   OH2 8211   7.748   7.467   2.239
 2757TIP3    H1 8212   7.755   7.415   2.319
 2757TIP3    H2 8213   7.657   7.497   2.238
 2758TIP3   OH2 8214   0.202   0.695   4.834
 2758TIP3    H1 8215   0.192   0.750   4.912
 2758TIP3    H2 8216   0.283   0.645   4.850
 2759TIP3   OH2 8217   5.218   1.069   1.181
 2759TIP3    H1 8218   5.208   0.987   1.228
 2759TIP3    H2 8219   5.238   1.133   1.249
 2760TIP3   OH2 8220   4.726   7.008   0.839
 2760TIP3    H1 8221   4.671   7.059   0.898
 2760TIP3    H2 8222   4.780   6.955   0.897
 2761TIP3   OH2 8223   3.218   1.574   2.981
 2761TIP3    H1 8224   3.215   1.479   2.974
 2761TIP3    H2 8225   3.189   1.593   3.070
 2762TIP3   OH2 8226   7.626   3.588   5.932
 2762TIP3    H1 8227   7.585   3.527   5.871
 2762TIP3    H2 8228   7.677   3.647   5.877
 2763TIP3   OH2 8229   6.117   3.184   6.631
 2763TIP3    H1 8230   6.168   3.155   6.707
 2763TIP3    H2 8231   6.153   3.270   6.610
 2764TIP3   OH2 8232   7.663   7.310   3.125
 2764TIP3    H1 8233   7.582   7.361   3.127
 2764TIP3    H2 8234   7.688   7.300   3.217
 2765TIP3   OH2 8235   5.550   3.158   6.757
 2765TIP3    H1 8236   5.488   3.157   6.830
 2765TIP3    H2 8237   5.507   3.106   6.688
 2766TIP3   OH2 8238   2.041   0.270   1.900
 2766TIP3    H1 8239   2.050   0.198   1.837
 2766TIP3    H2 8240   2.085   0.239   1.979
 2767TIP3   OH2 8241   5.555   3.118   4.033
 2767TIP3    H1 8242   5.638   3.147   4.071
 2767TIP3    H2 8243   5.563   3.139   3.940
 2768TIP3   OH2 8244   6.958   6.651   0.978
 2768TIP3    H1 8245   7.012   6.712   0.928
 2768TIP3    H2 8246   6.917   6.595   0.912
 2769TIP3   OH2 8247   7.387   5.917   1.462
 2769TIP3    H1 8248   7.463   5.865   1.488
 2769TIP3    H2 8249   7.420   5.976   1.394
 2770TIP3   OH2 8250   5.318   4.427   4.923
 2770TIP3    H1 8251   5.227   4.399   4.933
 2770TIP3    H2 8252   5.360   4.356   4.876
 2771TIP3   OH2 8253   2.611   1.604   4.485
 2771TIP3    H1 8254   2.525   1.583   4.521
 2771TIP3    H2 8255   2.673   1.563   4.546
 2772TIP3   OH2 8256   8.328   4.911   1.875
 2772TIP3    H1 8257   8.318   4.862   1.794
 2772TIP3    H2 8258   8.333   5.002   1.848
 2773TIP3   OH2 8259   1.421   7.747   5.547
 2773TIP3    H1 8260   1.355   7.745   5.478
 2773TIP3    H2 8261   1.407   7.666   5.596
 2774TIP3   OH2 8262   1.012   0.902   3.838
 2774TIP3    H1 8263   1.010   0.842   3.763
 2774TIP3    H2 8264   0.928   0.948   3.834
 2775TIP3   OH2 8265   2.047   6.882   0.277
 2775TIP3    H1 8266   2.083   6.800   0.310
 2775TIP3    H2 8267   2.124   6.933   0.251
 2776TIP3   OH2 8268   4.962   6.186   0.622
 2776TIP3    H1 8269   4.912   6.259   0.658
 2776TIP3    H2 8270   4.912   6.108   0.645
 2777TIP3   OH2 8271   4.086   2.643   4.399
 2777TIP3    H1 8272   4.139   2.606   4.470
 2777TIP3    H2 8273   4.137   2.718   4.368
 2778TIP3   OH2 8274   7.352   4.055   5.275
 2778TIP3    H1 8275   7.272   4.097   5.244
 2778TIP3    H2 8276   7.359   4.080   5.367
 2779TIP3   OH2 8277   4.547   4.198   6.396
 2779TIP3    H1 8278   4.458   4.166   6.414
 2779TIP3    H2 8279   4.599   4.166   6.469
 2780TIP3   OH2 8280   3.700   0.818   5.986
 2780TIP3    H1 8281   3.674   0.880   5.918
 2780TIP3    H2 8282   3.620   0.804   6.037
 2781TIP3   OH2 8283   6.269   3.973   1.513
 2781TIP3    H1 8284   6.276   3.990   1.419
 2781TIP3    H2 8285   6.179   3.945   1.525
 2782TIP3   OH2 8286   4.690   2.314   1.456
 2782TIP3    H1 8287   4.645   2.382   1.506
 2782TIP3    H2 8288   4.776   2.306   1.498
 2783TIP3   OH2 8289   7.596   6.710   3.440
 2783TIP3    H1 8290   7.586   6.651   3.515
 2783TIP3    H2 8291   7.628   6.654   3.369
 2784TIP3   OH2 8292   4.614   4.628   1.327
 2784TIP3    H1 8293   4.587   4.698   1.386
 2784TIP3    H2 8294   4.704   4.609   1.351
 2785TIP3   OH2 8295   5.225   2.126   6.059
 2785TIP3    H1 8296   5.196   2.217   6.046
 2785TIP3    H2 8297   5.205   2.108   6.151
 2786TIP3   OH2 8298   1.796   3.077   6.177
 2786TIP3    H1 8299   1.858   3.148   6.164
 2786TIP3    H2 8300   1.759   3.061   6.090
 2787TIP3   OH2 8301   0.603   1.711   4.394
 2787TIP3    H1 8302   0.514   1.726   4.362
 2787TIP3    H2 8303   0.593   1.646   4.463
 2788TIP3   OH2 8304   1.086   1.798   1.430
 2788TIP3    H1 8305   1.030   1.823   1.504
 2788TIP3    H2 8306   1.094   1.703   1.438
 2789TIP3   OH2 8307   2.229   6.864   3.768
 2789TIP3    H1 8308   2.280   6.942   3.742
 2789TIP3    H2 8309   2.214   6.875   3.862
 2790TIP3   OH2 8310   4.438   5.301   4.732
 2790TIP3    H1 8311   4.503   5.280   4.665
 2790TIP3    H2 8312   4.358   5.320   4.683
 2791TIP3   OH2 8313   6.116   6.273   0.226
 2791TIP3    H1 8314   6.158   6.277   0.312
 2791TIP3    H2 8315   6.176   6.319   0.168
 2792TIP3   OH2 8316   0.265   4.835   4.484
 2792TIP3    H1 8317   0.285   4.926   4.506
 2792TIP3    H2 8318   0.195   4.810   4.543
 2793TIP3   OH2 8319   0.333   6.939   5.257
 2793TIP3    H1 8320   0.246   6.955   5.223
 2793TIP3    H2 8321   0.319   6.882   5.333
 2794TIP3   OH2 8322   0.731   2.575   1.702
 2794TIP3    H1 8323   0.695   2.659   1.729
 2794TIP3    H2 8324   0.680   2.552   1.624
 2795TIP3   OH2 8325   7.453   5.800   2.542
 2795TIP3    H1 8326   7.409   5.885   2.549
 2795TIP3    H2 8327   7.418   5.749   2.615
 2796TIP3   OH2 8328   4.790   7.777   2.668
 2796TIP3    H1 8329   4.885   7.771   2.663
 2796TIP3    H2 8330   4.767   7.843   2.602
 2797TIP3   OH2 8331   1.315   6.645   2.424
 2797TIP3    H1 8332   1.255   6.670   2.354
 2797TIP3    H2 8333   1.303   6.551   2.434
 2798TIP3   OH2 8334   5.048   6.992   5.214
 2798TIP3    H1 8335   5.104   6.919   5.239
 2798TIP3    H2 8336   5.035   7.041   5.295
 2799TIP3   OH2 8337   3.619   5.686   2.923
 2799TIP3    H1 8338   3.572   5.662   2.842
 2799TIP3    H2 8339   3.706   5.649   2.911
 2800TIP3   OH2 8340   0.362   7.540   6.818
 2800TIP3    H1 8341   0.421   7.592   6.763
 2800TIP3    H2 8342   0.351   7.592   6.898
 2801TIP3   OH2 8343   4.636   1.203   5.801
 2801TIP3    H1 8344   4.593   1.276   5.843
 2801TIP3    H2 8345   4.637   1.134   5.867
 2802TIP3   OH2 8346   2.383   5.051   0.611
 2802TIP3    H1 8347   2.414   5.084   0.527
 2802TIP3    H2 8348   2.435   4.973   0.628
 2803TIP3   OH2 8349   7.893   5.042   1.525
 2803TIP3    H1 8350   7.860   4.994   1.449
 2803TIP3    H2 8351   7.824   5.104   1.546
 2804TIP3   OH2 8352   2.670   5.166   3.156
 2804TIP3    H1 8353   2.605   5.180   3.225
 2804TIP3    H2 8354   2.684   5.071   3.155
 2805TIP3   OH2 8355   4.511   0.761   2.637
 2805TIP3    H1 8356   4.545   0.693   2.696
 2805TIP3    H2 8357   4.457   0.816   2.693
 2806TIP3   OH2 8358   5.297   4.816   0.816
 2806TIP3    H1 8359   5.377   4.825   0.764
 2806TIP3    H2 8360   5.246   4.749   0.771
 2807TIP3   OH2 8361   7.904   3.382   4.961
 2807TIP3    H1 8362   7.946   3.336   4.888
 2807TIP3    H2 8363   7.967   3.376   5.033
 2808TIP3   OH2 8364   6.164   4.823   2.614
 2808TIP3    H1 8365   6.076   4.828   2.650
 2808TIP3    H2 8366   6.221   4.852   2.685
 2809TIP3   OH2 8367   7.310   0.058   2.880
 2809TIP3    H1 8368   7.354   0.101   2.807
 2809TIP3    H2 8369   7.369   0.070   2.954
 2810TIP3   OH2 8370   1.598   4.062   4.793
 2810TIP3    H1 8371   1.625   3.986   4.844
 2810TIP3    H2 8372   1.503   4.063   4.799
 2811TIP3   OH2 8373   0.853   7.097   2.398
 2811TIP3    H1 8374   0.834   7.182   2.438
 2811TIP3    H2 8375   0.945   7.081   2.419
 2812TIP3   OH2 8376   7.003   1.457   6.157
 2812TIP3    H1 8377   7.061   1.410   6.217
 2812TIP3    H2 8378   6.924   1.474   6.208
 2813TIP3   OH2 8379   0.967   3.789   0.649
 2813TIP3    H1 8380   0.937   3.827   0.567
 2813TIP3    H2 8381   1.029   3.721   0.622
 2814TIP3   OH2 8382   6.501   7.268   2.149
 2814TIP3    H1 8383   6.580   7.224   2.117
 2814TIP3    H2 8384   6.433   7.200   2.146
 2815TIP3   OH2 8385   2.978   2.811   2.878
 2815TIP3    H1 8386   3.039   2.872   2.919
 2815TIP3    H2 8387   3.034   2.753   2.825
 2816TIP3   OH2 8388   0.668   0.434   5.040
 2816TIP3    H1 8389   0.615   0.361   5.009
 2816TIP3    H2 8390   0.699   0.407   5.127
 2817TIP3   OH2 8391   4.919  -0.055   0.723
 2817TIP3    H1 8392   4.974  -0.012   0.656
 2817TIP3    H2 8393   4.874   0.017   0.766
 2818TIP3   OH2 8394   1.627   1.069   3.856
 2818TIP3    H1 8395   1.716   1.095   3.830
 2818TIP3    H2 8396   1.597   1.140   3.912
 2819TIP3   OH2 8397   8.212   4.568   3.247
 2819TIP3    H1 8398   8.239   4.512   3.175
 2819TIP3    H2 8399   8.260   4.535   3.323
 2820TIP3   OH2 8400   7.062   3.197   2.954
 2820TIP3    H1 8401   7.133   3.169   3.012
 2820TIP3    H2 8402   7.101   3.197   2.867
 2821TIP3   OH2 8403   1.580   6.428   6.459
 2821TIP3    H1 8404   1.495   6.451   6.419
 2821TIP3    H2 8405   1.641   6.426   6.385
 2822TIP3   OH2 8406   1.846   0.464   6.339
 2822TIP3    H1 8407   1.818   0.412   6.414
 2822TIP3    H2 8408   1.830   0.408   6.263
 2823TIP3   OH2 8409   1.694   4.854   4.844
 2823TIP3    H1 8410   1.652   4.843   4.929
 2823TIP3    H2 8411   1.622   4.868   4.783
 2824TIP3   OH2 8412   1.326   2.253   1.251
 2824TIP3    H1 8413   1.269   2.303   1.310
 2824TIP3    H2 8414   1.305   2.161   1.270
 2825TIP3   OH2 8415   5.759   3.920   5.093
 2825TIP3    H1 8416   5.675   3.965   5.079
 2825TIP3    H2 8417   5.824   3.990   5.097
 2826TIP3   OH2 8418   8.290   0.776   6.722
 2826TIP3    H1 8419   8.234   0.851   6.703
 2826TIP3    H2 8420   8.280   0.760   6.816
 2827TIP3   OH2 8421   2.146   2.888   1.931
 2827TIP3    H1 8422   2.124   2.860   1.843
 2827TIP3    H2 8423   2.185   2.975   1.920
 2828TIP3   OH2 8424   4.343   5.495   4.270
 2828TIP3    H1 8425   4.394   5.417   4.247
 2828TIP3    H2 8426   4.264   5.460   4.311
 2829TIP3   OH2 8427   5.308   1.724   2.605
 2829TIP3    H1 8428   5.398   1.741   2.580
 2829TIP3    H2 8429   5.257   1.789   2.557
 2830TIP3   OH2 8430   4.098   6.971   4.376
 2830TIP3    H1 8431   4.120   6.882   4.347
 2830TIP3    H2 8432   4.179   7.021   4.365
 2831TIP3   OH2 8433   1.254   7.823   5.133
 2831TIP3    H1 8434   1.334   7.772   5.137
 2831TIP3    H2 8435   1.261   7.872   5.051
 2832TIP3   OH2 8436   0.742   1.747   4.974
 2832TIP3    H1 8437   0.671   1.694   5.009
 2832TIP3    H2 8438   0.698   1.821   4.931
 2833TIP3   OH2 8439   5.425   5.935   0.940
 2833TIP3    H1 8440   5.359   5.885   0.987
 2833TIP3    H2 8441   5.423   6.022   0.980
 2834TIP3   OH2 8442   1.687   5.235   1.927
 2834TIP3    H1 8443   1.648   5.173   1.865
 2834TIP3    H2 8444   1.781   5.216   1.925
 2835TIP3   OH2 8445   3.007   1.830   1.199
 2835TIP3    H1 8446   2.985   1.742   1.230
 2835TIP3    H2 8447   2.956   1.888   1.255
 2836TIP3   OH2 8448   7.232   4.064   0.924
 2836TIP3    H1 8449   7.240   4.006   0.999
 2836TIP3    H2 8450   7.274   4.016   0.852
 2837TIP3   OH2 8451   4.849   5.199   3.908
 2837TIP3    H1 8452   4.889   5.114   3.927
 2837TIP3    H2 8453   4.853   5.246   3.992
 2838TIP3   OH2 8454   2.517   2.828   1.186
 2838TIP3    H1 8455   2.442   2.772   1.165
 2838TIP3    H2 8456   2.535   2.876   1.105
 2839TIP3   OH2 8457   5.071   7.212   4.005
 2839TIP3    H1 8458   5.059   7.182   3.915
 2839TIP3    H2 8459   5.163   7.236   4.010
 2840TIP3   OH2 8460   0.514   5.091   5.396
 2840TIP3    H1 8461   0.545   5.180   5.382
 2840TIP3    H2 8462   0.553   5.040   5.325
 2841TIP3   OH2 8463   2.909   5.551   0.246
 2841TIP3    H1 8464   2.941   5.574   0.159
 2841TIP3    H2 8465   2.830   5.604   0.257
 2842TIP3   OH2 8466   0.062   2.128   1.299
 2842TIP3    H1 8467  -0.015   2.100   1.348
 2842TIP3    H2 8468   0.113   2.178   1.362
 2843TIP3   OH2 8469   5.312   2.840   2.054
 2843TIP3    H1 8470   5.316   2.763   1.997
 2843TIP3    H2 8471   5.279   2.910   1.997
 2844TIP3   OH2 8472   7.875   0.226   6.492
 2844TIP3    H1 8473   7.871   0.140   6.450
 2844TIP3    H2 8474   7.912   0.208   6.578
 2845TIP3   OH2 8475   6.903   5.094   5.666
 2845TIP3    H1 8476   6.901   5.075   5.760
 2845TIP3    H2 8477   6.821   5.057   5.632
 2846TIP3   OH2 8478   1.483   0.637   6.415
 2846TIP3    H1 8479   1.440   0.661   6.333
 2846TIP3    H2 8480   1.425   0.572   6.454
 2847TIP3   OH2 8481   4.346   0.887   1.930
 2847TIP3    H1 8482   4.364   0.804   1.886
 2847TIP3    H2 8483   4.305   0.862   2.013
 2848TIP3   OH2 8484   5.119   7.142   4.738
 2848TIP3    H1 8485   5.165   7.125   4.656
 2848TIP3    H2 8486   5.026   7.133   4.715
 2849TIP3   OH2 8487   3.861   0.627   2.676
 2849TIP3    H1 8488   3.882   0.573   2.752
 2849TIP3    H2 8489   3.827   0.708   2.713
 2850TIP3   OH2 8490   3.391   0.478   2.461
 2850TIP3    H1 8491   3.376   0.403   2.519
 2850TIP3    H2 8492   3.357   0.450   2.376
 2851TIP3   OH2 8493   0.853   7.550   2.375
 2851TIP3    H1 8494   0.832   7.557   2.282
 2851TIP3    H2 8495   0.777   7.508   2.414
 2852TIP3   OH2 8496   4.380   4.754   2.722
 2852TIP3    H1 8497   4.384   4.801   2.805
 2852TIP3    H2 8498   4.307   4.793   2.675
 2853TIP3   OH2 8499   1.385   5.340   5.376
 2853TIP3    H1 8500   1.451   5.306   5.437
 2853TIP3    H2 8501   1.327   5.393   5.430
 2854TIP3   OH2 8502   6.374   7.553   3.078
 2854TIP3    H1 8503   6.469   7.550   3.089
 2854TIP3    H2 8504   6.338   7.525   3.162
 2855TIP3   OH2 8505   1.969   6.480   5.678
 2855TIP3    H1 8506   1.931   6.408   5.729
 2855TIP3    H2 8507   1.898   6.509   5.621
 2856TIP3   OH2 8508   7.325   1.595   5.856
 2856TIP3    H1 8509   7.328   1.516   5.910
 2856TIP3    H2 8510   7.245   1.639   5.884
 2857TIP3   OH2 8511   6.752   6.905   5.901
 2857TIP3    H1 8512   6.672   6.859   5.925
 2857TIP3    H2 8513   6.731   6.947   5.817
 2858TIP3   OH2 8514   7.027   3.568   6.172
 2858TIP3    H1 8515   7.013   3.660   6.196
 2858TIP3    H2 8516   7.110   3.567   6.125
 2859TIP3   OH2 8517   7.999   6.032   1.678
 2859TIP3    H1 8518   7.928   5.969   1.684
 2859TIP3    H2 8519   8.074   5.982   1.645
 2860TIP3   OH2 8520   3.487   2.644   6.693
 2860TIP3    H1 8521   3.469   2.702   6.620
 2860TIP3    H2 8522   3.505   2.559   6.653
 2861TIP3   OH2 8523   7.823   2.780   2.425
 2861TIP3    H1 8524   7.895   2.839   2.402
 2861TIP3    H2 8525   7.839   2.759   2.517
 2862TIP3   OH2 8526   4.010   3.779   6.622
 2862TIP3    H1 8527   4.070   3.836   6.574
 2862TIP3    H2 8528   4.031   3.691   6.592
 2863TIP3   OH2 8529   6.899   5.463   3.093
 2863TIP3    H1 8530   6.963   5.446   3.162
 2863TIP3    H2 8531   6.847   5.383   3.088
 2864TIP3   OH2 8532   4.950   5.887   2.858
 2864TIP3    H1 8533   4.985   5.965   2.903
 2864TIP3    H2 8534   4.898   5.922   2.786
 2865TIP3   OH2 8535   4.273   3.418   5.675
 2865TIP3    H1 8536   4.230   3.501   5.654
 2865TIP3    H2 8537   4.207   3.351   5.658
 2866TIP3   OH2 8538   6.288   0.314   1.032
 2866TIP3    H1 8539   6.277   0.265   0.950
 2866TIP3    H2 8540   6.306   0.404   1.004
 2867TIP3   OH2 8541   6.506   7.468   1.671
 2867TIP3    H1 8542   6.452   7.442   1.746
 2867TIP3    H2 8543   6.593   7.480   1.707
 2868TIP3   OH2 8544   6.935   7.419   0.901
 2868TIP3    H1 8545   7.030   7.430   0.891
 2868TIP3    H2 8546   6.899   7.450   0.818
 2869TIP3   OH2 8547   2.515   7.808   1.529
 2869TIP3    H1 8548   2.523   7.747   1.456
 2869TIP3    H2 8549   2.531   7.754   1.607
 2870TIP3   OH2 8550   1.396   2.335   0.670
 2870TIP3    H1 8551   1.313   2.374   0.700
 2870TIP3    H2 8552   1.383   2.322   0.576
 2871TIP3   OH2 8553   0.149   4.828   5.590
 2871TIP3    H1 8554   0.112   4.916   5.595
 2871TIP3    H2 8555   0.244   4.842   5.593
 2872TIP3   OH2 8556   3.098   1.649   0.581
 2872TIP3    H1 8557   3.177   1.596   0.576
 2872TIP3    H2 8558   3.079   1.656   0.675
 2873TIP3   OH2 8559   6.685   6.034   2.107
 2873TIP3    H1 8560   6.770   6.057   2.143
 2873TIP3    H2 8561   6.642   6.118   2.092
 2874TIP3   OH2 8562   5.984   4.547   5.962
 2874TIP3    H1 8563   5.907   4.568   6.015
 2874TIP3    H2 8564   6.057   4.584   6.012
 2875TIP3   OH2 8565   3.576   6.373   1.572
 2875TIP3    H1 8566   3.500   6.345   1.623
 2875TIP3    H2 8567   3.598   6.459   1.607
 2876TIP3   OH2 8568   2.033   1.120   5.987
 2876TIP3    H1 8569   1.981   1.135   6.066
 2876TIP3    H2 8570   1.983   1.055   5.937
 2877TIP3   OH2 8571   7.092   5.488   2.077
 2877TIP3    H1 8572   7.017   5.461   2.130
 2877TIP3    H2 8573   7.054   5.515   1.993
 2878TIP3   OH2 8574   6.675   2.623   2.480
 2878TIP3    H1 8575   6.726   2.704   2.477
 2878TIP3    H2 8576   6.681   2.594   2.571
 2879TIP3   OH2 8577   7.980   7.772   2.482
 2879TIP3    H1 8578   7.892   7.776   2.519
 2879TIP3    H2 8579   8.027   7.845   2.522
 2880TIP3   OH2 8580   3.463   6.421   5.837
 2880TIP3    H1 8581   3.553   6.390   5.835
 2880TIP3    H2 8582   3.422   6.373   5.909
 2881TIP3   OH2 8583   1.848   2.769   2.433
 2881TIP3    H1 8584   1.785   2.836   2.458
 2881TIP3    H2 8585   1.858   2.715   2.511
 2882TIP3   OH2 8586   6.634   3.412   4.358
 2882TIP3    H1 8587   6.683   3.439   4.281
 2882TIP3    H2 8588   6.548   3.386   4.323
 2883TIP3   OH2 8589   6.598   1.644   4.432
 2883TIP3    H1 8590   6.676   1.698   4.444
 2883TIP3    H2 8591   6.525   1.705   4.446
 2884TIP3   OH2 8592   6.709   3.524   3.704
 2884TIP3    H1 8593   6.764   3.594   3.668
 2884TIP3    H2 8594   6.624   3.537   3.662
 2885TIP3   OH2 8595   4.984   6.712   5.394
 2885TIP3    H1 8596   5.036   6.678   5.321
 2885TIP3    H2 8597   4.926   6.777   5.354
 2886TIP3   OH2 8598   3.101   2.697   6.457
 2886TIP3    H1 8599   3.009   2.723   6.460
 2886TIP3    H2 8600   3.149   2.779   6.470
 2887TIP3   OH2 8601   0.772   5.290   0.437
 2887TIP3    H1 8602   0.740   5.357   0.377
 2887TIP3    H2 8603   0.716   5.298   0.514
 2888TIP3   OH2 8604   6.178   1.996   4.310
 2888TIP3    H1 8605   6.266   2.034   4.312
 2888TIP3    H2 8606   6.191   1.904   4.335
 2889TIP3   OH2 8607   1.580   2.802   0.906
 2889TIP3    H1 8608   1.665   2.777   0.943
 2889TIP3    H2 8609   1.535   2.719   0.890
 2890TIP3   OH2 8610   1.638   6.588   2.872
 2890TIP3    H1 8611   1.595   6.507   2.843
 2890TIP3    H2 8612   1.725   6.561   2.899
 2891TIP3   OH2 8613   5.484   2.546   2.605
 2891TIP3    H1 8614   5.506   2.636   2.579
 2891TIP3    H2 8615   5.569   2.503   2.615
 2892TIP3   OH2 8616   0.531   4.546   4.198
 2892TIP3    H1 8617   0.477   4.582   4.268
 2892TIP3    H2 8618   0.525   4.451   4.209
 2893TIP3   OH2 8619   4.612   4.355   3.614
 2893TIP3    H1 8620   4.672   4.300   3.563
 2893TIP3    H2 8621   4.664   4.384   3.689
 2894TIP3   OH2 8622   7.408   0.454   2.854
 2894TIP3    H1 8623   7.468   0.530   2.853
 2894TIP3    H2 8624   7.460   0.383   2.818
 2895TIP3   OH2 8625   2.258   3.513   0.390
 2895TIP3    H1 8626   2.222   3.589   0.345
 2895TIP3    H2 8627   2.188   3.448   0.387
 2896TIP3   OH2 8628   5.544   7.407   5.353
 2896TIP3    H1 8629   5.467   7.353   5.335
 2896TIP3    H2 8630   5.533   7.484   5.299
 2897TIP3   OH2 8631   3.092   1.602   2.730
 2897TIP3    H1 8632   3.095   1.511   2.700
 2897TIP3    H2 8633   3.146   1.604   2.809
 2898TIP3   OH2 8634   0.353   5.005   1.606
 2898TIP3    H1 8635   0.276   4.948   1.612
 2898TIP3    H2 8636   0.407   4.964   1.539
 2899TIP3   OH2 8637   2.268   0.000   6.757
 2899TIP3    H1 8638   2.329  -0.073   6.749
 2899TIP3    H2 8639   2.310   0.061   6.817
 2900TIP3   OH2 8640   1.316   0.205   3.522
 2900TIP3    H1 8641   1.302   0.139   3.591
 2900TIP3    H2 8642   1.261   0.279   3.548
 2901TIP3   OH2 8643   6.156   3.412   6.333
 2901TIP3    H1 8644   6.238   3.362   6.327
 2901TIP3    H2 8645   6.092   3.358   6.287
 2902TIP3   OH2 8646   8.399   6.783   0.123
 2902TIP3    H1 8647   8.371   6.698   0.088
 2902TIP3    H2 8648   8.484   6.799   0.083
 2903TIP3   OH2 8649   4.163   3.879   4.880
 2903TIP3    H1 8650   4.149   3.869   4.786
 2903TIP3    H2 8651   4.204   3.797   4.907
 2904TIP3   OH2 8652   4.109   2.961   3.671
 2904TIP3    H1 8653   4.089   2.973   3.578
 2904TIP3    H2 8654   4.147   2.874   3.677
 2905TIP3   OH2 8655   1.275   6.051   5.313
 2905TIP3    H1 8656   1.310   6.122   5.257
 2905TIP3    H2 8657   1.289   5.972   5.261
 2906TIP3   OH2 8658   6.472   1.789   6.258
 2906TIP3    H1 8659   6.423   1.850   6.203
 2906TIP3    H2 8660   6.560   1.828   6.264
 2907TIP3   OH2 8661   2.298   4.629   5.352
 2907TIP3    H1 8662   2.339   4.649   5.267
 2907TIP3    H2 8663   2.369   4.642   5.416
 2908TIP3   OH2 8664   1.293   4.198   1.030
 2908TIP3    H1 8665   1.264   4.264   0.966
 2908TIP3    H2 8666   1.283   4.115   0.984
 2909TIP3   OH2 8667   5.938   1.727   6.649
 2909TIP3    H1 8668   5.896   1.691   6.727
 2909TIP3    H2 8669   6.031   1.734   6.672
 2910TIP3   OH2 8670   1.990   2.065   2.751
 2910TIP3    H1 8671   2.024   1.994   2.697
 2910TIP3    H2 8672   1.985   2.028   2.839
 2911TIP3   OH2 8673   4.167   4.061   0.427
 2911TIP3    H1 8674   4.155   4.086   0.335
 2911TIP3    H2 8675   4.106   3.988   0.440
 2912TIP3   OH2 8676   8.251   5.500   0.154
 2912TIP3    H1 8677   8.297   5.486   0.237
 2912TIP3    H2 8678   8.280   5.587   0.124
 2913TIP3   OH2 8679   4.831   3.684   6.302
 2913TIP3    H1 8680   4.888   3.662   6.228
 2913TIP3    H2 8681   4.755   3.626   6.292
 2914TIP3   OH2 8682   1.234   7.091   2.242
 2914TIP3    H1 8683   1.195   7.058   2.323
 2914TIP3    H2 8684   1.262   7.180   2.264
 2915TIP3   OH2 8685   8.118   4.069   2.125
 2915TIP3    H1 8686   8.076   3.988   2.098
 2915TIP3    H2 8687   8.062   4.138   2.091
 2916TIP3   OH2 8688   7.141   2.601   2.212
 2916TIP3    H1 8689   7.131   2.506   2.203
 2916TIP3    H2 8690   7.133   2.617   2.306
 2917TIP3   OH2 8691   8.283   4.270   5.300
 2917TIP3    H1 8692   8.377   4.257   5.314
 2917TIP3    H2 8693   8.241   4.202   5.354
 2918TIP3   OH2 8694   6.197   6.117   1.157
 2918TIP3    H1 8695   6.208   6.207   1.129
 2918TIP3    H2 8696   6.241   6.113   1.242
 2919TIP3   OH2 8697   6.864   6.281   1.037
 2919TIP3    H1 8698   6.923   6.289   1.112
 2919TIP3    H2 8699   6.813   6.202   1.055
 2920TIP3   OH2 8700   3.991   5.063   6.630
 2920TIP3    H1 8701   3.937   5.085   6.555
 2920TIP3    H2 8702   4.062   5.127   6.628
 2921TIP3   OH2 8703   2.906   4.441   3.294
 2921TIP3    H1 8704   2.918   4.395   3.211
 2921TIP3    H2 8705   2.838   4.392   3.340
 2922TIP3   OH2 8706   3.276   1.847   4.237
 2922TIP3    H1 8707   3.317   1.927   4.205
 2922TIP3    H2 8708   3.339   1.778   4.218
 2923TIP3   OH2 8709   0.902   3.037   0.834
 2923TIP3    H1 8710   0.934   2.948   0.843
 2923TIP3    H2 8711   0.910   3.056   0.741
 2924TIP3   OH2 8712   5.403   3.361   1.275
 2924TIP3    H1 8713   5.453   3.367   1.193
 2924TIP3    H2 8714   5.316   3.334   1.248
 2925TIP3   OH2 8715   5.289   7.807   3.191
 2925TIP3    H1 8716   5.332   7.783   3.272
 2925TIP3    H2 8717   5.236   7.730   3.169
 2926TIP3   OH2 8718   8.010   2.298   3.531
 2926TIP3    H1 8719   7.975   2.231   3.590
 2926TIP3    H2 8720   8.002   2.259   3.444
 2927TIP3   OH2 8721   4.573   6.629   1.299
 2927TIP3    H1 8722   4.504   6.564   1.295
 2927TIP3    H2 8723   4.531   6.707   1.336
 2928TIP3   OH2 8724   8.337   0.288   0.921
 2928TIP3    H1 8725   8.361   0.359   0.861
 2928TIP3    H2 8726   8.415   0.274   0.974
 2929TIP3   OH2 8727   2.464   4.421   5.003
 2929TIP3    H1 8728   2.385   4.380   5.037
 2929TIP3    H2 8729   2.460   4.405   4.908
 2930TIP3   OH2 8730   5.544   1.720   6.587
 2930TIP3    H1 8731   5.499   1.723   6.503
 2930TIP3    H2 8732   5.503   1.648   6.634
 2931TIP3   OH2 8733   7.518   5.117   1.238
 2931TIP3    H1 8734   7.505   5.195   1.185
 2931TIP3    H2 8735   7.541   5.048   1.175
 2932TIP3   OH2 8736   2.096   2.901   4.451
 2932TIP3    H1 8737   2.171   2.947   4.412
 2932TIP3    H2 8738   2.135   2.827   4.497
 2933TIP3   OH2 8739   0.864   5.339   6.589
 2933TIP3    H1 8740   0.835   5.311   6.502
 2933TIP3    H2 8741   0.784   5.360   6.636
 2934TIP3   OH2 8742   3.880   1.092   2.543
 2934TIP3    H1 8743   3.974   1.072   2.540
 2934TIP3    H2 8744   3.846   1.033   2.610
 2935TIP3   OH2 8745   0.722   0.485   6.290
 2935TIP3    H1 8746   0.800   0.443   6.254
 2935TIP3    H2 8747   0.755   0.562   6.337
 2936TIP3   OH2 8748   3.577   1.191   4.760
 2936TIP3    H1 8749   3.490   1.199   4.722
 2936TIP3    H2 8750   3.565   1.140   4.840
 2937TIP3   OH2 8751   6.579   7.585   4.207
 2937TIP3    H1 8752   6.651   7.641   4.235
 2937TIP3    H2 8753   6.569   7.603   4.114
 2938TIP3   OH2 8754   1.537   4.765   2.893
 2938TIP3    H1 8755   1.514   4.810   2.812
 2938TIP3    H2 8756   1.560   4.835   2.954
 2939TIP3   OH2 8757   0.071   6.793   4.995
 2939TIP3    H1 8758   0.063   6.825   5.085
 2939TIP3    H2 8759   0.145   6.732   4.998
 2940TIP3   OH2 8760   1.478   7.665   5.090
 2940TIP3    H1 8761   1.468   7.729   5.020
 2940TIP3    H2 8762   1.519   7.589   5.049
 2941TIP3   OH2 8763   2.392   5.862   4.041
 2941TIP3    H1 8764   2.334   5.819   3.978
 2941TIP3    H2 8765   2.333   5.910   4.099
 2942TIP3   OH2 8766   4.754   4.564   5.760
 2942TIP3    H1 8767   4.770   4.610   5.843
 2942TIP3    H2 8768   4.719   4.632   5.702
 2943TIP3   OH2 8769   8.174   3.849   2.781
 2943TIP3    H1 8770   8.171   3.871   2.875
 2943TIP3    H2 8771   8.250   3.792   2.773
 2944TIP3   OH2 8772   5.937   4.895   5.607
 2944TIP3    H1 8773   5.930   4.990   5.599
 2944TIP3    H2 8774   5.948   4.880   5.701
 2945TIP3   OH2 8775   0.208   4.620   2.719
 2945TIP3    H1 8776   0.269   4.563   2.672
 2945TIP3    H2 8777   0.129   4.620   2.664
 2946TIP3   OH2 8778   5.540   5.796   2.607
 2946TIP3    H1 8779   5.610   5.822   2.668
 2946TIP3    H2 8780   5.461   5.793   2.661
 2947TIP3   OH2 8781   7.635   7.759   5.865
 2947TIP3    H1 8782   7.567   7.804   5.816
 2947TIP3    H2 8783   7.657   7.683   5.812
 2948TIP3   OH2 8784   3.386   7.786   3.049
 2948TIP3    H1 8785   3.374   7.807   3.142
 2948TIP3    H2 8786   3.314   7.727   3.028
 2949TIP3   OH2 8787   6.472   0.302   1.999
 2949TIP3    H1 8788   6.556   0.260   2.016
 2949TIP3    H2 8789   6.440   0.326   2.086
 2950TIP3   OH2 8790   1.542   2.611   1.860
 2950TIP3    H1 8791   1.552   2.516   1.864
 2950TIP3    H2 8792   1.449   2.624   1.841
 2951TIP3   OH2 8793   7.032   6.476   2.177
 2951TIP3    H1 8794   7.086   6.555   2.175
 2951TIP3    H2 8795   7.094   6.404   2.160
 2952TIP3   OH2 8796   3.891   7.624   0.293
 2952TIP3    H1 8797   3.805   7.606   0.253
 2952TIP3    H2 8798   3.879   7.602   0.386
 2953TIP3   OH2 8799   6.735   5.627   1.961
 2953TIP3    H1 8800   6.760   5.717   1.984
 2953TIP3    H2 8801   6.801   5.601   1.896
 2954TIP3   OH2 8802   7.623   1.738   2.805
 2954TIP3    H1 8803   7.626   1.649   2.769
 2954TIP3    H2 8804   7.531   1.752   2.826
 2955TIP3   OH2 8805   7.807   0.861   6.485
 2955TIP3    H1 8806   7.719   0.874   6.450
 2955TIP3    H2 8807   7.839   0.782   6.441
 2956TIP3   OH2 8808   2.098   0.386   1.416
 2956TIP3    H1 8809   2.182   0.345   1.398
 2956TIP3    H2 8810   2.118   0.456   1.479
 2957TIP3   OH2 8811   5.327   7.052   0.355
 2957TIP3    H1 8812   5.389   7.002   0.408
 2957TIP3    H2 8813   5.375   7.132   0.332
 2958TIP3   OH2 8814   3.248   6.794   5.056
 2958TIP3    H1 8815   3.308   6.849   5.106
 2958TIP3    H2 8816   3.268   6.814   4.964
 2959TIP3   OH2 8817   6.013   4.826   6.532
 2959TIP3    H1 8818   5.933   4.775   6.527
 2959TIP3    H2 8819   6.074   4.782   6.473
 2960TIP3   OH2 8820   8.300   7.226   3.402
 2960TIP3    H1 8821   8.391   7.243   3.378
 2960TIP3    H2 8822   8.261   7.189   3.322
 2961TIP3   OH2 8823   1.399   7.160   2.027
 2961TIP3    H1 8824   1.351   7.116   1.957
 2961TIP3    H2 8825   1.349   7.141   2.106
 2962TIP3   OH2 8826   4.810   3.162   5.587
 2962TIP3    H1 8827   4.827   3.209   5.669
 2962TIP3    H2 8828   4.808   3.230   5.520
 2963TIP3   OH2 8829   7.072   5.917   1.905
 2963TIP3    H1 8830   7.119   5.892   1.985
 2963TIP3    H2 8831   7.130   5.888   1.835
 2964TIP3   OH2 8832   4.097   5.471   6.698
 2964TIP3    H1 8833   4.102   5.468   6.794
 2964TIP3    H2 8834   4.139   5.390   6.670
 2965TIP3   OH2 8835   1.504   2.228   4.291
 2965TIP3    H1 8836   1.503   2.144   4.338
 2965TIP3    H2 8837   1.465   2.290   4.353
 2966TIP3   OH2 8838   6.276   5.192   3.748
 2966TIP3    H1 8839   6.202   5.168   3.804
 2966TIP3    H2 8840   6.351   5.196   3.807
 2967TIP3   OH2 8841   0.511  -0.008   2.126
 2967TIP3    H1 8842   0.512   0.083   2.099
 2967TIP3    H2 8843   0.603  -0.035   2.126
 2968TIP3   OH2 8844   0.152   2.112   0.293
 2968TIP3    H1 8845   0.111   2.172   0.355
 2968TIP3    H2 8846   0.234   2.155   0.269
 2969TIP3   OH2 8847   0.090   0.809   2.933
 2969TIP3    H1 8848   0.169   0.801   2.988
 2969TIP3    H2 8849   0.124   0.831   2.846
 2970TIP3   OH2 8850   3.123   6.470   3.199
 2970TIP3    H1 8851   3.115   6.562   3.222
 2970TIP3    H2 8852   3.064   6.425   3.259
 2971TIP3   OH2 8853   3.029   6.682   2.622
 2971TIP3    H1 8854   3.000   6.746   2.687
 2971TIP3    H2 8855   2.973   6.605   2.637
 2972TIP3   OH2 8856   3.542   0.341   1.500
 2972TIP3    H1 8857   3.487   0.268   1.528
 2972TIP3    H2 8858   3.617   0.339   1.560
 2973TIP3   OH2 8859   5.802   6.356   1.546
 2973TIP3    H1 8860   5.716   6.326   1.518
 2973TIP3    H2 8861   5.810   6.326   1.637
 2974TIP3   OH2 8862   8.082   4.188   1.306
 2974TIP3    H1 8863   8.093   4.148   1.392
 2974TIP3    H2 8864   8.121   4.125   1.245
 2975TIP3   OH2 8865   8.227   4.773   2.734
 2975TIP3    H1 8866   8.217   4.741   2.823
 2975TIP3    H2 8867   8.158   4.839   2.724
 2976TIP3   OH2 8868   6.417   2.392   1.819
 2976TIP3    H1 8869   6.345   2.433   1.867
 2976TIP3    H2 8870   6.405   2.298   1.832
 2977TIP3   OH2 8871   3.770   7.922   3.594
 2977TIP3    H1 8872   3.780   7.893   3.504
 2977TIP3    H2 8873   3.678   7.949   3.601
 2978TIP3   OH2 8874   0.266   7.174   5.752
 2978TIP3    H1 8875   0.217   7.218   5.683
 2978TIP3    H2 8876   0.322   7.241   5.789
 2979TIP3   OH2 8877   2.130   5.942   4.833
 2979TIP3    H1 8878   2.068   5.952   4.761
 2979TIP3    H2 8879   2.115   5.854   4.867
 2980TIP3   OH2 8880   5.407   1.849   1.213
 2980TIP3    H1 8881   5.461   1.770   1.204
 2980TIP3    H2 8882   5.318   1.818   1.195
 2981TIP3   OH2 8883   2.725   5.685   1.391
 2981TIP3    H1 8884   2.679   5.733   1.460
 2981TIP3    H2 8885   2.659   5.674   1.322
 2982TIP3   OH2 8886   5.876   0.644   6.506
 2982TIP3    H1 8887   5.889   0.589   6.583
 2982TIP3    H2 8888   5.806   0.704   6.531
 2983TIP3   OH2 8889   4.869   6.147   6.644
 2983TIP3    H1 8890   4.793   6.090   6.653
 2983TIP3    H2 8891   4.935   6.093   6.601
 2984TIP3   OH2 8892   3.378   6.099   1.062
 2984TIP3    H1 8893   3.326   6.080   0.985
 2984TIP3    H2 8894   3.435   6.172   1.035
 2985TIP3   OH2 8895   3.919   4.768   4.403
 2985TIP3    H1 8896   3.831   4.752   4.368
 2985TIP3    H2 8897   3.904   4.802   4.491
 2986TIP3   OH2 8898   5.604   2.163   6.419
 2986TIP3    H1 8899   5.633   2.092   6.477
 2986TIP3    H2 8900   5.512   2.144   6.403
 2987TIP3   OH2 8901   6.211   0.222   4.564
 2987TIP3    H1 8902   6.252   0.262   4.641
 2987TIP3    H2 8903   6.265   0.145   4.545
 2988TIP3   OH2 8904   4.149   3.600   0.572
 2988TIP3    H1 8905   4.121   3.511   0.556
 2988TIP3    H2 8906   4.147   3.609   0.668
 2989TIP3   OH2 8907   4.878   7.108   2.088
 2989TIP3    H1 8908   4.928   7.033   2.121
 2989TIP3    H2 8909   4.845   7.078   2.003
 2990TIP3   OH2 8910   7.389   3.596   0.839
 2990TIP3    H1 8911   7.321   3.660   0.820
 2990TIP3    H2 8912   7.463   3.623   0.785
 2991TIP3   OH2 8913   7.047   6.050   5.042
 2991TIP3    H1 8914   6.995   5.986   5.090
 2991TIP3    H2 8915   6.994   6.130   5.042
 2992TIP3   OH2 8916   3.826   3.950   4.191
 2992TIP3    H1 8917   3.882   3.873   4.181
 2992TIP3    H2 8918   3.779   3.956   4.107
 2993TIP3   OH2 8919   6.109   7.712   4.007
 2993TIP3    H1 8920   6.039   7.649   4.021
 2993TIP3    H2 8921   6.078   7.767   3.935
 2994TIP3   OH2 8922   0.711   3.029   6.036
 2994TIP3    H1 8923   0.619   3.047   6.020
 2994TIP3    H2 8924   0.728   2.945   5.994
 2995TIP3   OH2 8925   5.436   7.631   1.285
 2995TIP3    H1 8926   5.520   7.606   1.247
 2995TIP3    H2 8927   5.371   7.586   1.230
 2996TIP3   OH2 8928   6.083   3.900   4.838
 2996TIP3    H1 8929   6.168   3.870   4.806
 2996TIP3    H2 8930   6.062   3.976   4.783
 2997TIP3   OH2 8931   5.548   5.085   4.834
 2997TIP3    H1 8932   5.574   5.009   4.782
 2997TIP3    H2 8933   5.465   5.112   4.797
 2998TIP3   OH2 8934   7.390   2.275   3.041
 2998TIP3    H1 8935   7.442   2.218   3.097
 2998TIP3    H2 8936   7.334   2.324   3.102
 2999TIP3   OH2 8937   4.894   3.624   0.957
 2999TIP3    H1 8938   4.799   3.634   0.947
 2999TIP3    H2 8939   4.923   3.707   0.996
 3000TIP3   OH2 8940   6.819   5.426   5.077
 3000TIP3    H1 8941   6.804   5.339   5.040
 3000TIP3    H2 8942   6.889   5.464   5.024
 3001TIP3   OH2 8943   4.759   4.243   0.310
 3001TIP3    H1 8944   4.826   4.307   0.337
 3001TIP3    H2 8945   4.807   4.160   0.305
 3002TIP3   OH2 8946   1.278   1.973   1.317
 3002TIP3    H1 8947   1.220   1.907   1.354
 3002TIP3    H2 8948   1.366   1.945   1.341
 3003TIP3   OH2 8949   1.638   1.701   2.251
 3003TIP3    H1 8950   1.710   1.697   2.188
 3003TIP3    H2 8951   1.584   1.774   2.221
 3004TIP3   OH2 8952   6.255   1.688   4.343
 3004TIP3    H1 8953   6.321   1.690   4.273
 3004TIP3    H2 8954   6.184   1.636   4.307
 3005TIP3   OH2 8955   2.776   2.742   6.208
 3005TIP3    H1 8956   2.765   2.649   6.226
 3005TIP3    H2 8957   2.705   2.784   6.257
 3006TIP3   OH2 8958   4.400   7.647  -0.031
 3006TIP3    H1 8959   4.495   7.636  -0.032
 3006TIP3    H2 8960   4.372   7.611   0.053
 3007TIP3   OH2 8961   6.957   7.658   5.010
 3007TIP3    H1 8962   6.945   7.599   5.084
 3007TIP3    H2 8963   6.867   7.681   4.983
 3008TIP3   OH2 8964   1.500   5.278   6.266
 3008TIP3    H1 8965   1.552   5.205   6.232
 3008TIP3    H2 8966   1.554   5.356   6.251
 3009TIP3   OH2 8967   0.159   5.421   2.576
 3009TIP3    H1 8968   0.140   5.408   2.669
 3009TIP3    H2 8969   0.248   5.457   2.574
 3010TIP3   OH2 8970   1.092   1.199   4.293
 3010TIP3    H1 8971   1.151   1.215   4.366
 3010TIP3    H2 8972   1.113   1.268   4.230
 3011TIP3   OH2 8973   5.308   2.948   4.042
 3011TIP3    H1 8974   5.337   2.891   3.971
 3011TIP3    H2 8975   5.353   3.031   4.026
 3012TIP3   OH2 8976   3.105   7.866   1.599
 3012TIP3    H1 8977   3.042   7.894   1.533
 3012TIP3    H2 8978   3.134   7.779   1.570
 3013TIP3   OH2 8979   4.673   4.768   4.504
 3013TIP3    H1 8980   4.604   4.751   4.568
 3013TIP3    H2 8981   4.753   4.735   4.545
 3014TIP3   OH2 8982   3.274   2.838   2.384
 3014TIP3    H1 8983   3.319   2.899   2.325
 3014TIP3    H2 8984   3.182   2.844   2.360
 3015TIP3   OH2 8985   6.543   5.138   1.421
 3015TIP3    H1 8986   6.586   5.088   1.352
 3015TIP3    H2 8987   6.586   5.108   1.502
 3016TIP3   OH2 8988   7.598   2.163   2.304
 3016TIP3    H1 8989   7.544   2.224   2.355
 3016TIP3    H2 8990   7.535   2.110   2.256
 3017TIP3   OH2 8991   7.053   7.589   0.143
 3017TIP3    H1 8992   7.034   7.527   0.214
 3017TIP3    H2 8993   6.972   7.639   0.133
 3018TIP3   OH2 8994   1.197   5.682   1.656
 3018TIP3    H1 8995   1.151   5.611   1.701
 3018TIP3    H2 8996   1.152   5.762   1.684
 3019TIP3   OH2 8997   0.419   6.516   1.975
 3019TIP3    H1 8998   0.475   6.523   1.898
 3019TIP3    H2 8999   0.344   6.464   1.945
 3020TIP3   OH2 9000   4.620   5.060   2.068
 3020TIP3    H1 9001   4.707   5.070   2.028
 3020TIP3    H2 9002   4.564   5.115   2.013
 3021TIP3   OH2 9003   1.058   5.331   5.740
 3021TIP3    H1 9004   0.963   5.324   5.744
 3021TIP3    H2 9005   1.079   5.402   5.802
 3022TIP3   OH2 9006   4.354   5.980   2.248
 3022TIP3    H1 9007   4.384   6.042   2.181
 3022TIP3    H2 9008   4.399   5.898   2.226
 3023TIP3   OH2 9009   1.273   1.032   4.681
 3023TIP3    H1 9010   1.353   0.980   4.685
 3023TIP3    H2 9011   1.266   1.059   4.589
 3024TIP3   OH2 9012   7.378   6.851   2.807
 3024TIP3    H1 9013   7.342   6.908   2.875
 3024TIP3    H2 9014   7.436   6.791   2.853
 3025TIP3   OH2 9015   7.788   5.967   0.931
 3025TIP3    H1 9016   7.882   5.955   0.921
 3025TIP3    H2 9017   7.750   5.927   0.853
 3026TIP3   OH2 9018   6.772   4.389   1.243
 3026TIP3    H1 9019   6.743   4.384   1.333
 3026TIP3    H2 9020   6.836   4.461   1.242
 3027TIP3   OH2 9021   1.052   5.316   1.605
 3027TIP3    H1 9022   1.106   5.352   1.675
 3027TIP3    H2 9023   1.114   5.293   1.536
 3028TIP3   OH2 9024   6.520   1.082   6.565
 3028TIP3    H1 9025   6.475   1.047   6.642
 3028TIP3    H2 9026   6.543   1.004   6.513
 3029TIP3   OH2 9027   3.933   3.162   1.970
 3029TIP3    H1 9028   3.892   3.106   2.036
 3029TIP3    H2 9029   3.998   3.106   1.928
 3030TIP3   OH2 9030   1.479   6.546   5.570
 3030TIP3    H1 9031   1.464   6.456   5.542
 3030TIP3    H2 9032   1.511   6.538   5.660
 3031TIP3   OH2 9033   7.697   6.570   2.149
 3031TIP3    H1 9034   7.653   6.558   2.065
 3031TIP3    H2 9035   7.643   6.634   2.196
 3032TIP3   OH2 9036   4.294   3.404   2.140
 3032TIP3    H1 9037   4.327   3.370   2.057
 3032TIP3    H2 9038   4.364   3.462   2.171
 3033TIP3   OH2 9039   7.611   1.079   3.801
 3033TIP3    H1 9040   7.524   1.040   3.791
 3033TIP3    H2 9041   7.594   1.169   3.827
 3034TIP3   OH2 9042   2.429   2.201   6.689
 3034TIP3    H1 9043   2.449   2.270   6.752
 3034TIP3    H2 9044   2.483   2.223   6.612
 3035TIP3   OH2 9045   5.485   5.187   5.092
 3035TIP3    H1 9046   5.509   5.279   5.081
 3035TIP3    H2 9047   5.494   5.149   5.004
 3036TIP3   OH2 9048   7.453   5.071   6.144
 3036TIP3    H1 9049   7.525   5.078   6.207
 3036TIP3    H2 9050   7.482   5.121   6.068
 3037TIP3   OH2 9051   4.950   2.166   6.519
 3037TIP3    H1 9052   5.002   2.163   6.438
 3037TIP3    H2 9053   4.898   2.247   6.511
 3038TIP3   OH2 9054   5.271   6.020   1.836
 3038TIP3    H1 9055   5.244   6.108   1.860
 3038TIP3    H2 9056   5.357   6.009   1.877
 3039TIP3   OH2 9057   3.982   4.054   3.324
 3039TIP3    H1 9058   4.053   4.005   3.365
 3039TIP3    H2 9059   3.904   4.031   3.374
 3040TIP3   OH2 9060   2.749   6.702   2.475
 3040TIP3    H1 9061   2.746   6.715   2.570
 3040TIP3    H2 9062   2.756   6.790   2.439
 3041TIP3   OH2 9063   4.616   3.414   6.267
 3041TIP3    H1 9064   4.533   3.429   6.312
 3041TIP3    H2 9065   4.634   3.496   6.222
 3042TIP3   OH2 9066   5.543   6.617   1.561
 3042TIP3    H1 9067   5.477   6.685   1.546
 3042TIP3    H2 9068   5.568   6.628   1.653
 3043TIP3   OH2 9069   1.807   5.922   2.857
 3043TIP3    H1 9070   1.810   5.834   2.893
 3043TIP3    H2 9071   1.812   5.980   2.933
 3044TIP3   OH2 9072   0.270   4.098   3.552
 3044TIP3    H1 9073   0.311   4.037   3.613
 3044TIP3    H2 9074   0.338   4.119   3.488
 3045TIP3   OH2 9075   6.820   1.584   6.295
 3045TIP3    H1 9076   6.870   1.643   6.350
 3045TIP3    H2 9077   6.754   1.639   6.253
 3046TIP3   OH2 9078   3.530   4.561   3.312
 3046TIP3    H1 9079   3.509   4.503   3.239
 3046TIP3    H2 9080   3.493   4.646   3.288
 3047TIP3   OH2 9081   7.620   7.472   0.738
 3047TIP3    H1 9082   7.673   7.482   0.658
 3047TIP3    H2 9083   7.555   7.406   0.715
 3048TIP3   OH2 9084   0.949   2.548   6.504
 3048TIP3    H1 9085   1.032   2.508   6.532
 3048TIP3    H2 9086   0.920   2.599   6.580
 3049TIP3   OH2 9087   0.480   7.223   1.856
 3049TIP3    H1 9088   0.474   7.129   1.837
 3049TIP3    H2 9089   0.454   7.266   1.774
 3050TIP3   OH2 9090   6.921   7.012   0.613
 3050TIP3    H1 9091   6.937   7.051   0.528
 3050TIP3    H2 9092   6.978   7.060   0.673
 3051TIP3   OH2 9093   4.238   1.271   5.716
 3051TIP3    H1 9094   4.161   1.245   5.666
 3051TIP3    H2 9095   4.243   1.366   5.704
 3052TIP3   OH2 9096   1.282   3.639   2.483
 3052TIP3    H1 9097   1.205   3.661   2.536
 3052TIP3    H2 9098   1.257   3.662   2.394
 3053TIP3   OH2 9099   2.659   2.032   5.882
 3053TIP3    H1 9100   2.637   1.940   5.874
 3053TIP3    H2 9101   2.662   2.065   5.792
 3054TIP3   OH2 9102   3.503   1.684   2.959
 3054TIP3    H1 9103   3.498   1.667   3.053
 3054TIP3    H2 9104   3.425   1.736   2.940
 3055TIP3   OH2 9105   7.708   2.724   0.165
 3055TIP3    H1 9106   7.759   2.645   0.184
 3055TIP3    H2 9107   7.695   2.723   0.070
 3056TIP3   OH2 9108   4.322   7.477   5.841
 3056TIP3    H1 9109   4.365   7.407   5.890
 3056TIP3    H2 9110   4.262   7.518   5.904
 3057TIP3   OH2 9111   5.841   0.183   0.345
 3057TIP3    H1 9112   5.797   0.213   0.265
 3057TIP3    H2 9113   5.880   0.099   0.321
 3058TIP3   OH2 9114   0.682   5.232   3.605
 3058TIP3    H1 9115   0.725   5.226   3.690
 3058TIP3    H2 9116   0.615   5.299   3.616
 3059TIP3   OH2 9117   1.044   4.311   6.904
 3059TIP3    H1 9118   1.028   4.388   6.849
 3059TIP3    H2 9119   1.135   4.287   6.885
 3060TIP3   OH2 9120   4.535   4.458   5.565
 3060TIP3    H1 9121   4.486   4.427   5.641
 3060TIP3    H2 9122   4.514   4.395   5.496
 3061TIP3   OH2 9123   6.502   4.406   4.454
 3061TIP3    H1 9124   6.559   4.456   4.395
 3061TIP3    H2 9125   6.426   4.463   4.468
 3062TIP3   OH2 9126   2.473   4.749   3.876
 3062TIP3    H1 9127   2.531   4.746   3.952
 3062TIP3    H2 9128   2.524   4.795   3.809
 3063TIP3   OH2 9129   4.846   7.051   4.700
 3063TIP3    H1 9130   4.757   7.048   4.737
 3063TIP3    H2 9131   4.838   7.106   4.622
 3064TIP3   OH2 9132   6.304   1.215   5.997
 3064TIP3    H1 9133   6.315   1.146   5.932
 3064TIP3    H2 9134   6.345   1.292   5.958
 3065TIP3   OH2 9135   6.865   0.185   4.377
 3065TIP3    H1 9136   6.913   0.126   4.319
 3065TIP3    H2 9137   6.777   0.147   4.383
 3066TIP3   OH2 9138   4.081   3.681   5.882
 3066TIP3    H1 9139   4.073   3.659   5.789
 3066TIP3    H2 9140   3.997   3.722   5.905
 3067TIP3   OH2 9141   8.372   1.862   2.685
 3067TIP3    H1 9142   8.423   1.801   2.739
 3067TIP3    H2 9143   8.282   1.853   2.716
 3068TIP3   OH2 9144   4.335   0.899   2.841
 3068TIP3    H1 9145   4.315   0.993   2.840
 3068TIP3    H2 9146   4.249   0.857   2.838
 3069TIP3   OH2 9147   2.121   3.032   5.314
 3069TIP3    H1 9148   2.148   2.978   5.240
 3069TIP3    H2 9149   2.165   3.116   5.299
 3070TIP3   OH2 9150   5.775   4.174   6.776
 3070TIP3    H1 9151   5.721   4.142   6.704
 3070TIP3    H2 9152   5.755   4.267   6.783
 3071TIP3   OH2 9153   0.140   5.289   1.298
 3071TIP3    H1 9154   0.143   5.288   1.393
 3071TIP3    H2 9155   0.223   5.249   1.271
 3072TIP3   OH2 9156   1.408   4.419   1.198
 3072TIP3    H1 9157   1.385   4.490   1.138
 3072TIP3    H2 9158   1.363   4.342   1.163
 3073TIP3   OH2 9159   7.351   1.667   6.455
 3073TIP3    H1 9160   7.364   1.749   6.503
 3073TIP3    H2 9161   7.350   1.692   6.363
 3074TIP3   OH2 9162   5.753   4.085   1.561
 3074TIP3    H1 9163   5.788   4.162   1.517
 3074TIP3    H2 9164   5.712   4.034   1.491
 3075TIP3   OH2 9165   2.443   3.378   6.256
 3075TIP3    H1 9166   2.481   3.290   6.262
 3075TIP3    H2 9167   2.416   3.398   6.346
 3076TIP3   OH2 9168   6.353   4.224   5.769
 3076TIP3    H1 9169   6.350   4.282   5.693
 3076TIP3    H2 9170   6.269   4.237   5.813
 3077TIP3   OH2 9171   6.303   4.492   2.581
 3077TIP3    H1 9172   6.208   4.504   2.591
 3077TIP3    H2 9173   6.313   4.399   2.563
 3078TIP3   OH2 9174   5.415   4.558   3.189
 3078TIP3    H1 9175   5.458   4.473   3.184
 3078TIP3    H2 9176   5.338   4.548   3.132
 3079TIP3   OH2 9177   6.431   3.586   6.481
 3079TIP3    H1 9178   6.469   3.661   6.528
 3079TIP3    H2 9179   6.454   3.510   6.534
 3080TIP3   OH2 9180   1.948   3.837   2.548
 3080TIP3    H1 9181   1.932   3.866   2.638
 3080TIP3    H2 9182   2.030   3.789   2.552
 3081TIP3   OH2 9183   0.997   4.839   0.993
 3081TIP3    H1 9184   1.018   4.757   0.948
 3081TIP3    H2 9185   0.918   4.820   1.043
 3082TIP3   OH2 9186   3.897   2.878   3.939
 3082TIP3    H1 9187   3.894   2.794   3.984
 3082TIP3    H2 9188   3.820   2.926   3.970
 3083TIP3   OH2 9189   3.635   6.007   2.632
 3083TIP3    H1 9190   3.648   6.019   2.538
 3083TIP3    H2 9191   3.570   5.936   2.638
 3084TIP3   OH2 9192   4.605   4.567   4.323
 3084TIP3    H1 9193   4.548   4.505   4.370
 3084TIP3    H2 9194   4.615   4.640   4.383
 3085TIP3   OH2 9195   6.195   4.295   3.472
 3085TIP3    H1 9196   6.163   4.340   3.550
 3085TIP3    H2 9197   6.154   4.208   3.475
 3086TIP3   OH2 9198   4.623   2.436   3.430
 3086TIP3    H1 9199   4.718   2.429   3.436
 3086TIP3    H2 9200   4.598   2.372   3.364
 3087TIP3   OH2 9201   7.954   2.453   2.442
 3087TIP3    H1 9202   8.006   2.523   2.403
 3087TIP3    H2 9203   8.019   2.389   2.471
 3088TIP3   OH2 9204   0.558   2.768   0.513
 3088TIP3    H1 9205   0.475   2.738   0.549
 3088TIP3    H2 9206   0.594   2.693   0.466
 3089TIP3   OH2 9207   4.041   3.252   1.620
 3089TIP3    H1 9208   4.026   3.174   1.566
 3089TIP3    H2 9209   3.982   3.318   1.584
 3090TIP3   OH2 9210   4.955   6.560   0.280
 3090TIP3    H1 9211   4.922   6.584   0.367
 3090TIP3    H2 9212   5.045   6.592   0.280
 3091TIP3   OH2 9213   2.640   7.172   6.667
 3091TIP3    H1 9214   2.699   7.246   6.680
 3091TIP3    H2 9215   2.632   7.164   6.571
 3092TIP3   OH2 9216   4.988   0.982   2.458
 3092TIP3    H1 9217   4.929   1.033   2.514
 3092TIP3    H2 9218   5.020   0.912   2.515
 3093TIP3   OH2 9219   0.590   2.911   2.652
 3093TIP3    H1 9220   0.525   2.929   2.585
 3093TIP3    H2 9221   0.639   2.836   2.618
 3094TIP3   OH2 9222   4.230   5.885   3.887
 3094TIP3    H1 9223   4.138   5.858   3.891
 3094TIP3    H2 9224   4.253   5.878   3.795
 3095TIP3   OH2 9225   6.015   0.155   4.024
 3095TIP3    H1 9226   5.947   0.108   3.975
 3095TIP3    H2 9227   6.003   0.126   4.115
 3096TIP3   OH2 9228   2.569   1.326   3.305
 3096TIP3    H1 9229   2.619   1.251   3.339
 3096TIP3    H2 9230   2.482   1.315   3.342
 3097TIP3   OH2 9231   0.262   1.792   5.046
 3097TIP3    H1 9232   0.211   1.813   5.125
 3097TIP3    H2 9233   0.353   1.805   5.072
 3098TIP3   OH2 9234   4.881   4.876   6.853
 3098TIP3    H1 9235   4.862   4.787   6.826
 3098TIP3    H2 9236   4.801   4.925   6.833
 3099TIP3   OH2 9237   6.619   2.161   1.453
 3099TIP3    H1 9238   6.640   2.222   1.524
 3099TIP3    H2 9239   6.524   2.160   1.449
 3100TIP3   OH2 9240   2.847   2.757   6.500
 3100TIP3    H1 9241   2.765   2.776   6.455
 3100TIP3    H2 9242   2.852   2.822   6.570
 3101TIP3   OH2 9243   6.201   5.192   6.812
 3101TIP3    H1 9244   6.270   5.202   6.746
 3101TIP3    H2 9245   6.183   5.098   6.815
 3102TIP3   OH2 9246   6.761   0.669   1.700
 3102TIP3    H1 9247   6.782   0.762   1.705
 3102TIP3    H2 9248   6.712   0.651   1.780
 3103TIP3   OH2 9249   1.633   1.044   2.222
 3103TIP3    H1 9250   1.706   1.000   2.265
 3103TIP3    H2 9251   1.559   0.983   2.231
 3104TIP3   OH2 9252   3.188   7.622   6.767
 3104TIP3    H1 9253   3.267   7.655   6.723
 3104TIP3    H2 9254   3.179   7.679   6.844
 3105TIP3   OH2 9255   1.549   5.335   0.135
 3105TIP3    H1 9256   1.600   5.415   0.148
 3105TIP3    H2 9257   1.461   5.358   0.167
 3106TIP3   OH2 9258   7.847   5.705   4.911
 3106TIP3    H1 9259   7.885   5.661   4.987
 3106TIP3    H2 9260   7.887   5.792   4.910
 3107TIP3   OH2 9261   7.404   5.411   4.985
 3107TIP3    H1 9262   7.457   5.366   4.920
 3107TIP3    H2 9263   7.333   5.451   4.936
 3108TIP3   OH2 9264   1.585   2.539   4.316
 3108TIP3    H1 9265   1.501   2.580   4.337
 3108TIP3    H2 9266   1.639   2.610   4.283
 3109TIP3   OH2 9267   3.969   1.473   2.321
 3109TIP3    H1 9268   3.906   1.499   2.388
 3109TIP3    H2 9269   3.917   1.425   2.257
 3110TIP3   OH2 9270   0.921   0.483   4.237
 3110TIP3    H1 9271   0.960   0.405   4.197
 3110TIP3    H2 9272   0.853   0.510   4.176
 3111TIP3   OH2 9273   1.381   0.908   3.058
 3111TIP3    H1 9274   1.305   0.850   3.049
 3111TIP3    H2 9275   1.406   0.901   3.150
 3112TIP3   OH2 9276   4.857   0.587   0.082
 3112TIP3    H1 9277   4.900   0.534   0.149
 3112TIP3    H2 9278   4.915   0.582   0.006
 3113TIP3   OH2 9279   6.037   7.261   6.608
 3113TIP3    H1 9280   6.012   7.255   6.700
 3113TIP3    H2 9281   6.033   7.355   6.589
 3114TIP3   OH2 9282   1.857   7.125   0.998
 3114TIP3    H1 9283   1.871   7.208   1.042
 3114TIP3    H2 9284   1.913   7.130   0.920
 3115TIP3   OH2 9285   1.580   5.505   5.572
 3115TIP3    H1 9286   1.571   5.414   5.601
 3115TIP3    H2 9287   1.550   5.557   5.646
 3116TIP3   OH2 9288   5.721   2.055   4.028
 3116TIP3    H1 9289   5.799   2.081   4.078
 3116TIP3    H2 9290   5.754   2.027   3.944
 3117TIP3   OH2 9291   2.320   3.206   1.132
 3117TIP3    H1 9292   2.288   3.233   1.217
 3117TIP3    H2 9293   2.389   3.142   1.151
 3118TIP3   OH2 9294   6.135   3.912   2.001
 3118TIP3    H1 9295   6.192   3.889   1.927
 3118TIP3    H2 9296   6.097   3.997   1.976
 3119TIP3   OH2 9297   4.825   4.068   2.108
 3119TIP3    H1 9298   4.856   4.146   2.062
 3119TIP3    H2 9299   4.811   4.098   2.198
 3120TIP3   OH2 9300   1.970   7.154   3.876
 3120TIP3    H1 9301   1.940   7.215   3.943
 3120TIP3    H2 9302   1.912   7.079   3.883
 3121TIP3   OH2 9303   2.714   5.306   2.238
 3121TIP3    H1 9304   2.774   5.233   2.257
 3121TIP3    H2 9305   2.630   5.277   2.273
 3122TIP3   OH2 9306   7.067   2.959   1.445
 3122TIP3    H1 9307   7.114   2.905   1.381
 3122TIP3    H2 9308   7.105   3.046   1.435
 3123TIP3   OH2 9309   3.263   1.883   3.146
 3123TIP3    H1 9310   3.265   1.888   3.050
 3123TIP3    H2 9311   3.351   1.911   3.173
 3124TIP3   OH2 9312   2.205   0.803   1.433
 3124TIP3    H1 9313   2.266   0.759   1.492
 3124TIP3    H2 9314   2.171   0.877   1.484
 3125TIP3   OH2 9315   1.332   7.135   6.267
 3125TIP3    H1 9316   1.413   7.169   6.304
 3125TIP3    H2 9317   1.360   7.083   6.192
 3126TIP3   OH2 9318   2.289   0.028   4.917
 3126TIP3    H1 9319   2.268   0.112   4.959
 3126TIP3    H2 9320   2.205  -0.018   4.912
 3127TIP3   OH2 9321   7.336   3.145   1.392
 3127TIP3    H1 9322   7.393   3.070   1.410
 3127TIP3    H2 9323   7.355   3.167   1.301
 3128TIP3   OH2 9324   7.805   3.673   3.417
 3128TIP3    H1 9325   7.793   3.746   3.478
 3128TIP3    H2 9326   7.717   3.648   3.390
 3129TIP3   OH2 9327   2.127   7.763   6.781
 3129TIP3    H1 9328   2.108   7.745   6.689
 3129TIP3    H2 9329   2.100   7.854   6.794
 3130TIP3   OH2 9330   5.350   0.712   2.474
 3130TIP3    H1 9331   5.298   0.723   2.394
 3130TIP3    H2 9332   5.403   0.791   2.479
 3131TIP3   OH2 9333   1.410   5.897   5.061
 3131TIP3    H1 9334   1.490   5.845   5.066
 3131TIP3    H2 9335   1.386   5.896   4.968
 3132TIP3   OH2 9336   0.569   0.938   5.782
 3132TIP3    H1 9337   0.540   1.006   5.720
 3132TIP3    H2 9338   0.555   0.977   5.868
 3133TIP3   OH2 9339   0.275   6.901   4.748
 3133TIP3    H1 9340   0.314   6.832   4.802
 3133TIP3    H2 9341   0.195   6.924   4.794
 3134TIP3   OH2 9342   0.907   3.242   3.609
 3134TIP3    H1 9343   0.941   3.264   3.696
 3134TIP3    H2 9344   0.848   3.314   3.588
 3135TIP3   OH2 9345   2.325   7.734   4.742
 3135TIP3    H1 9346   2.238   7.771   4.728
 3135TIP3    H2 9347   2.379   7.772   4.672
 3136TIP3   OH2 9348   7.345   2.692   1.509
 3136TIP3    H1 9349   7.278   2.717   1.573
 3136TIP3    H2 9350   7.299   2.694   1.425
 3137TIP3   OH2 9351   0.981   0.029   3.204
 3137TIP3    H1 9352   1.044   0.044   3.274
 3137TIP3    H2 9353   0.902  -0.001   3.250
 3138TIP3   OH2 9354   6.090   6.050   1.947
 3138TIP3    H1 9355   6.161   5.989   1.929
 3138TIP3    H2 9356   6.047   6.062   1.862
 3139TIP3   OH2 9357   1.774   2.781   1.103
 3139TIP3    H1 9358   1.815   2.835   1.171
 3139TIP3    H2 9359   1.847   2.751   1.049
 3140TIP3   OH2 9360   1.970   1.975   6.444
 3140TIP3    H1 9361   1.971   1.960   6.350
 3140TIP3    H2 9362   2.054   2.017   6.463
 3141TIP3   OH2 9363   1.747   5.448   6.247
 3141TIP3    H1 9364   1.814   5.405   6.194
 3141TIP3    H2 9365   1.795   5.511   6.301
 3142TIP3   OH2 9366   3.335   5.401   3.219
 3142TIP3    H1 9367   3.359   5.478   3.168
 3142TIP3    H2 9368   3.340   5.329   3.156
 3143TIP3   OH2 9369   2.511   6.902   3.017
 3143TIP3    H1 9370   2.505   6.849   2.937
 3143TIP3    H2 9371   2.427   6.948   3.021
 3144TIP3   OH2 9372   3.165   4.444   5.814
 3144TIP3    H1 9373   3.138   4.353   5.804
 3144TIP3    H2 9374   3.123   4.489   5.741
 3145TIP3   OH2 9375   3.734   3.313   2.805
 3145TIP3    H1 9376   3.648   3.325   2.845
 3145TIP3    H2 9377   3.779   3.397   2.819
 3146TIP3   OH2 9378   8.333   1.302   2.002
 3146TIP3    H1 9379   8.373   1.373   2.053
 3146TIP3    H2 9380   8.406   1.245   1.979
 3147TIP3   OH2 9381   7.190   3.145   5.922
 3147TIP3    H1 9382   7.096   3.161   5.912
 3147TIP3    H2 9383   7.201   3.051   5.907
 3148TIP3   OH2 9384   4.987   2.246   0.540
 3148TIP3    H1 9385   5.053   2.204   0.597
 3148TIP3    H2 9386   4.903   2.218   0.576
 3149TIP3   OH2 9387   5.593   3.156   3.768
 3149TIP3    H1 9388   5.552   3.070   3.758
 3149TIP3    H2 9389   5.673   3.151   3.714
 3150TIP3   OH2 9390   4.083   6.064   5.287
 3150TIP3    H1 9391   3.997   6.044   5.326
 3150TIP3    H2 9392   4.062   6.107   5.205
 3151TIP3   OH2 9393   1.328   0.658   0.185
 3151TIP3    H1 9394   1.299   0.714   0.256
 3151TIP3    H2 9395   1.248   0.624   0.146
 3152TIP3   OH2 9396   8.258   0.145   0.156
 3152TIP3    H1 9397   8.344   0.142   0.114
 3152TIP3    H2 9398   8.262   0.077   0.224
 3153TIP3   OH2 9399   6.372   1.298   0.326
 3153TIP3    H1 9400   6.428   1.238   0.376
 3153TIP3    H2 9401   6.434   1.357   0.283
 3154TIP3   OH2 9402   7.494   6.477   2.526
 3154TIP3    H1 9403   7.531   6.414   2.589
 3154TIP3    H2 9404   7.570   6.523   2.491
 3155TIP3   OH2 9405   3.947   6.649   4.896
 3155TIP3    H1 9406   3.990   6.576   4.941
 3155TIP3    H2 9407   3.939   6.717   4.962
 3156TIP3   OH2 9408   5.507   1.709   0.622
 3156TIP3    H1 9409   5.562   1.692   0.546
 3156TIP3    H2 9410   5.560   1.679   0.696
 3157TIP3   OH2 9411   7.489   5.697   6.664
 3157TIP3    H1 9412   7.555   5.651   6.611
 3157TIP3    H2 9413   7.533   5.777   6.693
 3158TIP3   OH2 9414   1.846   5.777   1.071
 3158TIP3    H1 9415   1.790   5.815   1.139
 3158TIP3    H2 9416   1.786   5.760   0.998
 3159TIP3   OH2 9417   2.881   5.685   2.426
 3159TIP3    H1 9418   2.891   5.621   2.356
 3159TIP3    H2 9419   2.787   5.684   2.446
 3160TIP3   OH2 9420   4.125   6.939   3.179
 3160TIP3    H1 9421   4.182   6.999   3.228
 3160TIP3    H2 9422   4.140   6.854   3.219
 3161TIP3   OH2 9423   5.100   0.181   6.219
 3161TIP3    H1 9424   5.098   0.115   6.151
 3161TIP3    H2 9425   5.029   0.241   6.197
 3162TIP3   OH2 9426   3.780   2.014   3.661
 3162TIP3    H1 9427   3.791   2.109   3.663
 3162TIP3    H2 9428   3.691   2.001   3.628
 3163TIP3   OH2 9429   8.283   2.155   5.661
 3163TIP3    H1 9430   8.309   2.075   5.615
 3163TIP3    H2 9431   8.266   2.127   5.751
 3164TIP3   OH2 9432   3.879   6.318   4.732
 3164TIP3    H1 9433   3.785   6.334   4.736
 3164TIP3    H2 9434   3.917   6.384   4.790
 3165TIP3   OH2 9435   6.692   4.948   5.566
 3165TIP3    H1 9436   6.624   5.012   5.588
 3165TIP3    H2 9437   6.667   4.916   5.479
 3166TIP3   OH2 9438   7.371   4.797   2.771
 3166TIP3    H1 9439   7.289   4.770   2.731
 3166TIP3    H2 9440   7.437   4.741   2.732
 3167TIP3   OH2 9441   2.717   4.127   1.546
 3167TIP3    H1 9442   2.769   4.050   1.522
 3167TIP3    H2 9443   2.673   4.152   1.464
 3168TIP3   OH2 9444   2.022   6.265   3.041
 3168TIP3    H1 9445   1.976   6.224   2.968
 3168TIP3    H2 9446   2.098   6.307   3.000
 3169TIP3   OH2 9447   2.774   4.162   2.170
 3169TIP3    H1 9448   2.698   4.131   2.122
 3169TIP3    H2 9449   2.740   4.234   2.225
 3170TIP3   OH2 9450   5.454   4.812   4.479
 3170TIP3    H1 9451   5.433   4.731   4.525
 3170TIP3    H2 9452   5.426   4.798   4.389
 3171TIP3   OH2 9453   4.819   5.273   4.206
 3171TIP3    H1 9454   4.899   5.307   4.246
 3171TIP3    H2 9455   4.819   5.180   4.228
 3172TIP3   OH2 9456   0.846   3.784   4.486
 3172TIP3    H1 9457   0.837   3.742   4.400
 3172TIP3    H2 9458   0.763   3.830   4.499
 3173TIP3   OH2 9459   5.783   5.969   3.440
 3173TIP3    H1 9460   5.814   5.938   3.525
 3173TIP3    H2 9461   5.858   5.960   3.382
 3174TIP3   OH2 9462   7.847   0.916   2.399
 3174TIP3    H1 9463   7.918   0.874   2.352
 3174TIP3    H2 9464   7.887   0.949   2.480
 3175TIP3   OH2 9465   0.307   2.499   0.195
 3175TIP3    H1 9466   0.296   2.412   0.157
 3175TIP3    H2 9467   0.282   2.489   0.287
 3176TIP3   OH2 9468   8.122   1.714   0.735
 3176TIP3    H1 9469   8.055   1.780   0.719
 3176TIP3    H2 9470   8.081   1.631   0.710
 3177TIP3   OH2 9471   4.655   0.120   2.268
 3177TIP3    H1 9472   4.586   0.125   2.335
 3177TIP3    H2 9473   4.735   0.139   2.316
 3178TIP3   OH2 9474   5.681   0.998   6.339
 3178TIP3    H1 9475   5.730   1.080   6.339
 3178TIP3    H2 9476   5.590   1.024   6.357
 3179TIP3   OH2 9477   1.820   5.103   6.838
 3179TIP3    H1 9478   1.740   5.103   6.892
 3179TIP3    H2 9479   1.788   5.090   6.749
 3180TIP3   OH2 9480   1.556   6.642   1.948
 3180TIP3    H1 9481   1.546   6.713   1.885
 3180TIP3    H2 9482   1.650   6.638   1.965
 3181TIP3   OH2 9483   3.164   4.821   0.200
 3181TIP3    H1 9484   3.240   4.768   0.173
 3181TIP3    H2 9485   3.159   4.810   0.295
 3182TIP3   OH2 9486   0.709   2.734   3.567
 3182TIP3    H1 9487   0.680   2.739   3.658
 3182TIP3    H2 9488   0.760   2.814   3.554
 3183TIP3   OH2 9489   0.368   6.467   2.228
 3183TIP3    H1 9490   0.422   6.476   2.150
 3183TIP3    H2 9491   0.295   6.527   2.214
 3184TIP3   OH2 9492   1.424   3.327   1.197
 3184TIP3    H1 9493   1.403   3.413   1.234
 3184TIP3    H2 9494   1.453   3.275   1.272
 3185TIP3   OH2 9495   2.017   3.577   1.659
 3185TIP3    H1 9496   2.020   3.643   1.728
 3185TIP3    H2 9497   1.936   3.530   1.674
 3186TIP3   OH2 9498   1.216   0.445   0.898
 3186TIP3    H1 9499   1.180   0.533   0.886
 3186TIP3    H2 9500   1.255   0.423   0.814
 3187TIP3   OH2 9501   5.764   4.898   6.439
 3187TIP3    H1 9502   5.716   4.955   6.499
 3187TIP3    H2 9503   5.736   4.809   6.463
 3188TIP3   OH2 9504   5.863   6.461   3.163
 3188TIP3    H1 9505   5.875   6.472   3.257
 3188TIP3    H2 9506   5.830   6.545   3.133
 3189TIP3   OH2 9507   3.291   2.619   1.787
 3189TIP3    H1 9508   3.338   2.536   1.796
 3189TIP3    H2 9509   3.266   2.623   1.695
 3190TIP3   OH2 9510   2.442   4.496   3.746
 3190TIP3    H1 9511   2.466   4.588   3.759
 3190TIP3    H2 9512   2.523   4.448   3.761
 3191TIP3   OH2 9513   2.323   5.409   5.789
 3191TIP3    H1 9514   2.293   5.483   5.736
 3191TIP3    H2 9515   2.370   5.449   5.862
 3192TIP3   OH2 9516   0.378   2.271   3.837
 3192TIP3    H1 9517   0.347   2.360   3.821
 3192TIP3    H2 9518   0.455   2.262   3.781
 3193TIP3   OH2 9519   1.663   2.617   5.523
 3193TIP3    H1 9520   1.633   2.530   5.549
 3193TIP3    H2 9521   1.609   2.640   5.447
 3194TIP3   OH2 9522   7.382   1.349   2.534
 3194TIP3    H1 9523   7.292   1.323   2.552
 3194TIP3    H2 9524   7.382   1.444   2.546
 3195TIP3   OH2 9525   8.035   6.124   3.658
 3195TIP3    H1 9526   8.034   6.084   3.571
 3195TIP3    H2 9527   7.945   6.115   3.689
 3196TIP3   OH2 9528   5.376   3.320   5.563
 3196TIP3    H1 9529   5.303   3.298   5.505
 3196TIP3    H2 9530   5.386   3.415   5.552
 3197TIP3   OH2 9531   3.661   0.637   1.458
 3197TIP3    H1 9532   3.595   0.583   1.416
 3197TIP3    H2 9533   3.709   0.677   1.386
 3198TIP3   OH2 9534   2.478   0.128   1.530
 3198TIP3    H1 9535   2.539   0.107   1.601
 3198TIP3    H2 9536   2.529   0.114   1.450
 3199TIP3   OH2 9537   2.190   7.449   1.377
 3199TIP3    H1 9538   2.233   7.421   1.458
 3199TIP3    H2 9539   2.178   7.368   1.327
 3200TIP3   OH2 9540   1.387   2.812   4.867
 3200TIP3    H1 9541   1.447   2.887   4.868
 3200TIP3    H2 9542   1.437   2.740   4.906
 3201TIP3   OH2 9543   2.911   6.758   1.225
 3201TIP3    H1 9544   2.825   6.752   1.267
 3201TIP3    H2 9545   2.935   6.667   1.207
 3202TIP3   OH2 9546   6.175   3.186   4.645
 3202TIP3    H1 9547   6.181   3.180   4.550
 3202TIP3    H2 9548   6.167   3.280   4.663
 3203TIP3   OH2 9549   3.690   7.454   1.165
 3203TIP3    H1 9550   3.692   7.360   1.145
 3203TIP3    H2 9551   3.687   7.458   1.260
 3204TIP3   OH2 9552   2.346   7.227   3.302
 3204TIP3    H1 9553   2.284   7.158   3.323
 3204TIP3    H2 9554   2.432   7.186   3.311
 3205TIP3   OH2 9555   1.074   0.199   3.770
 3205TIP3    H1 9556   0.984   0.212   3.800
 3205TIP3    H2 9557   1.105   0.123   3.820
 3206TIP3   OH2 9558   6.858   6.400   4.969
 3206TIP3    H1 9559   6.900   6.478   5.005
 3206TIP3    H2 9560   6.854   6.339   5.043
 3207TIP3   OH2 9561   1.142   7.662   1.503
 3207TIP3    H1 9562   1.103   7.692   1.585
 3207TIP3    H2 9563   1.131   7.736   1.443
 3208TIP3   OH2 9564   5.046   3.313   4.445
 3208TIP3    H1 9565   5.054   3.217   4.440
 3208TIP3    H2 9566   4.952   3.329   4.432
 3209TIP3   OH2 9567   5.133   3.311   2.448
 3209TIP3    H1 9568   5.076   3.234   2.445
 3209TIP3    H2 9569   5.194   3.299   2.376
 3210TIP3   OH2 9570   2.383   2.014   1.452
 3210TIP3    H1 9571   2.450   2.073   1.418
 3210TIP3    H2 9572   2.363   1.955   1.379
 3211TIP3   OH2 9573   0.243   4.333   1.751
 3211TIP3    H1 9574   0.282   4.331   1.838
 3211TIP3    H2 9575   0.285   4.261   1.704
 3212TIP3   OH2 9576   1.444   0.940   5.012
 3212TIP3    H1 9577   1.509   1.006   4.989
 3212TIP3    H2 9578   1.360   0.980   4.989
 3213TIP3   OH2 9579   7.830   3.741   4.098
 3213TIP3    H1 9580   7.905   3.779   4.144
 3213TIP3    H2 9581   7.809   3.804   4.029
 3214TIP3   OH2 9582   5.178   4.152   2.768
 3214TIP3    H1 9583   5.127   4.075   2.797
 3214TIP3    H2 9584   5.240   4.118   2.705
 3215TIP3   OH2 9585   5.342   5.404   1.836
 3215TIP3    H1 9586   5.349   5.477   1.897
 3215TIP3    H2 9587   5.325   5.445   1.751
 3216TIP3   OH2 9588   3.580   5.641   4.869
 3216TIP3    H1 9589   3.623   5.581   4.929
 3216TIP3    H2 9590   3.528   5.698   4.926
 3217TIP3   OH2 9591   1.887   3.138   1.572
 3217TIP3    H1 9592   1.894   3.175   1.660
 3217TIP3    H2 9593   1.977   3.121   1.546
 3218TIP3   OH2 9594   2.750   1.011   3.305
 3218TIP3    H1 9595   2.728   0.927   3.265
 3218TIP3    H2 9596   2.695   1.016   3.383
 3219TIP3   OH2 9597   1.462   3.839   5.889
 3219TIP3    H1 9598   1.540   3.788   5.868
 3219TIP3    H2 9599   1.448   3.823   5.983
 3220TIP3   OH2 9600   0.230   3.890   5.532
 3220TIP3    H1 9601   0.218   3.807   5.486
 3220TIP3    H2 9602   0.142   3.919   5.554
 3221TIP3   OH2 9603   1.638   3.347   5.347
 3221TIP3    H1 9604   1.714   3.289   5.349
 3221TIP3    H2 9605   1.580   3.314   5.415
 3222TIP3   OH2 9606   4.067   6.795   6.035
 3222TIP3    H1 9607   4.072   6.839   5.951
 3222TIP3    H2 9608   4.030   6.861   6.094
 3223TIP3   OH2 9609   4.996   6.484   3.394
 3223TIP3    H1 9610   4.985   6.483   3.489
 3223TIP3    H2 9611   4.910   6.458   3.360
 3224TIP3   OH2 9612   0.134   6.794   6.423
 3224TIP3    H1 9613   0.174   6.751   6.348
 3224TIP3    H2 9614   0.041   6.804   6.399
 3225TIP3   OH2 9615   2.564   4.358   1.118
 3225TIP3    H1 9616   2.471   4.372   1.100
 3225TIP3    H2 9617   2.606   4.358   1.031
 3226TIP3   OH2 9618   6.263   0.370   6.752
 3226TIP3    H1 9619   6.354   0.373   6.781
 3226TIP3    H2 9620   6.239   0.462   6.738
 3227TIP3   OH2 9621   5.497   5.698   0.591
 3227TIP3    H1 9622   5.530   5.692   0.681
 3227TIP3    H2 9623   5.546   5.632   0.542
 3228TIP3   OH2 9624   2.682   4.709   1.732
 3228TIP3    H1 9625   2.682   4.667   1.818
 3228TIP3    H2 9626   2.765   4.684   1.692
 3229TIP3   OH2 9627   6.059   4.816   3.806
 3229TIP3    H1 9628   6.048   4.881   3.736
 3229TIP3    H2 9629   5.969   4.796   3.834
 3230TIP3   OH2 9630   4.742   0.742   1.164
 3230TIP3    H1 9631   4.680   0.698   1.106
 3230TIP3    H2 9632   4.794   0.671   1.202
 3231TIP3   OH2 9633   3.577   2.603   4.748
 3231TIP3    H1 9634   3.622   2.559   4.676
 3231TIP3    H2 9635   3.644   2.657   4.789
 3232TIP3   OH2 9636   6.084   3.833   4.109
 3232TIP3    H1 9637   6.109   3.816   4.200
 3232TIP3    H2 9638   6.041   3.752   4.081
 3233TIP3   OH2 9639   6.780   2.251   5.300
 3233TIP3    H1 9640   6.797   2.339   5.268
 3233TIP3    H2 9641   6.806   2.193   5.228
 3234TIP3   OH2 9642   8.128   4.194   3.952
 3234TIP3    H1 9643   8.134   4.195   3.857
 3234TIP3    H2 9644   8.169   4.111   3.978
 3235TIP3   OH2 9645   3.133   0.852   5.497
 3235TIP3    H1 9646   3.152   0.827   5.587
 3235TIP3    H2 9647   3.056   0.802   5.473
 3236TIP3   OH2 9648   4.253   5.507   5.938
 3236TIP3    H1 9649   4.257   5.434   5.999
 3236TIP3    H2 9650   4.171   5.495   5.891
 3237TIP3   OH2 9651   0.614   4.169   5.236
 3237TIP3    H1 9652   0.658   4.093   5.197
 3237TIP3    H2 9653   0.536   4.133   5.277
 3238TIP3   OH2 9654   4.058   2.724   5.317
 3238TIP3    H1 9655   4.133   2.749   5.263
 3238TIP3    H2 9656   4.094   2.716   5.406
 3239TIP3   OH2 9657   5.172   1.675   5.762
 3239TIP3    H1 9658   5.079   1.688   5.777
 3239TIP3    H2 9659   5.187   1.582   5.780
 3240TIP3   OH2 9660   6.266   3.033   5.091
 3240TIP3    H1 9661   6.207   3.081   5.150
 3240TIP3    H2 9662   6.214   3.018   5.012
 3241TIP3   OH2 9663   7.523   5.361   3.632
 3241TIP3    H1 9664   7.513   5.302   3.558
 3241TIP3    H2 9665   7.586   5.318   3.689
 3242TIP3   OH2 9666   3.097   5.663   5.269
 3242TIP3    H1 9667   3.126   5.592   5.325
 3242TIP3    H2 9668   3.087   5.738   5.327
 3243TIP3   OH2 9669   1.861   3.357   2.799
 3243TIP3    H1 9670   1.796   3.298   2.760
 3243TIP3    H2 9671   1.940   3.343   2.748
 3244TIP3   OH2 9672   6.816   7.931   3.943
 3244TIP3    H1 9673   6.885   7.946   4.008
 3244TIP3    H2 9674   6.791   7.840   3.955
 3245TIP3   OH2 9675   4.403   0.161   4.959
 3245TIP3    H1 9676   4.416   0.128   5.048
 3245TIP3    H2 9677   4.488   0.149   4.916
 3246TIP3   OH2 9678   2.238   4.136   2.892
 3246TIP3    H1 9679   2.247   4.072   2.962
 3246TIP3    H2 9680   2.145   4.157   2.890
 3247TIP3   OH2 9681   6.141   4.426   4.621
 3247TIP3    H1 9682   6.055   4.401   4.653
 3247TIP3    H2 9683   6.192   4.446   4.699
 3248TIP3   OH2 9684   6.667   0.201   5.208
 3248TIP3    H1 9685   6.688   0.140   5.278
 3248TIP3    H2 9686   6.650   0.284   5.253
 3249TIP3   OH2 9687   3.057   3.430   4.902
 3249TIP3    H1 9688   3.026   3.431   4.993
 3249TIP3    H2 9689   3.138   3.379   4.905
 3250TIP3   OH2 9690   3.951   7.342   4.048
 3250TIP3    H1 9691   4.027   7.397   4.069
 3250TIP3    H2 9692   3.879   7.381   4.097
 3251TIP3   OH2 9693   4.330   2.160   6.565
 3251TIP3    H1 9694   4.247   2.199   6.594
 3251TIP3    H2 9695   4.337   2.079   6.616
 3252TIP3   OH2 9696   7.287   5.578   0.662
 3252TIP3    H1 9697   7.253   5.515   0.599
 3252TIP3    H2 9698   7.210   5.606   0.712
 3253TIP3   OH2 9699   6.726   1.685   0.559
 3253TIP3    H1 9700   6.807   1.692   0.608
 3253TIP3    H2 9701   6.750   1.706   0.469
 3254TIP3   OH2 9702   6.427   5.120   2.517
 3254TIP3    H1 9703   6.472   5.036   2.525
 3254TIP3    H2 9704   6.494   5.180   2.485
 3255TIP3   OH2 9705   1.844   6.677   5.513
 3255TIP3    H1 9706   1.802   6.741   5.456
 3255TIP3    H2 9707   1.910   6.726   5.561
 3256TIP3   OH2 9708   6.560   5.394   5.631
 3256TIP3    H1 9709   6.647   5.412   5.666
 3256TIP3    H2 9710   6.539   5.306   5.661
 3257TIP3   OH2 9711   6.597   0.832   6.422
 3257TIP3    H1 9712   6.570   0.745   6.394
 3257TIP3    H2 9713   6.596   0.885   6.342
 3258TIP3   OH2 9714   0.480   3.201   6.532
 3258TIP3    H1 9715   0.403   3.241   6.491
 3258TIP3    H2 9716   0.452   3.112   6.552
 3259TIP3   OH2 9717   0.625   5.758   0.300
 3259TIP3    H1 9718   0.587   5.845   0.311
 3259TIP3    H2 9719   0.712   5.774   0.263
 3260TIP3   OH2 9720   0.180   3.374   3.149
 3260TIP3    H1 9721   0.236   3.300   3.172
 3260TIP3    H2 9722   0.102   3.335   3.111
 3261TIP3   OH2 9723   2.769   4.105   5.256
 3261TIP3    H1 9724   2.766   4.191   5.214
 3261TIP3    H2 9725   2.708   4.113   5.330
 3262TIP3   OH2 9726   6.639   7.318  -0.002
 3262TIP3    H1 9727   6.724   7.354  -0.025
 3262TIP3    H2 9728   6.650   7.285   0.087
 3263TIP3   OH2 9729   1.262   5.134   1.307
 3263TIP3    H1 9730   1.225   5.047   1.321
 3263TIP3    H2 9731   1.331   5.141   1.372
 3264TIP3   OH2 9732   0.538   2.588   0.896
 3264TIP3    H1 9733   0.566   2.517   0.839
 3264TIP3    H2 9734   0.615   2.645   0.904
 3265TIP3   OH2 9735   7.822   6.307   3.891
 3265TIP3    H1 9736   7.852   6.397   3.901
 3265TIP3    H2 9737   7.749   6.300   3.953
 3266TIP3   OH2 9738   1.269   0.066   3.259
 3266TIP3    H1 9739   1.267   0.096   3.350
 3266TIP3    H2 9740   1.331  -0.008   3.260
 3267TIP3   OH2 9741   1.808   5.159   3.790
 3267TIP3    H1 9742   1.724   5.198   3.766
 3267TIP3    H2 9743   1.852   5.144   3.707
 3268TIP3   OH2 9744   1.332   3.904   1.809
 3268TIP3    H1 9745   1.267   3.834   1.816
 3268TIP3    H2 9746   1.339   3.922   1.716
 3269TIP3   OH2 9747   6.384   6.087   1.946
 3269TIP3    H1 9748   6.452   6.138   1.990
 3269TIP3    H2 9749   6.359   6.141   1.871
 3270TIP3   OH2 9750   2.017   2.565   1.281
 3270TIP3    H1 9751   1.941   2.533   1.232
 3270TIP3    H2 9752   2.092   2.525   1.238
 3271TIP3   OH2 9753   7.657   1.334   3.080
 3271TIP3    H1 9754   7.609   1.360   3.002
 3271TIP3    H2 9755   7.680   1.242   3.066
 3272TIP3   OH2 9756   0.235   5.343   0.575
 3272TIP3    H1 9757   0.159   5.362   0.630
 3272TIP3    H2 9758   0.235   5.248   0.565
 3273TIP3   OH2 9759   6.498   2.162   6.279
 3273TIP3    H1 9760   6.524   2.119   6.360
 3273TIP3    H2 9761   6.549   2.243   6.277
 3274TIP3   OH2 9762   8.269   0.765   3.076
 3274TIP3    H1 9763   8.363   0.774   3.058
 3274TIP3    H2 9764   8.227   0.782   2.992
 3275TIP3   OH2 9765   0.352   0.076   4.298
 3275TIP3    H1 9766   0.273   0.110   4.257
 3275TIP3    H2 9767   0.338   0.088   4.392
 3276TIP3   OH2 9768   2.452   2.094   3.454
 3276TIP3    H1 9769   2.418   2.008   3.432
 3276TIP3    H2 9770   2.537   2.098   3.410
 3277TIP3   OH2 9771   6.706   6.698   1.083
 3277TIP3    H1 9772   6.718   6.789   1.110
 3277TIP3    H2 9773   6.794   6.668   1.060
 3278TIP3   OH2 9774   4.509   1.108   5.198
 3278TIP3    H1 9775   4.519   1.194   5.240
 3278TIP3    H2 9776   4.512   1.045   5.270
 3279TIP3   OH2 9777   1.678   0.618   2.096
 3279TIP3    H1 9778   1.611   0.561   2.057
 3279TIP3    H2 9779   1.756   0.563   2.101
 3280TIP3   OH2 9780   1.401   4.139   0.650
 3280TIP3    H1 9781   1.371   4.230   0.654
 3280TIP3    H2 9782   1.468   4.133   0.717
 3281TIP3   OH2 9783   3.996   0.155   3.211
 3281TIP3    H1 9784   3.929   0.154   3.279
 3281TIP3    H2 9785   4.020   0.063   3.200
 3282TIP3   OH2 9786   7.908   3.099   1.477
 3282TIP3    H1 9787   7.923   3.142   1.393
 3282TIP3    H2 9788   7.906   3.006   1.455
 3283TIP3   OH2 9789   2.706   1.352   6.135
 3283TIP3    H1 9790   2.706   1.268   6.182
 3283TIP3    H2 9791   2.766   1.338   6.061
 3284TIP3   OH2 9792   0.675   2.455   4.680
 3284TIP3    H1 9793   0.634   2.368   4.681
 3284TIP3    H2 9794   0.643   2.496   4.600
 3285TIP3   OH2 9795   3.025   7.386   3.134
 3285TIP3    H1 9796   3.057   7.303   3.098
 3285TIP3    H2 9797   3.072   7.396   3.217
 3286TIP3   OH2 9798   3.539   2.695   1.128
 3286TIP3    H1 9799   3.572   2.721   1.042
 3286TIP3    H2 9800   3.448   2.725   1.129
 3287TIP3   OH2 9801   0.522   0.798   4.584
 3287TIP3    H1 9802   0.439   0.810   4.538
 3287TIP3    H2 9803   0.561   0.720   4.543
 3288TIP3   OH2 9804   2.706   2.364   2.150
 3288TIP3    H1 9805   2.706   2.297   2.081
 3288TIP3    H2 9806   2.620   2.406   2.143
 3289TIP3   OH2 9807   0.989   0.690   0.581
 3289TIP3    H1 9808   1.012   0.746   0.507
 3289TIP3    H2 9809   0.990   0.601   0.545
 3290TIP3   OH2 9810   4.487   0.023   6.101
 3290TIP3    H1 9811   4.571   0.023   6.055
 3290TIP3    H2 9812   4.439  -0.051   6.063
 3291TIP3   OH2 9813   6.968   7.033   1.824
 3291TIP3    H1 9814   6.924   7.116   1.808
 3291TIP3    H2 9815   7.020   7.018   1.745
 3292TIP3   OH2 9816   1.746   7.573   5.449
 3292TIP3    H1 9817   1.780   7.653   5.407
 3292TIP3    H2 9818   1.754   7.590   5.543
 3293TIP3   OH2 9819   7.739   7.123   5.375
 3293TIP3    H1 9820   7.660   7.154   5.331
 3293TIP3    H2 9821   7.797   7.096   5.304
 3294TIP3   OH2 9822   7.735   2.371   6.192
 3294TIP3    H1 9823   7.735   2.442   6.256
 3294TIP3    H2 9824   7.646   2.370   6.157
 3295TIP3   OH2 9825   4.720   5.561   6.841
 3295TIP3    H1 9826   4.643   5.617   6.846
 3295TIP3    H2 9827   4.730   5.542   6.748
 3296TIP3   OH2 9828   6.745   5.032   1.572
 3296TIP3    H1 9829   6.734   4.947   1.530
 3296TIP3    H2 9830   6.840   5.044   1.579
 3297TIP3   OH2 9831   2.896   4.358   1.519
 3297TIP3    H1 9832   2.854   4.423   1.462
 3297TIP3    H2 9833   2.865   4.274   1.486
 3298TIP3   OH2 9834   1.953   0.714   3.942
 3298TIP3    H1 9835   1.871   0.707   3.894
 3298TIP3    H2 9836   2.006   0.640   3.910
 3299TIP3   OH2 9837   5.722   6.401   5.033
 3299TIP3    H1 9838   5.792   6.342   5.061
 3299TIP3    H2 9839   5.765   6.464   4.976
 3300TIP3   OH2 9840   2.382   7.026   0.657
 3300TIP3    H1 9841   2.305   6.971   0.648
 3300TIP3    H2 9842   2.363   7.082   0.731
 3301TIP3   OH2 9843   6.647   2.942   1.875
 3301TIP3    H1 9844   6.705   2.913   1.945
 3301TIP3    H2 9845   6.666   2.884   1.802
 3302TIP3   OH2 9846   4.195   2.402   2.664
 3302TIP3    H1 9847   4.267   2.382   2.723
 3302TIP3    H2 9848   4.218   2.486   2.625
 3303TIP3   OH2 9849   1.493   4.984   6.730
 3303TIP3    H1 9850   1.557   5.024   6.671
 3303TIP3    H2 9851   1.489   5.044   6.805
 3304TIP3   OH2 9852   5.087   4.020   3.140
 3304TIP3    H1 9853   5.016   4.004   3.078
 3304TIP3    H2 9854   5.088   3.942   3.196
 3305TIP3   OH2 9855   7.540   1.185   0.334
 3305TIP3    H1 9856   7.627   1.178   0.375
 3305TIP3    H2 9857   7.532   1.278   0.311
 3306TIP3   OH2 9858   3.169   0.076   2.735
 3306TIP3    H1 9859   3.083   0.117   2.723
 3306TIP3    H2 9860   3.184   0.028   2.654
 3307TIP3   OH2 9861   7.254   5.464   1.021
 3307TIP3    H1 9862   7.288   5.430   1.104
 3307TIP3    H2 9863   7.329   5.505   0.979
 3308TIP3   OH2 9864   6.492   4.049   4.038
 3308TIP3    H1 9865   6.566   4.028   4.095
 3308TIP3    H2 9866   6.426   3.983   4.060
 3309TIP3   OH2 9867   4.827   0.315   3.358
 3309TIP3    H1 9868   4.828   0.280   3.447
 3309TIP3    H2 9869   4.844   0.240   3.302
 3310TIP3   OH2 9870   4.850   0.610   0.568
 3310TIP3    H1 9871   4.838   0.533   0.512
 3310TIP3    H2 9872   4.762   0.644   0.582
 3311TIP3   OH2 9873   1.810   7.146   4.939
 3311TIP3    H1 9874   1.853   7.171   5.021
 3311TIP3    H2 9875   1.718   7.131   4.964
 3312TIP3   OH2 9876   7.243   3.278   1.626
 3312TIP3    H1 9877   7.279   3.215   1.564
 3312TIP3    H2 9878   7.156   3.244   1.647
 3313TIP3   OH2 9879   7.550   0.876   2.376
 3313TIP3    H1 9880   7.503   0.960   2.371
 3313TIP3    H2 9881   7.643   0.901   2.369
 3314TIP3   OH2 9882   1.245   6.269   3.494
 3314TIP3    H1 9883   1.307   6.211   3.540
 3314TIP3    H2 9884   1.235   6.229   3.408
 3315TIP3   OH2 9885   1.065   4.825   2.112
 3315TIP3    H1 9886   1.141   4.876   2.139
 3315TIP3    H2 9887   1.086   4.795   2.024
 3316TIP3   OH2 9888   3.881   4.301   0.118
 3316TIP3    H1 9889   3.856   4.375   0.062
 3316TIP3    H2 9890   3.802   4.281   0.168
 3317TIP3   OH2 9891   2.601   1.095   3.025
 3317TIP3    H1 9892   2.611   1.072   3.118
 3317TIP3    H2 9893   2.512   1.067   3.003
 3318TIP3   OH2 9894   6.560   0.195   0.381
 3318TIP3    H1 9895   6.646   0.206   0.341
 3318TIP3    H2 9896   6.506   0.154   0.313
 3319TIP3   OH2 9897   6.854   3.804   3.564
 3319TIP3    H1 9898   6.789   3.776   3.500
 3319TIP3    H2 9899   6.808   3.805   3.648
 3320TIP3   OH2 9900   5.748   3.213   0.565
 3320TIP3    H1 9901   5.748   3.119   0.582
 3320TIP3    H2 9902   5.825   3.228   0.511
 3321TIP3   OH2 9903   0.783   3.954   5.229
 3321TIP3    H1 9904   0.829   3.935   5.312
 3321TIP3    H2 9905   0.756   3.868   5.197
 3322TIP3   OH2 9906   1.220   4.354   5.505
 3322TIP3    H1 9907   1.181   4.378   5.421
 3322TIP3    H2 9908   1.223   4.258   5.504
 3323TIP3   OH2 9909   5.900   5.154   5.658
 3323TIP3    H1 9910   5.838   5.166   5.730
 3323TIP3    H2 9911   5.879   5.225   5.596
 3324TIP3   OH2 9912   3.197   7.120   6.531
 3324TIP3    H1 9913   3.205   7.212   6.503
 3324TIP3    H2 9914   3.117   7.119   6.584
 3325TIP3   OH2 9915   1.251   2.650   2.857
 3325TIP3    H1 9916   1.202   2.643   2.940
 3325TIP3    H2 9917   1.238   2.566   2.814
 3326TIP3   OH2 9918   3.968   3.393   6.329
 3326TIP3    H1 9919   3.943   3.484   6.344
 3326TIP3    H2 9920   3.896   3.341   6.365
 3327TIP3   OH2 9921   1.331   1.841   3.902
 3327TIP3    H1 9922   1.307   1.872   3.814
 3327TIP3    H2 9923   1.391   1.907   3.935
 3328TIP3   OH2 9924   0.467   0.258   1.417
 3328TIP3    H1 9925   0.537   0.313   1.452
 3328TIP3    H2 9926   0.391   0.278   1.471
 3329TIP3   OH2 9927   3.474   3.929   2.554
 3329TIP3    H1 9928   3.559   3.896   2.583
 3329TIP3    H2 9929   3.479   4.024   2.565
 3330TIP3   OH2 9930   0.804   6.258   5.835
 3330TIP3    H1 9931   0.731   6.213   5.879
 3330TIP3    H2 9932   0.782   6.351   5.841
 3331TIP3   OH2 9933   7.357   0.076   6.165
 3331TIP3    H1 9934   7.375   0.064   6.259
 3331TIP3    H2 9935   7.306  -0.001   6.140
 3332TIP3   OH2 9936   1.478   4.278   2.005
 3332TIP3    H1 9937   1.495   4.302   2.096
 3332TIP3    H2 9938   1.387   4.247   2.006
 3333TIP3   OH2 9939   5.101   3.900   1.592
 3333TIP3    H1 9940   5.133   3.899   1.502
 3333TIP3    H2 9941   5.010   3.871   1.585
 3334TIP3   OH2 9942   7.913   4.838   3.490
 3334TIP3    H1 9943   7.984   4.777   3.468
 3334TIP3    H2 9944   7.910   4.837   3.586
 3335TIP3   OH2 9945   0.312   2.931   2.806
 3335TIP3    H1 9946   0.328   2.842   2.776
 3335TIP3    H2 9947   0.285   2.979   2.727
 3336TIP3   OH2 9948   2.380   6.540   0.270
 3336TIP3    H1 9949   2.359   6.473   0.335
 3336TIP3    H2 9950   2.415   6.491   0.195
 3337TIP3   OH2 9951   5.520   4.843   2.499
 3337TIP3    H1 9952   5.491   4.798   2.419
 3337TIP3    H2 9953   5.476   4.928   2.495
 3338TIP3   OH2 9954   6.063   0.042   5.162
 3338TIP3    H1 9955   6.150   0.080   5.174
 3338TIP3    H2 9956   6.029   0.084   5.083
 3339TIP3   OH2 9957   6.211   1.966   3.638
 3339TIP3    H1 9958   6.185   1.942   3.728
 3339TIP3    H2 9959   6.307   1.967   3.640
 3340TIP3   OH2 9960   3.054   1.611   1.943
 3340TIP3    H1 9961   3.148   1.592   1.948
 3340TIP3    H2 9962   3.042   1.651   1.857
 3341TIP3   OH2 9963   8.359   2.455   0.290
 3341TIP3    H1 9964   8.313   2.520   0.238
 3341TIP3    H2 9965   8.301   2.378   0.289
 3342TIP3   OH2 9966   6.192   1.501   1.295
 3342TIP3    H1 9967   6.235   1.506   1.380
 3342TIP3    H2 9968   6.226   1.577   1.246
 3343TIP3   OH2 9969   2.729   3.870   3.544
 3343TIP3    H1 9970   2.758   3.781   3.524
 3343TIP3    H2 9971   2.786   3.926   3.491
 3344TIP3   OH2 9972   1.566   6.882   6.299
 3344TIP3    H1 9973   1.589   6.865   6.390
 3344TIP3    H2 9974   1.531   6.971   6.300
 3345TIP3   OH2 9975   2.137   0.377   4.302
 3345TIP3    H1 9976   2.151   0.419   4.386
 3345TIP3    H2 9977   2.067   0.313   4.317
 3346TIP3   OH2 9978   2.189   5.715   6.373
 3346TIP3    H1 9979   2.218   5.664   6.449
 3346TIP3    H2 9980   2.154   5.796   6.410
 3347TIP3   OH2 9981   5.928   1.655   3.585
 3347TIP3    H1 9982   5.938   1.744   3.552
 3347TIP3    H2 9983   6.017   1.618   3.579
 3348TIP3   OH2 9984   6.021   5.178   4.384
 3348TIP3    H1 9985   6.113   5.151   4.387
 3348TIP3    H2 9986   5.989   5.143   4.301
 3349TIP3   OH2 9987   5.106   5.659   5.697
 3349TIP3    H1 9988   5.115   5.574   5.655
 3349TIP3    H2 9989   5.037   5.703   5.648
 3350TIP3   OH2 9990   0.952   7.800   2.830
 3350TIP3    H1 9991   0.896   7.877   2.822
 3350TIP3    H2 9992   0.950   7.760   2.743
 3351TIP3   OH2 9993   0.142   3.296   4.400
 3351TIP3    H1 9994   0.047   3.283   4.405
 3351TIP3    H2 9995   0.153   3.391   4.396
 3352TIP3   OH2 9996   7.383   6.112   0.866
 3352TIP3    H1 9997   7.325   6.038   0.886
 3352TIP3    H2 9998   7.394   6.157   0.950
 3353TIP3   OH2 9999   6.069   6.052   5.677
 3353TIP3    H110000   6.158   6.060   5.640
 3353TIP3    H210001   6.018   6.013   5.607
 3354TIP3   OH210002   1.350   2.708   0.430
 3354TIP3    H110003   1.316   2.701   0.341
 3354TIP3    H210004   1.281   2.671   0.485
 3355TIP3   OH210005   3.269   7.903   0.900
 3355TIP3    H110006   3.363   7.884   0.899
 3355TIP3    H210007   3.230   7.829   0.853
 3356TIP3   OH210008   6.146   5.433   2.643
 3356TIP3    H110009   6.192   5.483   2.575
 3356TIP3    H210010   6.156   5.486   2.722
 3357TIP3   OH210011   6.713   2.042   3.417
 3357TIP3    H110012   6.713   1.950   3.443
 3357TIP3    H210013   6.798   2.055   3.375
 3358TIP3   OH210014   4.036   7.750   3.442
 3358TIP3    H110015   4.000   7.717   3.524
 3358TIP3    H210016   3.960   7.786   3.395
 3359TIP3   OH210017   3.583   1.933   6.851
 3359TIP3    H110018   3.588   1.838   6.850
 3359TIP3    H210019   3.489   1.952   6.863
 3360TIP3   OH210020   4.681   0.340   4.196
 3360TIP3    H110021   4.707   0.426   4.229
 3360TIP3    H210022   4.620   0.358   4.125
 3361TIP3   OH210023   1.858   4.754   6.743
 3361TIP3    H110024   1.943   4.724   6.711
 3361TIP3    H210025   1.867   4.753   6.839
 3362TIP3   OH210026   3.198   0.787   4.582
 3362TIP3    H110027   3.142   0.713   4.560
 3362TIP3    H210028   3.182   0.851   4.514
 3363TIP3   OH210029   3.141   3.916   1.598
 3363TIP3    H110030   3.052   3.908   1.563
 3363TIP3    H210031   3.193   3.856   1.545
 3364TIP3   OH210032   8.347   4.398   0.935
 3364TIP3    H110033   8.394   4.429   1.012
 3364TIP3    H210034   8.361   4.466   0.869
 3365TIP3   OH210035   1.125   0.141   6.646
 3365TIP3    H110036   1.075   0.094   6.579
 3365TIP3    H210037   1.106   0.233   6.630
 3366TIP3   OH210038   2.726   7.455   1.759
 3366TIP3    H110039   2.655   7.397   1.730
 3366TIP3    H210040   2.683   7.539   1.773
 3367TIP3   OH210041   6.780   2.316   1.227
 3367TIP3    H110042   6.751   2.266   1.151
 3367TIP3    H210043   6.724   2.286   1.299
 3368TIP3   OH210044   5.737   2.472   5.964
 3368TIP3    H110045   5.723   2.409   6.035
 3368TIP3    H210046   5.790   2.424   5.900
 3369TIP3   OH210047   3.235   6.319   2.596
 3369TIP3    H110048   3.159   6.334   2.541
 3369TIP3    H210049   3.282   6.402   2.597
 3370TIP3   OH210050   6.962   4.163   4.870
 3370TIP3    H110051   6.973   4.074   4.903
 3370TIP3    H210052   6.912   4.153   4.789
 3371TIP3   OH210053   3.301   4.140   6.024
 3371TIP3    H110054   3.331   4.129   5.934
 3371TIP3    H210055   3.308   4.052   6.062
 3372TIP3   OH210056   0.058   0.991   3.613
 3372TIP3    H110057  -0.010   1.059   3.609
 3372TIP3    H210058   0.123   1.019   3.548
 3373TIP3   OH210059   5.092   3.885   2.560
 3373TIP3    H110060   5.145   3.893   2.640
 3373TIP3    H210061   5.122   3.803   2.520
 3374TIP3   OH210062   0.939   0.470   2.028
 3374TIP3    H110063   0.932   0.497   1.937
 3374TIP3    H210064   0.864   0.511   2.071
 3375TIP3   OH210065   5.481   7.276   6.255
 3375TIP3    H110066   5.539   7.202   6.237
 3375TIP3    H210067   5.410   7.267   6.191
 3376TIP3   OH210068   3.503   4.420   3.062
 3376TIP3    H110069   3.508   4.398   2.968
 3376TIP3    H210070   3.567   4.362   3.103
 3377TIP3   OH210071   2.010   2.847   6.298
 3377TIP3    H110072   1.920   2.818   6.313
 3377TIP3    H210073   2.009   2.882   6.209
 3378TIP3   OH210074   7.030   5.628   1.016
 3378TIP3    H110075   6.959   5.591   1.069
 3378TIP3    H210076   7.103   5.567   1.029
 3379TIP3   OH210077   6.079   7.157   0.156
 3379TIP3    H110078   6.134   7.081   0.171
 3379TIP3    H210079   6.108   7.191   0.071
 3380TIP3   OH210080   7.835   6.083   1.437
 3380TIP3    H110081   7.886   6.024   1.381
 3380TIP3    H210082   7.880   6.081   1.521
 3381TIP3   OH210083   1.857   5.765   0.013
 3381TIP3    H110084   1.894   5.677   0.001
 3381TIP3    H210085   1.933   5.824   0.005
 3382TIP3   OH210086   8.369  -0.019   4.878
 3382TIP3    H110087   8.431   0.035   4.927
 3382TIP3    H210088   8.284   0.022   4.893
 3383TIP3   OH210089   4.307   2.324   4.164
 3383TIP3    H110090   4.212   2.328   4.160
 3383TIP3    H210091   4.332   2.264   4.093
 3384TIP3   OH210092   8.058   2.377   2.711
 3384TIP3    H110093   8.112   2.453   2.734
 3384TIP3    H210094   8.090   2.348   2.626
 3385TIP3   OH210095   0.368   6.802   2.094
 3385TIP3    H110096   0.406   6.805   2.182
 3385TIP3    H210097   0.303   6.731   2.099
 3386TIP3   OH210098   5.798   3.187   2.699
 3386TIP3    H110099   5.727   3.155   2.643
 3386TIP3    H210100   5.878   3.161   2.653
 3387TIP3   OH210101   8.125   3.571   3.007
 3387TIP3    H110102   8.115   3.546   2.915
 3387TIP3    H210103   8.040   3.608   3.031
 3388TIP3   OH210104   4.330   5.506   0.987
 3388TIP3    H110105   4.421   5.532   0.997
 3388TIP3    H210106   4.281   5.571   1.037
 3389TIP3   OH210107   5.909   5.981   4.706
 3389TIP3    H110108   5.999   6.013   4.705
 3389TIP3    H210109   5.876   5.999   4.618
 3390TIP3   OH210110   5.944   2.314   3.947
 3390TIP3    H110111   6.015   2.291   3.888
 3390TIP3    H210112   5.947   2.247   4.016
 3391TIP3   OH210113   2.123   5.697   5.001
 3391TIP3    H110114   2.110   5.606   4.974
 3391TIP3    H210115   2.045   5.718   5.053
 3392TIP3   OH210116   7.590   5.023   0.165
 3392TIP3    H110117   7.536   5.040   0.087
 3392TIP3    H210118   7.590   5.105   0.213
 3393TIP3   OH210119   6.649   7.927   0.540
 3393TIP3    H110120   6.691   7.849   0.506
 3393TIP3    H210121   6.604   7.897   0.619
 3394TIP3   OH210122   1.749   3.473   3.269
 3394TIP3    H110123   1.732   3.516   3.352
 3394TIP3    H210124   1.804   3.398   3.291
 3395TIP3   OH210125   6.508   4.722   5.027
 3395TIP3    H110126   6.453   4.754   4.955
 3395TIP3    H210127   6.569   4.794   5.043
 3396TIP3   OH210128   3.519   0.689   3.977
 3396TIP3    H110129   3.612   0.707   3.964
 3396TIP3    H210130   3.515   0.643   4.061
 3397TIP3   OH210131   7.135   1.488   0.461
 3397TIP3    H110132   7.145   1.545   0.384
 3397TIP3    H210133   7.174   1.405   0.433
 3398TIP3   OH210134   7.368   4.712   4.902
 3398TIP3    H110135   7.379   4.697   4.996
 3398TIP3    H210136   7.407   4.635   4.861
 3399TIP3   OH210137   7.225   6.720   6.714
 3399TIP3    H110138   7.295   6.781   6.692
 3399TIP3    H210139   7.253   6.637   6.676
 3400TIP3   OH210140   0.694   1.519   6.685
 3400TIP3    H110141   0.778   1.483   6.713
 3400TIP3    H210142   0.693   1.608   6.720
 3401TIP3   OH210143   2.893   2.594   0.259
 3401TIP3    H110144   2.924   2.665   0.315
 3401TIP3    H210145   2.963   2.583   0.193
 3402TIP3   OH210146   3.453   6.035   4.225
 3402TIP3    H110147   3.486   6.112   4.178
 3402TIP3    H210148   3.382   6.002   4.170
 3403TIP3   OH210149   6.627   0.385   3.923
 3403TIP3    H110150   6.614   0.391   4.018
 3403TIP3    H210151   6.547   0.342   3.891
 3404TIP3   OH210152   7.003   1.972   1.382
 3404TIP3    H110153   6.977   2.005   1.468
 3404TIP3    H210154   7.001   1.877   1.391
 3405TIP3   OH210155   0.835   0.074   3.997
 3405TIP3    H110156   0.757   0.099   4.048
 3405TIP3    H210157   0.908   0.105   4.049
 3406TIP3   OH210158   7.222   6.428   2.469
 3406TIP3    H110159   7.190   6.392   2.551
 3406TIP3    H210160   7.317   6.429   2.479
 3407TIP3   OH210161   1.545   3.503   4.475
 3407TIP3    H110162   1.555   3.597   4.488
 3407TIP3    H210163   1.564   3.465   4.561
 3408TIP3   OH210164   7.176   6.395   2.957
 3408TIP3    H110165   7.232   6.472   2.954
 3408TIP3    H210166   7.096   6.425   2.999
 3409TIP3   OH210167   7.472   2.404   6.016
 3409TIP3    H110168   7.489   2.494   5.989
 3409TIP3    H210169   7.398   2.411   6.077
 3410TIP3   OH210170   0.437   0.033   5.401
 3410TIP3    H110171   0.527   0.060   5.422
 3410TIP3    H210172   0.391   0.039   5.485
 3411TIP3   OH210173   0.181   2.404   0.422
 3411TIP3    H110174   0.098   2.420   0.377
 3411TIP3    H210175   0.157   2.352   0.499
 3412TIP3   OH210176   4.289   3.280   2.438
 3412TIP3    H110177   4.288   3.318   2.350
 3412TIP3    H210178   4.370   3.230   2.442
 3413TIP3   OH210179   6.581   2.509   4.153
 3413TIP3    H110180   6.508   2.483   4.209
 3413TIP3    H210181   6.562   2.469   4.068
 3414TIP3   OH210182   5.216   1.918   3.404
 3414TIP3    H110183   5.177   1.924   3.492
 3414TIP3    H210184   5.271   1.840   3.408
 3415TIP3   OH210185   2.121   3.084   0.006
 3415TIP3    H110186   2.116   3.024   0.081
 3415TIP3    H210187   2.101   3.029  -0.070
 3416TIP3   OH210188   6.434   1.427   4.511
 3416TIP3    H110189   6.514   1.473   4.485
 3416TIP3    H210190   6.448   1.406   4.603
 3417TIP3   OH210191   0.986   1.735   2.026
 3417TIP3    H110192   1.004   1.821   1.987
 3417TIP3    H210193   0.910   1.749   2.083
 3418TIP3   OH210194   3.595   6.755   6.814
 3418TIP3    H110195   3.619   6.673   6.769
 3418TIP3    H210196   3.509   6.777   6.777
 3419TIP3   OH210197   5.027   2.300   3.904
 3419TIP3    H110198   5.042   2.266   3.992
 3419TIP3    H210199   4.954   2.248   3.869
 3420TIP3   OH210200   2.212   3.160   4.930
 3420TIP3    H110201   2.242   3.151   5.021
 3420TIP3    H210202   2.226   3.252   4.910
 3421TIP3   OH210203   1.468   5.994   1.993
 3421TIP3    H110204   1.424   5.931   2.049
 3421TIP3    H210205   1.439   6.079   2.025
 3422TIP3   OH210206   1.497   6.724   0.152
 3422TIP3    H110207   1.512   6.660   0.222
 3422TIP3    H210208   1.403   6.744   0.158
 3423TIP3   OH210209   5.096   6.536   2.894
 3423TIP3    H110210   5.128   6.511   2.807
 3423TIP3    H210211   5.174   6.568   2.939
 3424TIP3   OH210212   3.598   1.256   1.866
 3424TIP3    H110213   3.692   1.250   1.883
 3424TIP3    H210214   3.557   1.234   1.950
 3425TIP3   OH210215   0.760   3.528   0.013
 3425TIP3    H110216   0.855   3.522   0.008
 3425TIP3    H210217   0.738   3.612  -0.026
 3426TIP3   OH210218   8.317   2.849   4.460
 3426TIP3    H110219   8.354   2.787   4.523
 3426TIP3    H210220   8.269   2.912   4.514
 3427TIP3   OH210221   7.629   2.203   4.705
 3427TIP3    H110222   7.544   2.163   4.687
 3427TIP3    H210223   7.677   2.195   4.623
 3428TIP3   OH210224   7.361   3.344   6.808
 3428TIP3    H110225   7.414   3.385   6.876
 3428TIP3    H210226   7.396   3.379   6.726
 3429TIP3   OH210227   7.324   4.109   6.625
 3429TIP3    H110228   7.303   4.188   6.575
 3429TIP3    H210229   7.276   4.039   6.581
 3430TIP3   OH210230   0.348   4.538   1.109
 3430TIP3    H110231   0.369   4.448   1.135
 3430TIP3    H210232   0.253   4.545   1.122
 3431TIP3   OH210233   4.644   4.120   4.776
 3431TIP3    H110234   4.714   4.056   4.767
 3431TIP3    H210235   4.569   4.080   4.731
 3432TIP3   OH210236   2.715   2.587   5.873
 3432TIP3    H110237   2.636   2.568   5.822
 3432TIP3    H210238   2.762   2.504   5.876
 3433TIP3   OH210239   4.714   6.737   2.166
 3433TIP3    H110240   4.657   6.784   2.105
 3433TIP3    H210241   4.797   6.728   2.120
 3434TIP3   OH210242   6.475   4.560   1.617
 3434TIP3    H110243   6.551   4.511   1.588
 3434TIP3    H210244   6.418   4.564   1.540
 3435TIP3   OH210245   1.815   7.421   1.824
 3435TIP3    H110246   1.836   7.405   1.732
 3435TIP3    H210247   1.876   7.367   1.873
 3436TIP3   OH210248   3.812   3.739   4.609
 3436TIP3    H110249   3.818   3.704   4.699
 3436TIP3    H210250   3.855   3.824   4.614
 3437TIP3   OH210251   2.358   5.775   5.096
 3437TIP3    H110252   2.399   5.815   5.020
 3437TIP3    H210253   2.272   5.747   5.065
 3438TIP3   OH210254   6.329   7.137   6.387
 3438TIP3    H110255   6.372   7.148   6.302
 3438TIP3    H210256   6.266   7.209   6.392
 3439TIP3   OH210257   4.607   1.551   4.148
 3439TIP3    H110258   4.556   1.575   4.071
 3439TIP3    H210259   4.635   1.462   4.132
 3440TIP3   OH210260   6.018   0.628   5.372
 3440TIP3    H110261   5.985   0.625   5.462
 3440TIP3    H210262   6.007   0.539   5.340
 3441TIP3   OH210263   5.486   2.015   4.852
 3441TIP3    H110264   5.472   2.069   4.774
 3441TIP3    H210265   5.507   1.928   4.817
 3442TIP3   OH210266   3.929   3.751   5.266
 3442TIP3    H110267   3.921   3.742   5.171
 3442TIP3    H210268   3.947   3.844   5.280
 3443TIP3   OH210269   1.378   7.487   2.138
 3443TIP3    H110270   1.404   7.578   2.151
 3443TIP3    H210271   1.437   7.437   2.196
 3444TIP3   OH210272   2.470   7.096   5.139
 3444TIP3    H110273   2.487   7.102   5.045
 3444TIP3    H210274   2.552   7.064   5.177
 3445TIP3   OH210275   3.945   6.133   0.141
 3445TIP3    H110276   3.988   6.215   0.167
 3445TIP3    H210277   4.017   6.070   0.134
 3446TIP3   OH210278   1.150   6.252   2.875
 3446TIP3    H110279   1.231   6.300   2.858
 3446TIP3    H210280   1.139   6.258   2.970
 3447TIP3   OH210281   5.695   3.711   4.041
 3447TIP3    H110282   5.718   3.780   4.103
 3447TIP3    H210283   5.779   3.671   4.018
 3448TIP3   OH210284   7.526   7.477   5.355
 3448TIP3    H110285   7.603   7.524   5.322
 3448TIP3    H210286   7.513   7.512   5.443
 3449TIP3   OH210287   6.605   3.496   1.303
 3449TIP3    H110288   6.525   3.460   1.264
 3449TIP3    H210289   6.666   3.423   1.303
 3450TIP3   OH210290   5.618   6.952   2.538
 3450TIP3    H110291   5.620   7.006   2.616
 3450TIP3    H210292   5.549   6.992   2.483
 3451TIP3   OH210293   0.297   7.337   4.756
 3451TIP3    H110294   0.279   7.422   4.717
 3451TIP3    H210295   0.393   7.333   4.760
 3452TIP3   OH210296   2.199   0.910   1.977
 3452TIP3    H110297   2.132   0.851   2.012
 3452TIP3    H210298   2.168   0.997   1.999
 3453TIP3   OH210299   2.801   4.290   5.052
 3453TIP3    H110300   2.752   4.372   5.049
 3453TIP3    H210301   2.760   4.235   4.985
 3454TIP3   OH210302   4.362   7.128   0.621
 3454TIP3    H110303   4.351   7.083   0.537
 3454TIP3    H210304   4.417   7.204   0.600
 3455TIP3   OH210305   5.576   6.070   0.753
 3455TIP3    H110306   5.609   5.991   0.710
 3455TIP3    H210307   5.487   6.046   0.781
 3456TIP3   OH210308   7.028   0.275   3.555
 3456TIP3    H110309   7.055   0.195   3.510
 3456TIP3    H210310   7.106   0.304   3.601
 3457TIP3   OH210311   4.127   1.814   3.235
 3457TIP3    H110312   4.202   1.854   3.280
 3457TIP3    H210313   4.071   1.888   3.211
 3458TIP3   OH210314   6.369   5.124   0.523
 3458TIP3    H110315   6.395   5.132   0.431
 3458TIP3    H210316   6.331   5.209   0.545
 3459TIP3   OH210317   0.528   7.094   0.768
 3459TIP3    H110318   0.522   7.131   0.856
 3459TIP3    H210319   0.507   7.002   0.779
 3460TIP3   OH210320   3.652   1.629   2.672
 3460TIP3    H110321   3.655   1.538   2.702
 3460TIP3    H210322   3.652   1.681   2.752
 3461TIP3   OH210323   3.103   2.061   5.382
 3461TIP3    H110324   3.079   2.150   5.410
 3461TIP3    H210325   3.136   2.019   5.461
 3462TIP3   OH210326   6.545   6.893   6.314
 3462TIP3    H110327   6.490   6.873   6.390
 3462TIP3    H210328   6.483   6.893   6.240
 3463TIP3   OH210329   4.236   2.076   3.762
 3463TIP3    H110330   4.179   2.021   3.814
 3463TIP3    H210331   4.306   2.102   3.822
 3464TIP3   OH210332   2.261   0.192   5.706
 3464TIP3    H110333   2.351   0.203   5.675
 3464TIP3    H210334   2.266   0.120   5.769
 3465TIP3   OH210335   5.844   7.395   5.523
 3465TIP3    H110336   5.811   7.475   5.480
 3465TIP3    H210337   5.806   7.398   5.611
 3466TIP3   OH210338   4.091   1.036   0.376
 3466TIP3    H110339   3.999   1.019   0.356
 3466TIP3    H210340   4.132   1.049   0.290
 3467TIP3   OH210341   6.153   5.017   0.878
 3467TIP3    H110342   6.185   5.107   0.884
 3467TIP3    H210343   6.058   5.026   0.873
 3468TIP3   OH210344   3.267   4.360   0.880
 3468TIP3    H110345   3.211   4.437   0.889
 3468TIP3    H210346   3.323   4.380   0.805
 3469TIP3   OH210347   1.504   6.803   4.383
 3469TIP3    H110348   1.416   6.840   4.372
 3469TIP3    H210349   1.519   6.804   4.477
 3470TIP3   OH210350   0.620   4.541   1.432
 3470TIP3    H110351   0.668   4.507   1.508
 3470TIP3    H210352   0.531   4.552   1.464
 3471TIP3   OH210353   4.918   1.282   1.079
 3471TIP3    H110354   4.901   1.374   1.098
 3471TIP3    H210355   4.922   1.239   1.165
 3472TIP3   OH210356   6.079   1.519   4.212
 3472TIP3    H110357   6.062   1.449   4.149
 3472TIP3    H210358   6.031   1.493   4.290
 3473TIP3   OH210359   0.955   4.697   0.054
 3473TIP3    H110360   0.956   4.647  -0.028
 3473TIP3    H210361   1.048   4.713   0.074
 3474TIP3   OH210362   5.971   7.256   1.182
 3474TIP3    H110363   5.970   7.270   1.087
 3474TIP3    H210364   5.922   7.174   1.195
 3475TIP3   OH210365   3.853   4.657   6.022
 3475TIP3    H110366   3.850   4.672   5.928
 3475TIP3    H210367   3.762   4.655   6.050
 3476TIP3   OH210368   3.044   4.782   3.706
 3476TIP3    H110369   3.102   4.809   3.777
 3476TIP3    H210370   3.062   4.844   3.635
 3477TIP3   OH210371   5.316   3.168   4.381
 3477TIP3    H110372   5.248   3.162   4.448
 3477TIP3    H210373   5.355   3.080   4.379
 3478TIP3   OH210374   2.558   6.608   3.146
 3478TIP3    H110375   2.571   6.513   3.142
 3478TIP3    H210376   2.542   6.633   3.055
 3479TIP3   OH210377   3.600   0.283   2.102
 3479TIP3    H110378   3.638   0.282   2.190
 3479TIP3    H210379   3.561   0.370   2.093
 3480TIP3   OH210380   7.118   1.963   3.625
 3480TIP3    H110381   7.028   1.937   3.604
 3480TIP3    H210382   7.111   2.055   3.650
 3481TIP3   OH210383   6.246   0.756   4.996
 3481TIP3    H110384   6.233   0.714   4.910
 3481TIP3    H210385   6.185   0.830   4.995
 3482TIP3   OH210386   7.393   7.854   1.610
 3482TIP3    H110387   7.388   7.853   1.706
 3482TIP3    H210388   7.422   7.766   1.587
 3483TIP3   OH210389   1.898   1.144   0.520
 3483TIP3    H110390   1.870   1.235   0.508
 3483TIP3    H210391   1.987   1.141   0.486
 3484TIP3   OH210392   6.446   1.294   1.683
 3484TIP3    H110393   6.429   1.318   1.774
 3484TIP3    H210394   6.541   1.288   1.676
 3485TIP3   OH210395   3.814   4.405   2.748
 3485TIP3    H110396   3.743   4.386   2.809
 3485TIP3    H210397   3.774   4.398   2.661
 3486TIP3   OH210398   7.944   4.099   2.334
 3486TIP3    H110399   8.002   4.095   2.258
 3486TIP3    H210400   7.963   4.184   2.374
 3487TIP3   OH210401   5.207   3.252   4.149
 3487TIP3    H110402   5.213   3.347   4.159
 3487TIP3    H210403   5.264   3.217   4.218
 3488TIP3   OH210404   5.568   6.456   0.278
 3488TIP3    H110405   5.536   6.447   0.188
 3488TIP3    H210406   5.657   6.491   0.269
 3489TIP3   OH210407   7.691   4.191   4.777
 3489TIP3    H110408   7.664   4.101   4.760
 3489TIP3    H210409   7.632   4.245   4.724
 3490TIP3   OH210410   2.920   5.061   1.206
 3490TIP3    H110411   2.840   5.014   1.186
 3490TIP3    H210412   2.893   5.152   1.215
 3491TIP3   OH210413   8.094   2.758   2.603
 3491TIP3    H110414   8.034   2.816   2.648
 3491TIP3    H210415   8.127   2.809   2.529
 3492TIP3   OH210416   1.697   2.814   4.884
 3492TIP3    H110417   1.693   2.741   4.946
 3492TIP3    H210418   1.730   2.775   4.803
 3493TIP3   OH210419   3.866   7.170  -0.007
 3493TIP3    H110420   3.929   7.189  -0.076
 3493TIP3    H210421   3.888   7.081   0.022
 3494TIP3   OH210422   3.277   7.292   3.668
 3494TIP3    H110423   3.231   7.208   3.674
 3494TIP3    H210424   3.370   7.270   3.673
 3495TIP3   OH210425   4.801   7.311   4.032
 3495TIP3    H110426   4.752   7.256   3.970
 3495TIP3    H210427   4.888   7.270   4.037
 3496TIP3   OH210428   7.831   1.672   2.027
 3496TIP3    H110429   7.847   1.724   2.105
 3496TIP3    H210430   7.760   1.612   2.052
 3497TIP3   OH210431   5.930   3.582   3.044
 3497TIP3    H110432   5.994   3.574   3.115
 3497TIP3    H210433   5.927   3.495   3.005
 3498TIP3   OH210434   3.756   2.845   6.306
 3498TIP3    H110435   3.844   2.808   6.309
 3498TIP3    H210436   3.706   2.783   6.253
 3499TIP3   OH210437   1.843   5.446   5.130
 3499TIP3    H110438   1.789   5.468   5.206
 3499TIP3    H210439   1.929   5.426   5.167
 3500TIP3   OH210440   1.380   1.284   6.023
 3500TIP3    H110441   1.418   1.307   5.938
 3500TIP3    H210442   1.405   1.192   6.036
 3501TIP3   OH210443   1.091   1.334   6.665
 3501TIP3    H110444   1.031   1.269   6.629
 3501TIP3    H210445   1.066   1.341   6.757
 3502TIP3   OH210446   8.004   0.647   5.392
 3502TIP3    H110447   7.961   0.596   5.324
 3502TIP3    H210448   8.090   0.670   5.356
 3503TIP3   OH210449   1.554   4.110   1.122
 3503TIP3    H110450   1.590   4.034   1.169
 3503TIP3    H210451   1.614   4.181   1.144
 3504TIP3   OH210452   2.261   7.801   4.350
 3504TIP3    H110453   2.310   7.737   4.298
 3504TIP3    H210454   2.313   7.811   4.430
 3505TIP3   OH210455   1.141   2.572   5.805
 3505TIP3    H110456   1.053   2.549   5.775
 3505TIP3    H210457   1.174   2.632   5.738
 3506TIP3   OH210458   0.653   4.820   4.984
 3506TIP3    H110459   0.579   4.765   5.013
 3506TIP3    H210460   0.614   4.885   4.926
 3507TIP3   OH210461   0.516   0.508   6.719
 3507TIP3    H110462   0.454   0.446   6.756
 3507TIP3    H210463   0.575   0.454   6.667
 3508TIP3   OH210464   2.632   1.138   1.559
 3508TIP3    H110465   2.644   1.206   1.625
 3508TIP3    H210466   2.672   1.060   1.597
 3509TIP3   OH210467   7.644   5.897   0.256
 3509TIP3    H110468   7.665   5.879   0.165
 3509TIP3    H210469   7.729   5.916   0.297
 3510TIP3   OH210470   5.105   0.197   5.735
 3510TIP3    H110471   5.163   0.170   5.663
 3510TIP3    H210472   5.161   0.252   5.790
 3511TIP3   OH210473   2.567   2.234   0.415
 3511TIP3    H110474   2.645   2.280   0.444
 3511TIP3    H210475   2.494   2.286   0.447
 3512TIP3   OH210476   5.118   3.059   2.759
 3512TIP3    H110477   5.198   3.006   2.756
 3512TIP3    H210478   5.048   2.995   2.774
 3513TIP3   OH210479   0.571   4.346   0.573
 3513TIP3    H110480   0.561   4.347   0.668
 3513TIP3    H210481   0.565   4.438   0.548
 3514TIP3   OH210482   6.819   3.052   5.368
 3514TIP3    H110483   6.792   2.979   5.312
 3514TIP3    H210484   6.773   3.038   5.451
 3515TIP3   OH210485   7.703   0.392   4.289
 3515TIP3    H110486   7.673   0.322   4.347
 3515TIP3    H210487   7.733   0.461   4.348
 3516TIP3   OH210488   7.373   1.340   5.942
 3516TIP3    H110489   7.432   1.264   5.946
 3516TIP3    H210490   7.337   1.338   5.853
 3517TIP3   OH210491   8.388   1.943   2.172
 3517TIP3    H110492   8.374   1.953   2.266
 3517TIP3    H210493   8.300   1.935   2.135
 3518TIP3   OH210494   2.051   7.064   5.737
 3518TIP3    H110495   2.033   7.147   5.781
 3518TIP3    H210496   2.146   7.061   5.730
 3519TIP3   OH210497   5.920   2.394   6.735
 3519TIP3    H110498   5.976   2.466   6.706
 3519TIP3    H210499   5.832   2.431   6.738
 3520TIP3   OH210500   0.475   3.298   6.213
 3520TIP3    H110501   0.498   3.315   6.304
 3520TIP3    H210502   0.505   3.375   6.166
 3521TIP3   OH210503   7.788   6.977   6.410
 3521TIP3    H110504   7.843   7.000   6.335
 3521TIP3    H210505   7.789   6.881   6.413
 3522TIP3   OH210506   3.577   0.889   4.663
 3522TIP3    H110507   3.649   0.933   4.709
 3522TIP3    H210508   3.583   0.798   4.690
 3523TIP3   OH210509   1.451   6.655   4.113
 3523TIP3    H110510   1.411   6.635   4.198
 3523TIP3    H210511   1.431   6.578   4.059
 3524TIP3   OH210512   3.714   1.319   2.279
 3524TIP3    H110513   3.749   1.343   2.193
 3524TIP3    H210514   3.649   1.387   2.298
 3525TIP3   OH210515   4.285   6.530   0.391
 3525TIP3    H110516   4.310   6.612   0.436
 3525TIP3    H210517   4.303   6.462   0.455
 3526TIP3   OH210518   3.055   6.828   5.762
 3526TIP3    H110519   2.969   6.804   5.796
 3526TIP3    H210520   3.113   6.822   5.838
 3527TIP3   OH210521   1.624   3.878   5.021
 3527TIP3    H110522   1.695   3.857   4.961
 3527TIP3    H210523   1.665   3.928   5.091
 3528TIP3   OH210524   5.255   0.070   4.122
 3528TIP3    H110525   5.226   0.130   4.054
 3528TIP3    H210526   5.203  -0.009   4.110
 3529TIP3   OH210527   6.770   1.776   0.302
 3529TIP3    H110528   6.689   1.814   0.269
 3529TIP3    H210529   6.823   1.760   0.224
 3530TIP3   OH210530   2.683   0.752   3.889
 3530TIP3    H110531   2.689   0.684   3.821
 3530TIP3    H210532   2.774   0.765   3.916
 3531TIP3   OH210533   6.325   1.700   4.073
 3531TIP3    H110534   6.420   1.697   4.068
 3531TIP3    H210535   6.295   1.627   4.019
 3532TIP3   OH210536   6.936   6.457   6.545
 3532TIP3    H110537   6.939   6.364   6.563
 3532TIP3    H210538   6.961   6.465   6.453
 3533TIP3   OH210539   5.731   7.913   0.086
 3533TIP3    H110540   5.814   7.883   0.123
 3533TIP3    H210541   5.735   7.885  -0.006
 3534TIP3   OH210542   3.772   1.363   2.585
 3534TIP3    H110543   3.792   1.276   2.550
 3534TIP3    H210544   3.774   1.420   2.508
 3535TIP3   OH210545   4.019   2.261   2.166
 3535TIP3    H110546   4.106   2.250   2.127
 3535TIP3    H210547   3.982   2.173   2.167
 3536TIP3   OH210548   3.472   6.626   4.733
 3536TIP3    H110549   3.529   6.604   4.806
 3536TIP3    H210550   3.499   6.567   4.662
 3537TIP3   OH210551   4.321   1.241   3.152
 3537TIP3    H110552   4.384   1.231   3.080
 3537TIP3    H210553   4.374   1.260   3.229
 3538TIP3   OH210554   4.831   6.387   0.731
 3538TIP3    H110555   4.736   6.401   0.733
 3538TIP3    H210556   4.862   6.417   0.816
 3539TIP3   OH210557   3.815   6.935   3.768
 3539TIP3    H110558   3.787   6.875   3.838
 3539TIP3    H210559   3.875   6.996   3.811
 3540TIP3   OH210560   4.492   7.822   1.912
 3540TIP3    H110561   4.402   7.852   1.902
 3540TIP3    H210562   4.535   7.847   1.830
 3541TIP3   OH210563   3.589   3.844   0.184
 3541TIP3    H110564   3.561   3.828   0.274
 3541TIP3    H210565   3.685   3.843   0.188
 3542TIP3   OH210566   1.766   0.524   5.814
 3542TIP3    H110567   1.842   0.507   5.869
 3542TIP3    H210568   1.795   0.505   5.725
 3543TIP3   OH210569   1.385   3.807   6.171
 3543TIP3    H110570   1.404   3.769   6.257
 3543TIP3    H210571   1.291   3.827   6.174
 3544TIP3   OH210572   5.692   6.675   3.622
 3544TIP3    H110573   5.649   6.638   3.545
 3544TIP3    H210574   5.656   6.624   3.695
 3545TIP3   OH210575   1.434   7.862   4.913
 3545TIP3    H110576   1.486   7.942   4.918
 3545TIP3    H210577   1.396   7.863   4.825
 3546TIP3   OH210578   1.765   5.125   1.197
 3546TIP3    H110579   1.831   5.118   1.129
 3546TIP3    H210580   1.809   5.092   1.276
 3547TIP3   OH210581   5.232   5.769   6.111
 3547TIP3    H110582   5.145   5.785   6.074
 3547TIP3    H210583   5.249   5.847   6.165
 3548TIP3   OH210584   7.619   6.295   4.788
 3548TIP3    H110585   7.664   6.212   4.802
 3548TIP3    H210586   7.688   6.361   4.787
 3549TIP3   OH210587   6.927   7.253   2.296
 3549TIP3    H110588   6.983   7.176   2.290
 3549TIP3    H210589   6.908   7.277   2.205
 3550TIP3   OH210590   4.991   3.024   3.879
 3550TIP3    H110591   5.024   2.936   3.892
 3550TIP3    H210592   4.936   3.018   3.800
 3551TIP3   OH210593   4.888   3.445   5.879
 3551TIP3    H110594   4.954   3.485   5.935
 3551TIP3    H210595   4.845   3.518   5.834
 3552TIP3   OH210596   3.361   4.244   4.678
 3552TIP3    H110597   3.332   4.291   4.600
 3552TIP3    H210598   3.448   4.279   4.697
 3553TIP3   OH210599   4.731   7.618   6.299
 3553TIP3    H110600   4.821   7.603   6.328
 3553TIP3    H210601   4.677   7.583   6.370
 3554TIP3   OH210602   4.366   2.490   5.048
 3554TIP3    H110603   4.324   2.494   4.963
 3554TIP3    H210604   4.294   2.492   5.111
 3555TIP3   OH210605   5.640   1.328   5.807
 3555TIP3    H110606   5.668   1.378   5.884
 3555TIP3    H210607   5.662   1.237   5.829
 3556TIP3   OH210608   4.102   0.231   5.918
 3556TIP3    H110609   4.010   0.218   5.895
 3556TIP3    H210610   4.145   0.149   5.896
 3557TIP3   OH210611   3.087   1.675   2.328
 3557TIP3    H110612   3.151   1.708   2.265
 3557TIP3    H210613   3.093   1.734   2.403
 3558TIP3   OH210614   6.903   6.221   2.657
 3558TIP3    H110615   6.874   6.166   2.584
 3558TIP3    H210616   6.838   6.291   2.662
 3559TIP3   OH210617   5.516   5.347   0.137
 3559TIP3    H110618   5.588   5.329   0.077
 3559TIP3    H210619   5.512   5.270   0.194
 3560TIP3   OH210620   4.016   4.128   0.692
 3560TIP3    H110621   4.013   4.167   0.779
 3560TIP3    H210622   4.093   4.167   0.651
 3561TIP3   OH210623   4.879   7.211   6.605
 3561TIP3    H110624   4.940   7.284   6.603
 3561TIP3    H210625   4.919   7.144   6.549
 3562TIP3   OH210626   7.791   1.290   1.532
 3562TIP3    H110627   7.843   1.343   1.593
 3562TIP3    H210628   7.708   1.277   1.577
 3563TIP3   OH210629   3.813   2.206   6.647
 3563TIP3    H110630   3.774   2.165   6.570
 3563TIP3    H210631   3.808   2.300   6.628
 3564TIP3   OH210632   7.336   5.173   4.832
 3564TIP3    H110633   7.336   5.079   4.814
 3564TIP3    H210634   7.270   5.209   4.773
 3565TIP3   OH210635   4.775   6.652   5.080
 3565TIP3    H110636   4.806   6.568   5.114
 3565TIP3    H210637   4.774   6.640   4.985
 3566TIP3   OH210638   0.144   1.897   3.568
 3566TIP3    H110639   0.056   1.873   3.596
 3566TIP3    H210640   0.132   1.937   3.482
 3567TIP3   OH210641   6.384   1.013   1.632
 3567TIP3    H110642   6.370   0.956   1.708
 3567TIP3    H210643   6.478   1.030   1.632
 3568TIP3   OH210644   4.055   6.815   1.552
 3568TIP3    H110645   3.986   6.880   1.560
 3568TIP3    H210646   4.015   6.734   1.582
 3569TIP3   OH210647   7.978   5.594   5.163
 3569TIP3    H110648   7.987   5.689   5.160
 3569TIP3    H210649   8.067   5.562   5.149
 3570TIP3   OH210650   7.331   4.078   5.565
 3570TIP3    H110651   7.272   4.128   5.623
 3570TIP3    H210652   7.345   3.995   5.611
 3571TIP3   OH210653   3.847   2.350   3.546
 3571TIP3    H110654   3.925   2.347   3.601
 3571TIP3    H210655   3.862   2.424   3.487
 3572TIP3   OH210656   3.243   3.347   5.283
 3572TIP3    H110657   3.283   3.429   5.256
 3572TIP3    H210658   3.150   3.358   5.262
 3573TIP3   OH210659   4.670   3.267   3.604
 3573TIP3    H110660   4.645   3.275   3.512
 3573TIP3    H210661   4.730   3.192   3.606
 3574TIP3   OH210662   3.318   2.674   3.169
 3574TIP3    H110663   3.283   2.601   3.219
 3574TIP3    H210664   3.350   2.635   3.088
 3575TIP3   OH210665   5.258   1.197   2.409
 3575TIP3    H110666   5.167   1.212   2.435
 3575TIP3    H210667   5.307   1.270   2.449
 3576TIP3   OH210668   5.873   6.974   2.454
 3576TIP3    H110669   5.794   6.951   2.502
 3576TIP3    H210670   5.844   6.991   2.365
 3577TIP3   OH210671   0.085   7.450   1.772
 3577TIP3    H110672   0.087   7.543   1.749
 3577TIP3    H210673  -0.005   7.433   1.798
 3578TIP3   OH210674   2.965   1.302   4.534
 3578TIP3    H110675   2.969   1.210   4.561
 3578TIP3    H210676   2.930   1.348   4.610
 3579TIP3   OH210677   1.586   0.132   6.741
 3579TIP3    H110678   1.647   0.062   6.763
 3579TIP3    H210679   1.501   0.100   6.771
 3580TIP3   OH210680   8.076   0.891   4.799
 3580TIP3    H110681   8.092   0.978   4.762
 3580TIP3    H210682   8.118   0.831   4.737
 3581TIP3   OH210683   7.484   5.262   2.060
 3581TIP3    H110684   7.490   5.358   2.055
 3581TIP3    H210685   7.491   5.243   2.153
 3582TIP3   OH210686   5.624   0.255   0.151
 3582TIP3    H110687   5.614   0.349   0.162
 3582TIP3    H210688   5.651   0.243   0.060
 3583TIP3   OH210689   2.056   3.768   0.549
 3583TIP3    H110690   2.086   3.704   0.614
 3583TIP3    H210691   2.037   3.715   0.472
 3584TIP3   OH210692   3.446   2.609   3.550
 3584TIP3    H110693   3.421   2.701   3.539
 3584TIP3    H210694   3.530   2.612   3.595
 3585TIP3   OH210695   6.748   5.644   4.611
 3585TIP3    H110696   6.672   5.692   4.644
 3585TIP3    H210697   6.822   5.683   4.656
 3586TIP3   OH210698   2.122   6.690   0.882
 3586TIP3    H110699   2.062   6.715   0.811
 3586TIP3    H210700   2.065   6.672   0.956
 3587TIP3   OH210701   1.961   1.778   0.778
 3587TIP3    H110702   1.873   1.746   0.758
 3587TIP3    H210703   2.018   1.702   0.764
 3588TIP3   OH210704   6.335   7.751   0.598
 3588TIP3    H110705   6.304   7.757   0.688
 3588TIP3    H210706   6.401   7.682   0.599
 3589TIP3   OH210707   2.395   3.174   3.598
 3589TIP3    H110708   2.480   3.172   3.554
 3589TIP3    H210709   2.350   3.249   3.559
 3590TIP3   OH210710   1.050   2.530   4.075
 3590TIP3    H110711   1.025   2.585   4.001
 3590TIP3    H210712   1.012   2.574   4.151
 3591TIP3   OH210713   2.775   0.410   6.640
 3591TIP3    H110714   2.683   0.412   6.666
 3591TIP3    H210715   2.787   0.490   6.589
 3592TIP3   OH210716   1.853   5.805   3.811
 3592TIP3    H110717   1.841   5.878   3.751
 3592TIP3    H210718   1.769   5.796   3.855
 3593TIP3   OH210719   5.469   2.435   5.890
 3593TIP3    H110720   5.549   2.477   5.921
 3593TIP3    H210721   5.437   2.386   5.966
 3594TIP3   OH210722   2.532   0.831   1.069
 3594TIP3    H110723   2.582   0.907   1.098
 3594TIP3    H210724   2.455   0.867   1.025
 3595TIP3   OH210725   1.176   3.273   1.900
 3595TIP3    H110726   1.168   3.182   1.929
 3595TIP3    H210727   1.271   3.286   1.889
 3596TIP3   OH210728   7.422   3.715   0.128
 3596TIP3    H110729   7.464   3.730   0.212
 3596TIP3    H210730   7.450   3.627   0.102
 3597TIP3   OH210731   3.062   5.899   0.091
 3597TIP3    H110732   3.152   5.931   0.097
 3597TIP3    H210733   3.022   5.926   0.173
 3598TIP3   OH210734   3.891   5.671   4.985
 3598TIP3    H110735   3.951   5.686   5.058
 3598TIP3    H210736   3.815   5.628   5.025
 3599TIP3   OH210737   0.371   5.115   6.500
 3599TIP3    H110738   0.463   5.112   6.527
 3599TIP3    H210739   0.338   5.197   6.538
 3600TIP3   OH210740   2.578   3.865   1.150
 3600TIP3    H110741   2.633   3.915   1.090
 3600TIP3    H210742   2.639   3.811   1.200
 3601TIP3   OH210743   1.501   4.643   5.902
 3601TIP3    H110744   1.578   4.675   5.853
 3601TIP3    H210745   1.494   4.551   5.878
 3602TIP3   OH210746   4.435   6.122   3.544
 3602TIP3    H110747   4.450   6.055   3.611
 3602TIP3    H210748   4.428   6.204   3.594
 3603TIP3   OH210749   3.044   5.765   3.536
 3603TIP3    H110750   3.134   5.793   3.519
 3603TIP3    H210751   3.020   5.712   3.460
 3604TIP3   OH210752   3.351   5.739   0.522
 3604TIP3    H110753   3.439   5.703   0.509
 3604TIP3    H210754   3.294   5.663   0.521
 3605TIP3   OH210755   1.052   4.654   6.056
 3605TIP3    H110756   1.083   4.723   6.114
 3605TIP3    H210757   1.118   4.648   5.987
 3606TIP3   OH210758   5.345   0.873   1.014
 3606TIP3    H110759   5.347   0.923   0.933
 3606TIP3    H210760   5.325   0.938   1.082
 3607TIP3   OH210761   2.226   0.512   6.120
 3607TIP3    H110762   2.276   0.431   6.120
 3607TIP3    H210763   2.290   0.580   6.099
 3608TIP3   OH210764   5.534   6.622   6.299
 3608TIP3    H110765   5.617   6.618   6.346
 3608TIP3    H210766   5.526   6.536   6.256
 3609TIP3   OH210767   6.686   3.479   4.080
 3609TIP3    H110768   6.742   3.405   4.058
 3609TIP3    H210769   6.742   3.556   4.067
 3610TIP3   OH210770   7.063   1.273   5.955
 3610TIP3    H110771   7.073   1.355   6.004
 3610TIP3    H210772   7.051   1.206   6.022
 3611TIP3   OH210773   6.969   0.024   4.570
 3611TIP3    H110774   6.937   0.087   4.505
 3611TIP3    H210775   7.059   0.051   4.587
 3612TIP3   OH210776   1.777   2.344   4.217
 3612TIP3    H110777   1.811   2.277   4.276
 3612TIP3    H210778   1.851   2.366   4.160
 3613TIP3   OH210779   7.072   4.870   5.061
 3613TIP3    H110780   7.109   4.906   5.141
 3613TIP3    H210781   7.044   4.946   5.011
 3614TIP3   OH210782   0.211   4.453   2.174
 3614TIP3    H110783   0.213   4.425   2.265
 3614TIP3    H210784   0.121   4.435   2.146
 3615TIP3   OH210785   0.189   6.368   0.618
 3615TIP3    H110786   0.117   6.378   0.556
 3615TIP3    H210787   0.154   6.311   0.686
 3616TIP3   OH210788   3.995   0.523   0.612
 3616TIP3    H110789   3.922   0.583   0.599
 3616TIP3    H210790   4.071   0.570   0.578
 3617TIP3   OH210791   2.336   0.388   4.098
 3617TIP3    H110792   2.291   0.377   4.182
 3617TIP3    H210793   2.428   0.396   4.122
 3618TIP3   OH210794   0.193   5.248   1.579
 3618TIP3    H110795   0.183   5.273   1.671
 3618TIP3    H210796   0.272   5.194   1.577
 3619TIP3   OH210797   5.477   3.115   2.947
 3619TIP3    H110798   5.434   3.174   3.009
 3619TIP3    H210799   5.424   3.035   2.951
 3620TIP3   OH210800   3.614   3.151   4.214
 3620TIP3    H110801   3.578   3.237   4.237
 3620TIP3    H210802   3.668   3.127   4.289
 3621TIP3   OH210803   5.643   1.875   1.034
 3621TIP3    H110804   5.727   1.903   1.071
 3621TIP3    H210805   5.579   1.889   1.104
 3622TIP3   OH210806   6.317   5.311   1.452
 3622TIP3    H110807   6.409   5.289   1.435
 3622TIP3    H210808   6.286   5.242   1.511
 3623TIP3   OH210809   7.571   3.941   5.791
 3623TIP3    H110810   7.596   3.982   5.708
 3623TIP3    H210811   7.652   3.938   5.842
 3624TIP3   OH210812   0.424   3.389  -0.006
 3624TIP3    H110813   0.392   3.479  -0.011
 3624TIP3    H210814   0.348   3.338   0.022
 3625TIP3   OH210815   2.089   1.060   4.974
 3625TIP3    H110816   2.058   1.150   4.983
 3625TIP3    H210817   2.126   1.056   4.886
 3626TIP3   OH210818   3.201   7.625   5.901
 3626TIP3    H110819   3.277   7.629   5.843
 3626TIP3    H210820   3.139   7.569   5.855
 3627TIP3   OH210821   6.529   7.753   1.909
 3627TIP3    H110822   6.585   7.801   1.849
 3627TIP3    H210823   6.473   7.698   1.853
 3628TIP3   OH210824   2.997   3.122   4.482
 3628TIP3    H110825   3.047   3.157   4.556
 3628TIP3    H210826   3.056   3.130   4.407
 3629TIP3   OH210827   1.089   0.767   4.258
 3629TIP3    H110828   1.116   0.682   4.223
 3629TIP3    H210829   1.054   0.748   4.345
 3630TIP3   OH210830   2.279   4.449   3.369
 3630TIP3    H110831   2.240   4.536   3.371
 3630TIP3    H210832   2.241   4.403   3.444
 3631TIP3   OH210833   2.724   0.367   0.736
 3631TIP3    H110834   2.747   0.442   0.680
 3631TIP3    H210835   2.766   0.387   0.820
 3632TIP3   OH210836   1.156   3.623   1.207
 3632TIP3    H110837   1.101   3.699   1.226
 3632TIP3    H210838   1.094   3.551   1.194
 3633TIP3   OH210839   0.933   1.895   4.413
 3633TIP3    H110840   0.858   1.891   4.472
 3633TIP3    H210841   0.954   1.989   4.409
 3634TIP3   OH210842   0.567   1.737   5.908
 3634TIP3    H110843   0.653   1.762   5.940
 3634TIP3    H210844   0.531   1.682   5.977
 3635TIP3   OH210845   2.617   5.826   1.589
 3635TIP3    H110846   2.557   5.884   1.544
 3635TIP3    H210847   2.563   5.780   1.653
 3636TIP3   OH210848   0.605   6.088   5.971
 3636TIP3    H110849   0.600   6.017   6.034
 3636TIP3    H210850   0.566   6.053   5.891
 3637TIP3   OH210851   6.880   0.930   2.931
 3637TIP3    H110852   6.871   0.893   3.019
 3637TIP3    H210853   6.878   1.025   2.945
 3638TIP3   OH210854   6.751   1.219   0.820
 3638TIP3    H110855   6.763   1.302   0.774
 3638TIP3    H210856   6.794   1.231   0.904
 3639TIP3   OH210857   2.211   7.359   2.734
 3639TIP3    H110858   2.277   7.428   2.746
 3639TIP3    H210859   2.211   7.311   2.817
 3640TIP3   OH210860   8.121   3.402   0.601
 3640TIP3    H110861   8.075   3.332   0.647
 3640TIP3    H210862   8.068   3.480   0.616
 3641TIP3   OH210863   7.556   0.454   3.442
 3641TIP3    H110864   7.573   0.367   3.406
 3641TIP3    H210865   7.597   0.514   3.380
 3642TIP3   OH210866   8.250   1.823   1.595
 3642TIP3    H110867   8.322   1.851   1.538
 3642TIP3    H210868   8.291   1.765   1.659
 3643TIP3   OH210869   4.209   5.228   6.677
 3643TIP3    H110870   4.269   5.250   6.606
 3643TIP3    H210871   4.245   5.147   6.715
 3644TIP3   OH210872   3.765   7.193   1.170
 3644TIP3    H110873   3.761   7.103   1.137
 3644TIP3    H210874   3.724   7.188   1.257
 3645TIP3   OH210875   5.879   1.565   4.433
 3645TIP3    H110876   5.816   1.527   4.494
 3645TIP3    H210877   5.842   1.651   4.411
 3646TIP3   OH210878   2.394   5.164   0.086
 3646TIP3    H110879   2.476   5.119   0.070
 3646TIP3    H210880   2.354   5.114   0.158
 3647TIP3   OH210881   4.334   2.207   5.868
 3647TIP3    H110882   4.322   2.232   5.960
 3647TIP3    H210883   4.245   2.195   5.835
 3648TIP3   OH210884   4.529   5.865   1.151
 3648TIP3    H110885   4.507   5.775   1.175
 3648TIP3    H210886   4.582   5.897   1.224
 3649TIP3   OH210887   4.763   2.361   6.515
 3649TIP3    H110888   4.670   2.378   6.496
 3649TIP3    H210889   4.765   2.335   6.607
 3650TIP3   OH210890   0.431   4.210   1.584
 3650TIP3    H110891   0.495   4.199   1.513
 3650TIP3    H210892   0.390   4.295   1.567
 3651TIP3   OH210893   3.401   3.688   1.730
 3651TIP3    H110894   3.329   3.655   1.782
 3651TIP3    H210895   3.360   3.719   1.649
 3652TIP3   OH210896   5.566   3.943   6.386
 3652TIP3    H110897   5.561   3.909   6.297
 3652TIP3    H210898   5.660   3.951   6.403
 3653TIP3   OH210899   5.905   5.993   5.303
 3653TIP3    H110900   5.819   5.956   5.324
 3653TIP3    H210901   5.961   5.969   5.377
 3654TIP3   OH210902   1.044   7.448   3.232
 3654TIP3    H110903   0.963   7.421   3.276
 3654TIP3    H210904   1.028   7.430   3.140
 3655TIP3   OH210905   3.811   5.295   2.653
 3655TIP3    H110906   3.889   5.304   2.598
 3655TIP3    H210907   3.751   5.362   2.621
 3656TIP3   OH210908   3.044   5.476   3.258
 3656TIP3    H110909   2.987   5.513   3.191
 3656TIP3    H210910   3.108   5.545   3.276
 3657TIP3   OH210911   3.697   5.289   1.294
 3657TIP3    H110912   3.626   5.300   1.232
 3657TIP3    H210913   3.656   5.292   1.380
 3658TIP3   OH210914   6.083   0.322   5.767
 3658TIP3    H110915   6.102   0.381   5.694
 3658TIP3    H210916   6.105   0.235   5.732
 3659TIP3   OH210917   6.618   7.008   2.673
 3659TIP3    H110918   6.669   7.056   2.607
 3659TIP3    H210919   6.588   6.930   2.627
 3660TIP3   OH210920   5.467   5.759   3.931
 3660TIP3    H110921   5.548   5.756   3.981
 3660TIP3    H210922   5.486   5.819   3.859
 3661TIP3   OH210923   7.810   2.716   2.730
 3661TIP3    H110924   7.862   2.769   2.791
 3661TIP3    H210925   7.796   2.634   2.776
 3662TIP3   OH210926   6.926   3.771   5.348
 3662TIP3    H110927   6.991   3.811   5.407
 3662TIP3    H210928   6.863   3.730   5.407
 3663TIP3   OH210929   7.501   6.314   3.682
 3663TIP3    H110930   7.502   6.410   3.676
 3663TIP3    H210931   7.584   6.287   3.643
 3664TIP3   OH210932   4.936   5.459   2.585
 3664TIP3    H110933   4.913   5.448   2.677
 3664TIP3    H210934   4.854   5.445   2.538
 3665TIP3   OH210935   5.655   1.848   1.478
 3665TIP3    H110936   5.618   1.775   1.527
 3665TIP3    H210937   5.728   1.811   1.429
 3666TIP3   OH210938   0.085   2.678   5.189
 3666TIP3    H110939   0.126   2.600   5.228
 3666TIP3    H210940  -0.004   2.650   5.168
 3667TIP3   OH210941   5.555   1.476   0.295
 3667TIP3    H110942   5.631   1.425   0.266
 3667TIP3    H210943   5.480   1.426   0.265
 3668TIP3   OH210944   2.941   2.894   0.126
 3668TIP3    H110945   2.876   2.950   0.083
 3668TIP3    H210946   2.974   2.838   0.057
 3669TIP3   OH210947   0.855   2.318   0.285
 3669TIP3    H110948   0.815   2.326   0.198
 3669TIP3    H210949   0.941   2.360   0.276
 3670TIP3   OH210950   1.492   0.035   1.167
 3670TIP3    H110951   1.568  -0.019   1.148
 3670TIP3    H210952   1.495   0.051   1.261
 3671TIP3   OH210953   3.410   7.608   2.070
 3671TIP3    H110954   3.489   7.591   2.121
 3671TIP3    H210955   3.342   7.627   2.135
 3672TIP3   OH210956   8.139   1.783   4.052
 3672TIP3    H110957   8.198   1.819   3.987
 3672TIP3    H210958   8.067   1.845   4.057
 3673TIP3   OH210959   1.302   2.743   6.735
 3673TIP3    H110960   1.234   2.809   6.717
 3673TIP3    H210961   1.274   2.667   6.685
 3674TIP3   OH210962   1.017   5.423   0.965
 3674TIP3    H110963   0.951   5.413   1.033
 3674TIP3    H210964   1.099   5.396   1.007
 3675TIP3   OH210965   2.710   7.566   6.726
 3675TIP3    H110966   2.789   7.515   6.737
 3675TIP3    H210967   2.733   7.653   6.759
 3676TIP3   OH210968   0.855   5.989   1.169
 3676TIP3    H110969   0.925   5.940   1.212
 3676TIP3    H210970   0.866   6.079   1.199
 3677TIP3   OH210971   5.216   4.035   5.659
 3677TIP3    H110972   5.293   4.009   5.711
 3677TIP3    H210973   5.167   4.093   5.717
 3678TIP3   OH210974   1.952   6.904   2.195
 3678TIP3    H110975   2.028   6.958   2.176
 3678TIP3    H210976   1.921   6.933   2.281
 3679TIP3   OH210977   2.123   1.752   4.408
 3679TIP3    H110978   2.209   1.723   4.378
 3679TIP3    H210979   2.061   1.700   4.356
 3680TIP3   OH210980   1.806   4.819   6.365
 3680TIP3    H110981   1.774   4.794   6.278
 3680TIP3    H210982   1.738   4.788   6.425
 3681TIP3   OH210983   4.746   1.477   6.707
 3681TIP3    H110984   4.816   1.443   6.763
 3681TIP3    H210985   4.711   1.552   6.754
 3682TIP3   OH210986   0.048   2.075   5.366
 3682TIP3    H110987  -0.013   2.148   5.352
 3682TIP3    H210988   0.112   2.083   5.296
 3683TIP3   OH210989   1.530   0.624   0.629
 3683TIP3    H110990   1.616   0.622   0.587
 3683TIP3    H210991   1.540   0.687   0.700
 3684TIP3   OH210992   4.264   4.798   3.857
 3684TIP3    H110993   4.334   4.840   3.808
 3684TIP3    H210994   4.183   4.829   3.816
 3685TIP3   OH210995   5.231   6.725   5.225
 3685TIP3    H110996   5.266   6.709   5.137
 3685TIP3    H210997   5.296   6.781   5.267
 3686TIP3   OH210998   2.168   2.797   3.625
 3686TIP3    H110999   2.106   2.728   3.602
 3686TIP3    H211000   2.212   2.818   3.543
 3687TIP3   OH211001   0.613   5.582   1.365
 3687TIP3    H111002   0.547   5.586   1.296
 3687TIP3    H211003   0.617   5.489   1.389
 3688TIP3   OH211004   7.453   0.162   6.432
 3688TIP3    H111005   7.496   0.079   6.409
 3688TIP3    H211006   7.467   0.218   6.356
 3689TIP3   OH211007   6.548   1.404   0.938
 3689TIP3    H111008   6.555   1.474   1.003
 3689TIP3    H211009   6.606   1.335   0.971
 3690TIP3   OH211010   1.105   2.487   0.477
 3690TIP3    H111011   1.064   2.573   0.467
 3690TIP3    H211012   1.079   2.459   0.565
 3691TIP3   OH211013   5.733   3.538   5.177
 3691TIP3    H111014   5.641   3.532   5.203
 3691TIP3    H211015   5.733   3.511   5.085
 3692TIP3   OH211016   1.421   5.961   4.136
 3692TIP3    H111017   1.479   5.907   4.189
 3692TIP3    H211018   1.391   6.030   4.195
 3693TIP3   OH211019   7.373   3.728   2.340
 3693TIP3    H111020   7.321   3.713   2.261
 3693TIP3    H211021   7.348   3.657   2.399
 3694TIP3   OH211022   6.811   3.981   1.253
 3694TIP3    H111023   6.818   4.036   1.331
 3694TIP3    H211024   6.778   3.897   1.286
 3695TIP3   OH211025   8.378   5.722   0.333
 3695TIP3    H111026   8.288   5.754   0.332
 3695TIP3    H211027   8.431   5.802   0.331
 3696TIP3   OH211028   0.316   0.529   2.962
 3696TIP3    H111029   0.261   0.597   3.001
 3696TIP3    H211030   0.404   0.550   2.992
 3697TIP3   OH211031   0.541   0.935   3.901
 3697TIP3    H111032   0.511   0.852   3.937
 3697TIP3    H211033   0.616   0.960   3.956
 3698TIP3   OH211034   3.727   3.408   5.148
 3698TIP3    H111035   3.815   3.427   5.116
 3698TIP3    H211036   3.669   3.452   5.086
 3699TIP3   OH211037   1.747   1.319   1.895
 3699TIP3    H111038   1.782   1.258   1.960
 3699TIP3    H211039   1.816   1.326   1.829
 3700TIP3   OH211040   6.856   3.382   6.091
 3700TIP3    H111041   6.779   3.424   6.128
 3700TIP3    H211042   6.928   3.442   6.109
 3701TIP3   OH211043   2.060   4.216   3.248
 3701TIP3    H111044   2.138   4.214   3.304
 3701TIP3    H211045   1.990   4.246   3.306
 3702TIP3   OH211046   3.033   0.342   1.300
 3702TIP3    H111047   2.946   0.376   1.321
 3702TIP3    H211048   3.092   0.394   1.354
 3703TIP3   OH211049   2.851   4.577   4.768
 3703TIP3    H111050   2.854   4.616   4.855
 3703TIP3    H211051   2.924   4.617   4.721
 3704TIP3   OH211052   6.263   6.501   4.824
 3704TIP3    H111053   6.268   6.449   4.904
 3704TIP3    H211054   6.350   6.492   4.784
 3705TIP3   OH211055   2.317   2.956   2.863
 3705TIP3    H111056   2.361   2.896   2.802
 3705TIP3    H211057   2.229   2.966   2.827
 3706TIP3   OH211058   7.645   7.156   1.722
 3706TIP3    H111059   7.619   7.169   1.814
 3706TIP3    H211060   7.600   7.226   1.675
 3707TIP3   OH211061   5.259   6.685   0.669
 3707TIP3    H111062   5.319   6.650   0.603
 3707TIP3    H211063   5.278   6.634   0.747
 3708TIP3   OH211064   2.301   3.758   6.720
 3708TIP3    H111065   2.262   3.844   6.726
 3708TIP3    H211066   2.317   3.732   6.811
 3709TIP3   OH211067   2.559   2.801   1.948
 3709TIP3    H111068   2.500   2.813   2.022
 3709TIP3    H211069   2.505   2.819   1.871
 3710TIP3   OH211070   5.824   5.195   5.055
 3710TIP3    H111071   5.826   5.099   5.054
 3710TIP3    H211072   5.782   5.219   4.972
 3711TIP3   OH211073   4.934   7.784   6.077
 3711TIP3    H111074   4.982   7.759   5.998
 3711TIP3    H211075   4.992   7.756   6.149
 3712TIP3   OH211076   2.999   2.860   2.361
 3712TIP3    H111077   2.925   2.830   2.414
 3712TIP3    H211078   2.964   2.862   2.272
 3713TIP3   OH211079   3.247   7.887   0.354
 3713TIP3    H111080   3.214   7.825   0.288
 3713TIP3    H211081   3.222   7.848   0.438
 3714TIP3   OH211082   3.038   2.034   0.852
 3714TIP3    H111083   2.964   1.979   0.828
 3714TIP3    H211084   3.068   2.072   0.770
 3715TIP3   OH211085   5.887   3.743   1.950
 3715TIP3    H111086   5.944   3.810   1.988
 3715TIP3    H211087   5.920   3.660   1.985
 3716TIP3   OH211088   3.324   5.778   0.226
 3716TIP3    H111089   3.249   5.743   0.273
 3716TIP3    H211090   3.370   5.701   0.194
 3717TIP3   OH211091   6.778   1.608   3.296
 3717TIP3    H111092   6.853   1.613   3.356
 3717TIP3    H211093   6.789   1.682   3.236
 3718TIP3   OH211094   6.617   3.464   2.618
 3718TIP3    H111095   6.697   3.514   2.602
 3718TIP3    H211096   6.636   3.376   2.585
 3719TIP3   OH211097   5.337   2.058   5.090
 3719TIP3    H111098   5.362   2.045   4.998
 3719TIP3    H211099   5.281   2.136   5.088
 3720TIP3   OH211100   5.274   3.026   0.729
 3720TIP3    H111101   5.284   3.105   0.676
 3720TIP3    H211102   5.201   3.045   0.788
 3721TIP3   OH211103   5.634   1.466   6.060
 3721TIP3    H111104   5.666   1.450   6.149
 3721TIP3    H211105   5.598   1.555   6.063
 3722TIP3   OH211106   0.752   0.586   1.289
 3722TIP3    H111107   0.709   0.672   1.285
 3722TIP3    H211108   0.706   0.541   1.360
 3723TIP3   OH211109   6.726   4.237   2.756
 3723TIP3    H111110   6.684   4.304   2.702
 3723TIP3    H211111   6.812   4.273   2.778
 3724TIP3   OH211112   7.003   5.208   2.725
 3724TIP3    H111113   7.098   5.203   2.730
 3724TIP3    H211114   6.985   5.301   2.708
 3725TIP3   OH211115   5.232   0.770   5.322
 3725TIP3    H111116   5.160   0.707   5.314
 3725TIP3    H211117   5.218   0.833   5.251
 3726TIP3   OH211118   7.113   3.332   6.504
 3726TIP3    H111119   7.062   3.407   6.474
 3726TIP3    H211120   7.200   3.345   6.467
 3727TIP3   OH211121   4.735   6.356   3.773
 3727TIP3    H111122   4.702   6.315   3.853
 3727TIP3    H211123   4.750   6.283   3.713
 3728TIP3   OH211124   4.993   5.594   5.936
 3728TIP3    H111125   4.916   5.560   5.890
 3728TIP3    H211126   5.049   5.629   5.868
 3729TIP3   OH211127   1.934   6.094   3.318
 3729TIP3    H111128   1.953   6.185   3.340
 3729TIP3    H211129   1.859   6.099   3.259
 3730TIP3   OH211130   3.837   0.510   0.020
 3730TIP3    H111131   3.908   0.482   0.078
 3730TIP3    H211132   3.760   0.462   0.052
 3731TIP3   OH211133   7.365   4.400   1.157
 3731TIP3    H111134   7.272   4.423   1.154
 3731TIP3    H211135   7.379   4.347   1.078
 3732TIP3   OH211136   0.546   7.035   1.417
 3732TIP3    H111137   0.471   7.002   1.468
 3732TIP3    H211138   0.519   7.026   1.326
 3733TIP3   OH211139   8.310   0.218   5.667
 3733TIP3    H111140   8.348   0.139   5.704
 3733TIP3    H211141   8.298   0.198   5.574
 3734TIP3   OH211142   4.480   6.912   2.538
 3734TIP3    H111143   4.563   6.886   2.499
 3734TIP3    H211144   4.427   6.942   2.464
 3735TIP3   OH211145   6.262   3.509   1.036
 3735TIP3    H111146   6.292   3.528   0.947
 3735TIP3    H211147   6.307   3.574   1.090
 3736TIP3   OH211148   0.127   1.415   3.436
 3736TIP3    H111149   0.084   1.404   3.351
 3736TIP3    H211150   0.212   1.373   3.426
 3737TIP3   OH211151   7.541   1.209   1.921
 3737TIP3    H111152   7.628   1.244   1.939
 3737TIP3    H211153   7.557   1.119   1.891
 3738TIP3   OH211154   2.853   2.011   3.948
 3738TIP3    H111155   2.819   1.935   3.995
 3738TIP3    H211156   2.790   2.080   3.964
 3739TIP3   OH211157   4.616   6.166   3.968
 3739TIP3    H111158   4.652   6.128   4.048
 3739TIP3    H211159   4.624   6.097   3.903
 3740TIP3   OH211160   3.212   6.754   4.436
 3740TIP3    H111161   3.305   6.745   4.414
 3740TIP3    H211162   3.167   6.734   4.354
 3741TIP3   OH211163   4.679   0.416   0.835
 3741TIP3    H111164   4.644   0.492   0.787
 3741TIP3    H211165   4.605   0.385   0.886
 3742TIP3   OH211166   6.619   3.362   5.458
 3742TIP3    H111167   6.710   3.347   5.434
 3742TIP3    H211168   6.605   3.309   5.536
 3743TIP3   OH211169   8.196   2.541   4.527
 3743TIP3    H111170   8.214   2.551   4.434
 3743TIP3    H211171   8.260   2.598   4.570
 3744TIP3   OH211172   8.280   7.261   3.067
 3744TIP3    H111173   8.371   7.235   3.051
 3744TIP3    H211174   8.238   7.181   3.099
 3745TIP3   OH211175   7.852   5.015   5.238
 3745TIP3    H111176   7.867   5.065   5.158
 3745TIP3    H211177   7.916   4.944   5.235
 3746TIP3   OH211178   2.206   5.906   5.348
 3746TIP3    H111179   2.219   5.815   5.374
 3746TIP3    H211180   2.248   5.913   5.262
 3747TIP3   OH211181   2.000   2.181   4.679
 3747TIP3    H111182   2.015   2.233   4.758
 3747TIP3    H211183   1.908   2.156   4.685
 3748TIP3   OH211184   6.370   6.859   3.938
 3748TIP3    H111185   6.455   6.898   3.958
 3748TIP3    H211186   6.327   6.922   3.881
 3749TIP3   OH211187   6.601   4.359   2.508
 3749TIP3    H111188   6.615   4.452   2.491
 3749TIP3    H211189   6.687   4.319   2.497
 3750TIP3   OH211190   4.276   6.981   1.468
 3750TIP3    H111191   4.204   6.921   1.447
 3750TIP3    H211192   4.293   7.028   1.387
 3751TIP3   OH211193   2.028   7.632   4.848
 3751TIP3    H111194   2.032   7.722   4.816
 3751TIP3    H211195   1.947   7.597   4.810
 3752TIP3   OH211196   1.972   7.190   6.016
 3752TIP3    H111197   2.017   7.123   6.068
 3752TIP3    H211198   1.924   7.140   5.950
 3753TIP3   OH211199   4.176   7.325   5.502
 3753TIP3    H111200   4.135   7.318   5.589
 3753TIP3    H211201   4.238   7.397   5.512
 3754TIP3   OH211202   3.820   3.795   0.981
 3754TIP3    H111203   3.793   3.770   1.069
 3754TIP3    H211204   3.795   3.887   0.973
 3755TIP3   OH211205   0.128   1.703   0.010
 3755TIP3    H111206   0.127   1.746   0.095
 3755TIP3    H211207   0.070   1.627   0.020
 3756TIP3   OH211208   4.631   2.952   1.061
 3756TIP3    H111209   4.604   2.997   1.140
 3756TIP3    H211210   4.573   2.876   1.054
 3757TIP3   OH211211   5.194   0.660   1.113
 3757TIP3    H111212   5.232   0.619   1.191
 3757TIP3    H211213   5.258   0.724   1.085
 3758TIP3   OH211214   7.254   1.874   0.854
 3758TIP3    H111215   7.171   1.917   0.834
 3758TIP3    H211216   7.283   1.915   0.936
 3759TIP3   OH211217   4.965   6.363   1.240
 3759TIP3    H111218   4.933   6.444   1.281
 3759TIP3    H211219   5.041   6.339   1.293
 3760TIP3   OH211220   7.856   1.055   0.947
 3760TIP3    H111221   7.787   1.117   0.970
 3760TIP3    H211222   7.893   1.029   1.031
 3761TIP3   OH211223   4.731   1.937   1.406
 3761TIP3    H111224   4.683   1.881   1.467
 3761TIP3    H211225   4.676   2.016   1.399
 3762TIP3   OH211226   4.089   5.072   6.324
 3762TIP3    H111227   4.127   5.065   6.237
 3762TIP3    H211228   4.150   5.024   6.381
 3763TIP3   OH211229   3.424   5.085   5.362
 3763TIP3    H111230   3.491   5.068   5.428
 3763TIP3    H211231   3.408   5.000   5.320
 3764TIP3   OH211232   5.986   6.574   3.723
 3764TIP3    H111233   5.900   6.602   3.755
 3764TIP3    H211234   6.013   6.505   3.784
 3765TIP3   OH211235   1.590   0.352   0.093
 3765TIP3    H111236   1.609   0.267   0.054
 3765TIP3    H211237   1.500   0.372   0.065
 3766TIP3   OH211238   7.003   1.199   0.541
 3766TIP3    H111239   7.005   1.103   0.543
 3766TIP3    H211240   7.093   1.225   0.522
 3767TIP3   OH211241   5.153   5.241   2.298
 3767TIP3    H111242   5.154   5.282   2.384
 3767TIP3    H211243   5.213   5.295   2.246
 3768TIP3   OH211244   7.585   0.946   1.839
 3768TIP3    H111245   7.537   0.863   1.845
 3768TIP3    H211246   7.642   0.935   1.763
 3769TIP3   OH211247   5.658   6.450   0.716
 3769TIP3    H111248   5.673   6.371   0.664
 3769TIP3    H211249   5.650   6.418   0.806
 3770TIP3   OH211250   4.902   7.307   5.337
 3770TIP3    H111251   4.926   7.249   5.409
 3770TIP3    H211252   4.817   7.275   5.308
 3771TIP3   OH211253   3.785   5.822   0.477
 3771TIP3    H111254   3.875   5.830   0.446
 3771TIP3    H211255   3.792   5.828   0.573
 3772TIP3   OH211256   2.444   7.735   2.641
 3772TIP3    H111257   2.365   7.789   2.650
 3772TIP3    H211258   2.440   7.673   2.714
 3773TIP3   OH211259   7.480   6.453   5.024
 3773TIP3    H111260   7.452   6.424   4.938
 3773TIP3    H211261   7.518   6.375   5.065
 3774TIP3   OH211262   7.463   5.845   0.988
 3774TIP3    H111263   7.530   5.913   0.988
 3774TIP3    H211264   7.452   5.821   0.896
 3775TIP3   OH211265   3.758   6.412   4.285
 3775TIP3    H111266   3.756   6.368   4.200
 3775TIP3    H211267   3.785   6.501   4.266
 3776TIP3   OH211268   6.716   7.828   5.177
 3776TIP3    H111269   6.758   7.905   5.139
 3776TIP3    H211270   6.669   7.861   5.254
 3777TIP3   OH211271   0.465   1.566   0.709
 3777TIP3    H111272   0.443   1.529   0.794
 3777TIP3    H211273   0.560   1.572   0.709
 3778TIP3   OH211274   3.673   6.093   6.190
 3778TIP3    H111275   3.730   6.083   6.114
 3778TIP3    H211276   3.637   6.005   6.205
 3779TIP3   OH211277   7.757   3.899   4.748
 3779TIP3    H111278   7.779   3.807   4.764
 3779TIP3    H211279   7.795   3.945   4.823
 3780TIP3   OH211280   4.296   6.279   4.889
 3780TIP3    H111281   4.292   6.197   4.840
 3780TIP3    H211282   4.388   6.287   4.915
 3781TIP3   OH211283   6.480   1.421   4.790
 3781TIP3    H111284   6.492   1.329   4.766
 3781TIP3    H211285   6.512   1.426   4.880
 3782TIP3   OH211286   0.525   5.842   1.494
 3782TIP3    H111287   0.462   5.797   1.551
 3782TIP3    H211288   0.600   5.783   1.490
 3783TIP3   OH211289   3.453   2.595   3.966
 3783TIP3    H111290   3.379   2.650   3.941
 3783TIP3    H211291   3.417   2.535   4.031
 3784TIP3   OH211292   1.492   4.420   5.342
 3784TIP3    H111293   1.480   4.512   5.362
 3784TIP3    H211294   1.580   4.399   5.372
 3785TIP3   OH211295   5.970   7.307   4.962
 3785TIP3    H111296   6.051   7.355   4.948
 3785TIP3    H211297   5.996   7.228   5.009
 3786TIP3   OH211298   2.120   5.666   3.837
 3786TIP3    H111299   2.186   5.700   3.776
 3786TIP3    H211300   2.037   5.701   3.804
 3787TIP3   OH211301   1.778   1.751   5.803
 3787TIP3    H111302   1.763   1.688   5.874
 3787TIP3    H211303   1.864   1.788   5.822
 3788TIP3   OH211304   3.526   5.793   6.456
 3788TIP3    H111305   3.462   5.865   6.454
 3788TIP3    H211306   3.571   5.803   6.540
 3789TIP3   OH211307   5.435   3.646   2.760
 3789TIP3    H111308   5.418   3.552   2.770
 3789TIP3    H211309   5.466   3.674   2.846
 3790TIP3   OH211310   4.237   6.589   2.139
 3790TIP3    H111311   4.186   6.613   2.216
 3790TIP3    H211312   4.262   6.673   2.100
 3791TIP3   OH211313   1.388   4.837   4.026
 3791TIP3    H111314   1.469   4.792   4.047
 3791TIP3    H211315   1.336   4.834   4.106
 3792TIP3   OH211316   5.030   6.733   5.667
 3792TIP3    H111317   5.017   6.726   5.572
 3792TIP3    H211318   5.122   6.710   5.680
 3793TIP3   OH211319   7.480   6.346   2.192
 3793TIP3    H111320   7.509   6.411   2.256
 3793TIP3    H211321   7.534   6.269   2.210
 3794TIP3   OH211322   5.027   4.300   0.948
 3794TIP3    H111323   4.944   4.266   0.981
 3794TIP3    H211324   5.021   4.395   0.961
 3795TIP3   OH211325   0.624   4.927   3.514
 3795TIP3    H111326   0.690   4.989   3.545
 3795TIP3    H211327   0.550   4.981   3.488
 3796TIP3   OH211328   2.807   6.485   0.888
 3796TIP3    H111329   2.719   6.451   0.871
 3796TIP3    H211330   2.862   6.442   0.822
 3797TIP3   OH211331   4.908   5.401   5.554
 3797TIP3    H111332   4.947   5.325   5.510
 3797TIP3    H211333   4.906   5.469   5.486
 3798TIP3   OH211334   2.576   7.143   1.466
 3798TIP3    H111335   2.552   7.165   1.376
 3798TIP3    H211336   2.669   7.165   1.473
 3799TIP3   OH211337   7.602   1.956   5.993
 3799TIP3    H111338   7.564   1.869   6.007
 3799TIP3    H211339   7.617   1.990   6.082
 3800TIP3   OH211340   0.094   6.565   1.267
 3800TIP3    H111341   0.109   6.621   1.191
 3800TIP3    H211342   0.023   6.506   1.241
 3801TIP3   OH211343   5.235   2.489   3.106
 3801TIP3    H111344   5.172   2.417   3.099
 3801TIP3    H211345   5.216   2.545   3.030
 3802TIP3   OH211346   3.143   1.216   0.998
 3802TIP3    H111347   3.197   1.281   0.953
 3802TIP3    H211348   3.068   1.267   1.031
 3803TIP3   OH211349   0.622   4.978   0.206
 3803TIP3    H111350   0.577   5.057   0.232
 3803TIP3    H211351   0.678   5.005   0.132
 3804TIP3   OH211352   7.129   4.167   0.611
 3804TIP3    H111353   7.125   4.132   0.522
 3804TIP3    H211354   7.214   4.139   0.644
 3805TIP3   OH211355   6.464   0.613   6.263
 3805TIP3    H111356   6.391   0.675   6.263
 3805TIP3    H211357   6.426   0.531   6.295
 3806TIP3   OH211358   5.993   1.965   3.481
 3806TIP3    H111359   5.967   2.055   3.503
 3806TIP3    H211360   6.076   1.952   3.526
 3807TIP3   OH211361   8.283   1.992   6.085
 3807TIP3    H111362   8.347   1.961   6.020
 3807TIP3    H211363   8.331   1.991   6.168
 3808TIP3   OH211364   7.987   6.430   0.810
 3808TIP3    H111365   7.974   6.339   0.785
 3808TIP3    H211366   8.063   6.428   0.868
 3809TIP3   OH211367   7.928   4.243   4.127
 3809TIP3    H111368   7.986   4.230   4.052
 3809TIP3    H211369   7.978   4.214   4.202
 3810TIP3   OH211370   2.083   3.720   1.892
 3810TIP3    H111371   2.122   3.670   1.964
 3810TIP3    H211372   2.098   3.812   1.916
 3811TIP3   OH211373   5.192   7.876   0.515
 3811TIP3    H111374   5.154   7.827   0.588
 3811TIP3    H211375   5.118   7.901   0.461
 3812TIP3   OH211376   1.445   6.464   3.054
 3812TIP3    H111377   1.507   6.517   3.103
 3812TIP3    H211378   1.366   6.518   3.048
 3813TIP3   OH211379   6.062   5.501   5.322
 3813TIP3    H111380   6.155   5.524   5.321
 3813TIP3    H211381   6.058   5.418   5.275
 3814TIP3   OH211382   4.518   0.294  -0.001
 3814TIP3    H111383   4.440   0.270   0.048
 3814TIP3    H211384   4.525   0.229  -0.070
 3815TIP3   OH211385   8.142   7.660   4.051
 3815TIP3    H111386   8.150   7.582   3.997
 3815TIP3    H211387   8.232   7.689   4.065
 3816TIP3   OH211388   0.615   4.662   1.776
 3816TIP3    H111389   0.606   4.736   1.716
 3816TIP3    H211390   0.613   4.701   1.863
 3817TIP3   OH211391   4.122   6.382   2.266
 3817TIP3    H111392   4.144   6.435   2.189
 3817TIP3    H211393   4.173   6.420   2.337
 3818TIP3   OH211394   5.004   0.079   2.957
 3818TIP3    H111395   5.052   0.003   2.924
 3818TIP3    H211396   5.042   0.153   2.910
 3819TIP3   OH211397   0.603   5.936   2.538
 3819TIP3    H111398   0.589   5.843   2.556
 3819TIP3    H211399   0.697   5.949   2.550
 3820TIP3   OH211400   0.533   6.348   0.879
 3820TIP3    H111401   0.599   6.301   0.930
 3820TIP3    H211402   0.481   6.395   0.944
 3821TIP3   OH211403   4.993   4.222   6.591
 3821TIP3    H111404   4.918   4.281   6.596
 3821TIP3    H211405   4.964   4.152   6.531
 3822TIP3   OH211406   4.544   6.297   0.264
 3822TIP3    H111407   4.557   6.267   0.174
 3822TIP3    H211408   4.629   6.283   0.306
 3823TIP3   OH211409   2.021   6.706   2.818
 3823TIP3    H111410   2.068   6.713   2.735
 3823TIP3    H211411   1.949   6.646   2.801
 3824TIP3   OH211412   7.860   3.611   5.602
 3824TIP3    H111413   7.864   3.524   5.642
 3824TIP3    H211414   7.856   3.672   5.676
 3825TIP3   OH211415   1.985   0.769   2.768
 3825TIP3    H111416   1.917   0.819   2.722
 3825TIP3    H211417   2.067   0.794   2.725
 3826TIP3   OH211418   4.894   4.190   6.097
 3826TIP3    H111419   4.820   4.148   6.142
 3826TIP3    H211420   4.893   4.280   6.127
 3827TIP3   OH211421   4.378   0.685   4.976
 3827TIP3    H111422   4.443   0.665   5.044
 3827TIP3    H211423   4.384   0.612   4.915
 3828TIP3   OH211424   3.916   1.484   5.679
 3828TIP3    H111425   3.868   1.501   5.760
 3828TIP3    H211426   3.851   1.493   5.610
 3829TIP3   OH211427   2.628   3.180   3.447
 3829TIP3    H111428   2.575   3.191   3.369
 3829TIP3    H211429   2.698   3.120   3.420
 3830TIP3   OH211430   1.524   5.052   2.952
 3830TIP3    H111431   1.537   5.024   2.861
 3830TIP3    H211432   1.442   5.011   2.978
 3831TIP3   OH211433   1.049   0.622   2.307
 3831TIP3    H111434   1.069   0.711   2.336
 3831TIP3    H211435   0.953   0.619   2.306
 3832TIP3   OH211436   1.893   4.929   5.225
 3832TIP3    H111437   1.980   4.920   5.262
 3832TIP3    H211438   1.907   4.970   5.140
 3833TIP3   OH211439   7.339   0.616   5.438
 3833TIP3    H111440   7.397   0.645   5.369
 3833TIP3    H211441   7.251   0.627   5.402
 3834TIP3   OH211442   5.020   1.196   3.466
 3834TIP3    H111443   5.094   1.202   3.405
 3834TIP3    H211444   4.949   1.243   3.423
 3835TIP3   OH211445   8.168   0.777   4.154
 3835TIP3    H111446   8.212   0.696   4.181
 3835TIP3    H211447   8.094   0.747   4.100
 3836TIP3   OH211448   1.237   3.494   5.188
 3836TIP3    H111449   1.246   3.438   5.111
 3836TIP3    H211450   1.185   3.443   5.249
 3837TIP3   OH211451   3.420   5.369   5.096
 3837TIP3    H111452   3.340   5.398   5.052
 3837TIP3    H211453   3.477   5.446   5.093
 3838TIP3   OH211454   2.164   5.766   2.392
 3838TIP3    H111455   2.118   5.842   2.356
 3838TIP3    H211456   2.113   5.742   2.470
 3839TIP3   OH211457   5.253   3.805   3.718
 3839TIP3    H111458   5.318   3.762   3.774
 3839TIP3    H211459   5.169   3.778   3.756
 3840TIP3   OH211460   7.537   5.677   5.537
 3840TIP3    H111461   7.577   5.638   5.459
 3840TIP3    H211462   7.534   5.771   5.518
 3841TIP3   OH211463   7.906   0.549   1.765
 3841TIP3    H111464   7.851   0.496   1.823
 3841TIP3    H211465   7.862   0.546   1.680
 3842TIP3   OH211466   5.880   0.125   2.888
 3842TIP3    H111467   5.846   0.119   2.977
 3842TIP3    H211468   5.966   0.166   2.898
 3843TIP3   OH211469   3.579   0.554   6.684
 3843TIP3    H111470   3.606   0.643   6.708
 3843TIP3    H211471   3.486   0.551   6.707
 3844TIP3   OH211472   4.176   6.024   0.039
 3844TIP3    H111473   4.217   6.050  -0.043
 3844TIP3    H211474   4.241   5.969   0.083
 3845TIP3   OH211475   1.515   4.869   6.378
 3845TIP3    H111476   1.535   4.823   6.459
 3845TIP3    H211477   1.433   4.915   6.396
 3846TIP3   OH211478   8.159   0.503   3.607
 3846TIP3    H111479   8.187   0.481   3.519
 3846TIP3    H211480   8.224   0.461   3.664
 3847TIP3   OH211481   3.268   1.876   0.679
 3847TIP3    H111482   3.302   1.923   0.602
 3847TIP3    H211483   3.196   1.824   0.644
 3848TIP3   OH211484   8.151   7.061   0.490
 3848TIP3    H111485   8.106   7.145   0.501
 3848TIP3    H211486   8.205   7.073   0.412
 3849TIP3   OH211487   4.280   0.618   2.821
 3849TIP3    H111488   4.201   0.612   2.875
 3849TIP3    H211489   4.347   0.649   2.882
 3850TIP3   OH211490   5.529   5.754   6.054
 3850TIP3    H111491   5.500   5.734   5.965
 3850TIP3    H211492   5.455   5.730   6.109
 3851TIP3   OH211493   8.297   6.229   3.682
 3851TIP3    H111494   8.223   6.183   3.643
 3851TIP3    H211495   8.337   6.164   3.740
 3852TIP3   OH211496   2.259   3.392   3.495
 3852TIP3    H111497   2.199   3.343   3.439
 3852TIP3    H211498   2.218   3.393   3.581
 3853TIP3   OH211499   2.043   3.112   3.590
 3853TIP3    H111500   2.102   3.105   3.515
 3853TIP3    H211501   2.088   3.169   3.652
 3854TIP3   OH211502   0.338   0.863   4.333
 3854TIP3    H111503   0.402   0.863   4.262
 3854TIP3    H211504   0.349   0.949   4.374
 3855TIP3   OH211505   4.626   4.685   4.072
 3855TIP3    H111506   4.629   4.650   4.162
 3855TIP3    H211507   4.552   4.639   4.032
 3856TIP3   OH211508   6.954   6.106   4.727
 3856TIP3    H111509   7.048   6.086   4.727
 3856TIP3    H211510   6.950   6.202   4.727
 3857TIP3   OH211511   7.997   5.998   2.167
 3857TIP3    H111512   8.049   5.937   2.114
 3857TIP3    H211513   8.021   5.976   2.257
 3858TIP3   OH211514   2.976   6.260   5.481
 3858TIP3    H111515   2.999   6.260   5.573
 3858TIP3    H211516   2.882   6.277   5.479
 3859TIP3   OH211517   1.552   5.713   4.329
 3859TIP3    H111518   1.475   5.742   4.378
 3859TIP3    H211519   1.609   5.674   4.395
 3860TIP3   OH211520   6.020   2.088   2.235
 3860TIP3    H111521   6.071   2.167   2.220
 3860TIP3    H211522   5.936   2.106   2.192
 3861TIP3   OH211523   0.033   3.740   2.753
 3861TIP3    H111524   0.038   3.739   2.658
 3861TIP3    H211525   0.103   3.799   2.781
 3862TIP3   OH211526   0.789   3.961   1.858
 3862TIP3    H111527   0.812   3.921   1.774
 3862TIP3    H211528   0.853   4.031   1.871
 3863TIP3   OH211529   4.837   4.541   0.708
 3863TIP3    H111530   4.758   4.524   0.656
 3863TIP3    H211531   4.812   4.517   0.797
 3864TIP3   OH211532   2.186   6.716   5.573
 3864TIP3    H111533   2.239   6.698   5.650
 3864TIP3    H211534   2.212   6.649   5.510
 3865TIP3   OH211535   4.411   1.336   0.407
 3865TIP3    H111536   4.465   1.355   0.483
 3865TIP3    H211537   4.473   1.323   0.335
 3866TIP3   OH211538   4.137   3.844   1.029
 3866TIP3    H111539   4.096   3.853   0.943
 3866TIP3    H211540   4.216   3.792   1.013
 3867TIP3   OH211541   3.586   4.584   6.023
 3867TIP3    H111542   3.518   4.543   5.969
 3867TIP3    H211543   3.549   4.583   6.112
 3868TIP3   OH211544   0.234   7.196   1.267
 3868TIP3    H111545   0.318   7.240   1.279
 3868TIP3    H211546   0.180   7.226   1.340
 3869TIP3   OH211547   7.954   1.281   2.943
 3869TIP3    H111548   8.019   1.241   3.001
 3869TIP3    H211549   7.876   1.225   2.952
 3870TIP3   OH211550   6.664   1.622   2.096
 3870TIP3    H111551   6.660   1.715   2.076
 3870TIP3    H211552   6.583   1.605   2.144
 3871TIP3   OH211553   4.044   2.956   2.780
 3871TIP3    H111554   3.968   2.985   2.831
 3871TIP3    H211555   4.107   2.927   2.846
 3872TIP3   OH211556   1.761   0.396   2.383
 3872TIP3    H111557   1.818   0.440   2.447
 3872TIP3    H211558   1.802   0.415   2.299
 3873TIP3   OH211559   4.047   0.620   0.310
 3873TIP3    H111560   3.990   0.670   0.369
 3873TIP3    H211561   4.012   0.531   0.312
 3874TIP3   OH211562   2.895   4.746   2.593
 3874TIP3    H111563   2.920   4.838   2.593
 3874TIP3    H211564   2.813   4.743   2.643
 3875TIP3   OH211565   5.586   5.084   5.335
 3875TIP3    H111566   5.681   5.087   5.331
 3875TIP3    H211567   5.557   5.126   5.254
 3876TIP3   OH211568   5.864   4.501   4.709
 3876TIP3    H111569   5.778   4.506   4.750
 3876TIP3    H211570   5.856   4.553   4.628
 3877TIP3   OH211571   5.560   7.529   6.098
 3877TIP3    H111572   5.592   7.441   6.116
 3877TIP3    H211573   5.538   7.565   6.183
 3878TIP3   OH211574   8.422   5.591   5.306
 3878TIP3    H111575   8.451   5.625   5.391
 3878TIP3    H211576   8.333   5.559   5.323
 3879TIP3   OH211577   8.199   6.687   1.245
 3879TIP3    H111578   8.135   6.749   1.210
 3879TIP3    H211579   8.276   6.741   1.265
 3880TIP3   OH211580   1.174   6.677   5.514
 3880TIP3    H111581   1.198   6.604   5.571
 3880TIP3    H211582   1.237   6.746   5.535
 3881TIP3   OH211583   3.036   5.059   4.101
 3881TIP3    H111584   2.943   5.082   4.105
 3881TIP3    H211585   3.082   5.137   4.131
 3882TIP3   OH211586   6.618   2.533   2.749
 3882TIP3    H111587   6.625   2.567   2.838
 3882TIP3    H211588   6.524   2.530   2.731
 3883TIP3   OH211589   2.886   5.047   3.719
 3883TIP3    H111590   2.946   5.107   3.764
 3883TIP3    H211591   2.940   4.970   3.699
 3884TIP3   OH211592   7.948   1.073   4.157
 3884TIP3    H111593   7.934   1.160   4.194
 3884TIP3    H211594   8.036   1.048   4.185
 3885TIP3   OH211595   5.929   2.821   5.535
 3885TIP3    H111596   5.975   2.804   5.453
 3885TIP3    H211597   5.867   2.891   5.514
 3886TIP3   OH211598   6.838   0.320   2.480
 3886TIP3    H111599   6.882   0.250   2.434
 3886TIP3    H211600   6.800   0.278   2.558
 3887TIP3   OH211601   6.771   3.608   0.530
 3887TIP3    H111602   6.766   3.516   0.553
 3887TIP3    H211603   6.691   3.647   0.566
 3888TIP3   OH211604   0.810   2.340   6.429
 3888TIP3    H111605   0.839   2.429   6.449
 3888TIP3    H211606   0.840   2.324   6.339
 3889TIP3   OH211607   2.415   1.922   5.739
 3889TIP3    H111608   2.495   1.871   5.751
 3889TIP3    H211609   2.386   1.901   5.651
 3890TIP3   OH211610   4.252   4.928   2.500
 3890TIP3    H111611   4.294   4.957   2.419
 3890TIP3    H211612   4.212   4.844   2.478
 3891TIP3   OH211613   5.856   5.684   5.440
 3891TIP3    H111614   5.780   5.687   5.382
 3891TIP3    H211615   5.922   5.637   5.389
 3892TIP3   OH211616   5.778   4.402   1.321
 3892TIP3    H111617   5.704   4.344   1.340
 3892TIP3    H211618   5.752   4.449   1.242
 3893TIP3   OH211619   1.261   2.788   4.052
 3893TIP3    H111620   1.166   2.799   4.057
 3893TIP3    H211621   1.283   2.813   3.962
 3894TIP3   OH211622   0.153   7.591   1.329
 3894TIP3    H111623   0.145   7.680   1.296
 3894TIP3    H211624   0.211   7.598   1.405
 3895TIP3   OH211625   2.905   2.247   3.040
 3895TIP3    H111626   2.994   2.255   3.075
 3895TIP3    H211627   2.909   2.287   2.953
 3896TIP3   OH211628   7.579   0.598   3.688
 3896TIP3    H111629   7.646   0.665   3.678
 3896TIP3    H211630   7.578   0.552   3.605
 3897TIP3   OH211631   6.769   3.474   2.202
 3897TIP3    H111632   6.769   3.417   2.125
 3897TIP3    H211633   6.714   3.548   2.177
 3898TIP3   OH211634   7.107   0.622   4.027
 3898TIP3    H111635   7.134   0.532   4.043
 3898TIP3    H211636   7.045   0.641   4.098
 3899TIP3   OH211637   6.421   3.657   1.939
 3899TIP3    H111638   6.366   3.673   2.016
 3899TIP3    H211639   6.370   3.691   1.865
 3900TIP3   OH211640   2.786   1.289   3.580
 3900TIP3    H111641   2.812   1.353   3.646
 3900TIP3    H211642   2.804   1.204   3.620
 3901TIP3   OH211643   3.384   5.139   0.511
 3901TIP3    H111644   3.291   5.142   0.534
 3901TIP3    H211645   3.423   5.081   0.576
 3902TIP3   OH211646   0.470   1.432   4.231
 3902TIP3    H111647   0.428   1.493   4.170
 3902TIP3    H211648   0.450   1.466   4.318
 3903TIP3   OH211649   2.924   7.585   4.653
 3903TIP3    H111650   3.001   7.582   4.711
 3903TIP3    H211651   2.884   7.499   4.663
 3904TIP3   OH211652   0.940   2.876   6.467
 3904TIP3    H111653   0.868   2.863   6.405
 3904TIP3    H211654   1.019   2.867   6.414
 3905TIP3   OH211655   6.032   1.246   2.848
 3905TIP3    H111656   5.994   1.326   2.885
 3905TIP3    H211657   6.006   1.177   2.909
 3906TIP3   OH211658   5.396   2.438   3.982
 3906TIP3    H111659   5.350   2.500   3.924
 3906TIP3    H211660   5.427   2.369   3.923
 3907TIP3   OH211661   3.840   2.515   6.102
 3907TIP3    H111662   3.914   2.499   6.160
 3907TIP3    H211663   3.772   2.551   6.159
 3908TIP3   OH211664   1.618   2.578   0.484
 3908TIP3    H111665   1.663   2.632   0.418
 3908TIP3    H211666   1.558   2.639   0.527
 3909TIP3   OH211667   6.148   7.783   0.393
 3909TIP3    H111668   6.070   7.729   0.401
 3909TIP3    H211669   6.205   7.754   0.465
 3910TIP3   OH211670   7.673   6.676   6.800
 3910TIP3    H111671   7.655   6.582   6.804
 3910TIP3    H211672   7.619   6.707   6.727
 3911TIP3   OH211673   1.000   0.911   4.910
 3911TIP3    H111674   0.966   0.822   4.921
 3911TIP3    H211675   0.988   0.929   4.817
 3912TIP3   OH211676   2.510   5.370   6.295
 3912TIP3    H111677   2.596   5.394   6.261
 3912TIP3    H211678   2.504   5.416   6.378
 3913TIP3   OH211679   7.526   0.675   4.556
 3913TIP3    H111680   7.581   0.749   4.531
 3913TIP3    H211681   7.460   0.669   4.487
 3914TIP3   OH211682   8.268   7.278   5.362
 3914TIP3    H111683   8.261   7.190   5.400
 3914TIP3    H211684   8.293   7.333   5.436
 3915TIP3   OH211685   6.814   3.654   2.581
 3915TIP3    H111686   6.826   3.704   2.662
 3915TIP3    H211687   6.845   3.713   2.512
 3916TIP3   OH211688   2.220   1.728   0.215
 3916TIP3    H111689   2.164   1.735   0.292
 3916TIP3    H211690   2.237   1.634   0.206
 3917TIP3   OH211691   2.485   0.949   3.846
 3917TIP3    H111692   2.492   0.856   3.864
 3917TIP3    H211693   2.558   0.989   3.893
 3918TIP3   OH211694   6.492   4.481   2.779
 3918TIP3    H111695   6.427   4.506   2.713
 3918TIP3    H211696   6.576   4.501   2.739
 3919TIP3   OH211697   4.690   5.877   2.311
 3919TIP3    H111698   4.654   5.835   2.389
 3919TIP3    H211699   4.709   5.805   2.252
 3920TIP3   OH211700   2.660   6.533   4.995
 3920TIP3    H111701   2.702   6.601   5.047
 3920TIP3    H211702   2.632   6.578   4.915
 3921TIP3   OH211703   2.028   2.775   2.222
 3921TIP3    H111704   2.097   2.771   2.289
 3921TIP3    H211705   1.950   2.804   2.269
 3922TIP3   OH211706   4.001   0.619   3.648
 3922TIP3    H111707   4.037   0.668   3.573
 3922TIP3    H211708   4.000   0.683   3.719
 3923TIP3   OH211709   3.878   3.817   0.169
 3923TIP3    H111710   3.964   3.840   0.204
 3923TIP3    H211711   3.853   3.738   0.216
 3924TIP3   OH211712   6.784   4.069   3.450
 3924TIP3    H111713   6.691   4.053   3.460
 3924TIP3    H211714   6.826   3.991   3.487
 3925TIP3   OH211715   4.266   3.674   3.618
 3925TIP3    H111716   4.252   3.756   3.571
 3925TIP3    H211717   4.196   3.671   3.683
 3926TIP3   OH211718   6.364   6.923   1.428
 3926TIP3    H111719   6.376   7.004   1.478
 3926TIP3    H211720   6.403   6.942   1.343
 3927TIP3   OH211721   2.831   3.078   0.433
 3927TIP3    H111722   2.850   3.171   0.418
 3927TIP3    H211723   2.756   3.060   0.377
 3928TIP3   OH211724   6.501   0.878   2.257
 3928TIP3    H111725   6.423   0.852   2.210
 3928TIP3    H211726   6.474   0.955   2.307
 3929TIP3   OH211727   1.908   7.745   0.027
 3929TIP3    H111728   1.814   7.759   0.021
 3929TIP3    H211729   1.939   7.811   0.088
 3930TIP3   OH211730   5.965   0.464   2.055
 3930TIP3    H111731   6.028   0.412   2.106
 3930TIP3    H211732   5.892   0.478   2.115
 3931TIP3   OH211733   4.501   7.045   6.379
 3931TIP3    H111734   4.557   6.967   6.368
 3931TIP3    H211735   4.537   7.109   6.318
 3932TIP3   OH211736   0.124   3.615   5.548
 3932TIP3    H111737   0.056   3.550   5.564
 3932TIP3    H211738   0.136   3.658   5.632
 3933TIP3   OH211739   3.519   0.888   1.659
 3933TIP3    H111740   3.484   0.978   1.661
 3933TIP3    H211741   3.601   0.893   1.707
 3934TIP3   OH211742   3.931   3.372   5.338
 3934TIP3    H111743   3.878   3.360   5.417
 3934TIP3    H211744   3.869   3.366   5.266
 3935TIP3   OH211745   1.004   3.057   1.246
 3935TIP3    H111746   1.061   2.995   1.200
 3935TIP3    H211747   1.028   3.143   1.211
 3936TIP3   OH211748   1.791   5.428   3.565
 3936TIP3    H111749   1.832   5.352   3.605
 3936TIP3    H211750   1.863   5.478   3.528
 3937TIP3   OH211751   6.172   6.962   2.372
 3937TIP3    H111752   6.149   7.048   2.407
 3937TIP3    H211753   6.094   6.909   2.386
 3938TIP3   OH211754   0.252   4.016   4.272
 3938TIP3    H111755   0.210   4.088   4.225
 3938TIP3    H211756   0.180   3.971   4.317
 3939TIP3   OH211757   2.012   3.821   0.882
 3939TIP3    H111758   2.032   3.888   0.816
 3939TIP3    H211759   2.091   3.767   0.885
 3940TIP3   OH211760   7.645   2.291   5.649
 3940TIP3    H111761   7.606   2.236   5.718
 3940TIP3    H211762   7.652   2.377   5.688
 3941TIP3   OH211763   1.041   2.095   0.876
 3941TIP3    H111764   0.963   2.144   0.901
 3941TIP3    H211765   1.113   2.144   0.914
 3942TIP3   OH211766   5.627   0.401   5.450
 3942TIP3    H111767   5.564   0.461   5.410
 3942TIP3    H211768   5.636   0.432   5.540
 3943TIP3   OH211769   6.673   3.656   5.478
 3943TIP3    H111770   6.593   3.672   5.528
 3943TIP3    H211771   6.683   3.561   5.477
 3944TIP3   OH211772   1.782   4.367   0.317
 3944TIP3    H111773   1.741   4.444   0.277
 3944TIP3    H211774   1.749   4.367   0.407
 3945TIP3   OH211775   7.844   2.060   2.381
 3945TIP3    H111776   7.766   2.106   2.350
 3945TIP3    H211777   7.836   2.059   2.476
 3946TIP3   OH211778   1.329   4.614   6.660
 3946TIP3    H111779   1.363   4.534   6.619
 3946TIP3    H211780   1.300   4.667   6.586
 3947TIP3   OH211781   0.615   0.931   4.288
 3947TIP3    H111782   0.677   0.945   4.359
 3947TIP3    H211783   0.632   1.003   4.226
 3948TIP3   OH211784   5.973   3.042   0.714
 3948TIP3    H111785   5.940   2.953   0.714
 3948TIP3    H211786   5.898   3.096   0.687
 3949TIP3   OH211787   0.742   1.555   4.599
 3949TIP3    H111788   0.694   1.475   4.620
 3949TIP3    H211789   0.829   1.525   4.574
 3950TIP3   OH211790   5.528   2.070   1.303
 3950TIP3    H111791   5.497   1.982   1.287
 3950TIP3    H211792   5.461   2.110   1.358
 3951TIP3   OH211793   5.051   1.311   0.828
 3951TIP3    H111794   5.016   1.267   0.905
 3951TIP3    H211795   4.991   1.384   0.813
 3952TIP3   OH211796   1.139   7.113   2.910
 3952TIP3    H111797   1.084   7.160   2.846
 3952TIP3    H211798   1.170   7.181   2.969
 3953TIP3   OH211799   7.370   3.684   1.710
 3953TIP3    H111800   7.417   3.600   1.705
 3953TIP3    H211801   7.381   3.722   1.623
 3954TIP3   OH211802   5.791   0.314   3.108
 3954TIP3    H111803   5.729   0.332   3.178
 3954TIP3    H211804   5.786   0.391   3.051
 3955TIP3   OH211805   7.266   4.635   4.169
 3955TIP3    H111806   7.331   4.649   4.238
 3955TIP3    H211807   7.194   4.589   4.212
 3956TIP3   OH211808   0.598   1.972   4.841
 3956TIP3    H111809   0.649   1.981   4.760
 3956TIP3    H211810   0.523   1.918   4.816
 3957TIP3   OH211811   6.300   1.359   4.290
 3957TIP3    H111812   6.219   1.410   4.277
 3957TIP3    H211813   6.348   1.408   4.357
 3958TIP3   OH211814   5.213   2.733   5.416
 3958TIP3    H111815   5.146   2.668   5.434
 3958TIP3    H211816   5.296   2.688   5.433
 3959TIP3   OH211817   4.993   5.635   4.600
 3959TIP3    H111818   4.948   5.679   4.672
 3959TIP3    H211819   5.068   5.592   4.642
 3960TIP3   OH211820   8.307   0.297   2.575
 3960TIP3    H111821   8.352   0.260   2.498
 3960TIP3    H211822   8.364   0.276   2.648
 3961TIP3   OH211823  -0.035   5.056   6.511
 3961TIP3    H111824   0.037   5.000   6.482
 3961TIP3    H211825  -0.009   5.144   6.486
 3962TIP3   OH211826   0.715   3.664   1.598
 3962TIP3    H111827   0.776   3.619   1.541
 3962TIP3    H211828   0.681   3.737   1.546
 3963TIP3   OH211829   3.080   6.365   6.593
 3963TIP3    H111830   3.130   6.445   6.608
 3963TIP3    H211831   3.132   6.296   6.634
 3964TIP3   OH211832   2.278   0.083   0.798
 3964TIP3    H111833   2.307   0.000   0.759
 3964TIP3    H211834   2.234   0.056   0.879
 3965TIP3   OH211835   7.927   5.631   0.009
 3965TIP3    H111836   7.936   5.626  -0.086
 3965TIP3    H211837   7.978   5.557   0.042
 3966TIP3   OH211838   3.838   6.403   2.761
 3966TIP3    H111839   3.796   6.318   2.773
 3966TIP3    H211840   3.765   6.465   2.750
 3967TIP3   OH211841   2.225   0.075   1.119
 3967TIP3    H111842   2.247   0.140   1.186
 3967TIP3    H211843   2.139   0.042   1.145
 3968TIP3   OH211844   6.952   2.240   0.213
 3968TIP3    H111845   7.000   2.234   0.296
 3968TIP3    H211846   6.980   2.323   0.176
 3969TIP3   OH211847   2.447   5.443   2.707
 3969TIP3    H111848   2.423   5.467   2.797
 3969TIP3    H211849   2.373   5.474   2.654
 3970TIP3   OH211850   7.277   1.747   3.740
 3970TIP3    H111851   7.366   1.740   3.704
 3970TIP3    H211852   7.238   1.820   3.692
 3971TIP3   OH211853   6.490   6.267   1.301
 3971TIP3    H111854   6.503   6.360   1.282
 3971TIP3    H211855   6.402   6.262   1.337
 3972TIP3   OH211856   0.418   0.873   0.936
 3972TIP3    H111857   0.459   0.801   0.983
 3972TIP3    H211858   0.398   0.837   0.850
 3973TIP3   OH211859   2.015   1.516   0.227
 3973TIP3    H111860   1.928   1.487   0.253
 3973TIP3    H211861   2.009   1.529   0.132
 3974TIP3   OH211862   5.394   3.969   0.725
 3974TIP3    H111863   5.333   4.034   0.689
 3974TIP3    H211864   5.469   3.971   0.666
 3975TIP3   OH211865   5.287   3.913   1.230
 3975TIP3    H111866   5.241   3.836   1.262
 3975TIP3    H211867   5.219   3.980   1.223
 3976TIP3   OH211868   1.336   3.299   4.762
 3976TIP3    H111869   1.353   3.212   4.724
 3976TIP3    H211870   1.423   3.338   4.770
 3977TIP3   OH211871   7.467   2.235   3.401
 3977TIP3    H111872   7.489   2.179   3.476
 3977TIP3    H211873   7.496   2.185   3.325
 3978TIP3   OH211874   4.159   3.446   4.457
 3978TIP3    H111875   4.178   3.511   4.389
 3978TIP3    H211876   4.241   3.439   4.507
 3979TIP3   OH211877   1.292   4.938   2.954
 3979TIP3    H111878   1.248   4.862   2.916
 3979TIP3    H211879   1.282   4.926   3.049
 3980TIP3   OH211880   0.312   3.619   3.088
 3980TIP3    H111881   0.301   3.524   3.093
 3980TIP3    H211882   0.223   3.654   3.082
 3981TIP3   OH211883   7.562   2.442   4.828
 3981TIP3    H111884   7.603   2.366   4.787
 3981TIP3    H211885   7.470   2.436   4.803
 3982TIP3   OH211886   5.444   1.973   5.886
 3982TIP3    H111887   5.373   1.931   5.934
 3982TIP3    H211888   5.513   1.985   5.952
 3983TIP3   OH211889   6.039   5.853   3.437
 3983TIP3    H111890   6.135   5.854   3.437
 3983TIP3    H211891   6.015   5.849   3.529
 3984TIP3   OH211892   0.461   3.113   5.895
 3984TIP3    H111893   0.517   3.190   5.888
 3984TIP3    H211894   0.372   3.145   5.880
 3985TIP3   OH211895   0.739   2.032   4.230
 3985TIP3    H111896   0.741   1.970   4.157
 3985TIP3    H211897   0.788   1.989   4.300
 3986TIP3   OH211898   0.413   3.796   0.178
 3986TIP3    H111899   0.471   3.722   0.167
 3986TIP3    H211900   0.470   3.873   0.179
 3987TIP3   OH211901   6.373   6.474   3.044
 3987TIP3    H111902   6.406   6.480   3.134
 3987TIP3    H211903   6.301   6.537   3.042
 3988TIP3   OH211904   0.488   2.009   2.142
 3988TIP3    H111905   0.501   1.914   2.137
 3988TIP3    H211906   0.423   2.021   2.210
 3989TIP3   OH211907   4.966   0.585   6.068
 3989TIP3    H111908   4.883   0.607   6.025
 3989TIP3    H211909   5.031   0.593   5.999
 3990TIP3   OH211910   5.828   3.761   5.492
 3990TIP3    H111911   5.849   3.668   5.500
 3990TIP3    H211912   5.757   3.764   5.427
 3991TIP3   OH211913   0.434   1.559   3.397
 3991TIP3    H111914   0.399   1.580   3.484
 3991TIP3    H211915   0.456   1.466   3.402
 3992TIP3   OH211916   1.446   4.942   0.593
 3992TIP3    H111917   1.358   4.961   0.559
 3992TIP3    H211918   1.463   4.851   0.568
 3993TIP3   OH211919   5.105   3.582   4.659
 3993TIP3    H111920   5.117   3.676   4.672
 3993TIP3    H211921   5.165   3.561   4.588
 3994TIP3   OH211922   7.914   3.828   2.734
 3994TIP3    H111923   7.886   3.912   2.770
 3994TIP3    H211924   8.009   3.833   2.732
 3995TIP3   OH211925   4.043   6.416   6.591
 3995TIP3    H111926   4.085   6.494   6.626
 3995TIP3    H211927   3.993   6.380   6.664
 3996TIP3   OH211928   0.849   7.519   4.513
 3996TIP3    H111929   0.906   7.484   4.582
 3996TIP3    H211930   0.815   7.600   4.549
 3997TIP3   OH211931   1.175   4.794   1.870
 3997TIP3    H111932   1.149   4.880   1.837
 3997TIP3    H211933   1.160   4.735   1.797
 3998TIP3   OH211934   6.164   0.392   3.546
 3998TIP3    H111935   6.165   0.383   3.642
 3998TIP3    H211936   6.173   0.303   3.513
 3999TIP3   OH211937   0.951   1.933   5.076
 3999TIP3    H111938   0.914   1.877   5.007
 3999TIP3    H211939   1.039   1.899   5.090
 4000TIP3   OH211940   7.697   7.327   4.395
 4000TIP3    H111941   7.617   7.339   4.446
 4000TIP3    H211942   7.751   7.403   4.416
 4001TIP3   OH211943   5.849   4.349   5.745
 4001TIP3    H111944   5.886   4.412   5.807
 4001TIP3    H211945   5.764   4.386   5.720
 4002TIP3   OH211946   6.733   7.335   2.987
 4002TIP3    H111947   6.724   7.427   3.013
 4002TIP3    H211948   6.677   7.287   3.047
 4003TIP3   OH211949   5.436   5.845   6.420
 4003TIP3    H111950   5.432   5.940   6.426
 4003TIP3    H211951   5.514   5.827   6.369
 4004TIP3   OH211952   3.111   6.546   5.947
 4004TIP3    H111953   3.087   6.549   5.854
 4004TIP3    H211954   3.204   6.571   5.948
 4005TIP3   OH211955   5.490   6.332   5.439
 4005TIP3    H111956   5.455   6.246   5.463
 4005TIP3    H211957   5.427   6.394   5.476
 4006TIP3   OH211958   0.865   7.431   1.254
 4006TIP3    H111959   0.806   7.364   1.288
 4006TIP3    H211960   0.943   7.425   1.310
 4007TIP3   OH211961   7.336   6.620   6.357
 4007TIP3    H111962   7.407   6.650   6.413
 4007TIP3    H211963   7.293   6.551   6.406
 4008TIP3   OH211964   1.515   2.012   2.664
 4008TIP3    H111965   1.592   2.006   2.609
 4008TIP3    H211966   1.445   2.039   2.605
 4009TIP3   OH211967   5.629   4.908   1.927
 4009TIP3    H111968   5.676   4.985   1.894
 4009TIP3    H211969   5.542   4.942   1.951
 4010TIP3   OH211970   1.914   3.586   1.158
 4010TIP3    H111971   1.881   3.504   1.121
 4010TIP3    H211972   2.002   3.596   1.122
 4011TIP3   OH211973   2.123   0.954   3.876
 4011TIP3    H111974   2.156   0.872   3.913
 4011TIP3    H211975   2.055   0.927   3.813
 4012TIP3   OH211976   5.534   5.127   2.458
 4012TIP3    H111977   5.596   5.104   2.389
 4012TIP3    H211978   5.569   5.208   2.496
 4013TIP3   OH211979   1.730   3.204   1.357
 4013TIP3    H111980   1.645   3.162   1.374
 4013TIP3    H211981   1.792   3.153   1.410
 4014TIP3   OH211982   4.069   1.293   4.416
 4014TIP3    H111983   4.160   1.264   4.418
 4014TIP3    H211984   4.033   1.252   4.337
 4015TIP3   OH211985   1.588   4.296   4.640
 4015TIP3    H111986   1.586   4.219   4.696
 4015TIP3    H211987   1.592   4.261   4.551
 4016TIP3   OH211988   7.887   4.348   1.804
 4016TIP3    H111989   7.836   4.267   1.797
 4016TIP3    H211990   7.943   4.335   1.880
 4017TIP3   OH211991   8.201   6.171   5.812
 4017TIP3    H111992   8.184   6.171   5.906
 4017TIP3    H211993   8.297   6.169   5.805
 4018TIP3   OH211994   0.834   0.858   3.613
 4018TIP3    H111995   0.878   0.789   3.562
 4018TIP3    H211996   0.768   0.811   3.663
 4019TIP3   OH211997   3.866   2.251   0.140
 4019TIP3    H111998   3.961   2.257   0.148
 4019TIP3    H211999   3.838   2.207   0.220
 4020TIP3   OH212000   1.332   0.117   4.805
 4020TIP3    H112001   1.362   0.129   4.715
 4020TIP3    H212002   1.240   0.090   4.797
 4021TIP3   OH212003   7.827   2.940   0.293
 4021TIP3    H112004   7.787   2.856   0.271
 4021TIP3    H212005   7.807   2.996   0.218
 4022TIP3   OH212006   2.707   6.746   6.238
 4022TIP3    H112007   2.792   6.791   6.237
 4022TIP3    H212008   2.701   6.705   6.151
 4023TIP3   OH212009   6.127   6.803   1.491
 4023TIP3    H112010   6.054   6.864   1.477
 4023TIP3    H212011   6.205   6.854   1.472
 4024TIP3   OH212012   7.244   0.574   2.018
 4024TIP3    H112013   7.323   0.618   1.987
 4024TIP3    H212014   7.243   0.591   2.113
 4025TIP3   OH212015   7.961   3.270   6.101
 4025TIP3    H112016   7.957   3.359   6.135
 4025TIP3    H212017   7.879   3.229   6.127
 4026TIP3   OH212018   6.459   3.357   1.913
 4026TIP3    H112019   6.462   3.452   1.926
 4026TIP3    H212020   6.436   3.346   1.821
 4027TIP3   OH212021   6.566   1.880   2.035
 4027TIP3    H112022   6.635   1.942   2.010
 4027TIP3    H212023   6.489   1.935   2.048
 4028TIP3   OH212024   0.371   6.873   2.361
 4028TIP3    H112025   0.315   6.947   2.338
 4028TIP3    H212026   0.332   6.837   2.441
 4029TIP3   OH212027   3.398   5.913   4.487
 4029TIP3    H112028   3.470   5.940   4.544
 4029TIP3    H212029   3.411   5.964   4.407
 4030TIP3   OH212030   4.302   2.604   0.100
 4030TIP3    H112031   4.271   2.689   0.071
 4030TIP3    H212032   4.346   2.622   0.184
 4031TIP3   OH212033   0.931   2.843   1.598
 4031TIP3    H112034   0.893   2.792   1.670
 4031TIP3    H212035   0.935   2.932   1.632
 4032TIP3   OH212036   6.452   0.918   5.063
 4032TIP3    H112037   6.505   0.858   5.116
 4032TIP3    H212038   6.371   0.870   5.047
 4033TIP3   OH212039   3.900   6.434   1.667
 4033TIP3    H112040   3.842   6.502   1.631
 4033TIP3    H212041   3.889   6.360   1.608
 4034TIP3   OH212042   5.391   7.691   2.840
 4034TIP3    H112043   5.465   7.725   2.789
 4034TIP3    H212044   5.327   7.665   2.774
 4035TIP3   OH212045   0.169   2.865   6.787
 4035TIP3    H112046   0.115   2.943   6.786
 4035TIP3    H212047   0.129   2.809   6.853
 4036TIP3   OH212048   5.739   5.363   5.528
 4036TIP3    H112049   5.782   5.378   5.444
 4036TIP3    H212050   5.653   5.403   5.518
 4037TIP3   OH212051   7.027   1.680   0.628
 4037TIP3    H112052   7.046   1.649   0.716
 4037TIP3    H212053   7.070   1.615   0.571
 4038TIP3   OH212054   7.780   5.778   3.279
 4038TIP3    H112055   7.687   5.761   3.289
 4038TIP3    H212056   7.786   5.839   3.205
 4039TIP3   OH212057   0.712   1.338   2.642
 4039TIP3    H112058   0.769   1.409   2.613
 4039TIP3    H212059   0.762   1.258   2.625
 4040TIP3   OH212060   5.150   0.653   5.867
 4040TIP3    H112061   5.174   0.745   5.862
 4040TIP3    H212062   5.100   0.637   5.787
 4041TIP3   OH212063   7.317   0.828   3.509
 4041TIP3    H112064   7.336   0.735   3.523
 4041TIP3    H212065   7.380   0.856   3.443
 4042TIP3   OH212066   6.697   6.883   1.370
 4042TIP3    H112067   6.766   6.905   1.308
 4042TIP3    H212068   6.620   6.864   1.316
 4043TIP3   OH212069   2.549   7.476   1.387
 4043TIP3    H112070   2.595   7.512   1.310
 4043TIP3    H212071   2.503   7.399   1.353
 4044TIP3   OH212072   2.798   2.035   6.181
 4044TIP3    H112073   2.740   2.033   6.257
 4044TIP3    H212074   2.759   2.100   6.123
 4045TIP3   OH212075   1.264   4.399   6.196
 4045TIP3    H112076   1.331   4.467   6.208
 4045TIP3    H212077   1.181   4.444   6.212
 4046TIP3   OH212078   6.260   7.815   3.638
 4046TIP3    H112079   6.276   7.762   3.716
 4046TIP3    H212080   6.255   7.752   3.566
 4047TIP3   OH212081   6.953   2.426   3.007
 4047TIP3    H112082   6.941   2.404   2.915
 4047TIP3    H212083   7.017   2.362   3.038
 4048TIP3   OH212084   0.672   3.909   6.774
 4048TIP3    H112085   0.731   3.982   6.756
 4048TIP3    H212086   0.730   3.838   6.803
 4049TIP3   OH212087   0.968   1.257   5.325
 4049TIP3    H112088   1.016   1.176   5.340
 4049TIP3    H212089   0.876   1.230   5.324
 4050TIP3   OH212090   1.711   2.678   4.637
 4050TIP3    H112091   1.747   2.737   4.571
 4050TIP3    H212092   1.746   2.592   4.615
 4051TIP3   OH212093   3.787   5.157   6.819
 4051TIP3    H112094   3.785   5.062   6.824
 4051TIP3    H212095   3.869   5.178   6.776
 4052TIP3   OH212096   1.351   5.771   3.836
 4052TIP3    H112097   1.287   5.804   3.899
 4052TIP3    H212098   1.318   5.685   3.812
 4053TIP3   OH212099   8.468   6.953   5.223
 4053TIP3    H112100   8.396   6.933   5.283
 4053TIP3    H212101   8.443   7.037   5.183
 4054TIP3   OH212102   6.253   6.116   6.778
 4054TIP3    H112103   6.241   6.027   6.811
 4054TIP3    H212104   6.346   6.122   6.758
 4055TIP3   OH212105   5.670   2.326   4.624
 4055TIP3    H112106   5.631   2.250   4.579
 4055TIP3    H212107   5.644   2.314   4.715
 4056TIP3   OH212108   4.411   0.604   5.406
 4056TIP3    H112109   4.366   0.554   5.337
 4056TIP3    H212110   4.469   0.664   5.358
 4057TIP3   OH212111   0.352   4.382   5.053
 4057TIP3    H112112   0.357   4.369   5.148
 4057TIP3    H212113   0.442   4.402   5.027
 4058TIP3   OH212114   0.619   1.928   6.469
 4058TIP3    H112115   0.577   2.012   6.490
 4058TIP3    H212116   0.547   1.871   6.443
 4059TIP3   OH212117   3.713   5.145   2.121
 4059TIP3    H112118   3.658   5.096   2.059
 4059TIP3    H212119   3.781   5.185   2.066
 4060TIP3   OH212120   1.698   2.804   4.331
 4060TIP3    H112121   1.759   2.842   4.395
 4060TIP3    H212122   1.751   2.794   4.251
 4061TIP3   OH212123   0.068   2.633   3.782
 4061TIP3    H112124   0.028   2.618   3.868
 4061TIP3    H212125  -0.004   2.661   3.727
 4062TIP3   OH212126   1.132   2.820   5.008
 4062TIP3    H112127   1.155   2.740   5.056
 4062TIP3    H212128   1.209   2.841   4.956
 4063TIP3   OH212129   7.111   1.351   1.878
 4063TIP3    H112130   7.078   1.434   1.913
 4063TIP3    H212131   7.069   1.285   1.932
 4064TIP3   OH212132   4.567   1.156   3.047
 4064TIP3    H112133   4.640   1.101   3.018
 4064TIP3    H212134   4.609   1.237   3.078
 4065TIP3   OH212135   4.918   2.731   0.455
 4065TIP3    H112136   5.000   2.767   0.488
 4065TIP3    H212137   4.912   2.762   0.365
 4066TIP3   OH212138   8.073   1.404   3.317
 4066TIP3    H112139   7.986   1.367   3.305
 4066TIP3    H212140   8.103   1.368   3.400
 4067TIP3   OH212141   0.729   7.662   3.224
 4067TIP3    H112142   0.650   7.683   3.273
 4067TIP3    H212143   0.772   7.746   3.211
 4068TIP3   OH212144   4.897   3.570   4.841
 4068TIP3    H112145   4.974   3.575   4.785
 4068TIP3    H212146   4.918   3.503   4.905
 4069TIP3   OH212147   3.358   6.675   5.915
 4069TIP3    H112148   3.413   6.600   5.890
 4069TIP3    H212149   3.368   6.680   6.010
 4070TIP3   OH212150   0.198   1.234   5.534
 4070TIP3    H112151   0.161   1.288   5.465
 4070TIP3    H212152   0.134   1.164   5.547
 4071TIP3   OH212153   6.570   1.605   5.582
 4071TIP3    H112154   6.625   1.680   5.558
 4071TIP3    H212155   6.529   1.579   5.499
 4072TIP3   OH212156   4.354   0.846   4.237
 4072TIP3    H112157   4.265   0.853   4.271
 4072TIP3    H212158   4.410   0.872   4.310
 4073TIP3   OH212159   0.636   0.522   2.069
 4073TIP3    H112160   0.593   0.495   1.987
 4073TIP3    H212161   0.586   0.477   2.138
 4074TIP3   OH212162   2.353   6.319   6.813
 4074TIP3    H112163   2.420   6.251   6.800
 4074TIP3    H212164   2.289   6.302   6.744
 4075TIP3   OH212165   7.170   5.952   0.836
 4075TIP3    H112166   7.129   5.877   0.794
 4075TIP3    H212167   7.102   6.020   0.837
 4076TIP3   OH212168   3.917   3.802   4.993
 4076TIP3    H112169   3.838   3.853   4.975
 4076TIP3    H212170   3.989   3.858   4.962
 4077TIP3   OH212171   2.966   6.145   1.519
 4077TIP3    H112172   2.935   6.116   1.433
 4077TIP3    H212173   2.922   6.087   1.581
 4078TIP3   OH212174   1.081   7.642   4.998
 4078TIP3    H112175   1.119   7.555   5.010
 4078TIP3    H212176   1.146   7.703   5.033
 4079TIP3   OH212177   3.381   3.536   5.562
 4079TIP3    H112178   3.325   3.554   5.637
 4079TIP3    H212179   3.434   3.461   5.588
 4080TIP3   OH212180   2.241   6.180   5.433
 4080TIP3    H112181   2.225   6.091   5.403
 4080TIP3    H212182   2.231   6.234   5.355
 4081TIP3   OH212183   5.483   7.534   4.528
 4081TIP3    H112184   5.446   7.610   4.483
 4081TIP3    H212185   5.407   7.488   4.564
 4082TIP3   OH212186   2.208   3.642   5.187
 4082TIP3    H112187   2.286   3.647   5.132
 4082TIP3    H212188   2.234   3.589   5.262
 4083TIP3   OH212189   7.959   6.991   5.171
 4083TIP3    H112190   7.885   6.959   5.120
 4083TIP3    H212191   7.993   7.065   5.121
 4084TIP3   OH212192   5.087   5.691   3.330
 4084TIP3    H112193   5.147   5.665   3.400
 4084TIP3    H212194   5.099   5.786   3.322
 4085TIP3   OH212195   0.521   7.709   6.657
 4085TIP3    H112196   0.601   7.755   6.683
 4085TIP3    H212197   0.489   7.759   6.581
 4086TIP3   OH212198   3.620   1.793   4.314
 4086TIP3    H112199   3.555   1.731   4.280
 4086TIP3    H212200   3.702   1.744   4.317
 4087TIP3   OH212201   0.375   1.676   0.426
 4087TIP3    H112202   0.467   1.655   0.414
 4087TIP3    H212203   0.353   1.640   0.512
 4088TIP3   OH212204   2.930   5.493   3.555
 4088TIP3    H112205   2.854   5.467   3.606
 4088TIP3    H212206   2.971   5.562   3.608
 4089TIP3   OH212207   0.072   0.432   6.218
 4089TIP3    H112208   0.022   0.502   6.258
 4089TIP3    H212209   0.098   0.376   6.292
 4090TIP3   OH212210   0.180   3.659   5.824
 4090TIP3    H112211   0.208   3.569   5.843
 4090TIP3    H212212   0.260   3.711   5.830
 4091TIP3   OH212213   4.670   1.151   1.382
 4091TIP3    H112214   4.620   1.094   1.324
 4091TIP3    H212215   4.760   1.119   1.377
 4092TIP3   OH212216   2.092   6.669   6.741
 4092TIP3    H112217   2.063   6.752   6.703
 4092TIP3    H212218   2.181   6.657   6.707
 4093TIP3   OH212219   5.334   2.410   5.377
 4093TIP3    H112220   5.349   2.467   5.453
 4093TIP3    H212221   5.420   2.374   5.356
 4094TIP3   OH212222   4.263   3.995   5.510
 4094TIP3    H112223   4.339   3.940   5.530
 4094TIP3    H212224   4.225   4.016   5.595
 4095TIP3   OH212225   2.722   3.624   5.059
 4095TIP3    H112226   2.714   3.565   5.134
 4095TIP3    H212227   2.809   3.662   5.068
 4096TIP3   OH212228   3.565   2.245   4.377
 4096TIP3    H112229   3.586   2.338   4.381
 4096TIP3    H212230   3.521   2.226   4.460
 4097TIP3   OH212231   6.990   7.259   1.404
 4097TIP3    H112232   7.015   7.304   1.323
 4097TIP3    H212233   6.984   7.167   1.378
 4098TIP3   OH212234   6.674   2.393   0.829
 4098TIP3    H112235   6.607   2.423   0.891
 4098TIP3    H212236   6.757   2.412   0.873
 4099TIP3   OH212237   0.926   4.627   1.257
 4099TIP3    H112238   0.937   4.615   1.351
 4099TIP3    H212239   0.887   4.715   1.248
 4100TIP3   OH212240   2.614   6.518   4.107
 4100TIP3    H112241   2.594   6.591   4.166
 4100TIP3    H212242   2.558   6.532   4.031
 4101TIP3   OH212243   7.706   4.672   5.255
 4101TIP3    H112244   7.710   4.643   5.164
 4101TIP3    H212245   7.668   4.597   5.301
 4102TIP3   OH212246   7.027   2.426   2.746
 4102TIP3    H112247   7.122   2.428   2.758
 4102TIP3    H212248   7.007   2.508   2.702
 4103TIP3   OH212249   5.161   5.152   1.830
 4103TIP3    H112250   5.126   5.131   1.743
 4103TIP3    H212251   5.202   5.238   1.819
 4104TIP3   OH212252   4.643   6.712   6.115
 4104TIP3    H112253   4.567   6.696   6.171
 4104TIP3    H212254   4.644   6.806   6.102
 4105TIP3   OH212255   3.410   6.552   2.090
 4105TIP3    H112256   3.400   6.572   2.183
 4105TIP3    H212257   3.425   6.637   2.048
 4106TIP3   OH212258   6.244   4.896   6.724
 4106TIP3    H112259   6.301   4.957   6.678
 4106TIP3    H212260   6.303   4.843   6.777
 4107TIP3   OH212261   5.212   1.087   4.677
 4107TIP3    H112262   5.180   1.033   4.605
 4107TIP3    H212263   5.188   1.176   4.652
 4108TIP3   OH212264   0.790   0.712   3.375
 4108TIP3    H112265   0.881   0.737   3.362
 4108TIP3    H212266   0.786   0.620   3.346
 4109TIP3   OH212267   2.801   1.413   2.679
 4109TIP3    H112268   2.783   1.324   2.711
 4109TIP3    H212269   2.893   1.411   2.653
 4110TIP3   OH212270   7.505   7.495   5.985
 4110TIP3    H112271   7.554   7.456   6.057
 4110TIP3    H212272   7.572   7.536   5.929
 4111TIP3   OH212273   5.702   3.976   6.008
 4111TIP3    H112274   5.629   3.942   6.058
 4111TIP3    H212275   5.673   4.062   5.977
 4112TIP3   OH212276   7.310   3.531   6.346
 4112TIP3    H112277   7.285   3.609   6.394
 4112TIP3    H212278   7.315   3.559   6.254
 4113TIP3   OH212279   2.938   4.414   6.272
 4113TIP3    H112280   2.843   4.409   6.275
 4113TIP3    H212281   2.965   4.340   6.218
 4114TIP3   OH212282   6.898   2.108   5.074
 4114TIP3    H112283   6.982   2.084   5.035
 4114TIP3    H212284   6.833   2.068   5.016
 4115TIP3   OH212285   6.839   3.505   6.395
 4115TIP3    H112286   6.882   3.540   6.317
 4115TIP3    H212287   6.750   3.485   6.367
 4116TIP3   OH212288   3.186   4.835   2.826
 4116TIP3    H112289   3.248   4.788   2.770
 4116TIP3    H212290   3.142   4.896   2.768
 4117TIP3   OH212291   7.339   3.467   0.345
 4117TIP3    H112292   7.313   3.387   0.391
 4117TIP3    H212293   7.272   3.531   0.369
 4118TIP3   OH212294   8.192   7.743   5.291
 4118TIP3    H112295   8.136   7.721   5.216
 4118TIP3    H212296   8.274   7.773   5.253
 4119TIP3   OH212297   4.705   7.898   5.751
 4119TIP3    H112298   4.778   7.929   5.697
 4119TIP3    H212299   4.661   7.979   5.779
 4120TIP3   OH212300   6.174   5.611   6.632
 4120TIP3    H112301   6.173   5.549   6.704
 4120TIP3    H212302   6.152   5.695   6.672
 4121TIP3   OH212303   6.482   5.674   0.881
 4121TIP3    H112304   6.459   5.686   0.973
 4121TIP3    H212305   6.535   5.594   0.880
 4122TIP3   OH212306   2.259   7.367   1.626
 4122TIP3    H112307   2.197   7.313   1.676
 4122TIP3    H212308   2.235   7.457   1.647
 4123TIP3   OH212309   0.627   7.049   6.311
 4123TIP3    H112310   0.707   7.102   6.318
 4123TIP3    H212311   0.610   7.020   6.400
 4124TIP3   OH212312   7.899   1.745   3.019
 4124TIP3    H112313   7.925   1.687   2.948
 4124TIP3    H212314   7.977   1.751   3.075
 4125TIP3   OH212315   3.216   7.104   0.454
 4125TIP3    H112316   3.152   7.175   0.446
 4125TIP3    H212317   3.276   7.118   0.381
 4126TIP3   OH212318   3.174   7.413   1.749
 4126TIP3    H112319   3.111   7.458   1.805
 4126TIP3    H212320   3.187   7.328   1.791
 4127TIP3   OH212321   1.140   1.710   5.450
 4127TIP3    H112322   1.166   1.618   5.447
 4127TIP3    H212323   1.045   1.707   5.465
 4128TIP3   OH212324   1.217   7.710   4.489
 4128TIP3    H112325   1.166   7.696   4.409
 4128TIP3    H212326   1.227   7.622   4.526
 4129TIP3   OH212327   4.027   3.382   0.442
 4129TIP3    H112328   4.046   3.391   0.349
 4129TIP3    H212329   3.984   3.297   0.450
 4130TIP3   OH212330   8.108   3.298   0.915
 4130TIP3    H112331   8.185   3.257   0.954
 4130TIP3    H212332   8.080   3.237   0.847
 4131TIP3   OH212333   7.298   2.422   4.499
 4131TIP3    H112334   7.213   2.408   4.458
 4131TIP3    H212335   7.290   2.505   4.545
 4132TIP3   OH212336   7.843   1.879   6.731
 4132TIP3    H112337   7.883   1.823   6.665
 4132TIP3    H212338   7.836   1.824   6.809
 4133TIP3   OH212339   8.146   0.181   0.572
 4133TIP3    H112340   8.219   0.149   0.624
 4133TIP3    H212341   8.084   0.108   0.570
 4134TIP3   OH212342   2.248   3.827   5.883
 4134TIP3    H112343   2.196   3.907   5.881
 4134TIP3    H212344   2.324   3.850   5.938
 4135TIP3   OH212345   3.374   0.276   0.195
 4135TIP3    H112346   3.307   0.259   0.261
 4135TIP3    H212347   3.346   0.226   0.118
 4136TIP3   OH212348   2.260   2.403   2.750
 4136TIP3    H112349   2.169   2.384   2.727
 4136TIP3    H212350   2.294   2.321   2.786
 4137TIP3   OH212351   0.834   2.656   4.781
 4137TIP3    H112352   0.765   2.597   4.751
 4137TIP3    H212353   0.787   2.726   4.828
 4138TIP3   OH212354   0.085   4.118   0.479
 4138TIP3    H112355   0.173   4.100   0.447
 4138TIP3    H212356   0.060   4.039   0.527
 4139TIP3   OH212357   6.817   2.868   2.098
 4139TIP3    H112358   6.731   2.891   2.135
 4139TIP3    H212359   6.875   2.938   2.127
 4140TIP3   OH212360   4.511   4.786   1.105
 4140TIP3    H112361   4.526   4.724   1.177
 4140TIP3    H212362   4.597   4.799   1.066
 4141TIP3   OH212363   4.261   1.568   3.149
 4141TIP3    H112364   4.209   1.644   3.175
 4141TIP3    H212365   4.268   1.515   3.229
 4142TIP3   OH212366   3.533   2.167   1.064
 4142TIP3    H112367   3.580   2.189   0.984
 4142TIP3    H212368   3.562   2.234   1.127
 4143TIP3   OH212369   1.730   3.385   6.810
 4143TIP3    H112370   1.794   3.365   6.878
 4143TIP3    H212371   1.749   3.475   6.785
 4144TIP3   OH212372   5.472   0.513   6.056
 4144TIP3    H112373   5.563   0.528   6.082
 4144TIP3    H212374   5.463   0.418   6.054
 4145TIP3   OH212375   5.051   3.740   1.356
 4145TIP3    H112376   4.988   3.679   1.396
 4145TIP3    H212377   5.008   3.767   1.274
 4146TIP3   OH212378   6.393   4.333   4.951
 4146TIP3    H112379   6.338   4.365   5.023
 4146TIP3    H212380   6.478   4.314   4.992
 4147TIP3   OH212381   8.236   5.560   1.486
 4147TIP3    H112382   8.211   5.468   1.483
 4147TIP3    H212383   8.171   5.604   1.431
 4148TIP3   OH212384   7.170   3.559   2.905
 4148TIP3    H112385   7.075   3.551   2.899
 4148TIP3    H212386   7.184   3.611   2.984
 4149TIP3   OH212387   3.821   6.801   3.049
 4149TIP3    H112388   3.802   6.817   2.957
 4149TIP3    H212389   3.899   6.745   3.047
 4150TIP3   OH212390   5.574   5.526   1.428
 4150TIP3    H112391   5.598   5.558   1.341
 4150TIP3    H212392   5.637   5.456   1.446
 4151TIP3   OH212393   8.076   4.170   5.659
 4151TIP3    H112394   8.087   4.264   5.648
 4151TIP3    H212395   8.128   4.149   5.737
 4152TIP3   OH212396   8.185   0.227   3.311
 4152TIP3    H112397   8.163   0.181   3.230
 4152TIP3    H212398   8.100   0.246   3.351
 4153TIP3   OH212399   3.523   7.036   6.788
 4153TIP3    H112400   3.485   7.065   6.871
 4153TIP3    H212401   3.521   6.941   6.792
 4154TIP3   OH212402   4.773   5.454   4.429
 4154TIP3    H112403   4.866   5.445   4.450
 4154TIP3    H212404   4.769   5.447   4.333
 4155TIP3   OH212405   2.130   7.220   3.549
 4155TIP3    H112406   2.203   7.193   3.604
 4155TIP3    H212407   2.134   7.162   3.473
 4156TIP3   OH212408   0.611   3.896   2.649
 4156TIP3    H112409   0.621   3.963   2.716
 4156TIP3    H212410   0.541   3.929   2.592
 4157TIP3   OH212411   7.998   4.857   5.839
 4157TIP3    H112412   8.058   4.929   5.820
 4157TIP3    H212413   7.959   4.879   5.923
 4158TIP3   OH212414   4.965   2.205   5.331
 4158TIP3    H112415   5.061   2.197   5.330
 4158TIP3    H212416   4.936   2.141   5.266
 4159TIP3   OH212417   2.020   6.057   4.584
 4159TIP3    H112418   2.036   6.096   4.498
 4159TIP3    H212419   1.999   5.966   4.565
 4160TIP3   OH212420   2.731   0.878   1.620
 4160TIP3    H112421   2.693   0.809   1.566
 4160TIP3    H212422   2.740   0.839   1.707
 4161TIP3   OH212423   2.202   6.544   5.801
 4161TIP3    H112424   2.255   6.467   5.781
 4161TIP3    H212425   2.119   6.528   5.756
 4162TIP3   OH212426   4.542   2.685   2.522
 4162TIP3    H112427   4.540   2.608   2.464
 4162TIP3    H212428   4.556   2.759   2.463
 4163TIP3   OH212429   8.319   6.508   3.241
 4163TIP3    H112430   8.273   6.448   3.299
 4163TIP3    H212431   8.407   6.472   3.234
 4164TIP3   OH212432   2.065   4.724   6.272
 4164TIP3    H112433   2.020   4.783   6.333
 4164TIP3    H212434   2.108   4.782   6.210
 4165TIP3   OH212435   2.247   3.753   6.371
 4165TIP3    H112436   2.262   3.840   6.410
 4165TIP3    H212437   2.322   3.701   6.402
 4166TIP3   OH212438   4.046   7.091   2.130
 4166TIP3    H112439   4.080   7.131   2.210
 4166TIP3    H212440   4.082   7.145   2.059
 4167TIP3   OH212441   1.949   3.062   2.120
 4167TIP3    H112442   1.991   2.976   2.120
 4167TIP3    H212443   1.976   3.102   2.203
 4168TIP3   OH212444   0.937   7.756   6.840
 4168TIP3    H112445   0.999   7.770   6.769
 4168TIP3    H212446   0.919   7.843   6.874
 4169TIP3   OH212447   7.998   1.945   0.519
 4169TIP3    H112448   7.990   2.009   0.590
 4169TIP3    H212449   8.077   1.970   0.472
 4170TIP3   OH212450   1.921   2.693   6.675
 4170TIP3    H112451   1.892   2.777   6.639
 4170TIP3    H212452   1.967   2.716   6.755
 4171TIP3   OH212453   2.882   7.877   1.437
 4171TIP3    H112454   2.816   7.814   1.467
 4171TIP3    H212455   2.893   7.856   1.344
 4172TIP3   OH212456   3.164   5.189   5.367
 4172TIP3    H112457   3.144   5.176   5.274
 4172TIP3    H212458   3.249   5.147   5.379
 4173TIP3   OH212459   7.681   3.025   4.674
 4173TIP3    H112460   7.650   2.965   4.606
 4173TIP3    H212461   7.753   3.072   4.633
 4174TIP3   OH212462   7.636   5.940   6.678
 4174TIP3    H112463   7.596   6.015   6.723
 4174TIP3    H212464   7.690   5.898   6.746
 4175TIP3   OH212465   6.437   5.556   6.541
 4175TIP3    H112466   6.471   5.645   6.524
 4175TIP3    H212467   6.348   5.570   6.573
 4176TIP3   OH212468   3.488   3.262   0.676
 4176TIP3    H112469   3.440   3.257   0.759
 4176TIP3    H212470   3.507   3.355   0.665
 4177TIP3   OH212471   1.779   5.419   2.747
 4177TIP3    H112472   1.759   5.495   2.693
 4177TIP3    H212473   1.697   5.370   2.750
 4178TIP3   OH212474   1.003   6.099   0.818
 4178TIP3    H112475   1.052   6.072   0.740
 4178TIP3    H212476   0.915   6.064   0.803
 4179TIP3   OH212477   3.500   1.067   3.571
 4179TIP3    H112478   3.405   1.058   3.568
 4179TIP3    H212479   3.533   0.992   3.523
 4180TIP3   OH212480   7.583   1.476   2.236
 4180TIP3    H112481   7.623   1.398   2.273
 4180TIP3    H212482   7.520   1.443   2.172
 4181TIP3   OH212483   4.850   3.257   3.916
 4181TIP3    H112484   4.787   3.265   3.988
 4181TIP3    H212485   4.866   3.163   3.908
 4182TIP3   OH212486   6.212   1.748   0.378
 4182TIP3    H112487   6.170   1.824   0.417
 4182TIP3    H212488   6.263   1.709   0.449
 4183TIP3   OH212489   0.205   1.025   2.143
 4183TIP3    H112490   0.168   1.068   2.220
 4183TIP3    H212491   0.292   0.997   2.171
 4184TIP3   OH212492   1.140   2.890   2.376
 4184TIP3    H112493   1.205   2.857   2.313
 4184TIP3    H212494   1.190   2.946   2.435
 4185TIP3   OH212495   6.762   6.499   1.947
 4185TIP3    H112496   6.670   6.478   1.936
 4185TIP3    H212497   6.775   6.580   1.899
 4186TIP3   OH212498   1.769   3.697   0.244
 4186TIP3    H112499   1.777   3.755   0.168
 4186TIP3    H212500   1.681   3.714   0.279
 4187TIP3   OH212501   2.623   7.249   5.917
 4187TIP3    H112502   2.574   7.273   5.995
 4187TIP3    H212503   2.680   7.324   5.900
 4188TIP3   OH212504   0.423   5.494   2.553
 4188TIP3    H112505   0.457   5.489   2.464
 4188TIP3    H212506   0.409   5.587   2.569
 4189TIP3   OH212507   5.237   3.381   6.476
 4189TIP3    H112508   5.248   3.288   6.497
 4189TIP3    H212509   5.265   3.388   6.385
 4190TIP3   OH212510   7.449   6.594   4.643
 4190TIP3    H112511   7.416   6.643   4.568
 4190TIP3    H212512   7.391   6.619   4.715
 4191TIP3   OH212513   1.781   7.012   2.908
 4191TIP3    H112514   1.717   6.972   2.849
 4191TIP3    H212515   1.751   6.988   2.995
 4192TIP3   OH212516   5.130   0.180   6.561
 4192TIP3    H112517   5.053   0.218   6.603
 4192TIP3    H212518   5.100   0.096   6.526
 4193TIP3   OH212519   8.384   3.911   5.662
 4193TIP3    H112520   8.318   3.946   5.722
 4193TIP3    H212521   8.406   3.826   5.698
 4194TIP3   OH212522   7.586   4.697   1.505
 4194TIP3    H112523   7.668   4.664   1.542
 4194TIP3    H212524   7.558   4.628   1.444
 4195TIP3   OH212525   4.960   5.728   3.782
 4195TIP3    H112526   4.992   5.796   3.722
 4195TIP3    H212527   5.024   5.658   3.775
 4196TIP3   OH212528   1.625   5.077   4.012
 4196TIP3    H112529   1.681   5.088   3.935
 4196TIP3    H212530   1.571   5.000   3.991
 4197TIP3   OH212531   8.061   5.132   0.114
 4197TIP3    H112532   8.084   5.115   0.205
 4197TIP3    H212533   7.981   5.082   0.099
 4198TIP3   OH212534   4.596   5.283   2.229
 4198TIP3    H112535   4.649   5.227   2.173
 4198TIP3    H212536   4.589   5.234   2.311
 4199TIP3   OH212537   6.796   2.506   4.414
 4199TIP3    H112538   6.712   2.542   4.388
 4199TIP3    H212539   6.816   2.548   4.497
 4200TIP3   OH212540   5.114   0.638   2.261
 4200TIP3    H112541   5.078   0.717   2.222
 4200TIP3    H212542   5.041   0.600   2.311
 4201TIP3   OH212543   0.671   4.505   5.668
 4201TIP3    H112544   0.739   4.502   5.736
 4201TIP3    H212545   0.704   4.450   5.598
 4202TIP3   OH212546   1.956   1.333   1.706
 4202TIP3    H112547   1.940   1.428   1.708
 4202TIP3    H212548   1.955   1.310   1.613
 4203TIP3   OH212549   3.293   2.941   1.558
 4203TIP3    H112550   3.341   3.001   1.500
 4203TIP3    H212551   3.357   2.874   1.581
 4204TIP3   OH212552   2.093   5.173   1.348
 4204TIP3    H112553   2.171   5.150   1.399
 4204TIP3    H212554   2.127   5.216   1.270
 4205TIP3   OH212555   7.853   2.122   3.169
 4205TIP3    H112556   7.841   2.124   3.074
 4205TIP3    H212557   7.848   2.029   3.192
 4206TIP3   OH212558   1.786   7.940   4.230
 4206TIP3    H112559   1.811   7.906   4.144
 4206TIP3    H212560   1.856   7.911   4.288
 4207TIP3   OH212561   5.349   5.205   4.473
 4207TIP3    H112562   5.377   5.251   4.552
 4207TIP3    H212563   5.430   5.170   4.436
 4208TIP3   OH212564   1.677   4.133   1.885
 4208TIP3    H112565   1.646   4.080   1.812
 4208TIP3    H212566   1.606   4.195   1.902
 4209TIP3   OH212567   0.119   3.480   6.641
 4209TIP3    H112568   0.043   3.538   6.633
 4209TIP3    H212569   0.126   3.462   6.735
 4210TIP3   OH212570   8.117   4.981   6.566
 4210TIP3    H112571   8.202   5.020   6.543
 4210TIP3    H212572   8.054   5.027   6.511
 4211TIP3   OH212573   3.800   0.092   5.468
 4211TIP3    H112574   3.729   0.093   5.403
 4211TIP3    H212575   3.850   0.013   5.447
 4212TIP3   OH212576   3.972   4.584   2.067
 4212TIP3    H112577   3.953   4.672   2.032
 4212TIP3    H212578   4.004   4.535   1.992
 4213TIP3   OH212579   1.508   1.624   4.491
 4213TIP3    H112580   1.579   1.561   4.487
 4213TIP3    H212581   1.474   1.629   4.402
 4214TIP3   OH212582   1.199   2.072   4.435
 4214TIP3    H112583   1.253   2.044   4.361
 4214TIP3    H212584   1.247   2.146   4.473
 4215TIP3   OH212585   5.743   3.474   0.646
 4215TIP3    H112586   5.764   3.394   0.598
 4215TIP3    H212587   5.798   3.472   0.724
 4216TIP3   OH212588   1.263   2.528   1.798
 4216TIP3    H112589   1.255   2.432   1.797
 4216TIP3    H212590   1.196   2.557   1.860
 4217TIP3   OH212591   4.448   5.447   0.108
 4217TIP3    H112592   4.509   5.385   0.146
 4217TIP3    H212593   4.362   5.421   0.142
 4218TIP3   OH212594   3.315   6.285   4.493
 4218TIP3    H112595   3.334   6.208   4.440
 4218TIP3    H212596   3.324   6.254   4.584
 4219TIP3   OH212597   1.270   1.983   4.181
 4219TIP3    H112598   1.229   1.896   4.177
 4219TIP3    H212599   1.332   1.983   4.107
 4220TIP3   OH212600   5.257   6.673   6.296
 4220TIP3    H112601   5.222   6.650   6.382
 4220TIP3    H212602   5.350   6.656   6.303
 4221TIP3   OH212603   3.926   0.631   6.763
 4221TIP3    H112604   3.987   0.606   6.833
 4221TIP3    H212605   3.967   0.597   6.683
 4222TIP3   OH212606   3.008   2.135   5.989
 4222TIP3    H112607   3.003   2.054   5.936
 4222TIP3    H212608   3.000   2.105   6.079
 4223TIP3   OH212609   7.837   2.719   0.885
 4223TIP3    H112610   7.847   2.632   0.846
 4223TIP3    H212611   7.867   2.708   0.975
 4224TIP3   OH212612   4.958   0.708   0.980
 4224TIP3    H112613   5.050   0.708   1.006
 4224TIP3    H212614   4.910   0.727   1.061
 4225TIP3   OH212615   3.673   4.387   6.255
 4225TIP3    H112616   3.756   4.433   6.244
 4225TIP3    H212617   3.609   4.455   6.276
 4226TIP3   OH212618   6.608   6.546   1.275
 4226TIP3    H112619   6.540   6.611   1.293
 4226TIP3    H212620   6.660   6.584   1.204
 4227TIP3   OH212621   3.957   6.720   2.180
 4227TIP3    H112622   4.040   6.752   2.216
 4227TIP3    H212623   3.919   6.797   2.136
 4228TIP3   OH212624   5.376   3.742   6.562
 4228TIP3    H112625   5.467   3.716   6.547
 4228TIP3    H212626   5.335   3.664   6.601
 4229TIP3   OH212627   7.358   1.644   2.711
 4229TIP3    H112628   7.425   1.675   2.651
 4229TIP3    H212629   7.290   1.712   2.709
 4230TIP3   OH212630   0.942   6.711   2.933
 4230TIP3    H112631   0.997   6.737   2.859
 4230TIP3    H212632   0.879   6.782   2.942
 4231TIP3   OH212633   2.768   5.069   3.971
 4231TIP3    H112634   2.801   5.033   3.889
 4231TIP3    H212635   2.804   5.158   3.975
 4232TIP3   OH212636   4.155   4.005   5.775
 4232TIP3    H112637   4.230   3.950   5.800
 4232TIP3    H212638   4.161   4.081   5.833
 4233TIP3   OH212639   7.144   4.653   2.597
 4233TIP3    H112640   7.151   4.702   2.515
 4233TIP3    H212641   7.097   4.573   2.573
 4234TIP3   OH212642   0.694   2.263   2.777
 4234TIP3    H112643   0.765   2.254   2.713
 4234TIP3    H212644   0.696   2.355   2.802
 4235TIP3   OH212645   7.820   5.350   2.120
 4235TIP3    H112646   7.802   5.289   2.191
 4235TIP3    H212647   7.912   5.337   2.099
 4236TIP3   OH212648   4.016   3.811   0.458
 4236TIP3    H112649   4.061   3.734   0.492
 4236TIP3    H212650   3.925   3.782   0.446
 4237TIP3   OH212651   0.057   3.370   1.658
 4237TIP3    H112652   0.020   3.283   1.646
 4237TIP3    H212653   0.151   3.355   1.667
 4238TIP3   OH212654   1.371   2.276   4.525
 4238TIP3    H112655   1.311   2.321   4.585
 4238TIP3    H212656   1.440   2.242   4.582
 4239TIP3   OH212657   0.185   7.675   5.814
 4239TIP3    H112658   0.132   7.752   5.793
 4239TIP3    H212659   0.189   7.675   5.910
 4240TIP3   OH212660   1.336   6.894   0.509
 4240TIP3    H112661   1.415   6.841   0.511
 4240TIP3    H212662   1.354   6.960   0.442
 4241TIP3   OH212663   5.306   6.135   4.546
 4241TIP3    H112664   5.254   6.094   4.477
 4241TIP3    H212665   5.248   6.201   4.584
 4242TIP3   OH212666   7.933   0.903   2.960
 4242TIP3    H112667   7.892   0.817   2.966
 4242TIP3    H212668   8.016   0.887   2.914
 4243TIP3   OH212669   1.891   1.023   5.787
 4243TIP3    H112670   1.929   0.973   5.715
 4243TIP3    H212671   1.797   1.008   5.779
 4244TIP3   OH212672   1.794   4.835   6.054
 4244TIP3    H112673   1.809   4.912   6.000
 4244TIP3    H212674   1.878   4.789   6.055
 4245TIP3   OH212675   7.335   1.637   4.706
 4245TIP3    H112676   7.251   1.625   4.750
 4245TIP3    H212677   7.397   1.658   4.777
 4246TIP3   OH212678   5.106   6.909   0.636
 4246TIP3    H112679   5.147   6.824   0.651
 4246TIP3    H212680   5.013   6.890   0.627
 4247TIP3   OH212681   5.545   4.378   4.494
 4247TIP3    H112682   5.542   4.284   4.474
 4247TIP3    H212683   5.482   4.417   4.434
 4248TIP3   OH212684   0.955   4.678   5.586
 4248TIP3    H112685   0.947   4.704   5.678
 4248TIP3    H212686   0.934   4.584   5.586
 4249TIP3   OH212687   1.888   1.845   1.857
 4249TIP3    H112688   1.860   1.910   1.793
 4249TIP3    H212689   1.946   1.787   1.808
 4250TIP3   OH212690   6.032   6.980   6.570
 4250TIP3    H112691   6.012   7.073   6.582
 4250TIP3    H212692   6.127   6.975   6.575
 4251TIP3   OH212693   7.903   4.237   0.067
 4251TIP3    H112694   7.867   4.251   0.155
 4251TIP3    H212695   7.988   4.196   0.082
 4252TIP3   OH212696   4.528   4.375   4.695
 4252TIP3    H112697   4.481   4.429   4.758
 4252TIP3    H212698   4.551   4.296   4.745
 4253TIP3   OH212699   2.469   5.068   3.356
 4253TIP3    H112700   2.542   5.062   3.417
 4253TIP3    H212701   2.398   5.108   3.407
 4254TIP3   OH212702   6.441   1.396   1.968
 4254TIP3    H112703   6.509   1.386   2.035
 4254TIP3    H212704   6.431   1.490   1.957
 4255TIP3   OH212705   1.860   7.273   0.622
 4255TIP3    H112706   1.796   7.221   0.574
 4255TIP3    H212707   1.919   7.209   0.661
 4256TIP3   OH212708   4.100   4.958   5.308
 4256TIP3    H112709   4.054   4.889   5.259
 4256TIP3    H212710   4.167   4.911   5.358
 4257TIP3   OH212711   5.214   4.141   0.645
 4257TIP3    H112712   5.171   4.123   0.561
 4257TIP3    H212713   5.161   4.210   0.685
 4258TIP3   OH212714   2.600   1.311   1.248
 4258TIP3    H112715   2.616   1.388   1.303
 4258TIP3    H212716   2.525   1.268   1.289
 4259TIP3   OH212717   5.870   5.007   0.439
 4259TIP3    H112718   5.877   4.996   0.534
 4259TIP3    H212719   5.943   5.064   0.415
 4260TIP3   OH212720   6.521   2.568   1.156
 4260TIP3    H112721   6.501   2.586   1.247
 4260TIP3    H212722   6.506   2.650   1.110
 4261TIP3   OH212723   7.451   7.179   2.100
 4261TIP3    H112724   7.496   7.102   2.135
 4261TIP3    H212725   7.361   7.151   2.089
 4262TIP3   OH212726   4.801   1.317   5.602
 4262TIP3    H112727   4.734   1.272   5.655
 4262TIP3    H212728   4.883   1.297   5.646
 4263TIP3   OH212729   3.781   7.916   2.681
 4263TIP3    H112730   3.753   7.846   2.622
 4263TIP3    H212731   3.725   7.907   2.758
 4264TIP3   OH212732   1.419   4.555   4.307
 4264TIP3    H112733   1.357   4.628   4.314
 4264TIP3    H212734   1.497   4.586   4.352
 4265TIP3   OH212735   7.341   2.360   1.221
 4265TIP3    H112736   7.405   2.313   1.168
 4265TIP3    H212737   7.389   2.434   1.257
 4266TIP3   OH212738   8.304   1.353   0.729
 4266TIP3    H112739   8.229   1.302   0.758
 4266TIP3    H212740   8.374   1.330   0.790
 4267TIP3   OH212741   6.613   3.756   5.206
 4267TIP3    H112742   6.550   3.688   5.228
 4267TIP3    H212743   6.673   3.758   5.281
 4268TIP3   OH212744   5.775   6.695   0.011
 4268TIP3    H112745   5.825   6.632  -0.042
 4268TIP3    H212746   5.764   6.652   0.096
 4269TIP3   OH212747   6.910   6.240   1.851
 4269TIP3    H112748   6.875   6.244   1.940
 4269TIP3    H212749   6.980   6.175   1.856
 4270TIP3   OH212750   8.107   0.495   0.939
 4270TIP3    H112751   8.141   0.582   0.918
 4270TIP3    H212752   8.172   0.459   0.999
 4271TIP3   OH212753   3.457   2.248   5.741
 4271TIP3    H112754   3.428   2.339   5.751
 4271TIP3    H212755   3.377   2.196   5.753
 4272TIP3   OH212756   0.786   4.057   3.877
 4272TIP3    H112757   0.768   4.053   3.971
 4272TIP3    H212758   0.880   4.038   3.870
 4273TIP3   OH212759   0.010   7.556   4.899
 4273TIP3    H112760  -0.083   7.544   4.881
 4273TIP3    H212761   0.048   7.581   4.814
 4274TIP3   OH212762   8.406   6.894   1.946
 4274TIP3    H112763   8.363   6.949   1.880
 4274TIP3    H212764   8.395   6.805   1.913
 4275TIP3   OH212765   4.533   2.466   1.247
 4275TIP3    H112766   4.524   2.415   1.328
 4275TIP3    H212767   4.627   2.463   1.229
 4276TIP3   OH212768   4.066   5.552   0.877
 4276TIP3    H112769   4.159   5.558   0.901
 4276TIP3    H212770   4.020   5.598   0.947
 4277TIP3   OH212771   3.865   4.021   5.693
 4277TIP3    H112772   3.958   4.000   5.707
 4277TIP3    H212773   3.851   4.101   5.742
 4278TIP3   OH212774   6.106   4.564   1.599
 4278TIP3    H112775   6.108   4.585   1.692
 4278TIP3    H212776   6.090   4.470   1.596
 4279TIP3   OH212777   0.639   5.509   3.531
 4279TIP3    H112778   0.634   5.469   3.444
 4279TIP3    H212779   0.563   5.566   3.536
 4280TIP3   OH212780   8.316   6.696   3.631
 4280TIP3    H112781   8.298   6.611   3.671
 4280TIP3    H212782   8.243   6.710   3.571
 4281TIP3   OH212783   7.771   0.056   0.345
 4281TIP3    H112784   7.783   0.114   0.271
 4281TIP3    H212785   7.711   0.102   0.404
 4282TIP3   OH212786   3.442   4.674   4.580
 4282TIP3    H112787   3.399   4.757   4.559
 4282TIP3    H212788   3.457   4.633   4.495
 4283TIP3   OH212789   4.819   6.435   2.848
 4283TIP3    H112790   4.775   6.351   2.853
 4283TIP3    H212791   4.892   6.428   2.909
 4284TIP3   OH212792   2.857   0.726   6.580
 4284TIP3    H112793   2.913   0.651   6.596
 4284TIP3    H212794   2.886   0.760   6.495
 4285TIP3   OH212795   4.201   7.476   6.354
 4285TIP3    H112796   4.155   7.460   6.437
 4285TIP3    H212797   4.184   7.568   6.335
 4286TIP3   OH212798   6.828   7.251   1.713
 4286TIP3    H112799   6.884   7.323   1.740
 4286TIP3    H212800   6.790   7.280   1.629
 4287TIP3   OH212801   6.068   0.900   5.967
 4287TIP3    H112802   5.998   0.884   5.905
 4287TIP3    H212803   6.024   0.936   6.045
 4288TIP3   OH212804   7.464   3.247   3.732
 4288TIP3    H112805   7.490   3.249   3.824
 4288TIP3    H212806   7.370   3.229   3.733
 4289TIP3   OH212807   4.397   1.824   3.323
 4289TIP3    H112808   4.412   1.744   3.273
 4289TIP3    H212809   4.449   1.812   3.403
 4290TIP3   OH212810   2.664   1.003   6.497
 4290TIP3    H112811   2.672   1.087   6.543
 4290TIP3    H212812   2.748   0.960   6.510
 4291TIP3   OH212813   7.734   1.258   1.252
 4291TIP3    H112814   7.805   1.195   1.249
 4291TIP3    H212815   7.728   1.284   1.344
 4292TIP3   OH212816   1.257   6.676   4.860
 4292TIP3    H112817   1.254   6.759   4.907
 4292TIP3    H212818   1.289   6.612   4.925
 4293TIP3   OH212819   6.390   4.262   0.279
 4293TIP3    H112820   6.473   4.304   0.255
 4293TIP3    H212821   6.328   4.292   0.213
 4294TIP3   OH212822   4.897   6.517   4.512
 4294TIP3    H112823   4.883   6.612   4.510
 4294TIP3    H212824   4.814   6.480   4.481
 4295TIP3   OH212825   7.464   0.675   1.810
 4295TIP3    H112826   7.474   0.678   1.715
 4295TIP3    H212827   7.534   0.617   1.839
 4296TIP3   OH212828   7.302   5.057   6.713
 4296TIP3    H112829   7.276   4.985   6.655
 4296TIP3    H212830   7.397   5.054   6.714
 4297TIP3   OH212831   4.880   2.739   5.351
 4297TIP3    H112832   4.851   2.658   5.310
 4297TIP3    H212833   4.948   2.711   5.412
 4298TIP3   OH212834   5.786   5.831   2.229
 4298TIP3    H112835   5.839   5.797   2.158
 4298TIP3    H212836   5.815   5.922   2.239
 4299TIP3   OH212837   3.248   2.787   3.938
 4299TIP3    H112838   3.198   2.859   3.898
 4299TIP3    H212839   3.183   2.737   3.987
 4300TIP3   OH212840   4.701   3.955   3.679
 4300TIP3    H112841   4.648   4.001   3.744
 4300TIP3    H212842   4.643   3.886   3.645
 4301TIP3   OH212843   1.574   1.411   0.469
 4301TIP3    H112844   1.634   1.462   0.524
 4301TIP3    H212845   1.626   1.388   0.391
 4302TIP3   OH212846   3.291   4.214   5.536
 4302TIP3    H112847   3.355   4.201   5.606
 4302TIP3    H212848   3.315   4.150   5.469
 4303TIP3   OH212849   0.902   2.148   1.597
 4303TIP3    H112850   0.952   2.070   1.621
 4303TIP3    H212851   0.835   2.117   1.537
 4304TIP3   OH212852   5.602   3.749   4.363
 4304TIP3    H112853   5.682   3.780   4.319
 4304TIP3    H212854   5.569   3.680   4.306
 4305TIP3   OH212855   7.972   1.012   1.191
 4305TIP3    H112856   8.023   1.024   1.271
 4305TIP3    H212857   7.953   0.918   1.189
 4306TIP3   OH212858   6.116   7.514   6.689
 4306TIP3    H112859   6.055   7.583   6.717
 4306TIP3    H212860   6.197   7.533   6.736
 4307TIP3   OH212861   3.143   1.811   1.462
 4307TIP3    H112862   3.210   1.746   1.443
 4307TIP3    H212863   3.102   1.829   1.378
 4308TIP3   OH212864   0.758   0.626   1.678
 4308TIP3    H112865   0.694   0.668   1.735
 4308TIP3    H212866   0.823   0.694   1.660
 4309TIP3   OH212867   2.809   5.163   2.498
 4309TIP3    H112868   2.724   5.138   2.534
 4309TIP3    H212869   2.823   5.252   2.528
 4310TIP3   OH212870   7.434   6.062   3.380
 4310TIP3    H112871   7.468   5.997   3.441
 4310TIP3    H212872   7.344   6.036   3.363
 4311TIP3   OH212873   0.181   1.963   1.088
 4311TIP3    H112874   0.217   2.034   1.036
 4311TIP3    H212875   0.178   1.997   1.177
 4312TIP3   OH212876   7.284   5.329   6.609
 4312TIP3    H112877   7.301   5.236   6.594
 4312TIP3    H212878   7.329   5.373   6.536
 4313TIP3   OH212879   5.986   4.179   1.930
 4313TIP3    H112880   5.967   4.218   2.016
 4313TIP3    H212881   5.906   4.194   1.879
 4314TIP3   OH212882   8.319   6.977   6.724
 4314TIP3    H112883   8.346   6.902   6.776
 4314TIP3    H212884   8.225   6.964   6.711
 4315TIP3   OH212885   6.676   3.677   2.004
 4315TIP3    H112886   6.675   3.750   2.066
 4315TIP3    H212887   6.584   3.660   1.985
 4316TIP3   OH212888   2.301   2.094   0.540
 4316TIP3    H112889   2.248   2.120   0.465
 4316TIP3    H212890   2.375   2.047   0.501
 4317TIP3   OH212891   0.404   7.884   4.168
 4317TIP3    H112892   0.409   7.964   4.116
 4317TIP3    H212893   0.388   7.915   4.257
 4318TIP3   OH212894   2.366   5.218   6.609
 4318TIP3    H112895   2.365   5.141   6.667
 4318TIP3    H212896   2.437   5.272   6.643
 4319TIP3   OH212897   4.376   6.340   0.601
 4319TIP3    H112898   4.384   6.306   0.690
 4319TIP3    H212899   4.372   6.263   0.545
 4320TIP3   OH212900   0.897   1.941   3.309
 4320TIP3    H112901   0.869   2.033   3.309
 4320TIP3    H212902   0.857   1.904   3.230
 4321TIP3   OH212903   6.850   3.595   0.073
 4321TIP3    H112904   6.852   3.589  -0.022
 4321TIP3    H212905   6.762   3.628   0.093
 4322TIP3   OH212906   5.923   1.789   6.032
 4322TIP3    H112907   6.000   1.754   6.078
 4322TIP3    H212908   5.852   1.730   6.056
 4323TIP3   OH212909   2.255   0.930   5.812
 4323TIP3    H112910   2.246   1.025   5.824
 4323TIP3    H212911   2.311   0.902   5.884
 4324TIP3   OH212912   3.532   4.302   2.790
 4324TIP3    H112913   3.495   4.270   2.708
 4324TIP3    H212914   3.581   4.228   2.826
 4325TIP3   OH212915   3.934   2.579   2.946
 4325TIP3    H112916   3.979   2.621   2.873
 4325TIP3    H212917   3.925   2.648   3.012
 4326TIP3   OH212918   3.578   3.659   3.387
 4326TIP3    H112919   3.498   3.685   3.432
 4326TIP3    H212920   3.595   3.570   3.418
 4327TIP3   OH212921   5.237   0.746   2.903
 4327TIP3    H112922   5.270   0.668   2.947
 4327TIP3    H212923   5.203   0.714   2.820
 4328TIP3   OH212924   7.644   7.876   0.871
 4328TIP3    H112925   7.587   7.825   0.813
 4328TIP3    H212926   7.694   7.811   0.919
 4329TIP3   OH212927   0.769   6.764   0.540
 4329TIP3    H112928   0.681   6.800   0.527
 4329TIP3    H212929   0.827   6.839   0.528
 4330TIP3   OH212930   3.618   3.938   1.615
 4330TIP3    H112931   3.627   3.844   1.602
 4330TIP3    H212932   3.693   3.975   1.567
 4331TIP3   OH212933   0.497   5.534   4.356
 4331TIP3    H112934   0.447   5.470   4.304
 4331TIP3    H212935   0.569   5.483   4.393
 4332TIP3   OH212936   8.143   2.167   5.895
 4332TIP3    H112937   8.069   2.216   5.931
 4332TIP3    H212938   8.178   2.119   5.969
 4333TIP3   OH212939   7.084   0.658   1.331
 4333TIP3    H112940   7.123   0.711   1.261
 4333TIP3    H212941   6.999   0.631   1.297
 4334TIP3   OH212942   1.597   3.369   4.715
 4334TIP3    H112943   1.642   3.306   4.660
 4334TIP3    H212944   1.660   3.392   4.783
 4335TIP3   OH212945   3.526   1.041   5.882
 4335TIP3    H112946   3.435   1.053   5.910
 4335TIP3    H212947   3.521   0.981   5.808
 4336TIP3   OH212948   8.021   1.567   4.970
 4336TIP3    H112949   7.950   1.507   4.946
 4336TIP3    H212950   7.984   1.654   4.960
 4337TIP3   OH212951   3.389   6.846   1.635
 4337TIP3    H112952   3.467   6.863   1.582
 4337TIP3    H212953   3.357   6.761   1.605
 4338TIP3   OH212954   5.933   0.807   5.174
 4338TIP3    H112955   5.956   0.754   5.250
 4338TIP3    H212956   5.966   0.894   5.194
 4339TIP3   OH212957   5.956   0.908   1.752
 4339TIP3    H112958   5.980   0.828   1.797
 4339TIP3    H212959   6.004   0.977   1.797
 4340TIP3   OH212960   1.572   0.311   5.701
 4340TIP3    H112961   1.593   0.386   5.646
 4340TIP3    H212962   1.566   0.237   5.641
 4341TIP3   OH212963   2.747   7.384   5.416
 4341TIP3    H112964   2.713   7.425   5.336
 4341TIP3    H212965   2.837   7.359   5.393
 4342TIP3   OH212966   2.145   2.741   3.161
 4342TIP3    H112967   2.077   2.696   3.211
 4342TIP3    H212968   2.151   2.691   3.079
 4343TIP3   OH212969   6.549   1.619   1.132
 4343TIP3    H112970   6.498   1.624   1.213
 4343TIP3    H212971   6.535   1.704   1.089
 4344TIP3   OH212972   3.565   6.534   2.767
 4344TIP3    H112973   3.472   6.525   2.789
 4344TIP3    H212974   3.566   6.550   2.672
 4345TIP3   OH212975   5.659   5.569   1.160
 4345TIP3    H112976   5.750   5.539   1.165
 4345TIP3    H212977   5.611   5.493   1.126
 4346TIP3   OH212978   6.110   0.586   3.929
 4346TIP3    H112979   6.167   0.654   3.893
 4346TIP3    H212980   6.170   0.519   3.963
 4347TIP3   OH212981   3.148   2.494   0.132
 4347TIP3    H112982   3.214   2.563   0.133
 4347TIP3    H212983   3.171   2.437   0.205
 4348TIP3   OH212984   6.212   6.868   0.066
 4348TIP3    H112985   6.260   6.939   0.024
 4348TIP3    H212986   6.129   6.863   0.018
 4349TIP3   OH212987   0.399   0.412   4.245
 4349TIP3    H112988   0.313   0.454   4.241
 4349TIP3    H212989   0.398   0.348   4.174
 4350TIP3   OH212990   4.394   4.419   4.469
 4350TIP3    H112991   4.340   4.342   4.450
 4350TIP3    H212992   4.424   4.405   4.558
 4351TIP3   OH212993   2.320   5.175   1.495
 4351TIP3    H112994   2.310   5.224   1.576
 4351TIP3    H212995   2.402   5.208   1.457
 4352TIP3   OH212996   1.973   2.317   2.629
 4352TIP3    H112997   1.898   2.292   2.576
 4352TIP3    H212998   1.963   2.267   2.710
 4353TIP3   OH212999   7.059   7.576   4.183
 4353TIP3    H113000   7.071   7.524   4.263
 4353TIP3    H213001   7.129   7.641   4.187
 4354TIP3   OH213002   4.727   6.811   5.312
 4354TIP3    H113003   4.724   6.780   5.222
 4354TIP3    H213004   4.677   6.747   5.362
 4355TIP3   OH213005   1.364   0.834   2.593
 4355TIP3    H113006   1.455   0.808   2.607
 4355TIP3    H213007   1.313   0.757   2.620
 4356TIP3   OH213008   1.698   6.913   1.816
 4356TIP3    H113009   1.628   6.961   1.860
 4356TIP3    H213010   1.659   6.888   1.731
 4357TIP3   OH213011   0.123   0.680   1.898
 4357TIP3    H113012   0.204   0.715   1.934
 4357TIP3    H213013   0.146   0.649   1.810
 4358TIP3   OH213014   2.580   3.044   2.481
 4358TIP3    H113015   2.625   3.066   2.562
 4358TIP3    H213016   2.496   3.089   2.486
 4359TIP3   OH213017   4.170   7.066   4.012
 4359TIP3    H113018   4.261   7.036   4.007
 4359TIP3    H213019   4.163   7.105   4.099
 4360TIP3   OH213020   5.230   5.883   5.366
 4360TIP3    H113021   5.145   5.875   5.324
 4360TIP3    H213022   5.285   5.928   5.302
 4361TIP3   OH213023   4.432   7.764   6.066
 4361TIP3    H113024   4.433   7.788   5.973
 4361TIP3    H213025   4.504   7.701   6.075
 4362TIP3   OH213026   5.708   1.628   4.109
 4362TIP3    H113027   5.758   1.645   4.189
 4362TIP3    H213028   5.766   1.574   4.055
 4363TIP3   OH213029   1.762   2.470   3.666
 4363TIP3    H113030   1.850   2.479   3.702
 4363TIP3    H213031   1.741   2.377   3.677
 4364TIP3   OH213032   4.014   2.310   3.201
 4364TIP3    H113033   4.094   2.344   3.160
 4364TIP3    H213034   3.999   2.369   3.276
 4365TIP3   OH213035   5.906   0.506   6.808
 4365TIP3    H113036   5.974   0.505   6.876
 4365TIP3    H213037   5.915   0.422   6.764
 4366TIP3   OH213038   5.584   4.484   5.163
 4366TIP3    H113039   5.499   4.513   5.195
 4366TIP3    H213040   5.573   4.474   5.069
 4367TIP3   OH213041   2.191   6.629   2.232
 4367TIP3    H113042   2.272   6.642   2.281
 4367TIP3    H213043   2.200   6.685   2.155
 4368TIP3   OH213044   5.937   0.964   2.562
 4368TIP3    H113045   6.030   0.976   2.581
 4368TIP3    H213046   5.898   0.941   2.646
 4369TIP3   OH213047   7.842   4.542   5.505
 4369TIP3    H113048   7.860   4.619   5.559
 4369TIP3    H213049   7.922   4.490   5.509
 4370TIP3   OH213050   8.013   1.268   6.564
 4370TIP3    H113051   8.086   1.257   6.626
 4370TIP3    H213052   8.003   1.182   6.523
 4371TIP3   OH213053   5.589   2.022   2.141
 4371TIP3    H113054   5.611   2.111   2.170
 4371TIP3    H213055   5.529   1.989   2.207
 4372TIP3   OH213056   3.209   2.174   0.586
 4372TIP3    H113057   3.231   2.128   0.505
 4372TIP3    H213058   3.294   2.195   0.625
 4373TIP3   OH213059   1.702   1.676   0.845
 4373TIP3    H113060   1.651   1.731   0.785
 4373TIP3    H213061   1.644   1.603   0.866
 4374TIP3   OH213062   6.133   4.816   1.322
 4374TIP3    H113063   6.178   4.901   1.319
 4374TIP3    H213064   6.070   4.820   1.250
 4375TIP3   OH213065   0.141   2.870   5.908
 4375TIP3    H113066   0.135   2.777   5.931
 4375TIP3    H213067   0.165   2.870   5.815
 4376TIP3   OH213068   2.611   1.996   4.856
 4376TIP3    H113069   2.682   1.999   4.792
 4376TIP3    H213070   2.648   1.950   4.931
 4377TIP3   OH213071   0.974   5.192   1.308
 4377TIP3    H113072   1.066   5.168   1.316
 4377TIP3    H213073   0.975   5.286   1.286
 4378TIP3   OH213074   2.535   5.710   5.363
 4378TIP3    H113075   2.471   5.745   5.424
 4378TIP3    H213076   2.489   5.640   5.317
 4379TIP3   OH213077   2.219   4.064   6.406
 4379TIP3    H113078   2.254   4.126   6.471
 4379TIP3    H213079   2.149   4.112   6.363
 4380TIP3   OH213080   4.872   6.601   2.624
 4380TIP3    H113081   4.886   6.545   2.700
 4380TIP3    H213082   4.877   6.541   2.549
 4381TIP3   OH213083   4.077   4.197   4.724
 4381TIP3    H113084   4.168   4.222   4.742
 4381TIP3    H213085   4.041   4.176   4.809
 4382TIP3   OH213086   3.967   1.758   2.991
 4382TIP3    H113087   4.022   1.793   3.062
 4382TIP3    H213088   3.967   1.827   2.924
 4383TIP3   OH213089   2.384   2.202   2.876
 4383TIP3    H113090   2.391   2.208   2.971
 4383TIP3    H213091   2.365   2.109   2.859
 4384TIP3   OH213092   5.063   2.002   4.668
 4384TIP3    H113093   5.073   1.919   4.620
 4384TIP3    H213094   5.078   1.979   4.759
 4385TIP3   OH213095   7.216   6.559   4.808
 4385TIP3    H113096   7.189   6.467   4.804
 4385TIP3    H213097   7.143   6.607   4.769
 4386TIP3   OH213098   4.570   3.371   4.928
 4386TIP3    H113099   4.563   3.276   4.935
 4386TIP3    H213100   4.653   3.393   4.970
 4387TIP3   OH213101   1.359   2.646   0.798
 4387TIP3    H113102   1.314   2.726   0.769
 4387TIP3    H213103   1.293   2.599   0.848
 4388TIP3   OH213104   3.521   0.772   1.931
 4388TIP3    H113105   3.520   0.724   1.848
 4388TIP3    H213106   3.610   0.807   1.938
 4389TIP3   OH213107   5.484   4.660   6.708
 4389TIP3    H113108   5.572   4.629   6.729
 4389TIP3    H213109   5.426   4.596   6.750
 4390TIP3   OH213110   7.318   5.360   5.786
 4390TIP3    H113111   7.403   5.323   5.808
 4390TIP3    H213112   7.331   5.455   5.793
 4391TIP3   OH213113   1.178   2.707   6.034
 4391TIP3    H113114   1.265   2.730   6.002
 4391TIP3    H213115   1.133   2.672   5.958
 4392TIP3   OH213116   0.235   1.356   2.387
 4392TIP3    H113117   0.241   1.426   2.452
 4392TIP3    H213118   0.185   1.394   2.315
 4393TIP3   OH213119   5.094   5.916   0.228
 4393TIP3    H113120   5.012   5.874   0.254
 4393TIP3    H213121   5.094   5.912   0.132
 4394TIP3   OH213122   5.187  -0.032   6.752
 4394TIP3    H113123   5.194   0.028   6.677
 4394TIP3    H213124   5.108  -0.083   6.735
 4395TIP3   OH213125   5.503   0.842   0.152
 4395TIP3    H113126   5.533   0.865   0.240
 4395TIP3    H213127   5.408   0.833   0.161
 4396TIP3   OH213128   3.240   7.531   3.299
 4396TIP3    H113129   3.333   7.524   3.319
 4396TIP3    H213130   3.213   7.613   3.340
 4397TIP3   OH213131   0.972   7.880   0.064
 4397TIP3    H113132   0.877   7.882   0.075
 4397TIP3    H213133   0.997   7.790   0.086
 4398TIP3   OH213134   0.577   2.230   6.562
 4398TIP3    H113135   0.498   2.274   6.532
 4398TIP3    H213136   0.649   2.277   6.519
 4399TIP3   OH213137   2.947   0.901   1.146
 4399TIP3    H113138   2.927   0.817   1.187
 4399TIP3    H213139   2.904   0.966   1.202
 4400TIP3   OH213140   4.898   7.336   4.896
 4400TIP3    H113141   4.903   7.333   4.800
 4400TIP3    H213142   4.987   7.317   4.925
 4401TIP3   OH213143   3.473   4.478   1.821
 4401TIP3    H113144   3.468   4.454   1.728
 4401TIP3    H213145   3.403   4.427   1.862
 4402TIP3   OH213146   3.581   5.588   1.079
 4402TIP3    H113147   3.646   5.592   1.009
 4402TIP3    H213148   3.562   5.494   1.088
 4403TIP3   OH213149   2.652   7.437   4.880
 4403TIP3    H113150   2.608   7.522   4.871
 4403TIP3    H213151   2.644   7.416   4.973
 4404TIP3   OH213152   6.324   3.142   4.066
 4404TIP3    H113153   6.301   3.051   4.046
 4404TIP3    H213154   6.335   3.183   3.980
 4405TIP3   OH213155   6.236   2.939   2.459
 4405TIP3    H113156   6.193   2.901   2.535
 4405TIP3    H213157   6.319   2.892   2.452
 4406TIP3   OH213158   4.504   0.806   2.218
 4406TIP3    H113159   4.458   0.743   2.273
 4406TIP3    H213160   4.447   0.882   2.216
 4407TIP3   OH213161   0.086   5.925   4.527
 4407TIP3    H113162   0.064   6.005   4.576
 4407TIP3    H213163   0.015   5.917   4.463
 4408TIP3   OH213164   7.450   1.064   4.966
 4408TIP3    H113165   7.501   0.988   4.994
 4408TIP3    H213166   7.428   1.045   4.874
 4409TIP3   OH213167   0.054   3.972   1.602
 4409TIP3    H113168   0.040   3.986   1.696
 4409TIP3    H213169   0.011   4.046   1.560
 4410TIP3   OH213170   7.392   4.325   4.407
 4410TIP3    H113171   7.470   4.277   4.377
 4410TIP3    H213172   7.348   4.352   4.327
 4411TIP3   OH213173   8.248   1.606   6.764
 4411TIP3    H113174   8.221   1.645   6.848
 4411TIP3    H213175   8.217   1.515   6.769
 4412TIP3   OH213176   1.369   4.965   3.793
 4412TIP3    H113177   1.276   4.986   3.787
 4412TIP3    H213178   1.381   4.933   3.882
 4413TIP3   OH213179   6.314   7.245   1.097
 4413TIP3    H113180   6.294   7.282   1.011
 4413TIP3    H213181   6.304   7.151   1.086
 4414TIP3   OH213182   4.700   6.316   4.750
 4414TIP3    H113183   4.732   6.234   4.711
 4414TIP3    H213184   4.663   6.365   4.676
 4415TIP3   OH213185   1.300   1.648   3.124
 4415TIP3    H113186   1.268   1.590   3.055
 4415TIP3    H213187   1.233   1.716   3.132
 4416TIP3   OH213188   7.606   5.365   3.087
 4416TIP3    H113189   7.686   5.418   3.085
 4416TIP3    H213190   7.597   5.339   3.178
 4417TIP3   OH213191   2.907   6.735   3.500
 4417TIP3    H113192   2.839   6.689   3.451
 4417TIP3    H213193   2.889   6.714   3.592
 4418TIP3   OH213194   0.158   0.122   6.432
 4418TIP3    H113195   0.188   0.210   6.454
 4418TIP3    H213196   0.233   0.081   6.389
 4419TIP3   OH213197   6.697   7.745   0.252
 4419TIP3    H113198   6.764   7.726   0.318
 4419TIP3    H213199   6.624   7.688   0.276
 4420TIP3   OH213200   0.086   7.721   1.705
 4420TIP3    H113201   0.030   7.774   1.648
 4420TIP3    H213202   0.057   7.742   1.793
 4421TIP3   OH213203   2.458   0.278   6.676
 4421TIP3    H113204   2.424   0.367   6.673
 4421TIP3    H213205   2.453   0.247   6.585
 4422TIP3   OH213206   8.300   4.636   6.769
 4422TIP3    H113207   8.212   4.622   6.805
 4422TIP3    H213208   8.324   4.551   6.732
 4423TIP3   OH213209   5.425   2.701   3.744
 4423TIP3    H113210   5.353   2.760   3.767
 4423TIP3    H213211   5.496   2.759   3.717
 4424TIP3   OH213212   5.476   3.323   2.553
 4424TIP3    H113213   5.407   3.347   2.615
 4424TIP3    H213214   5.492   3.231   2.571
 4425TIP3   OH213215   6.329   5.303   2.256
 4425TIP3    H113216   6.255   5.276   2.201
 4425TIP3    H213217   6.405   5.262   2.215
 4426TIP3   OH213218   4.620   4.928   4.878
 4426TIP3    H113219   4.569   4.883   4.811
 4426TIP3    H213220   4.642   4.860   4.941
 4427TIP3   OH213221   8.059   0.773   0.315
 4427TIP3    H113222   7.996   0.703   0.331
 4427TIP3    H213223   8.072   0.772   0.220
 4428TIP3   OH213224   2.644   4.600   4.439
 4428TIP3    H113225   2.689   4.522   4.473
 4428TIP3    H213226   2.591   4.631   4.512
 4429TIP3   OH213227   4.480   0.225   1.842
 4429TIP3    H113228   4.522   0.149   1.802
 4429TIP3    H213229   4.519   0.300   1.796
 4430TIP3   OH213230   8.275   6.933   6.395
 4430TIP3    H113231   8.194   6.885   6.413
 4430TIP3    H213232   8.310   6.954   6.482
 4431TIP3   OH213233   6.054   0.303   3.153
 4431TIP3    H113234   6.068   0.346   3.238
 4431TIP3    H213235   5.960   0.311   3.137
 4432TIP3   OH213236   0.737   5.282   6.346
 4432TIP3    H113237   0.685   5.356   6.378
 4432TIP3    H213238   0.683   5.244   6.277
 4433TIP3   OH213239   0.850   6.396   2.162
 4433TIP3    H113240   0.787   6.325   2.149
 4433TIP3    H213241   0.825   6.462   2.098
 4434TIP3   OH213242   1.363   6.178   2.603
 4434TIP3    H113243   1.335   6.135   2.522
 4434TIP3    H213244   1.338   6.118   2.673
 4435TIP3   OH213245   0.152   0.333   0.598
 4435TIP3    H113246   0.216   0.282   0.647
 4435TIP3    H213247   0.092   0.366   0.665
 4436TIP3   OH213248   2.499   5.649   3.235
 4436TIP3    H113249   2.416   5.672   3.193
 4436TIP3    H213250   2.499   5.700   3.316
 4437TIP3   OH213251   3.221   0.647   4.818
 4437TIP3    H113252   3.204   0.701   4.741
 4437TIP3    H213253   3.199   0.558   4.791
 4438TIP3   OH213254   7.424   6.311   3.210
 4438TIP3    H113255   7.407   6.382   3.273
 4438TIP3    H213256   7.426   6.232   3.264
 4439TIP3   OH213257   3.008   2.242   4.208
 4439TIP3    H113258   2.960   2.322   4.227
 4439TIP3    H213259   3.014   2.239   4.113
 4440TIP3   OH213260   1.487   2.598   5.323
 4440TIP3    H113261   1.398   2.629   5.339
 4440TIP3    H213262   1.475   2.517   5.274
 4441TIP3   OH213263   5.973   0.689   5.628
 4441TIP3    H113264   5.915   0.763   5.645
 4441TIP3    H213265   5.929   0.614   5.669
 4442TIP3   OH213266   1.228   2.343   4.015
 4442TIP3    H113267   1.209   2.260   4.059
 4442TIP3    H213268   1.162   2.404   4.049
 4443TIP3   OH213269   1.764   7.716   4.551
 4443TIP3    H113270   1.693   7.655   4.572
 4443TIP3    H213271   1.772   7.771   4.629
 4444TIP3   OH213272   1.457   2.479   1.101
 4444TIP3    H113273   1.441   2.546   1.169
 4444TIP3    H213274   1.419   2.399   1.137
 4445TIP3   OH213275   3.504   5.396   4.189
 4445TIP3    H113276   3.561   5.471   4.206
 4445TIP3    H213277   3.459   5.419   4.107
 4446TIP3   OH213278   5.746   1.136   5.063
 4446TIP3    H113279   5.817   1.105   5.119
 4446TIP3    H213280   5.780   1.125   4.974
 4447TIP3   OH213281   4.362   7.048   4.435
 4447TIP3    H113282   4.407   7.131   4.446
 4447TIP3    H213283   4.337   7.022   4.523
 4448TIP3   OH213284   1.741   2.082   4.615
 4448TIP3    H113285   1.734   2.114   4.525
 4448TIP3    H213286   1.654   2.096   4.652
 4449TIP3   OH213287   5.016   5.496   1.211
 4449TIP3    H113288   5.012   5.551   1.289
 4449TIP3    H213289   5.077   5.426   1.233
 4450TIP3   OH213290   4.642   5.294   3.551
 4450TIP3    H113291   4.593   5.376   3.543
 4450TIP3    H213292   4.650   5.262   3.461
 4451TIP3   OH213293   5.012   6.780   3.443
 4451TIP3    H113294   5.056   6.696   3.435
 4451TIP3    H213295   5.058   6.837   3.380
 4452TIP3   OH213296   5.274   5.532   4.339
 4452TIP3    H113297   5.362   5.560   4.366
 4452TIP3    H213298   5.244   5.601   4.280
 4453TIP3   OH213299   5.917   4.312   0.054
 4453TIP3    H113300   5.900   4.406   0.059
 4453TIP3    H213301   5.867   4.275   0.127
 4454TIP3   OH213302   2.744   4.491   1.307
 4454TIP3    H113303   2.817   4.507   1.247
 4454TIP3    H213304   2.679   4.445   1.255
 4455TIP3   OH213305   3.608   1.918   1.216
 4455TIP3    H113306   3.609   1.987   1.149
 4455TIP3    H213307   3.636   1.962   1.296
 4456TIP3   OH213308   6.382   7.871   2.950
 4456TIP3    H113309   6.436   7.794   2.931
 4456TIP3    H213310   6.331   7.884   2.871
 4457TIP3   OH213311   7.378   6.641   0.445
 4457TIP3    H113312   7.384   6.680   0.532
 4457TIP3    H213313   7.431   6.562   0.450
 4458TIP3   OH213314   2.752   4.058   0.407
 4458TIP3    H113315   2.680   4.085   0.350
 4458TIP3    H213316   2.830   4.100   0.370
 4459TIP3   OH213317   5.890   0.704   4.931
 4459TIP3    H113318   5.877   0.614   4.961
 4459TIP3    H213319   5.912   0.753   5.010
 4460TIP3   OH213320   4.308   0.220   5.556
 4460TIP3    H113321   4.314   0.311   5.586
 4460TIP3    H213322   4.217   0.208   5.531
 4461TIP3   OH213323   2.883   5.557   3.073
 4461TIP3    H113324   2.906   5.580   2.983
 4461TIP3    H213325   2.796   5.518   3.067
 4462TIP3   OH213326   0.953   3.741   3.938
 4462TIP3    H113327   0.992   3.670   3.889
 4462TIP3    H213328   0.860   3.719   3.943
 4463TIP3   OH213329   0.602   7.557   0.572
 4463TIP3    H113330   0.639   7.642   0.599
 4463TIP3    H213331   0.621   7.498   0.645
 4464TIP3   OH213332   7.955   7.067   2.203
 4464TIP3    H113333   8.001   7.142   2.241
 4464TIP3    H213334   8.003   7.045   2.124
 4465TIP3   OH213335   7.178   5.866   2.210
 4465TIP3    H113336   7.259   5.852   2.259
 4465TIP3    H213337   7.114   5.808   2.251
 4466TIP3   OH213338   4.680   7.358   1.536
 4466TIP3    H113339   4.681   7.337   1.629
 4466TIP3    H213340   4.736   7.436   1.528
 4467TIP3   OH213341   3.919   2.597   1.566
 4467TIP3    H113342   3.844   2.539   1.551
 4467TIP3    H213343   3.990   2.559   1.513
 4468TIP3   OH213344   1.556   0.030   2.620
 4468TIP3    H113345   1.586   0.028   2.711
 4468TIP3    H213346   1.560   0.122   2.596
 4469TIP3   OH213347   4.236   7.454   4.554
 4469TIP3    H113348   4.157   7.502   4.531
 4469TIP3    H213349   4.307   7.518   4.543
 4470TIP3   OH213350   0.356   7.853   0.448
 4470TIP3    H113351   0.309   7.792   0.390
 4470TIP3    H213352   0.293   7.924   0.463
 4471TIP3   OH213353   6.995   6.273   4.316
 4471TIP3    H113354   7.039   6.267   4.231
 4471TIP3    H213355   6.947   6.356   4.312
 4472TIP3   OH213356   3.528   6.513   1.285
 4472TIP3    H113357   3.539   6.463   1.367
 4472TIP3    H213358   3.455   6.572   1.303
 4473TIP3   OH213359   0.668   7.681   1.897
 4473TIP3    H113360   0.757   7.666   1.928
 4473TIP3    H213361   0.613   7.654   1.970
 4474TIP3   OH213362   0.254   3.081   1.967
 4474TIP3    H113363   0.162   3.092   1.942
 4474TIP3    H213364   0.303   3.117   1.892
 4475TIP3   OH213365   8.186   1.006   4.285
 4475TIP3    H113366   8.275   0.993   4.316
 4475TIP3    H213367   8.167   0.928   4.232
 4476TIP3   OH213368   1.982   1.931   3.411
 4476TIP3    H113369   1.890   1.956   3.422
 4476TIP3    H213370   2.008   1.899   3.497
 4477TIP3   OH213371   4.749   7.908   0.831
 4477TIP3    H113372   4.743   7.961   0.911
 4477TIP3    H213373   4.733   7.819   0.860
 4478TIP3   OH213374   2.952   2.311   0.906
 4478TIP3    H113375   2.984   2.247   0.842
 4478TIP3    H213376   2.898   2.371   0.855
 4479TIP3   OH213377   2.848   5.440   0.507
 4479TIP3    H113378   2.828   5.349   0.532
 4479TIP3    H213379   2.856   5.438   0.412
 4480TIP3   OH213380   2.327   0.234   1.319
 4480TIP3    H113381   2.354   0.323   1.298
 4480TIP3    H213382   2.385   0.208   1.391
 4481TIP3   OH213383   2.142   5.045   4.718
 4481TIP3    H113384   2.076   4.985   4.753
 4481TIP3    H213385   2.221   4.992   4.711
 4482TIP3   OH213386   7.832   6.752   4.674
 4482TIP3    H113387   7.781   6.693   4.728
 4482TIP3    H213388   7.896   6.791   4.734
 4483TIP3   OH213389   5.440   4.864   3.522
 4483TIP3    H113390   5.390   4.861   3.440
 4483TIP3    H213391   5.416   4.949   3.561
 4484TIP3   OH213392   2.436   2.104   4.084
 4484TIP3    H113393   2.406   2.185   4.127
 4484TIP3    H213394   2.370   2.039   4.108
 4485TIP3   OH213395   8.264   7.886   4.872
 4485TIP3    H113396   8.272   7.824   4.944
 4485TIP3    H213397   8.233   7.967   4.913
 4486TIP3   OH213398   4.427   5.317   1.511
 4486TIP3    H113399   4.432   5.379   1.584
 4486TIP3    H213400   4.335   5.316   1.486
 4487TIP3   OH213401   8.308   1.866   5.762
 4487TIP3    H113402   8.226   1.844   5.807
 4487TIP3    H213403   8.281   1.898   5.676
 4488TIP3   OH213404   7.883   0.653   3.520
 4488TIP3    H113405   7.975   0.663   3.544
 4488TIP3    H213406   7.841   0.732   3.554
 4489TIP3   OH213407   5.253   0.462   3.141
 4489TIP3    H113408   5.178   0.511   3.174
 4489TIP3    H213409   5.262   0.388   3.201
 4490TIP3   OH213410   4.467   4.788   3.215
 4490TIP3    H113411   4.463   4.851   3.287
 4490TIP3    H213412   4.463   4.702   3.257
 4491TIP3   OH213413   5.563   7.676   5.872
 4491TIP3    H113414   5.550   7.606   5.808
 4491TIP3    H213415   5.585   7.631   5.953
 4492TIP3   OH213416   7.121   3.879   5.129
 4492TIP3    H113417   7.079   3.904   5.047
 4492TIP3    H213418   7.049   3.867   5.191
 4493TIP3   OH213419   5.296   1.674   3.937
 4493TIP3    H113420   5.365   1.607   3.934
 4493TIP3    H213421   5.342   1.754   3.963
 4494TIP3   OH213422   5.041   3.924   6.779
 4494TIP3    H113423   5.023   3.856   6.844
 4494TIP3    H213424   5.026   3.881   6.695
 4495TIP3   OH213425   0.065   3.793   3.249
 4495TIP3    H113426   0.107   3.719   3.294
 4495TIP3    H213427   0.025   3.754   3.171
 4496TIP3   OH213428   4.260   1.549   6.401
 4496TIP3    H113429   4.316   1.580   6.472
 4496TIP3    H213430   4.201   1.486   6.442
 4497TIP3   OH213431   1.101   4.676   3.000
 4497TIP3    H113432   1.044   4.715   3.067
 4497TIP3    H213433   1.064   4.589   2.985
 4498TIP3   OH213434   2.645   2.487   5.421
 4498TIP3    H113435   2.674   2.555   5.482
 4498TIP3    H213436   2.725   2.440   5.398
 4499TIP3   OH213437   3.010   3.195   1.025
 4499TIP3    H113438   2.994   3.258   0.954
 4499TIP3    H213439   2.991   3.110   0.987
 4500TIP3   OH213440   6.254   3.888   2.441
 4500TIP3    H113441   6.200   3.812   2.462
 4500TIP3    H213442   6.192   3.957   2.421
 4501TIP3   OH213443   8.019   5.994   1.238
 4501TIP3    H113444   8.086   5.966   1.175
 4501TIP3    H213445   7.994   5.914   1.284
 4502TIP3   OH213446   1.280   4.265   6.801
 4502TIP3    H113447   1.286   4.184   6.751
 4502TIP3    H213448   1.366   4.307   6.789
 4503TIP3   OH213449   3.593   1.506   4.384
 4503TIP3    H113450   3.652   1.491   4.310
 4503TIP3    H213451   3.644   1.558   4.446
 4504TIP3   OH213452   5.411   4.759   5.650
 4504TIP3    H113453   5.467   4.817   5.702
 4504TIP3    H213454   5.427   4.786   5.559
 4505TIP3   OH213455   1.689   0.192   3.045
 4505TIP3    H113456   1.760   0.246   3.080
 4505TIP3    H213457   1.611   0.220   3.094
 4506TIP3   OH213458   7.969   5.802   5.766
 4506TIP3    H113459   7.908   5.821   5.695
 4506TIP3    H213460   8.054   5.830   5.733
 4507TIP3   OH213461   3.214   0.856   1.617
 4507TIP3    H113462   3.201   0.866   1.523
 4507TIP3    H213463   3.308   0.839   1.627
 4508TIP3   OH213464   4.688   2.359   2.145
 4508TIP3    H113465   4.741   2.357   2.066
 4508TIP3    H213466   4.604   2.396   2.117
 4509TIP3   OH213467   3.704   7.693   5.522
 4509TIP3    H113468   3.692   7.640   5.443
 4509TIP3    H213469   3.623   7.742   5.531
 4510TIP3   OH213470   7.925   5.776   1.366
 4510TIP3    H113471   7.911   5.786   1.460
 4510TIP3    H213472   7.945   5.683   1.355
 4511TIP3   OH213473   4.972   3.494   3.992
 4511TIP3    H113474   4.940   3.406   3.973
 4511TIP3    H213475   5.008   3.487   4.081
 4512TIP3   OH213476   0.482   1.328   3.077
 4512TIP3    H113477   0.517   1.262   3.018
 4512TIP3    H213478   0.435   1.278   3.144
 4513TIP3   OH213479   1.904   5.422   4.151
 4513TIP3    H113480   1.980   5.365   4.168
 4513TIP3    H213481   1.909   5.439   4.057
 4514TIP3   OH213482   3.759   7.430   3.368
 4514TIP3    H113483   3.694   7.377   3.415
 4514TIP3    H213484   3.839   7.422   3.421
 4515TIP3   OH213485   8.050   1.320   0.843
 4515TIP3    H113486   8.076   1.301   0.933
 4515TIP3    H213487   8.002   1.403   0.849
 4516TIP3   OH213488   1.896   6.504   0.697
 4516TIP3    H113489   1.991   6.497   0.700
 4516TIP3    H213490   1.865   6.442   0.763
 4517TIP3   OH213491   4.528   0.274   3.252
 4517TIP3    H113492   4.548   0.268   3.158
 4517TIP3    H213493   4.464   0.205   3.267
 4518TIP3   OH213494   3.208   7.005   3.949
 4518TIP3    H113495   3.289   7.048   3.921
 4518TIP3    H213496   3.180   6.956   3.872
 4519TIP3   OH213497   6.067   3.530   2.003
 4519TIP3    H113498   6.118   3.451   2.023
 4519TIP3    H213499   6.105   3.562   1.921
 4520TIP3   OH213500   4.030   5.474   3.975
 4520TIP3    H113501   4.071   5.536   4.035
 4520TIP3    H213502   4.058   5.388   4.007
 4521TIP3   OH213503   4.358   0.510   5.659
 4521TIP3    H113504   4.309   0.586   5.692
 4521TIP3    H213505   4.391   0.538   5.574
 4522TIP3   OH213506   6.504   7.472   5.516
 4522TIP3    H113507   6.559   7.404   5.556
 4522TIP3    H213508   6.540   7.485   5.429
 4523TIP3   OH213509   2.392   2.101   2.042
 4523TIP3    H113510   2.364   2.131   2.128
 4523TIP3    H213511   2.414   2.180   1.994
 4524TIP3   OH213512   6.244   0.369   4.004
 4524TIP3    H113513   6.287   0.345   4.086
 4524TIP3    H213514   6.201   0.289   3.974
 4525TIP3   OH213515   0.468   3.494   3.307
 4525TIP3    H113516   0.480   3.563   3.373
 4525TIP3    H213517   0.423   3.537   3.234
 4526TIP3   OH213518   4.815   3.757   0.680
 4526TIP3    H113519   4.856   3.842   0.699
 4526TIP3    H213520   4.886   3.694   0.683
 4527TIP3   OH213521   5.464   6.815   6.131
 4527TIP3    H113522   5.552   6.845   6.108
 4527TIP3    H213523   5.477   6.745   6.195
 4528TIP3   OH213524   3.295   5.400   5.967
 4528TIP3    H113525   3.313   5.425   6.057
 4528TIP3    H213526   3.352   5.455   5.914
 4529TIP3   OH213527   2.881   1.997   1.356
 4529TIP3    H113528   2.905   2.047   1.433
 4529TIP3    H213529   2.859   2.062   1.290
 4530TIP3   OH213530   6.266   2.161   4.078
 4530TIP3    H113531   6.338   2.137   4.136
 4530TIP3    H213532   6.196   2.189   4.137
 4531TIP3   OH213533   6.094   4.200   6.089
 4531TIP3    H113534   6.072   4.187   5.997
 4531TIP3    H213535   6.162   4.267   6.088
 4532TIP3   OH213536   2.291   4.810   1.892
 4532TIP3    H113537   2.344   4.872   1.944
 4532TIP3    H213538   2.278   4.736   1.950
 4533TIP3   OH213539   5.421   2.298   2.060
 4533TIP3    H113540   5.393   2.371   2.115
 4533TIP3    H213541   5.515   2.310   2.049
 4534TIP3   OH213542   3.559   1.764   1.494
 4534TIP3    H113543   3.562   1.806   1.408
 4534TIP3    H213544   3.517   1.680   1.478
 4535TIP3   OH213545   6.655   4.084   4.526
 4535TIP3    H113546   6.726   4.148   4.533
 4535TIP3    H213547   6.695   4.001   4.552
 4536TIP3   OH213548   3.824   5.557   1.235
 4536TIP3    H113549   3.880   5.588   1.306
 4536TIP3    H213550   3.788   5.474   1.268
 4537TIP3   OH213551   6.725   7.701   4.885
 4537TIP3    H113552   6.655   7.646   4.920
 4537TIP3    H213553   6.694   7.791   4.901
 4538TIP3   OH213554   2.468   4.750   3.286
 4538TIP3    H113555   2.403   4.723   3.351
 4538TIP3    H213556   2.416   4.789   3.216
 4539TIP3   OH213557   6.362   4.852   3.338
 4539TIP3    H113558   6.389   4.846   3.246
 4539TIP3    H213559   6.392   4.770   3.377
 4540TIP3   OH213560   6.648   2.420   6.261
 4540TIP3    H113561   6.696   2.399   6.341
 4540TIP3    H213562   6.716   2.449   6.200
 4541TIP3   OH213563   5.687   5.641   4.158
 4541TIP3    H113564   5.663   5.733   4.151
 4541TIP3    H213565   5.727   5.633   4.245
 4542TIP3   OH213566   1.185   5.514   0.767
 4542TIP3    H113567   1.116   5.481   0.825
 4542TIP3    H213568   1.163   5.477   0.681
 4543TIP3   OH213569   2.165   7.768   1.529
 4543TIP3    H113570   2.102   7.711   1.571
 4543TIP3    H213571   2.214   7.808   1.601
 4544TIP3   OH213572   6.534   6.437   5.080
 4544TIP3    H113573   6.551   6.347   5.106
 4544TIP3    H213574   6.439   6.445   5.081
 4545TIP3   OH213575   6.662   1.591   5.250
 4545TIP3    H113576   6.687   1.682   5.234
 4545TIP3    H213577   6.567   1.591   5.252
 4546TIP3   OH213578   4.617   7.006   6.021
 4546TIP3    H113579   4.595   7.082   6.076
 4546TIP3    H213580   4.582   7.028   5.935
 4547TIP3   OH213581   8.045   2.555   3.657
 4547TIP3    H113582   8.139   2.561   3.675
 4547TIP3    H213583   8.035   2.474   3.607
 4548TIP3   OH213584   5.037   2.196   6.779
 4548TIP3    H113585   4.968   2.214   6.843
 4548TIP3    H213586   5.002   2.228   6.696
 4549TIP3   OH213587   2.955   4.713   2.040
 4549TIP3    H113588   2.976   4.729   2.132
 4549TIP3    H213589   2.860   4.706   2.038
 4550TIP3   OH213590   1.953   7.758   3.500
 4550TIP3    H113591   1.904   7.784   3.422
 4550TIP3    H213592   1.896   7.696   3.545
 4551TIP3   OH213593   7.532   1.379   1.576
 4551TIP3    H113594   7.493   1.381   1.663
 4551TIP3    H213595   7.530   1.470   1.546
 4552TIP3   OH213596   7.958   7.399   1.287
 4552TIP3    H113597   7.941   7.493   1.288
 4552TIP3    H213598   7.970   7.375   1.379
 4553TIP3   OH213599   0.718   2.169   3.290
 4553TIP3    H113600   0.651   2.160   3.222
 4553TIP3    H213601   0.673   2.214   3.362
 4554TIP3   OH213602   6.861   2.123   6.150
 4554TIP3    H113603   6.875   2.207   6.195
 4554TIP3    H213604   6.882   2.141   6.059
 4555TIP3   OH213605   3.334   5.519   6.224
 4555TIP3    H113606   3.267   5.587   6.232
 4555TIP3    H213607   3.360   5.500   6.314
 4556TIP3   OH213608   5.624   7.084   4.893
 4556TIP3    H113609   5.711   7.054   4.866
 4556TIP3    H213610   5.563   7.036   4.837
 4557TIP3   OH213611   8.166   5.550   3.667
 4557TIP3    H113612   8.119   5.573   3.587
 4557TIP3    H213613   8.181   5.633   3.712
 4558TIP3   OH213614   3.183   0.690   0.825
 4558TIP3    H113615   3.093   0.676   0.797
 4558TIP3    H213616   3.224   0.604   0.820
 4559TIP3   OH213617   7.098   4.728   6.814
 4559TIP3    H113618   7.077   4.812   6.772
 4559TIP3    H213619   7.175   4.697   6.768
 4560TIP3   OH213620   4.444   6.917   5.498
 4560TIP3    H113621   4.522   6.972   5.493
 4560TIP3    H213622   4.436   6.878   5.411
 4561TIP3   OH213623   5.440   5.530   6.307
 4561TIP3    H113624   5.514   5.539   6.366
 4561TIP3    H213625   5.371   5.584   6.345
 4562TIP3   OH213626   6.048   7.121   4.743
 4562TIP3    H113627   6.101   7.195   4.774
 4562TIP3    H213628   6.046   7.132   4.648
 4563TIP3   OH213629   1.020   1.877   3.842
 4563TIP3    H113630   0.953   1.926   3.795
 4563TIP3    H213631   1.035   1.928   3.922
 4564TIP3   OH213632   2.453   5.001   4.199
 4564TIP3    H113633   2.473   4.908   4.194
 4564TIP3    H213634   2.488   5.028   4.284
 4565TIP3   OH213635   4.683   3.975   5.412
 4565TIP3    H113636   4.772   3.992   5.443
 4565TIP3    H213637   4.650   3.908   5.471
 4566TIP3   OH213638   8.023   7.760   0.787
 4566TIP3    H113639   7.946   7.708   0.808
 4566TIP3    H213640   8.041   7.810   0.867
 4567TIP3   OH213641   7.861   1.111   1.794
 4567TIP3    H113642   7.848   1.175   1.723
 4567TIP3    H213643   7.919   1.156   1.856
 4568TIP3   OH213644   8.217   7.579   1.445
 4568TIP3    H113645   8.166   7.518   1.499
 4568TIP3    H213646   8.304   7.539   1.439
 4569TIP3   OH213647   5.412   3.973   4.342
 4569TIP3    H113648   5.430   3.962   4.248
 4569TIP3    H213649   5.436   3.889   4.380
 4570TIP3   OH213650   0.341   3.047   6.183
 4570TIP3    H113651   0.393   3.125   6.202
 4570TIP3    H213652   0.267   3.079   6.131
 4571TIP3   OH213653   0.156   2.981   4.803
 4571TIP3    H113654   0.203   2.938   4.874
 4571TIP3    H213655   0.063   2.963   4.822
 4572TIP3   OH213656   6.977   7.598   3.051
 4572TIP3    H113657   6.883   7.586   3.066
 4572TIP3    H213658   7.012   7.626   3.135
 4573TIP3   OH213659   0.340   0.764   5.118
 4573TIP3    H113660   0.382   0.756   5.204
 4573TIP3    H213661   0.248   0.780   5.137
 4574TIP3   OH213662   5.165   3.170   6.083
 4574TIP3    H113663   5.210   3.166   5.999
 4574TIP3    H213664   5.162   3.264   6.104
 4575TIP3   OH213665   2.031   2.308   4.933
 4575TIP3    H113666   2.037   2.241   5.001
 4575TIP3    H213667   2.119   2.345   4.927
 4576TIP3   OH213668   4.566   1.767   3.533
 4576TIP3    H113669   4.657   1.755   3.507
 4576TIP3    H213670   4.542   1.684   3.575
 4577TIP3   OH213671   3.179   5.489   5.037
 4577TIP3    H113672   3.152   5.542   4.962
 4577TIP3    H213673   3.165   5.546   5.113
 4578TIP3   OH213674   3.520   1.610   3.219
 4578TIP3    H113675   3.613   1.589   3.206
 4578TIP3    H213676   3.487   1.538   3.273
 4579TIP3   OH213677   6.733   4.533   5.898
 4579TIP3    H113678   6.697   4.479   5.828
 4579TIP3    H213679   6.722   4.623   5.867
 4580TIP3   OH213680   8.067   6.826   4.850
 4580TIP3    H113681   8.075   6.806   4.944
 4580TIP3    H213682   8.158   6.823   4.818
 4581TIP3   OH213683   6.226   1.919   2.316
 4581TIP3    H113684   6.194   1.829   2.327
 4581TIP3    H213685   6.148   1.970   2.296
 4582TIP3   OH213686   6.016   3.589   3.665
 4582TIP3    H113687   6.016   3.582   3.569
 4582TIP3    H213688   6.099   3.631   3.686
 4583TIP3   OH213689   1.289   0.458   1.213
 4583TIP3    H113690   1.361   0.486   1.270
 4583TIP3    H213691   1.210   0.494   1.254
 4584TIP3   OH213692   0.448   1.915   0.125
 4584TIP3    H113693   0.497   1.962   0.193
 4584TIP3    H213694   0.363   1.959   0.121
 4585TIP3   OH213695   8.314   3.696   1.212
 4585TIP3    H113696   8.385   3.648   1.255
 4585TIP3    H213697   8.285   3.638   1.142
 4586TIP3   OH213698   1.432   5.556   3.121
 4586TIP3    H113699   1.422   5.630   3.062
 4586TIP3    H213700   1.440   5.595   3.208
 4587TIP3   OH213701   5.358   3.490   0.697
 4587TIP3    H113702   5.433   3.509   0.642
 4587TIP3    H213703   5.330   3.402   0.671
 4588TIP3   OH213704   6.313   6.398   6.606
 4588TIP3    H113705   6.223   6.367   6.601
 4588TIP3    H213706   6.320   6.440   6.692
 4589TIP3   OH213707   2.676   4.552   6.334
 4589TIP3    H113708   2.645   4.606   6.261
 4589TIP3    H213709   2.742   4.605   6.377
 4590TIP3   OH213710   1.005   2.151   5.705
 4590TIP3    H113711   0.954   2.120   5.780
 4590TIP3    H213712   0.942   2.158   5.634
 4591TIP3   OH213713   5.164   3.249   3.772
 4591TIP3    H113714   5.217   3.181   3.730
 4591TIP3    H213715   5.112   3.203   3.838
 4592TIP3   OH213716   6.565   3.166   4.216
 4592TIP3    H113717   6.481   3.173   4.170
 4592TIP3    H213718   6.543   3.120   4.297
 4593TIP3   OH213719   2.223   3.019   0.767
 4593TIP3    H113720   2.162   3.006   0.839
 4593TIP3    H213721   2.219   2.937   0.717
 4594TIP3   OH213722   1.520   0.529   5.522
 4594TIP3    H113723   1.522   0.506   5.429
 4594TIP3    H213724   1.579   0.604   5.529
 4595TIP3   OH213725   3.485   5.896   1.576
 4595TIP3    H113726   3.450   5.958   1.513
 4595TIP3    H213727   3.487   5.944   1.659
 4596TIP3   OH213728   1.442   7.045   3.211
 4596TIP3    H113729   1.463   7.014   3.299
 4596TIP3    H213730   1.422   6.965   3.163
 4597TIP3   OH213731   7.533   7.052   5.191
 4597TIP3    H113732   7.597   7.112   5.153
 4597TIP3    H213733   7.558   6.966   5.158
 4598TIP3   OH213734   8.205   6.830   2.401
 4598TIP3    H113735   8.158   6.750   2.380
 4598TIP3    H213736   8.178   6.851   2.491
 4599TIP3   OH213737   5.978   0.866   4.071
 4599TIP3    H113738   6.006   0.776   4.057
 4599TIP3    H213739   5.984   0.878   4.166
 4600TIP3   OH213740   1.862   6.198   5.582
 4600TIP3    H113741   1.826   6.251   5.511
 4600TIP3    H213742   1.813   6.225   5.660
 4601TIP3   OH213743   3.824   5.064   5.053
 4601TIP3    H113744   3.823   5.033   5.144
 4601TIP3    H213745   3.735   5.094   5.037
 4602TIP3   OH213746   1.993   2.256   1.303
 4602TIP3    H113747   1.973   2.162   1.304
 4602TIP3    H213748   1.947   2.291   1.380
 4603TIP3   OH213749   2.840   6.170   4.147
 4603TIP3    H113750   2.801   6.209   4.225
 4603TIP3    H213751   2.933   6.162   4.169
 4604TIP3   OH213752   3.124   0.405   2.954
 4604TIP3    H113753   3.130   0.372   3.044
 4604TIP3    H213754   3.035   0.438   2.946
 4605TIP3   OH213755   6.631   1.900   5.872
 4605TIP3    H113756   6.566   1.960   5.907
 4605TIP3    H213757   6.667   1.946   5.796
 4606TIP3   OH213758   1.954   4.925   2.158
 4606TIP3    H113759   1.870   4.959   2.189
 4606TIP3    H213760   1.933   4.841   2.118
 4607TIP3   OH213761   2.982   7.520   6.115
 4607TIP3    H113762   2.958   7.518   6.208
 4607TIP3    H213763   3.041   7.445   6.104
 4608TIP3   OH213764   6.836   1.780   4.485
 4608TIP3    H113765   6.886   1.833   4.422
 4608TIP3    H213766   6.796   1.844   4.544
 4609TIP3   OH213767   3.912   2.771   4.553
 4609TIP3    H113768   3.966   2.721   4.493
 4609TIP3    H213769   3.832   2.791   4.504
 4610TIP3   OH213770   4.042   7.944   0.546
 4610TIP3    H113771   4.027   7.981   0.459
 4610TIP3    H213772   4.085   8.014   0.595
 4611TIP3   OH213773   0.775   1.786   2.184
 4611TIP3    H113774   0.758   1.879   2.199
 4611TIP3    H213775   0.713   1.741   2.241
 4612TIP3   OH213776   2.295   5.521   1.124
 4612TIP3    H113777   2.371   5.578   1.130
 4612TIP3    H213778   2.222   5.577   1.151
 4613TIP3   OH213779   3.659   1.785   5.441
 4613TIP3    H113780   3.622   1.773   5.354
 4613TIP3    H213781   3.596   1.744   5.500
 4614TIP3   OH213782   4.429   7.420   1.648
 4614TIP3    H113783   4.520   7.415   1.616
 4614TIP3    H213784   4.425   7.503   1.695
 4615TIP3   OH213785   3.612   5.028   0.323
 4615TIP3    H113786   3.551   4.961   0.292
 4615TIP3    H213787   3.557   5.103   0.345
 4616TIP3   OH213788   5.406   2.626   4.322
 4616TIP3    H113789   5.344   2.554   4.309
 4616TIP3    H213790   5.460   2.598   4.396
 4617TIP3   OH213791   4.850   1.020   4.751
 4617TIP3    H113792   4.832   1.098   4.803
 4617TIP3    H213793   4.868   0.952   4.816
 4618TIP3   OH213794   2.285   5.157   2.590
 4618TIP3    H113795   2.287   5.197   2.677
 4618TIP3    H213796   2.201   5.187   2.552
 4619TIP3   OH213797   7.369   3.268   6.084
 4619TIP3    H113798   7.303   3.223   6.031
 4619TIP3    H213799   7.363   3.360   6.055
 4620TIP3   OH213800   7.519   2.881   1.742
 4620TIP3    H113801   7.444   2.925   1.782
 4620TIP3    H213802   7.559   2.948   1.687
 4621TIP3   OH213803   6.169   4.646   0.494
 4621TIP3    H113804   6.140   4.694   0.571
 4621TIP3    H213805   6.173   4.712   0.425
 4622TIP3   OH213806   2.734   7.420   2.364
 4622TIP3    H113807   2.761   7.335   2.399
 4622TIP3    H213808   2.680   7.458   2.434
 4623TIP3   OH213809   3.009   6.508   1.812
 4623TIP3    H113810   2.986   6.590   1.855
 4623TIP3    H213811   3.034   6.450   1.884
 4624TIP3   OH213812   5.462   0.927   5.837
 4624TIP3    H113813   5.437   0.855   5.895
 4624TIP3    H213814   5.385   0.983   5.833
 4625TIP3   OH213815   6.887   5.216   6.605
 4625TIP3    H113816   6.936   5.289   6.566
 4625TIP3    H213817   6.896   5.145   6.542
 4626TIP3   OH213818   2.098   7.712   3.963
 4626TIP3    H113819   2.111   7.617   3.965
 4626TIP3    H213820   2.141   7.739   3.882
 4627TIP3   OH213821   4.216   3.153   5.033
 4627TIP3    H113822   4.296   3.154   5.085
 4627TIP3    H213823   4.146   3.136   5.096
 4628TIP3   OH213824   2.205   2.943   4.082
 4628TIP3    H113825   2.232   2.969   3.994
 4628TIP3    H213826   2.171   2.855   4.071
 4629TIP3   OH213827   0.951   1.515   2.932
 4629TIP3    H113828   0.950   1.420   2.940
 4629TIP3    H213829   1.028   1.534   2.878
 4630TIP3   OH213830   5.753   2.947   5.293
 4630TIP3    H113831   5.670   2.982   5.263
 4630TIP3    H213832   5.773   2.996   5.373
 4631TIP3   OH213833   4.963   7.356   0.582
 4631TIP3    H113834   5.038   7.301   0.605
 4631TIP3    H213835   4.886   7.303   0.601
 4632TIP3   OH213836   2.468   5.724   1.277
 4632TIP3    H113837   2.492   5.803   1.326
 4632TIP3    H213838   2.458   5.753   1.187
 4633TIP3   OH213839   1.134   3.670   4.474
 4633TIP3    H113840   1.041   3.648   4.465
 4633TIP3    H213841   1.175   3.634   4.396
 4634TIP3   OH213842   4.215   5.349   1.928
 4634TIP3    H113843   4.148   5.411   1.898
 4634TIP3    H213844   4.233   5.375   2.018
 4635TIP3   OH213845   7.077   1.618   0.887
 4635TIP3    H113846   7.068   1.558   0.961
 4635TIP3    H213847   7.145   1.680   0.913
 4636TIP3   OH213848   6.794   6.825   6.386
 4636TIP3    H113849   6.780   6.813   6.480
 4636TIP3    H213850   6.706   6.839   6.350
 4637TIP3   OH213851   5.790   7.843   4.738
 4637TIP3    H113852   5.771   7.773   4.676
 4637TIP3    H213853   5.711   7.850   4.791
 4638TIP3   OH213854   2.394   0.582   5.467
 4638TIP3    H113855   2.474   0.583   5.520
 4638TIP3    H213856   2.338   0.518   5.511
 4639TIP3   OH213857   4.289   5.354   3.340
 4639TIP3    H113858   4.290   5.380   3.248
 4639TIP3    H213859   4.359   5.405   3.380
 4640TIP3   OH213860   1.542   6.004   4.635
 4640TIP3    H113861   1.595   5.972   4.709
 4640TIP3    H213862   1.554   6.099   4.637
 4641TIP3   OH213863   1.255   5.519   4.134
 4641TIP3    H113864   1.240   5.540   4.226
 4641TIP3    H213865   1.345   5.548   4.117
 4642TIP3   OH213866   0.432   0.026   3.815
 4642TIP3    H113867   0.496  -0.011   3.754
 4642TIP3    H213868   0.352   0.034   3.764
 4643TIP3   OH213869   0.543   2.557   4.452
 4643TIP3    H113870   0.499   2.631   4.408
 4643TIP3    H213871   0.557   2.493   4.382
 4644TIP3   OH213872   6.534   3.057   6.577
 4644TIP3    H113873   6.500   2.993   6.639
 4644TIP3    H213874   6.506   3.026   6.491
 4645TIP3   OH213875   7.165   7.048   0.731
 4645TIP3    H113876   7.141   6.963   0.767
 4645TIP3    H213877   7.206   7.029   0.647
 4646TIP3   OH213878   7.934   5.551   4.561
 4646TIP3    H113879   8.011   5.594   4.598
 4646TIP3    H213880   7.966   5.511   4.480
 4647TIP3   OH213881   3.173   0.524   6.311
 4647TIP3    H113882   3.150   0.548   6.400
 4647TIP3    H213883   3.267   0.504   6.314
 4648TIP3   OH213884   3.734   1.516   5.200
 4648TIP3    H113885   3.698   1.589   5.149
 4648TIP3    H213886   3.669   1.447   5.192
 4649TIP3   OH213887   4.946   1.435   5.131
 4649TIP3    H113888   4.890   1.512   5.134
 4649TIP3    H213889   4.944   1.400   5.220
 4650TIP3   OH213890   1.578   0.687   2.364
 4650TIP3    H113891   1.621   0.651   2.287
 4650TIP3    H213892   1.522   0.756   2.331
 4651TIP3   OH213893   3.026   7.201   5.831
 4651TIP3    H113894   2.984   7.282   5.801
 4651TIP3    H213895   3.052   7.156   5.751
 4652TIP3   OH213896   6.793   5.804   4.389
 4652TIP3    H113897   6.785   5.757   4.473
 4652TIP3    H213898   6.835   5.887   4.412
 4653TIP3   OH213899   5.807   2.095   4.990
 4653TIP3    H113900   5.757   2.173   4.966
 4653TIP3    H213901   5.898   2.126   4.997
 4654TIP3   OH213902   4.202   4.249   2.256
 4654TIP3    H113903   4.210   4.154   2.262
 4654TIP3    H213904   4.157   4.274   2.337
 4655TIP3   OH213905   5.456   3.986   1.006
 4655TIP3    H113906   5.417   3.992   0.919
 4655TIP3    H213907   5.388   4.017   1.066
 4656TIP3   OH213908   8.066   6.758   5.114
 4656TIP3    H113909   8.083   6.714   5.197
 4656TIP3    H213910   8.024   6.840   5.138
 4657TIP3   OH213911   2.203   5.023   0.236
 4657TIP3    H113912   2.176   5.107   0.273
 4657TIP3    H213913   2.127   4.994   0.185
 4658TIP3   OH213914   2.476   5.490   3.972
 4658TIP3    H113915   2.440   5.454   3.891
 4658TIP3    H213916   2.399   5.519   4.022
 4659TIP3   OH213917   3.386   3.605   3.588
 4659TIP3    H113918   3.297   3.621   3.620
 4659TIP3    H213919   3.422   3.540   3.649
 4660TIP3   OH213920   2.357   1.193   5.675
 4660TIP3    H113921   2.448   1.170   5.692
 4660TIP3    H213922   2.333   1.249   5.749
 4661TIP3   OH213923   2.605   2.137   6.394
 4661TIP3    H113924   2.533   2.110   6.336
 4661TIP3    H213925   2.584   2.227   6.417
 4662TIP3   OH213926   6.597   1.340   5.043
 4662TIP3    H113927   6.634   1.403   5.104
 4662TIP3    H213928   6.629   1.255   5.072
 4663TIP3   OH213929   7.671   5.220   6.457
 4663TIP3    H113930   7.736   5.202   6.525
 4663TIP3    H213931   7.610   5.146   6.463
 4664TIP3   OH213932   2.930   7.197   0.288
 4664TIP3    H113933   2.895   7.119   0.330
 4664TIP3    H213934   2.854   7.253   0.273
 4665TIP3   OH213935   3.370   3.217   4.053
 4665TIP3    H113936   3.393   3.207   3.961
 4665TIP3    H213937   3.438   3.168   4.100
 4666TIP3   OH213938   1.137   3.676   1.830
 4666TIP3    H113939   1.115   3.679   1.923
 4666TIP3    H213940   1.105   3.591   1.800
 4667TIP3   OH213941   1.863   7.882   3.969
 4667TIP3    H113942   1.862   7.872   3.874
 4667TIP3    H213943   1.934   7.824   3.999
 4668TIP3   OH213944   1.786   4.114   5.227
 4668TIP3    H113945   1.705   4.154   5.260
 4668TIP3    H213946   1.808   4.047   5.293
 4669TIP3   OH213947   0.616   4.526   2.091
 4669TIP3    H113948   0.592   4.590   2.157
 4669TIP3    H213949   0.538   4.518   2.035
 4670TIP3   OH213950   5.945   2.174   6.554
 4670TIP3    H113951   5.968   2.250   6.608
 4670TIP3    H213952   5.870   2.136   6.599
 4671TIP3   OH213953   7.943   3.890   1.655
 4671TIP3    H113954   7.938   3.804   1.696
 4671TIP3    H213955   7.979   3.873   1.567
 4672TIP3   OH213956   7.342   0.135   4.929
 4672TIP3    H113957   7.314   0.178   5.010
 4672TIP3    H213958   7.302   0.187   4.859
 4673TIP3   OH213959   8.269   1.628   2.063
 4673TIP3    H113960   8.183   1.605   2.099
 4673TIP3    H213961   8.277   1.722   2.080
 4674TIP3   OH213962   4.934   5.592   2.296
 4674TIP3    H113963   4.938   5.557   2.385
 4674TIP3    H213964   4.952   5.686   2.307
 4675TIP3   OH213965   3.312   6.631   3.827
 4675TIP3    H113966   3.339   6.558   3.883
 4675TIP3    H213967   3.391   6.654   3.777
 4676TIP3   OH213968   4.000   5.061   3.440
 4676TIP3    H113969   3.988   5.155   3.434
 4676TIP3    H213970   3.949   5.025   3.368
 4677TIP3   OH213971   5.441   6.831   2.721
 4677TIP3    H113972   5.419   6.875   2.803
 4677TIP3    H213973   5.416   6.893   2.652
 4678TIP3   OH213974   4.261   1.456   1.891
 4678TIP3    H113975   4.288   1.511   1.817
 4678TIP3    H213976   4.221   1.379   1.850
 4679TIP3   OH213977   3.295   4.887   4.509
 4679TIP3    H113978   3.296   4.914   4.417
 4679TIP3    H213979   3.307   4.969   4.558
 4680TIP3   OH213980   4.670   2.956   2.137
 4680TIP3    H113981   4.756   2.946   2.095
 4680TIP3    H213982   4.614   2.893   2.091
 4681TIP3   OH213983   2.714   6.258   5.382
 4681TIP3    H113984   2.770   6.201   5.329
 4681TIP3    H213985   2.636   6.205   5.400
 4682TIP3   OH213986   6.906   5.998   1.223
 4682TIP3    H113987   6.845   6.028   1.290
 4682TIP3    H213988   6.860   5.928   1.177
 4683TIP3   OH213989   0.653   5.657   1.775
 4683TIP3    H113990   0.695   5.587   1.825
 4683TIP3    H213991   0.562   5.630   1.767
 4684TIP3   OH213992   0.678   0.357   1.098
 4684TIP3    H113993   0.770   0.365   1.072
 4684TIP3    H213994   0.668   0.418   1.171
 4685TIP3   OH213995   8.020   5.390   6.407
 4685TIP3    H113996   7.984   5.372   6.494
 4685TIP3    H213997   8.006   5.308   6.359
 4686TIP3   OH213998   5.726   7.107   1.206
 4686TIP3    H113999   5.698   7.105   1.115
 4686TIP3    H214000   5.713   7.017   1.238
 4687TIP3   OH214001   8.104   5.158   3.744
 4687TIP3    H114002   8.023   5.209   3.741
 4687TIP3    H214003   8.106   5.124   3.834
 4688TIP3   OH214004   8.381   7.600   6.718
 4688TIP3    H114005   8.394   7.606   6.812
 4688TIP3    H214006   8.425   7.677   6.683
 4689TIP3   OH214007   0.352   0.262   2.439
 4689TIP3    H114008   0.379   0.309   2.361
 4689TIP3    H214009   0.375   0.320   2.512
 4690TIP3   OH214010   7.383   0.962   3.756
 4690TIP3    H114011   7.376   0.910   3.677
 4690TIP3    H214012   7.292   0.984   3.778
 4691TIP3   OH214013   0.654   2.802   5.533
 4691TIP3    H114014   0.742   2.823   5.500
 4691TIP3    H214015   0.605   2.775   5.456
 4692TIP3   OH214016   4.754   1.911   4.621
 4692TIP3    H114017   4.800   1.850   4.564
 4692TIP3    H214018   4.790   1.997   4.599
 4693TIP3   OH214019   0.311   4.730   0.189
 4693TIP3    H114020   0.269   4.649   0.159
 4693TIP3    H214021   0.326   4.780   0.109
 4694TIP3   OH214022   3.140   2.435   3.017
 4694TIP3    H114023   3.081   2.462   3.087
 4694TIP3    H214024   3.227   2.432   3.058
 4695TIP3   OH214025   2.543   3.088   5.618
 4695TIP3    H114026   2.471   3.116   5.674
 4695TIP3    H214027   2.611   3.058   5.679
 4696TIP3   OH214028   6.680   0.369   0.588
 4696TIP3    H114029   6.630   0.328   0.518
 4696TIP3    H214030   6.655   0.461   0.585
 4697TIP3   OH214031   6.458   1.339   6.322
 4697TIP3    H114032   6.442   1.375   6.235
 4697TIP3    H214033   6.425   1.249   6.317
 4698TIP3   OH214034   3.886   0.631   5.321
 4698TIP3    H114035   3.857   0.548   5.357
 4698TIP3    H214036   3.909   0.611   5.230
 4699TIP3   OH214037   2.641   4.751   1.321
 4699TIP3    H114038   2.587   4.741   1.400
 4699TIP3    H214039   2.690   4.669   1.315
 4700TIP3   OH214040   8.248   2.953   2.744
 4700TIP3    H114041   8.328   3.003   2.724
 4700TIP3    H214042   8.239   2.893   2.670
 4701TIP3   OH214043   4.426   6.688   6.280
 4701TIP3    H114044   4.372   6.668   6.203
 4701TIP3    H214045   4.383   6.644   6.352
 4702TIP3   OH214046   5.914   6.899   4.291
 4702TIP3    H114047   5.820   6.911   4.305
 4702TIP3    H214048   5.919   6.831   4.223
 4703TIP3   OH214049   7.676   4.308   2.141
 4703TIP3    H114050   7.643   4.269   2.060
 4703TIP3    H214051   7.682   4.235   2.202
 4704TIP3   OH214052   1.598   2.336   5.883
 4704TIP3    H114053   1.504   2.325   5.893
 4704TIP3    H214054   1.609   2.375   5.796
 4705TIP3   OH214055   3.297   3.338   6.760
 4705TIP3    H114056   3.300   3.434   6.753
 4705TIP3    H214057   3.376   3.309   6.716
 4706TIP3   OH214058   8.155   0.997   2.159
 4706TIP3    H114059   8.116   0.931   2.216
 4706TIP3    H214060   8.222   0.950   2.110
 4707TIP3   OH214061   0.166   3.314   6.436
 4707TIP3    H114062   0.094   3.276   6.384
 4707TIP3    H214063   0.123   3.377   6.493
 4708TIP3   OH214064   0.867   7.579   3.868
 4708TIP3    H114065   0.815   7.581   3.787
 4708TIP3    H214066   0.904   7.666   3.875
 4709TIP3   OH214067   8.424   7.278   1.429
 4709TIP3    H114068   8.412   7.276   1.524
 4709TIP3    H214069   8.344   7.239   1.394
 4710TIP3   OH214070   3.133   4.764   6.390
 4710TIP3    H114071   3.215   4.787   6.435
 4710TIP3    H214072   3.086   4.708   6.452
 4711TIP3   OH214073   7.726   7.260   0.902
 4711TIP3    H114074   7.711   7.333   0.841
 4711TIP3    H214075   7.645   7.209   0.899
 4712TIP3   OH214076   2.715   7.640   5.116
 4712TIP3    H114077   2.678   7.659   5.030
 4712TIP3    H214078   2.658   7.573   5.153
 4713TIP3   OH214079   5.742   3.425   1.541
 4713TIP3    H114080   5.738   3.410   1.447
 4713TIP3    H214081   5.728   3.519   1.551
 4714TIP3   OH214082   6.821   5.343   4.316
 4714TIP3    H114083   6.747   5.360   4.375
 4714TIP3    H214084   6.887   5.406   4.342
 4715TIP3   OH214085   4.956   2.295   3.094
 4715TIP3    H114086   4.863   2.317   3.094
 4715TIP3    H214087   4.970   2.246   3.176
 4716TIP3   OH214088   6.813   0.330   3.366
 4716TIP3    H114089   6.759   0.301   3.440
 4716TIP3    H214090   6.901   0.336   3.403
 4717TIP3   OH214091   6.059   6.281   6.655
 4717TIP3    H114092   5.974   6.281   6.700
 4717TIP3    H214093   6.112   6.218   6.703
 4718TIP3   OH214094   4.206   4.564   3.171
 4718TIP3    H114095   4.143   4.548   3.101
 4718TIP3    H214096   4.279   4.609   3.127
 4719TIP3   OH214097   3.321   1.912   6.904
 4719TIP3    H114098   3.245   1.948   6.858
 4719TIP3    H214099   3.318   1.818   6.886
 4720TIP3   OH214100   2.181   7.218   1.236
 4720TIP3    H114101   2.155   7.245   1.148
 4720TIP3    H214102   2.178   7.123   1.234
 4721TIP3   OH214103   8.304   2.895   5.601
 4721TIP3    H114104   8.351   2.962   5.551
 4721TIP3    H214105   8.360   2.818   5.598
 4722TIP3   OH214106   4.108   5.339   4.895
 4722TIP3    H114107   4.144   5.365   4.810
 4722TIP3    H214108   4.176   5.366   4.958
 4723TIP3   OH214109   2.149   6.900   0.588
 4723TIP3    H114110   2.068   6.878   0.542
 4723TIP3    H214111   2.217   6.894   0.521
 4724TIP3   OH214112   0.265   6.230   5.015
 4724TIP3    H114113   0.175   6.231   5.049
 4724TIP3    H214114   0.319   6.213   5.092
 4725TIP3   OH214115   8.023   4.361   0.676
 4725TIP3    H114116   8.103   4.316   0.704
 4725TIP3    H214117   7.984   4.392   0.758
 4726TIP3   OH214118   1.641   0.903   5.764
 4726TIP3    H114119   1.667   0.868   5.679
 4726TIP3    H214120   1.599   0.830   5.808
 4727TIP3   OH214121   2.784   3.083   0.012
 4727TIP3    H114122   2.691   3.107   0.015
 4727TIP3    H214123   2.817   3.124  -0.068
 4728TIP3   OH214124   3.094   6.791   3.739
 4728TIP3    H114125   3.165   6.736   3.770
 4728TIP3    H214126   3.014   6.750   3.772
 4729TIP3   OH214127   4.870   3.711   5.843
 4729TIP3    H114128   4.823   3.779   5.892
 4729TIP3    H214129   4.946   3.692   5.898
 4730TIP3   OH214130   3.181   7.776   3.758
 4730TIP3    H114131   3.215   7.858   3.721
 4730TIP3    H214132   3.213   7.709   3.698
 4731TIP3   OH214133  -0.003   6.958   4.161
 4731TIP3    H114134   0.021   7.002   4.243
 4731TIP3    H214135  -0.066   7.017   4.119
 4732TIP3   OH214136   6.040   6.951   6.083
 4732TIP3    H114137   5.961   6.909   6.117
 4732TIP3    H214138   6.061   6.901   6.004
 4733TIP3   OH214139   5.425   6.930   4.746
 4733TIP3    H114140   5.413   7.001   4.683
 4733TIP3    H214141   5.342   6.925   4.793
 4734TIP3   OH214142   1.663   3.133   2.345
 4734TIP3    H114143   1.642   3.042   2.327
 4734TIP3    H214144   1.702   3.165   2.264
 4735TIP3   OH214145   3.396   7.784   6.706
 4735TIP3    H114146   3.486   7.797   6.735
 4735TIP3    H214147   3.395   7.814   6.615
 4736TIP3   OH214148   4.504   1.232   3.357
 4736TIP3    H114149   4.530   1.269   3.441
 4736TIP3    H214150   4.524   1.139   3.363
 4737TIP3   OH214151   6.849   3.240   5.851
 4737TIP3    H114152   6.852   3.150   5.883
 4737TIP3    H214153   6.851   3.293   5.930
 4738TIP3   OH214154   3.116   1.619   5.842
 4738TIP3    H114155   3.054   1.674   5.891
 4738TIP3    H214156   3.164   1.680   5.787
 4739TIP3   OH214157   0.069   5.881   3.154
 4739TIP3    H114158   0.118   5.963   3.165
 4739TIP3    H214159  -0.008   5.906   3.103
 4740TIP3   OH214160   7.961   7.703   5.699
 4740TIP3    H114161   7.887   7.642   5.708
 4740TIP3    H214162   8.039   7.647   5.704
 4741TIP3   OH214163   6.260   2.473   0.543
 4741TIP3    H114164   6.345   2.461   0.585
 4741TIP3    H214165   6.267   2.426   0.461
 4742TIP3   OH214166   4.197   1.006   5.857
 4742TIP3    H114167   4.103   1.006   5.878
 4742TIP3    H214168   4.211   1.090   5.814
 4743TIP3   OH214169   1.537   7.899   6.347
 4743TIP3    H114170   1.616   7.852   6.371
 4743TIP3    H214171   1.473   7.874   6.414
 4744TIP3   OH214172   4.044   3.057   3.164
 4744TIP3    H114173   4.137   3.080   3.170
 4744TIP3    H214174   4.017   3.092   3.080
 4745TIP3   OH214175   3.268   3.881   2.706
 4745TIP3    H114176   3.338   3.890   2.642
 4745TIP3    H214177   3.302   3.922   2.785
 4746TIP3   OH214178   6.360   5.015   1.098
 4746TIP3    H114179   6.345   5.090   1.040
 4746TIP3    H214180   6.455   5.005   1.100
 4747TIP3   OH214181   7.335   1.998   2.216
 4747TIP3    H114182   7.255   2.018   2.265
 4747TIP3    H214183   7.309   2.003   2.124
 4748TIP3   OH214184   3.899   4.499   5.308
 4748TIP3    H114185   3.868   4.467   5.393
 4748TIP3    H214186   3.995   4.494   5.315
 4749TIP3   OH214187   5.348   6.597   2.954
 4749TIP3    H114188   5.383   6.668   3.008
 4749TIP3    H214189   5.407   6.593   2.879
 4750TIP3   OH214190   8.335   6.499   2.393
 4750TIP3    H114191   8.312   6.542   2.310
 4750TIP3    H214192   8.358   6.410   2.368
 4751TIP3   OH214193   7.206   0.424   1.096
 4751TIP3    H114194   7.131   0.444   1.152
 4751TIP3    H214195   7.177   0.449   1.008
 4752TIP3   OH214196   6.939   0.974   4.845
 4752TIP3    H114197   6.895   0.889   4.837
 4752TIP3    H214198   6.916   1.005   4.933
 4753TIP3   OH214199   6.164   6.300   0.505
 4753TIP3    H114200   6.248   6.307   0.550
 4753TIP3    H214201   6.101   6.281   0.574
 4754TIP3   OH214202   2.618   6.496   0.115
 4754TIP3    H114203   2.602   6.576   0.064
 4754TIP3    H214204   2.648   6.432   0.050
 4755TIP3   OH214205   3.247   5.813   6.693
 4755TIP3    H114206   3.252   5.836   6.786
 4755TIP3    H214207   3.219   5.721   6.693
 4756TIP3   OH214208   1.183   3.694   0.174
 4756TIP3    H114209   1.112   3.630   0.182
 4756TIP3    H214210   1.194   3.705   0.079
 4757TIP3   OH214211   4.046   3.312   2.550
 4757TIP3    H114212   3.988   3.303   2.474
 4757TIP3    H214213   4.129   3.275   2.521
 4758TIP3   OH214214   6.425   4.373   6.048
 4758TIP3    H114215   6.422   4.316   5.971
 4758TIP3    H214216   6.432   4.313   6.122
 4759TIP3   OH214217   5.798   4.446   2.798
 4759TIP3    H114218   5.820   4.358   2.829
 4759TIP3    H214219   5.844   4.505   2.857
 4760TIP3   OH214220   3.910   1.053   0.091
 4760TIP3    H114221   3.834   1.025   0.142
 4760TIP3    H214222   3.969   0.978   0.092
 4761TIP3   OH214223   5.933   7.550   4.829
 4761TIP3    H114224   5.840   7.575   4.831
 4761TIP3    H214225   5.932   7.456   4.845
 4762TIP3   OH214226   5.148   2.780   0.928
 4762TIP3    H114227   5.150   2.686   0.913
 4762TIP3    H214228   5.067   2.810   0.887
 4763TIP3   OH214229   0.513   0.699   5.641
 4763TIP3    H114230   0.564   0.620   5.658
 4763TIP3    H214231   0.560   0.768   5.687
 4764TIP3   OH214232  -0.027   1.560   4.723
 4764TIP3    H114233  -0.005   1.492   4.787
 4764TIP3    H214234   0.003   1.641   4.763
 4765TIP3   OH214235   4.669   2.029   4.265
 4765TIP3    H114236   4.715   2.068   4.339
 4765TIP3    H214237   4.632   1.948   4.300
 4766TIP3   OH214238   6.104   0.863   0.664
 4766TIP3    H114239   6.159   0.793   0.700
 4766TIP3    H214240   6.069   0.908   0.741
 4767TIP3   OH214241   1.958   1.323   5.226
 4767TIP3    H114242   1.983   1.414   5.244
 4767TIP3    H214243   2.021   1.271   5.276
 4768TIP3   OH214244   2.530   6.006   5.251
 4768TIP3    H114245   2.525   5.913   5.228
 4768TIP3    H214246   2.531   6.052   5.167
 4769TIP3   OH214247   6.238   4.866   4.290
 4769TIP3    H114248   6.226   4.802   4.221
 4769TIP3    H214249   6.302   4.928   4.256
 4770TIP3   OH214250   8.018   7.676   3.610
 4770TIP3    H114251   8.011   7.623   3.530
 4770TIP3    H214252   8.048   7.762   3.579
 4771TIP3   OH214253   0.957   5.949   0.404
 4771TIP3    H114254   0.907   5.897   0.341
 4771TIP3    H214255   0.942   5.907   0.488
 4772TIP3   OH214256   2.396   6.711   4.914
 4772TIP3    H114257   2.365   6.627   4.881
 4772TIP3    H214258   2.466   6.736   4.854
 4773TIP3   OH214259   7.682   4.048   2.292
 4773TIP3    H114260   7.767   4.036   2.335
 4773TIP3    H214261   7.624   4.078   2.361
 4774TIP3   OH214262   0.821   5.722   3.606
 4774TIP3    H114263   0.744   5.671   3.581
 4774TIP3    H214264   0.792   5.777   3.679
 4775TIP3   OH214265   5.585   4.681   2.075
 4775TIP3    H114266   5.571   4.749   2.011
 4775TIP3    H214267   5.676   4.692   2.103
 4776TIP3   OH214268   4.580   1.596   3.275
 4776TIP3    H114269   4.671   1.621   3.294
 4776TIP3    H214270   4.586   1.505   3.247
 4777TIP3   OH214271   6.198   2.528   5.815
 4777TIP3    H114272   6.186   2.469   5.889
 4777TIP3    H214273   6.144   2.604   5.837
 4778TIP3   OH214274   6.822   0.282   5.533
 4778TIP3    H114275   6.795   0.299   5.623
 4778TIP3    H214276   6.889   0.348   5.515
 4779TIP3   OH214277   8.076   6.922   5.956
 4779TIP3    H114278   8.058   6.876   5.874
 4779TIP3    H214279   8.085   7.014   5.930
 4780TIP3   OH214280   1.024   0.765   6.067
 4780TIP3    H114281   1.104   0.807   6.034
 4780TIP3    H214282   0.965   0.763   5.991
 4781TIP3   OH214283   2.774   1.174   2.837
 4781TIP3    H114284   2.727   1.126   2.905
 4781TIP3    H214285   2.802   1.107   2.775
 4782TIP3   OH214286   4.868   5.790   6.650
 4782TIP3    H114287   4.886   5.699   6.672
 4782TIP3    H214288   4.828   5.786   6.563
 4783TIP3   OH214289   4.540   6.860   0.211
 4783TIP3    H114290   4.534   6.863   0.115
 4783TIP3    H214291   4.532   6.768   0.233
 4784TIP3   OH214292   3.680   3.051   0.643
 4784TIP3    H114293   3.633   3.134   0.632
 4784TIP3    H214294   3.613   2.984   0.635
 4785TIP3   OH214295   4.166   0.965   2.483
 4785TIP3    H114296   4.255   0.944   2.510
 4785TIP3    H214297   4.173   1.052   2.443
 4786TIP3   OH214298   5.031   1.286   2.948
 4786TIP3    H114299   5.100   1.247   2.893
 4786TIP3    H214300   5.009   1.217   3.010
 4787TIP3   OH214301   6.465   0.968   4.795
 4787TIP3    H114302   6.457   0.947   4.888
 4787TIP3    H214303   6.487   0.885   4.753
 4788TIP3   OH214304   3.753   6.276   5.493
 4788TIP3    H114305   3.822   6.219   5.526
 4788TIP3    H214306   3.753   6.351   5.552
 4789TIP3   OH214307   8.237   3.075   0.466
 4789TIP3    H114308   8.171   3.028   0.517
 4789TIP3    H214309   8.308   3.092   0.528
 4790TIP3   OH214310   1.317   0.427   6.517
 4790TIP3    H114311   1.266   0.449   6.439
 4790TIP3    H214312   1.365   0.347   6.492
 4791TIP3   OH214313   5.296   3.001   5.379
 4791TIP3    H114314   5.285   2.909   5.405
 4791TIP3    H214315   5.219   3.045   5.414
 4792TIP3   OH214316   7.566   5.874   5.934
 4792TIP3    H114317   7.637   5.884   5.998
 4792TIP3    H214318   7.601   5.814   5.869
 4793TIP3   OH214319   4.571   5.503   5.191
 4793TIP3    H114320   4.514   5.578   5.204
 4793TIP3    H214321   4.534   5.457   5.116
 4794TIP3   OH214322   7.008   6.516   6.278
 4794TIP3    H114323   7.026   6.610   6.277
 4794TIP3    H214324   6.944   6.503   6.208
 4795TIP3   OH214325   2.936   3.526   0.194
 4795TIP3    H114326   2.860   3.518   0.136
 4795TIP3    H214327   2.995   3.456   0.166
 4796TIP3   OH214328   1.807   6.927   3.938
 4796TIP3    H114329   1.786   6.896   4.027
 4796TIP3    H214330   1.739   6.889   3.883
 4797TIP3   OH214331   2.110   6.846   4.750
 4797TIP3    H114332   2.131   6.883   4.836
 4797TIP3    H214333   2.019   6.872   4.734
 4798TIP3   OH214334   2.792   7.018   3.522
 4798TIP3    H114335   2.839   7.080   3.466
 4798TIP3    H214336   2.844   6.938   3.518
 4799TIP3   OH214337   4.116   2.496   6.502
 4799TIP3    H114338   4.206   2.527   6.510
 4799TIP3    H214339   4.108   2.427   6.569
 4800TIP3   OH214340   7.247   1.653   0.263
 4800TIP3    H114341   7.293   1.642   0.179
 4800TIP3    H214342   7.269   1.742   0.290
 4801TIP3   OH214343   4.201   2.605   4.819
 4801TIP3    H114344   4.236   2.672   4.760
 4801TIP3    H214345   4.181   2.531   4.762
 4802TIP3   OH214346   0.743   5.162   3.882
 4802TIP3    H114347   0.651   5.156   3.911
 4802TIP3    H214348   0.766   5.254   3.895
 4803TIP3   OH214349   7.646   1.322   6.340
 4803TIP3    H114350   7.672   1.293   6.427
 4803TIP3    H214351   7.728   1.330   6.291
 4804TIP3   OH214352   2.659   0.413   2.115
 4804TIP3    H114353   2.579   0.433   2.067
 4804TIP3    H214354   2.718   0.486   2.096
 4805TIP3   OH214355   4.131   1.397   0.714
 4805TIP3    H114356   4.180   1.387   0.796
 4805TIP3    H214357   4.166   1.328   0.657
 4806TIP3   OH214358   7.956   1.534   2.837
 4806TIP3    H114359   7.963   1.446   2.875
 4806TIP3    H214360   7.879   1.530   2.780
 4807TIP3   OH214361   1.836   5.120   4.521
 4807TIP3    H114362   1.923   5.095   4.490
 4807TIP3    H214363   1.846   5.210   4.553
 4808TIP3   OH214364   0.248   2.803   2.047
 4808TIP3    H114365   0.243   2.886   1.999
 4808TIP3    H214366   0.195   2.818   2.125
 4809TIP3   OH214367   1.078   3.233   2.376
 4809TIP3    H114368   1.130   3.231   2.296
 4809TIP3    H214369   1.095   3.318   2.415
 4810TIP3   OH214370   6.209   1.342   3.675
 4810TIP3    H114371   6.120   1.313   3.695
 4810TIP3    H214372   6.226   1.307   3.587
 4811TIP3   OH214373   0.917   1.536   4.981
 4811TIP3    H114374   1.006   1.570   4.970
 4811TIP3    H214375   0.860   1.610   4.957
 4812TIP3   OH214376   4.084   1.372   3.028
 4812TIP3    H114377   4.137   1.319   3.086
 4812TIP3    H214378   4.115   1.462   3.042
 4813TIP3   OH214379   8.384   0.036   5.258
 4813TIP3    H114380   8.313  -0.014   5.217
 4813TIP3    H214381   8.447   0.051   5.188
 4814TIP3   OH214382   1.288   1.924   5.554
 4814TIP3    H114383   1.245   1.844   5.525
 4814TIP3    H214384   1.323   1.903   5.640
 4815TIP3   OH214385   7.134   6.315   3.386
 4815TIP3    H114386   7.066   6.300   3.319
 4815TIP3    H214387   7.101   6.270   3.464
 4816TIP3   OH214388   1.840   0.985   3.248
 4816TIP3    H114389   1.887   1.055   3.292
 4816TIP3    H214390   1.906   0.939   3.197
 4817TIP3   OH214391   0.207   7.023   2.641
 4817TIP3    H114392   0.292   7.063   2.660
 4817TIP3    H214393   0.167   7.081   2.576
 4818TIP3   OH214394   2.325   6.613   3.639
 4818TIP3    H114395   2.300   6.565   3.560
 4818TIP3    H214396   2.274   6.694   3.634
 4819TIP3   OH214397   6.889   2.574   0.936
 4819TIP3    H114398   6.974   2.541   0.963
 4819TIP3    H214399   6.892   2.570   0.840
 4820TIP3   OH214400   4.684   3.948   4.521
 4820TIP3    H114401   4.726   4.026   4.483
 4820TIP3    H214402   4.592   3.958   4.499
 4821TIP3   OH214403   3.254   4.401   0.216
 4821TIP3    H114404   3.173   4.358   0.188
 4821TIP3    H214405   3.279   4.355   0.296
 4822TIP3   OH214406   1.567   6.435   0.003
 4822TIP3    H114407   1.627   6.486   0.058
 4822TIP3    H214408   1.480   6.469   0.023
 4823TIP3   OH214409   0.484   6.487   5.315
 4823TIP3    H114410   0.505   6.551   5.384
 4823TIP3    H214411   0.446   6.540   5.245
 4824TIP3   OH214412   7.831   1.843   3.357
 4824TIP3    H114413   7.750   1.802   3.326
 4824TIP3    H214414   7.813   1.865   3.449
 4825TIP3   OH214415   2.988   1.803   1.699
 4825TIP3    H114416   3.042   1.792   1.621
 4825TIP3    H214417   2.898   1.803   1.667
 4826TIP3   OH214418   1.077   5.502   2.831
 4826TIP3    H114419   1.007   5.439   2.814
 4826TIP3    H214420   1.146   5.450   2.872
 4827TIP3   OH214421   5.707   0.826   2.117
 4827TIP3    H114422   5.687   0.741   2.077
 4827TIP3    H214423   5.732   0.881   2.043
 4828TIP3   OH214424   2.720   0.201   4.651
 4828TIP3    H114425   2.675   0.282   4.672
 4828TIP3    H214426   2.734   0.158   4.735
 4829TIP3   OH214427   4.589   0.186   6.331
 4829TIP3    H114428   4.643   0.265   6.320
 4829TIP3    H214429   4.619   0.149   6.414
 4830TIP3   OH214430   6.658   5.216   2.410
 4830TIP3    H114431   6.602   5.294   2.421
 4830TIP3    H214432   6.747   5.249   2.424
 4831TIP3   OH214433   1.124   0.701   5.746
 4831TIP3    H114434   1.194   0.638   5.764
 4831TIP3    H214435   1.168   0.773   5.702
 4832TIP3   OH214436   7.384   7.165   0.250
 4832TIP3    H114437   7.342   7.159   0.165
 4832TIP3    H214438   7.435   7.245   0.247
 4833TIP3   OH214439   1.079   4.537   6.742
 4833TIP3    H114440   1.171   4.560   6.751
 4833TIP3    H214441   1.035   4.620   6.723
 4834TIP3   OH214442   2.875   2.722   3.954
 4834TIP3    H114443   2.821   2.675   4.018
 4834TIP3    H214444   2.825   2.801   3.934
 4835TIP3   OH214445   6.573   6.952   0.272
 4835TIP3    H114446   6.541   7.008   0.343
 4835TIP3    H214447   6.503   6.890   0.255
 4836TIP3   OH214448   2.106   1.901   6.787
 4836TIP3    H114449   2.131   1.988   6.756
 4836TIP3    H214450   2.183   1.869   6.833
 4837TIP3   OH214451   6.389   5.440   4.341
 4837TIP3    H114452   6.470   5.489   4.328
 4837TIP3    H214453   6.410   5.376   4.409
 4838TIP3   OH214454   4.284   2.386   1.733
 4838TIP3    H114455   4.220   2.430   1.789
 4838TIP3    H214456   4.234   2.314   1.693
 4839TIP3   OH214457   0.162   2.539   1.986
 4839TIP3    H114458   0.211   2.501   1.914
 4839TIP3    H214459   0.199   2.626   1.999
 4840TIP3   OH214460   0.635   2.901   1.461
 4840TIP3    H114461   0.694   2.826   1.461
 4840TIP3    H214462   0.678   2.965   1.404
 4841TIP3   OH214463   1.303   0.754   3.626
 4841TIP3    H114464   1.371   0.710   3.575
 4841TIP3    H214465   1.300   0.706   3.709
 4842TIP3   OH214466   3.422   3.034   5.544
 4842TIP3    H114467   3.512   3.027   5.576
 4842TIP3    H214468   3.367   3.019   5.621
 4843TIP3   OH214469   7.303   7.562   0.026
 4843TIP3    H114470   7.219   7.559   0.071
 4843TIP3    H214471   7.305   7.649  -0.016
 4844TIP3   OH214472   0.191   6.395   3.286
 4844TIP3    H114473   0.208   6.413   3.379
 4844TIP3    H214474   0.278   6.388   3.247
 4845TIP3   OH214475   3.283   3.193   3.034
 4845TIP3    H114476   3.317   3.259   3.094
 4845TIP3    H214477   3.359   3.162   2.986
 4846TIP3   OH214478   3.442   5.249   6.665
 4846TIP3    H114479   3.422   5.210   6.581
 4846TIP3    H214480   3.407   5.338   6.660
 4847TIP3   OH214481   7.653   5.757   3.795
 4847TIP3    H114482   7.602   5.685   3.831
 4847TIP3    H214483   7.591   5.831   3.793
 4848TIP3   OH214484   5.073   2.140   2.906
 4848TIP3    H114485   5.022   2.202   2.958
 4848TIP3    H214486   5.146   2.116   2.962
 4849TIP3   OH214487   3.085   0.161   3.445
 4849TIP3    H114488   3.138   0.092   3.405
 4849TIP3    H214489   3.124   0.176   3.531
 4850TIP3   OH214490   5.976   1.762   1.519
 4850TIP3    H114491   5.961   1.738   1.428
 4850TIP3    H214492   5.899   1.729   1.566
 4851TIP3   OH214493   8.007   0.314   5.549
 4851TIP3    H114494   7.946   0.286   5.481
 4851TIP3    H214495   8.093   0.287   5.517
 4852TIP3   OH214496   3.027   5.035   2.709
 4852TIP3    H114497   3.013   5.087   2.631
 4852TIP3    H214498   2.988   5.086   2.780
 4853TIP3   OH214499   7.896   0.373   4.876
 4853TIP3    H114500   7.944   0.345   4.798
 4853TIP3    H214501   7.918   0.465   4.886
 4854TIP3   OH214502   7.988   3.648   1.794
 4854TIP3    H114503   7.970   3.664   1.887
 4854TIP3    H214504   8.063   3.589   1.793
 4855TIP3   OH214505   8.170   2.249   2.469
 4855TIP3    H114506   8.235   2.307   2.429
 4855TIP3    H214507   8.217   2.168   2.487
 4856TIP3   OH214508   0.305   7.645   1.546
 4856TIP3    H114509   0.396   7.666   1.565
 4856TIP3    H214510   0.255   7.697   1.609
 4857TIP3   OH214511   6.874   0.897   1.847
 4857TIP3    H114512   6.814   0.914   1.920
 4857TIP3    H214513   6.925   0.821   1.874
 4858TIP3   OH214514   4.130  -0.025   5.765
 4858TIP3    H114515   4.176  -0.064   5.691
 4858TIP3    H214516   4.071   0.039   5.725
 4859TIP3   OH214517   6.558   3.093   3.307
 4859TIP3    H114518   6.483   3.122   3.256
 4859TIP3    H214519   6.620   3.166   3.302
 4860TIP3   OH214520   7.930   7.852   4.033
 4860TIP3    H114521   8.021   7.837   4.057
 4860TIP3    H214522   7.884   7.772   4.059
 4861TIP3   OH214523   4.767   3.253   1.612
 4861TIP3    H114524   4.828   3.326   1.604
 4861TIP3    H214525   4.818   3.183   1.652
 4862TIP3   OH214526   0.795   2.862   0.629
 4862TIP3    H114527   0.787   2.900   0.717
 4862TIP3    H214528   0.710   2.821   0.612
 4863TIP3   OH214529   1.599   4.516   3.175
 4863TIP3    H114530   1.579   4.440   3.230
 4863TIP3    H214531   1.515   4.544   3.140
 4864TIP3   OH214532   6.579   4.025   0.135
 4864TIP3    H114533   6.560   4.110   0.097
 4864TIP3    H214534   6.635   4.043   0.210
 4865TIP3   OH214535   6.937   7.551   4.454
 4865TIP3    H114536   6.955   7.611   4.527
 4865TIP3    H214537   6.881   7.600   4.395
 4866TIP3   OH214538   4.864   6.529   1.667
 4866TIP3    H114539   4.874   6.521   1.572
 4866TIP3    H214540   4.822   6.614   1.679
 4867TIP3   OH214541   0.713   6.027   0.111
 4867TIP3    H114542   0.648   6.047   0.178
 4867TIP3    H214543   0.663   6.019   0.030
 4868TIP3   OH214544   1.062   7.572   4.306
 4868TIP3    H114545   0.977   7.551   4.345
 4868TIP3    H214546   1.063   7.526   4.222
 4869TIP3   OH214547   4.725   3.629   4.003
 4869TIP3    H114548   4.816   3.602   3.989
 4869TIP3    H214549   4.674   3.577   3.941
 4870TIP3   OH214550   2.541   6.093   5.548
 4870TIP3    H114551   2.532   6.055   5.461
 4870TIP3    H214552   2.455   6.083   5.588
 4871TIP3   OH214553   0.651   5.237   0.691
 4871TIP3    H114554   0.610   5.173   0.748
 4871TIP3    H214555   0.580   5.270   0.636
 4872TIP3   OH214556   2.497   1.181   5.258
 4872TIP3    H114557   2.580   1.189   5.212
 4872TIP3    H214558   2.431   1.174   5.189
 4873TIP3   OH214559   5.289   2.649   3.350
 4873TIP3    H114560   5.265   2.641   3.257
 4873TIP3    H214561   5.382   2.671   3.349
 4874TIP3   OH214562   3.927   7.806   5.362
 4874TIP3    H114563   4.010   7.845   5.389
 4874TIP3    H214564   3.888   7.773   5.442
 4875TIP3   OH214565   2.828   0.879   5.615
 4875TIP3    H114566   2.873   0.882   5.700
 4875TIP3    H214567   2.851   0.793   5.579
 4876TIP3   OH214568   5.671   0.163   3.563
 4876TIP3    H114569   5.684   0.089   3.622
 4876TIP3    H214570   5.699   0.239   3.613
 4877TIP3   OH214571   1.988   5.077   1.012
 4877TIP3    H114572   2.051   5.149   1.014
 4877TIP3    H214573   1.998   5.039   0.925
 4878TIP3   OH214574   5.341   0.357   5.272
 4878TIP3    H114575   5.402   0.411   5.222
 4878TIP3    H214576   5.383   0.347   5.358
 4879TIP3   OH214577   3.074   0.091   4.867
 4879TIP3    H114578   3.082   0.001   4.835
 4879TIP3    H214579   3.163   0.114   4.896
 4880TIP3   OH214580   1.104   1.048   6.133
 4880TIP3    H114581   1.095   1.143   6.132
 4880TIP3    H214582   1.020   1.016   6.167
 4881TIP3   OH214583   5.178   5.755   1.444
 4881TIP3    H114584   5.097   5.706   1.432
 4881TIP3    H214585   5.153   5.828   1.501
 4882TIP3   OH214586   5.051   1.446   6.472
 4882TIP3    H114587   5.064   1.533   6.509
 4882TIP3    H214588   5.110   1.389   6.523
 4883TIP3   OH214589   7.371   4.912   4.524
 4883TIP3    H114590   7.300   4.888   4.465
 4883TIP3    H214591   7.331   4.910   4.611
 4884TIP3   OH214592   4.650   5.045   0.821
 4884TIP3    H114593   4.710   5.114   0.794
 4884TIP3    H214594   4.612   5.013   0.739
 4885TIP3   OH214595   6.538   3.670   0.633
 4885TIP3    H114596   6.470   3.710   0.578
 4885TIP3    H214597   6.490   3.629   0.705
 4886TIP3   OH214598   7.892   5.440   4.009
 4886TIP3    H114599   7.833   5.381   3.963
 4886TIP3    H214600   7.842   5.470   4.084
 4887TIP3   OH214601   4.064   3.873   4.389
 4887TIP3    H114602   4.039   3.962   4.364
 4887TIP3    H214603   4.091   3.832   4.307
 4888TIP3   OH214604   3.072   0.587   2.507
 4888TIP3    H114605   3.096   0.531   2.432
 4888TIP3    H214606   3.136   0.564   2.575
 4889TIP3   OH214607   4.053   3.072   0.717
 4889TIP3    H114608   4.020   3.097   0.631
 4889TIP3    H214609   4.041   2.978   0.721
 4890TIP3   OH214610   3.039   7.837   2.393
 4890TIP3    H114611   3.082   7.874   2.470
 4890TIP3    H214612   2.948   7.866   2.400
 4891TIP3   OH214613   1.311   0.857   5.581
 4891TIP3    H114614   1.390   0.863   5.527
 4891TIP3    H214615   1.291   0.948   5.604
 4892TIP3   OH214616   0.887   2.095   5.947
 4892TIP3    H114617   0.843   2.011   5.938
 4892TIP3    H214618   0.938   2.087   6.028
 4893TIP3   OH214619   4.006   1.144   5.603
 4893TIP3    H114620   3.921   1.181   5.577
 4893TIP3    H214621   3.986   1.055   5.630
 4894TIP3   OH214622   2.411   6.234   1.368
 4894TIP3    H114623   2.476   6.302   1.386
 4894TIP3    H214624   2.449   6.183   1.297
 4895TIP3   OH214625   3.753   3.214   2.559
 4895TIP3    H114626   3.751   3.219   2.654
 4895TIP3    H214627   3.788   3.299   2.531
 4896TIP3   OH214628   2.530   1.902   0.115
 4896TIP3    H114629   2.513   1.809   0.120
 4896TIP3    H214630   2.471   1.934   0.047
 4897TIP3   OH214631   0.450   7.352   1.324
 4897TIP3    H114632   0.510   7.399   1.265
 4897TIP3    H214633   0.503   7.280   1.358
 4898TIP3   OH214634   2.118   2.459   2.415
 4898TIP3    H114635   2.063   2.403   2.470
 4898TIP3    H214636   2.190   2.402   2.388
 4899TIP3   OH214637   8.367   4.362   6.718
 4899TIP3    H114638   8.325   4.279   6.742
 4899TIP3    H214639   8.461   4.341   6.713
 4900TIP3   OH214640   6.540   2.311   3.014
 4900TIP3    H114641   6.515   2.402   3.027
 4900TIP3    H214642   6.581   2.285   3.097
 4901TIP3   OH214643   1.925   4.518   5.245
 4901TIP3    H114644   1.927   4.554   5.156
 4901TIP3    H214645   2.000   4.460   5.249
 4902TIP3   OH214646   6.442   2.679   1.413
 4902TIP3    H114647   6.384   2.623   1.464
 4902TIP3    H214648   6.514   2.700   1.472
 4903TIP3   OH214649   2.316   6.799   5.920
 4903TIP3    H114650   2.296   6.711   5.889
 4903TIP3    H214651   2.297   6.798   6.013
 4904TIP3   OH214652   7.773   5.243   0.646
 4904TIP3    H114653   7.805   5.270   0.560
 4904TIP3    H214654   7.707   5.309   0.670
 4905TIP3   OH214655   2.341   1.574   5.995
 4905TIP3    H114656   2.246   1.559   6.002
 4905TIP3    H214657   2.376   1.552   6.081
 4906TIP3   OH214658   4.046   7.681   0.979
 4906TIP3    H114659   4.087   7.760   1.014
 4906TIP3    H214660   4.046   7.694   0.885
 4907TIP3   OH214661   3.920   3.154   2.924
 4907TIP3    H114662   3.990   3.198   2.875
 4907TIP3    H214663   3.839   3.183   2.881
 4908TIP3   OH214664   8.183   3.200   5.559
 4908TIP3    H114665   8.112   3.146   5.524
 4908TIP3    H214666   8.259   3.176   5.507
 4909TIP3   OH214667   7.751   0.506   1.252
 4909TIP3    H114668   7.738   0.474   1.163
 4909TIP3    H214669   7.745   0.601   1.245
 4910TIP3   OH214670   0.691   7.052   5.171
 4910TIP3    H114671   0.663   6.974   5.219
 4910TIP3    H214672   0.616   7.074   5.116
 4911TIP3   OH214673   3.837   3.857   5.959
 4911TIP3    H114674   3.748   3.890   5.944
 4911TIP3    H214675   3.881   3.929   6.003
 4912TIP3   OH214676   5.917   1.116   2.320
 4912TIP3    H114677   5.987   1.178   2.340
 4912TIP3    H214678   5.907   1.064   2.399
 4913TIP3   OH214679   4.276   1.286   1.356
 4913TIP3    H114680   4.181   1.299   1.350
 4913TIP3    H214681   4.286   1.214   1.419
 4914TIP3   OH214682   8.180   7.392   2.696
 4914TIP3    H114683   8.147   7.477   2.667
 4914TIP3    H214684   8.111   7.330   2.674
 4915TIP3   OH214685   0.042   7.798   3.162
 4915TIP3    H114686   0.068   7.821   3.251
 4915TIP3    H214687   0.124   7.777   3.118
 4916TIP3   OH214688   7.638   1.278   4.712
 4916TIP3    H114689   7.597   1.202   4.670
 4916TIP3    H214690   7.564   1.333   4.739
 4917TIP3   OH214691   1.864   6.511   2.691
 4917TIP3    H114692   1.798   6.570   2.655
 4917TIP3    H214693   1.902   6.468   2.614
 4918TIP3   OH214694   2.179   7.010   3.373
 4918TIP3    H114695   2.088   6.982   3.365
 4918TIP3    H214696   2.228   6.950   3.315
 4919TIP3   OH214697   5.657   0.725   5.158
 4919TIP3    H114698   5.750   0.743   5.146
 4919TIP3    H214699   5.614   0.808   5.137
 4920TIP3   OH214700   8.145   3.741   6.823
 4920TIP3    H114701   8.207   3.751   6.895
 4920TIP3    H214702   8.060   3.731   6.866
 4921TIP3   OH214703   3.985   6.428   1.943
 4921TIP3    H114704   3.963   6.433   1.850
 4921TIP3    H214705   4.014   6.517   1.965
 4922TIP3   OH214706   3.265   1.993   0.389
 4922TIP3    H114707   3.281   1.905   0.355
 4922TIP3    H214708   3.298   2.052   0.321
 4923TIP3   OH214709   7.298   0.266   1.471
 4923TIP3    H114710   7.248   0.342   1.502
 4923TIP3    H214711   7.372   0.304   1.425
 4924TIP3   OH214712   8.262   0.223   1.217
 4924TIP3    H114713   8.301   0.146   1.258
 4924TIP3    H214714   8.285   0.215   1.124
 4925TIP3   OH214715   3.373   0.179   6.298
 4925TIP3    H114716   3.369   0.177   6.202
 4925TIP3    H214717   3.439   0.245   6.318
 4926TIP3   OH214718   4.160   0.709   3.299
 4926TIP3    H114719   4.222   0.637   3.287
 4926TIP3    H214720   4.207   0.772   3.354
 4927TIP3   OH214721   5.711   7.478   0.330
 4927TIP3    H114722   5.672   7.543   0.389
 4927TIP3    H214723   5.639   7.450   0.274
 4928TIP3   OH214724   2.421   6.115   3.785
 4928TIP3    H114725   2.368   6.050   3.832
 4928TIP3    H214726   2.372   6.131   3.704
 4929TIP3   OH214727   2.189   3.499   1.058
 4929TIP3    H114728   2.141   3.446   0.994
 4929TIP3    H214729   2.242   3.435   1.106
 4930TIP3   OH214730   6.762   6.092   2.872
 4930TIP3    H114731   6.819   6.140   2.812
 4930TIP3    H214732   6.699   6.157   2.902
 4931TIP3   OH214733   5.076   2.057   4.365
 4931TIP3    H114734   5.089   2.043   4.459
 4931TIP3    H214735   5.132   1.992   4.323
 4932TIP3   OH214736   6.604   7.307   5.967
 4932TIP3    H114737   6.586   7.398   5.943
 4932TIP3    H214738   6.699   7.299   5.961
 4933TIP3   OH214739   6.739   2.299   2.835
 4933TIP3    H114740   6.688   2.317   2.914
 4933TIP3    H214741   6.722   2.374   2.778
 4934TIP3   OH214742   7.760   4.559   2.508
 4934TIP3    H114743   7.731   4.573   2.417
 4934TIP3    H214744   7.768   4.464   2.515
 4935TIP3   OH214745   4.148   3.951   6.451
 4935TIP3    H114746   4.238   3.930   6.428
 4935TIP3    H214747   4.105   3.967   6.367
 4936TIP3   OH214748   2.813   4.640   5.068
 4936TIP3    H114749   2.736   4.608   5.115
 4936TIP3    H214750   2.886   4.590   5.104
 4937TIP3   OH214751   4.962   1.179   6.086
 4937TIP3    H114752   5.044   1.205   6.128
 4937TIP3    H214753   4.986   1.104   6.032
 4938TIP3   OH214754   5.301   1.675   0.421
 4938TIP3    H114755   5.240   1.602   0.435
 4938TIP3    H214756   5.331   1.698   0.508
 4939TIP3   OH214757   6.602   0.099   4.969
 4939TIP3    H114758   6.628   0.150   5.046
 4939TIP3    H214759   6.670   0.032   4.960
 4940TIP3   OH214760   6.746   2.216   3.615
 4940TIP3    H114761   6.728   2.148   3.550
 4940TIP3    H214762   6.659   2.244   3.645
 4941TIP3   OH214763   0.497   2.935   3.627
 4941TIP3    H114764   0.558   2.934   3.700
 4941TIP3    H214765   0.516   2.854   3.578
 4942TIP3   OH214766   8.044   0.903   0.540
 4942TIP3    H114767   8.023   0.857   0.459
 4942TIP3    H214768   8.133   0.935   0.528
 4943TIP3   OH214769   1.241   4.747   5.373
 4943TIP3    H114770   1.205   4.745   5.285
 4943TIP3    H214771   1.174   4.705   5.427
 4944TIP3   OH214772   6.873   5.991   3.173
 4944TIP3    H114773   6.806   5.939   3.128
 4944TIP3    H214774   6.944   5.999   3.108
 4945TIP3   OH214775   1.695   4.244   4.202
 4945TIP3    H114776   1.633   4.195   4.256
 4945TIP3    H214777   1.756   4.283   4.264
 4946TIP3   OH214778   8.087   7.263   2.345
 4946TIP3    H114779   8.049   7.201   2.406
 4946TIP3    H214780   8.054   7.348   2.372
 4947TIP3   OH214781   1.187   1.048   2.861
 4947TIP3    H114782   1.266   1.037   2.915
 4947TIP3    H214783   1.148   1.130   2.892
 4948TIP3   OH214784   5.424   5.110   3.702
 4948TIP3    H114785   5.516   5.127   3.682
 4948TIP3    H214786   5.423   5.089   3.795
 4949TIP3   OH214787   4.144   0.078   0.873
 4949TIP3    H114788   4.091   0.125   0.808
 4949TIP3    H214789   4.172   0.147   0.933
 4950TIP3   OH214790   7.595   5.461   1.522
 4950TIP3    H114791   7.556   5.378   1.549
 4950TIP3    H214792   7.653   5.439   1.450
 4951TIP3   OH214793   5.310   7.388   0.108
 4951TIP3    H114794   5.333   7.442   0.184
 4951TIP3    H214795   5.217   7.407   0.093
 4952TIP3   OH214796   1.151   3.026   2.056
 4952TIP3    H114797   1.212   3.079   2.107
 4952TIP3    H214798   1.184   2.936   2.065
 4953TIP3   OH214799   7.071   3.078   4.023
 4953TIP3    H114800   6.999   3.111   4.078
 4953TIP3    H214801   7.126   3.029   4.083
 4954TIP3   OH214802   6.283   6.457   2.454
 4954TIP3    H114803   6.227   6.436   2.528
 4954TIP3    H214804   6.246   6.536   2.417
 4955TIP3   OH214805   0.883   1.113   6.750
 4955TIP3    H114806   0.877   1.092   6.656
 4955TIP3    H214807   0.793   1.106   6.782
 4956TIP3   OH214808   0.773   4.496   2.358
 4956TIP3    H114809   0.821   4.575   2.332
 4956TIP3    H214810   0.721   4.474   2.280
 4957TIP3   OH214811   6.292   6.069   1.400
 4957TIP3    H114812   6.241   5.992   1.424
 4957TIP3    H214813   6.379   6.052   1.436
 4958TIP3   OH214814   0.376   6.483   1.068
 4958TIP3    H114815   0.391   6.543   1.141
 4958TIP3    H214816   0.286   6.501   1.040
 4959TIP3   OH214817   2.674   3.493   6.149
 4959TIP3    H114818   2.607   3.431   6.178
 4959TIP3    H214819   2.640   3.579   6.176
 4960TIP3   OH214820   4.688   6.543   3.474
 4960TIP3    H114821   4.728   6.595   3.404
 4960TIP3    H214822   4.719   6.584   3.554
 4961TIP3   OH214823   0.116   4.429   4.921
 4961TIP3    H114824   0.058   4.359   4.950
 4961TIP3    H214825   0.197   4.415   4.970
 4962TIP3   OH214826   1.515   2.802   6.497
 4962TIP3    H114827   1.429   2.762   6.507
 4962TIP3    H214828   1.551   2.805   6.586
 4963TIP3   OH214829   6.546   2.877   3.878
 4963TIP3    H114830   6.597   2.958   3.884
 4963TIP3    H214831   6.563   2.832   3.961
 4964TIP3   OH214832   7.619   3.165   6.098
 4964TIP3    H114833   7.531   3.202   6.090
 4964TIP3    H214834   7.621   3.094   6.034
 4965TIP3   OH214835   5.651   7.127   0.609
 4965TIP3    H114836   5.575   7.072   0.624
 4965TIP3    H214837   5.702   7.079   0.543
 4966TIP3   OH214838   3.959   7.513   2.163
 4966TIP3    H114839   3.908   7.492   2.241
 4966TIP3    H214840   4.003   7.596   2.185
 4967TIP3   OH214841   2.776   2.619   0.954
 4967TIP3    H114842   2.850   2.585   0.904
 4967TIP3    H214843   2.714   2.650   0.888
 4968TIP3   OH214844   5.681   2.913   6.197
 4968TIP3    H114845   5.635   2.858   6.261
 4968TIP3    H214846   5.692   2.856   6.121
 4969TIP3   OH214847   5.925   0.866   0.247
 4969TIP3    H114848   5.984   0.833   0.315
 4969TIP3    H214849   5.979   0.927   0.196
 4970TIP3   OH214850   4.718   6.891   2.432
 4970TIP3    H114851   4.710   6.827   2.361
 4970TIP3    H214852   4.773   6.961   2.396
 4971TIP3   OH214853   6.512   2.348   4.571
 4971TIP3    H114854   6.448   2.288   4.534
 4971TIP3    H214855   6.511   2.330   4.665
 4972TIP3   OH214856   8.348   4.339   2.802
 4972TIP3    H114857   8.320   4.408   2.743
 4972TIP3    H214858   8.292   4.264   2.781
 4973TIP3   OH214859   3.720   4.118   2.375
 4973TIP3    H114860   3.792   4.058   2.393
 4973TIP3    H214861   3.700   4.104   2.282
 4974TIP3   OH214862   4.781   5.942   1.278
 4974TIP3    H114863   4.854   5.949   1.340
 4974TIP3    H214864   4.812   5.881   1.211
 4975TIP3   OH214865   4.492   3.104   5.633
 4975TIP3    H114866   4.523   3.135   5.718
 4975TIP3    H214867   4.570   3.067   5.591
 4976TIP3   OH214868   4.424   1.575   0.845
 4976TIP3    H114869   4.343   1.562   0.896
 4976TIP3    H214870   4.400   1.639   0.778
 4977TIP3   OH214871   4.136   2.232   0.610
 4977TIP3    H114872   4.166   2.274   0.691
 4977TIP3    H214873   4.207   2.248   0.547
 4978TIP3   OH214874   3.706   2.248   3.332
 4978TIP3    H114875   3.772   2.260   3.400
 4978TIP3    H214876   3.636   2.199   3.374
 4979TIP3   OH214877   2.535   4.328   6.412
 4979TIP3    H114878   2.595   4.402   6.403
 4979TIP3    H214879   2.490   4.324   6.328
 4980TIP3   OH214880   3.152   5.565   6.746
 4980TIP3    H114881   3.062   5.598   6.755
 4980TIP3    H214882   3.186   5.567   6.835
 4981TIP3   OH214883   7.626   0.236   3.278
 4981TIP3    H114884   7.552   0.290   3.249
 4981TIP3    H214885   7.687   0.238   3.204
 4982TIP3   OH214886   3.883   0.476   0.887
 4982TIP3    H114887   3.883   0.491   0.792
 4982TIP3    H214888   3.832   0.548   0.923
 4983TIP3   OH214889   3.723   3.300   0.280
 4983TIP3    H114890   3.755   3.229   0.335
 4983TIP3    H214891   3.766   3.285   0.196
 4984TIP3   OH214892   7.888   6.961   0.269
 4984TIP3    H114893   7.854   6.872   0.263
 4984TIP3    H214894   7.981   6.953   0.245
 4985TIP3   OH214895   7.492   4.852   2.485
 4985TIP3    H114896   7.454   4.773   2.524
 4985TIP3    H214897   7.485   4.838   2.391
 4986TIP3   OH214898   5.188   5.698   2.540
 4986TIP3    H114899   5.125   5.736   2.479
 4986TIP3    H214900   5.139   5.684   2.621
 4987TIP3   OH214901   1.158   3.945   5.062
 4987TIP3    H114902   1.238   3.984   5.028
 4987TIP3    H214903   1.101   4.019   5.082
 4988TIP3   OH214904   7.673   6.815   0.558
 4988TIP3    H114905   7.762   6.847   0.572
 4988TIP3    H214906   7.647   6.852   0.473
 4989TIP3   OH214907   5.551   1.950   3.381
 4989TIP3    H114908   5.489   1.880   3.404
 4989TIP3    H214909   5.593   1.918   3.301
 4990TIP3   OH214910   0.970   3.781   1.348
 4990TIP3    H114911   0.887   3.738   1.370
 4990TIP3    H214912   1.028   3.760   1.420
 4991TIP3   OH214913   6.602   0.927   2.657
 4991TIP3    H114914   6.676   0.884   2.699
 4991TIP3    H214915   6.539   0.857   2.641
 4992TIP3   OH214916   3.623   6.931   1.518
 4992TIP3    H114917   3.701   6.977   1.548
 4992TIP3    H214918   3.646   6.896   1.432
 4993TIP3   OH214919   2.590   4.033   5.453
 4993TIP3    H114920   2.591   4.083   5.534
 4993TIP3    H214921   2.545   3.952   5.475
 4994TIP3   OH214922   8.221   0.143   2.048
 4994TIP3    H114923   8.306   0.111   2.079
 4994TIP3    H214924   8.203   0.220   2.103
 4995TIP3   OH214925   3.991   1.732   4.501
 4995TIP3    H114926   3.902   1.712   4.529
 4995TIP3    H214927   4.046   1.702   4.574
 4996TIP3   OH214928   4.851   2.008   3.329
 4996TIP3    H114929   4.870   2.024   3.422
 4996TIP3    H214930   4.936   2.009   3.286
 4997TIP3   OH214931   1.980   5.236   2.847
 4997TIP3    H114932   1.945   5.154   2.814
 4997TIP3    H214933   1.937   5.304   2.795
 4998TIP3   OH214934   1.825   0.389   3.362
 4998TIP3    H114935   1.852   0.299   3.346
 4998TIP3    H214936   1.752   0.380   3.424
 4999TIP3   OH214937   7.541   6.938   4.849
 4999TIP3    H114938   7.464   6.887   4.823
 4999TIP3    H214939   7.555   6.999   4.777
 5000TIP3   OH214940   1.641   7.234   3.117
 5000TIP3    H114941   1.640   7.222   3.022
 5000TIP3    H214942   1.571   7.177   3.149
 5001TIP3   OH214943   0.654   6.707   3.646
 5001TIP3    H114944   0.670   6.796   3.614
 5001TIP3    H214945   0.578   6.715   3.704
 5002TIP3   OH214946   6.326   3.906   3.366
 5002TIP3    H114947   6.387   3.950   3.306
 5002TIP3    H214948   6.279   3.843   3.311
 5003TIP3   OH214949   0.173   6.829   3.090
 5003TIP3    H114950   0.141   6.800   3.176
 5003TIP3    H214951   0.191   6.748   3.042
 5004TIP3   OH214952   2.207   5.459   2.375
 5004TIP3    H114953   2.186   5.545   2.412
 5004TIP3    H214954   2.143   5.400   2.414
 5005TIP3   OH214955   8.220   2.226   0.324
 5005TIP3    H114956   8.229   2.168   0.400
 5005TIP3    H214957   8.126   2.246   0.320
 5006TIP3   OH214958   0.109   3.396   0.707
 5006TIP3    H114959   0.184   3.345   0.738
 5006TIP3    H214960   0.118   3.396   0.611
 5007TIP3   OH214961   5.946   1.798   3.274
 5007TIP3    H114962   6.035   1.780   3.244
 5007TIP3    H214963   5.955   1.868   3.338
 5008TIP3   OH214964   1.586   4.495   1.859
 5008TIP3    H114965   1.546   4.421   1.905
 5008TIP3    H214966   1.557   4.484   1.768
 5009TIP3   OH214967   6.017   6.393   0.820
 5009TIP3    H114968   6.088   6.330   0.814
 5009TIP3    H214969   5.968   6.367   0.898
 5010TIP3   OH214970   7.593   4.090   0.845
 5010TIP3    H114971   7.605   4.060   0.935
 5010TIP3    H214972   7.616   4.183   0.846
 5011TIP3   OH214973   3.034   0.343   0.724
 5011TIP3    H114974   3.007   0.269   0.778
 5011TIP3    H214975   3.100   0.388   0.777
 5012TIP3   OH214976   1.672   6.104   6.821
 5012TIP3    H114977   1.603   6.051   6.861
 5012TIP3    H214978   1.626   6.175   6.776
 5013TIP3   OH214979   1.886   3.644   6.859
 5013TIP3    H114980   1.951   3.634   6.789
 5013TIP3    H214981   1.937   3.669   6.936
 5014TIP3   OH214982   1.567   4.644   1.507
 5014TIP3    H114983   1.474   4.657   1.487
 5014TIP3    H214984   1.612   4.710   1.454
 5015TIP3   OH214985   2.031   5.600   5.360
 5015TIP3    H114986   2.075   5.518   5.339
 5015TIP3    H214987   1.970   5.577   5.430
 5016TIP3   OH214988   6.853   3.924   4.625
 5016TIP3    H114989   6.948   3.931   4.612
 5016TIP3    H214990   6.838   3.832   4.648
 5017TIP3   OH214991   5.726   1.681   6.299
 5017TIP3    H114992   5.695   1.598   6.333
 5017TIP3    H214993   5.714   1.743   6.372
 5018TIP3   OH214994   7.525   2.666   5.934
 5018TIP3    H114995   7.457   2.721   5.972
 5018TIP3    H214996   7.607   2.702   5.967
 5019TIP3   OH214997   0.495   2.775   5.765
 5019TIP3    H114998   0.539   2.777   5.680
 5019TIP3    H214999   0.555   2.729   5.823
 5020TIP3   OH215000   2.543   0.734   2.173
 5020TIP3    H115001   2.561   0.640   2.171
 5020TIP3    H215002   2.510   0.751   2.261
 5021TIP3   OH215003   0.567   3.947   3.721
 5021TIP3    H115004   0.614   3.915   3.644
 5021TIP3    H215005   0.636   3.977   3.780
 5022TIP3   OH215006   2.773   2.766   4.257
 5022TIP3    H115007   2.840   2.797   4.318
 5022TIP3    H215008   2.746   2.844   4.210
 5023TIP3   OH215009   3.708   3.316   4.709
 5023TIP3    H115010   3.802   3.298   4.712
 5023TIP3    H215011   3.699   3.404   4.747
 5024TIP3   OH215012   1.936   6.059   1.811
 5024TIP3    H115013   1.918   6.011   1.731
 5024TIP3    H215014   2.020   6.025   1.841
 5025TIP3   OH215015   8.464   1.349   4.916
 5025TIP3    H115016   8.404   1.369   4.988
 5025TIP3    H215017   8.417   1.286   4.862
 5026TIP3   OH215018   5.269   5.172   2.887
 5026TIP3    H115019   5.327   5.125   2.946
 5026TIP3    H215020   5.283   5.132   2.802
 5027TIP3   OH215021   3.611   4.651   1.549
 5027TIP3    H115022   3.670   4.577   1.535
 5027TIP3    H215023   3.524   4.610   1.558
 5028TIP3   OH215024   4.990   3.848   4.549
 5028TIP3    H115025   4.951   3.765   4.522
 5028TIP3    H215026   4.922   3.913   4.532
 5029TIP3   OH215027   6.642   5.044   5.910
 5029TIP3    H115028   6.730   5.011   5.929
 5029TIP3    H215029   6.584   4.991   5.965
 5030TIP3   OH215030   2.445   7.272   1.231
 5030TIP3    H115031   2.475   7.275   1.140
 5030TIP3    H215032   2.353   7.248   1.225
 5031TIP3   OH215033   8.030   5.393   0.083
 5031TIP3    H115034   8.048   5.299   0.087
 5031TIP3    H215035   8.111   5.434   0.115
 5032TIP3   OH215036   0.536   7.044   5.900
 5032TIP3    H115037   0.546   7.136   5.923
 5032TIP3    H215038   0.608   7.027   5.839
 5033TIP3   OH215039   4.475   7.523   6.457
 5033TIP3    H115040   4.407   7.475   6.411
 5033TIP3    H215041   4.428   7.588   6.510
 5034TIP3   OH215042   5.952   1.945   0.877
 5034TIP3    H115043   6.027   1.903   0.834
 5034TIP3    H215044   5.962   1.922   0.970
 5035TIP3   OH215045   5.326   5.126   0.326
 5035TIP3    H115046   5.326   5.039   0.365
 5035TIP3    H215047   5.406   5.167   0.359
 5036TIP3   OH215048   2.766   7.207   2.529
 5036TIP3    H115049   2.706   7.172   2.595
 5036TIP3    H215050   2.834   7.141   2.521
 5037TIP3   OH215051   4.439   2.834   6.528
 5037TIP3    H115052   4.422   2.910   6.472
 5037TIP3    H215053   4.534   2.823   6.524
 5038TIP3   OH215054   2.125   5.966   0.438
 5038TIP3    H115055   2.168   5.907   0.500
 5038TIP3    H215056   2.095   6.039   0.493
 5039TIP3   OH215057   1.217   4.060   3.685
 5039TIP3    H115058   1.240   3.992   3.621
 5039TIP3    H215059   1.296   4.113   3.692
 5040TIP3   OH215060   7.272   1.640   4.452
 5040TIP3    H115061   7.271   1.544   4.443
 5040TIP3    H215062   7.319   1.655   4.535
 5041TIP3   OH215063   2.552   5.854   6.065
 5041TIP3    H115064   2.629   5.822   6.111
 5041TIP3    H215065   2.562   5.823   5.975
 5042TIP3   OH215066   2.427   6.496   3.894
 5042TIP3    H115067   2.409   6.521   3.803
 5042TIP3    H215068   2.340   6.486   3.934
 5043TIP3   OH215069   7.487   0.309   4.484
 5043TIP3    H115070   7.566   0.356   4.512
 5043TIP3    H215071   7.435   0.374   4.438
 5044TIP3   OH215072   0.108   4.610   0.047
 5044TIP3    H115073   0.175   4.563  -0.004
 5044TIP3    H215074   0.025   4.582   0.010
 5045TIP3   OH215075   7.689   3.009   5.852
 5045TIP3    H115076   7.725   2.943   5.792
 5045TIP3    H215077   7.758   3.075   5.858
 5046TIP3   OH215078   2.733   7.469   3.024
 5046TIP3    H115079   2.823   7.465   2.992
 5046TIP3    H215080   2.736   7.427   3.110
 5047TIP3   OH215081   3.133   1.152   2.395
 5047TIP3    H115082   3.194   1.079   2.396
 5047TIP3    H215083   3.050   1.114   2.367
 5048TIP3   OH215084   2.026   1.677   6.611
 5048TIP3    H115085   2.057   1.743   6.674
 5048TIP3    H215086   1.945   1.644   6.650
 5049TIP3   OH215087   1.030   3.407   4.169
 5049TIP3    H115088   0.976   3.460   4.228
 5049TIP3    H215089   0.969   3.344   4.131
 5050TIP3   OH215090   6.191   4.608   3.425
 5050TIP3    H115091   6.284   4.585   3.434
 5050TIP3    H215092   6.151   4.579   3.507
 5051TIP3   OH215093   1.815   4.565   1.561
 5051TIP3    H115094   1.726   4.592   1.538
 5051TIP3    H215095   1.864   4.570   1.478
 5052TIP3   OH215096   3.357   7.598   3.621
 5052TIP3    H115097   3.315   7.513   3.626
 5052TIP3    H215098   3.446   7.583   3.653
 5053TIP3   OH215099   6.441   0.092   1.140
 5053TIP3    H115100   6.478   0.086   1.228
 5053TIP3    H215101   6.398   0.178   1.138
 5054TIP3   OH215102   2.909   0.293   1.822
 5054TIP3    H115103   2.868   0.377   1.840
 5054TIP3    H215104   2.854   0.254   1.754
 5055TIP3   OH215105   0.772   5.902   1.748
 5055TIP3    H115106   0.722   5.821   1.735
 5055TIP3    H215107   0.713   5.957   1.800
 5056TIP3   OH215108   5.385   6.000   2.136
 5056TIP3    H115109   5.441   5.946   2.081
 5056TIP3    H215110   5.430   6.002   2.221
 5057TIP3   OH215111   7.123   1.813   2.014
 5057TIP3    H115112   7.105   1.794   1.922
 5057TIP3    H215113   7.219   1.811   2.021
 5058TIP3   OH215114   8.393   5.157   0.376
 5058TIP3    H115115   8.416   5.243   0.340
 5058TIP3    H215116   8.472   5.129   0.422
 5059TIP3   OH215117   6.529   4.862   0.619
 5059TIP3    H115118   6.623   4.855   0.639
 5059TIP3    H215119   6.513   4.956   0.612
 5060TIP3   OH215120   1.709   0.916   0.805
 5060TIP3    H115121   1.778   0.912   0.872
 5060TIP3    H215122   1.637   0.962   0.848
 5061TIP3   OH215123   3.730   6.966   6.047
 5061TIP3    H115124   3.815   6.994   6.081
 5061TIP3    H215125   3.666   6.998   6.111
 5062TIP3   OH215126   2.008   3.679   5.733
 5062TIP3    H115127   2.027   3.594   5.774
 5062TIP3    H215128   2.082   3.734   5.757
 5063TIP3   OH215129   4.247   6.712   3.906
 5063TIP3    H115130   4.267   6.786   3.963
 5063TIP3    H215131   4.210   6.646   3.964
 5064TIP3   OH215132   2.647   0.673   4.421
 5064TIP3    H115133   2.652   0.648   4.329
 5064TIP3    H215134   2.570   0.628   4.455
 5065TIP3   OH215135   0.443   2.972   3.266
 5065TIP3    H115136   0.451   2.907   3.196
 5065TIP3    H215137   0.517   2.953   3.325
 5066TIP3   OH215138   6.808   5.882   5.705
 5066TIP3    H115139   6.786   5.789   5.694
 5066TIP3    H215140   6.786   5.901   5.797
 5067TIP3   OH215141   8.347   5.741   6.791
 5067TIP3    H115142   8.387   5.660   6.822
 5067TIP3    H215143   8.421   5.801   6.781
 5068TIP3   OH215144   7.072   2.080   5.306
 5068TIP3    H115145   7.071   1.995   5.350
 5068TIP3    H215146   6.991   2.082   5.254
 5069TIP3   OH215147   1.496   1.211   3.216
 5069TIP3    H115148   1.498   1.302   3.244
 5069TIP3    H215149   1.563   1.206   3.147
 5070TIP3   OH215150   4.748   7.348   1.816
 5070TIP3    H115151   4.683   7.396   1.867
 5070TIP3    H215152   4.832   7.377   1.851
 5071TIP3   OH215153   5.605   0.840   1.155
 5071TIP3    H115154   5.690   0.797   1.164
 5071TIP3    H215155   5.611   0.886   1.071
 5072TIP3   OH215156   1.587   2.546   1.551
 5072TIP3    H115157   1.616   2.625   1.505
 5072TIP3    H215158   1.593   2.569   1.643
 5073TIP3   OH215159   2.586   6.878   5.619
 5073TIP3    H115160   2.576   6.790   5.655
 5073TIP3    H215161   2.551   6.871   5.530
 5074TIP3   OH215162   1.087   7.043   1.088
 5074TIP3    H115163   1.156   6.981   1.063
 5074TIP3    H215164   1.117   7.079   1.172
 5075TIP3   OH215165   4.921   4.020   0.666
 5075TIP3    H115166   5.010   4.053   0.650
 5075TIP3    H215167   4.865   4.097   0.656
 5076TIP3   OH215168   5.923   7.691   6.752
 5076TIP3    H115169   5.882   7.773   6.723
 5076TIP3    H215170   5.860   7.623   6.728
 5077TIP3   OH215171   0.799   3.676   0.322
 5077TIP3    H115172   0.810   3.631   0.406
 5077TIP3    H215173   0.716   3.643   0.287
 5078TIP3   OH215174   0.389   0.994   2.903
 5078TIP3    H115175   0.434   1.042   2.972
 5078TIP3    H215176   0.392   0.903   2.931
 5079TIP3   OH215177   6.308   2.482   1.545
 5079TIP3    H115178   6.262   2.400   1.526
 5079TIP3    H215179   6.339   2.471   1.635
 5080TIP3   OH215180   1.952   0.216   2.608
 5080TIP3    H115181   1.890   0.281   2.640
 5080TIP3    H215182   2.020   0.267   2.565
 5081TIP3   OH215183   6.680   1.245   2.083
 5081TIP3    H115184   6.629   1.253   2.002
 5081TIP3    H215185   6.688   1.150   2.097
 5082TIP3   OH215186   3.415   5.670   3.107
 5082TIP3    H115187   3.350   5.718   3.055
 5082TIP3    H215188   3.494   5.671   3.054
 5083TIP3   OH215189   0.254   1.936   6.660
 5083TIP3    H115190   0.305   1.879   6.603
 5083TIP3    H215191   0.292   1.921   6.747
 5084TIP3   OH215192   3.913   3.587   3.339
 5084TIP3    H115193   3.924   3.543   3.423
 5084TIP3    H215194   3.888   3.517   3.278
 5085TIP3   OH215195   2.460   0.984   4.182
 5085TIP3    H115196   2.540   0.992   4.130
 5085TIP3    H215197   2.490   0.986   4.273
 5086TIP3   OH215198   4.126   3.295   2.802
 5086TIP3    H115199   4.152   3.380   2.837
 5086TIP3    H215200   4.087   3.316   2.717
 5087TIP3   OH215201   6.679   7.224   0.249
 5087TIP3    H115202   6.762   7.235   0.296
 5087TIP3    H215203   6.613   7.217   0.318
 5088TIP3   OH215204   1.779   4.582   0.953
 5088TIP3    H115205   1.704   4.595   0.895
 5088TIP3    H215206   1.762   4.499   0.997
 5089TIP3   OH215207   0.160   7.519   3.099
 5089TIP3    H115208   0.108   7.541   3.021
 5089TIP3    H215209   0.248   7.503   3.064
 5090TIP3   OH215210   6.738   1.342   1.763
 5090TIP3    H115211   6.806   1.342   1.696
 5090TIP3    H215212   6.735   1.433   1.795
 5091TIP3   OH215213   4.477   3.674   5.296
 5091TIP3    H115214   4.514   3.587   5.287
 5091TIP3    H215215   4.506   3.721   5.218
 5092TIP3   OH215216   6.315   7.570   6.104
 5092TIP3    H115217   6.335   7.545   6.014
 5092TIP3    H215218   6.314   7.666   6.103
 5093TIP3   OH215219   8.001   1.332   5.490
 5093TIP3    H115220   8.028   1.407   5.543
 5093TIP3    H215221   7.938   1.368   5.428
 5094TIP3   OH215222   1.008   6.629   5.183
 5094TIP3    H115223   0.921   6.668   5.173
 5094TIP3    H215224   1.026   6.588   5.099
 5095TIP3   OH215225   4.936   4.418   0.073
 5095TIP3    H115226   4.869   4.374   0.021
 5095TIP3    H215227   4.918   4.511   0.061
 5096TIP3   OH215228   0.707   4.124   6.238
 5096TIP3    H115229   0.707   4.077   6.155
 5096TIP3    H215230   0.671   4.061   6.301
 5097TIP3   OH215231   0.548   1.567   2.634
 5097TIP3    H115232   0.604   1.615   2.695
 5097TIP3    H215233   0.579   1.476   2.639
 5098TIP3   OH215234   6.635   4.159   6.614
 5098TIP3    H115235   6.562   4.221   6.611
 5098TIP3    H215236   6.651   4.137   6.523
 5099TIP3   OH215237   6.819   4.447   4.795
 5099TIP3    H115238   6.784   4.536   4.792
 5099TIP3    H215239   6.901   4.452   4.747
 5100TIP3   OH215240   1.937   3.289   0.116
 5100TIP3    H115241   1.969   3.205   0.084
 5100TIP3    H215242   1.847   3.271   0.143
 5101TIP3   OH215243   0.766   3.429   4.733
 5101TIP3    H115244   0.723   3.393   4.810
 5101TIP3    H215245   0.797   3.515   4.760
 5102TIP3   OH215246   4.234   1.181   2.821
 5102TIP3    H115247   4.197   1.242   2.884
 5102TIP3    H215248   4.237   1.230   2.739
 5103TIP3   OH215249   7.600   5.447   5.989
 5103TIP3    H115250   7.663   5.398   6.042
 5103TIP3    H215251   7.653   5.493   5.924
 5104TIP3   OH215252   6.747   1.460   2.702
 5104TIP3    H115253   6.790   1.487   2.784
 5104TIP3    H215254   6.738   1.542   2.653
 5105TIP3   OH215255   3.242   6.005   0.846
 5105TIP3    H115256   3.166   6.064   0.844
 5105TIP3    H215257   3.277   6.008   0.757
 5106TIP3   OH215258   6.344   2.776   4.308
 5106TIP3    H115259   6.267   2.761   4.254
 5106TIP3    H215260   6.352   2.696   4.360
 5107TIP3   OH215261   7.820   3.445   0.288
 5107TIP3    H115262   7.748   3.385   0.309
 5107TIP3    H215263   7.805   3.521   0.345
 5108TIP3   OH215264   4.809   4.743   3.726
 5108TIP3    H115265   4.842   4.728   3.815
 5108TIP3    H215266   4.852   4.824   3.698
 5109TIP3   OH215267   7.910   5.228   1.161
 5109TIP3    H115268   7.917   5.207   1.068
 5109TIP3    H215269   7.950   5.153   1.205
 5110TIP3   OH215270   5.304   1.937   1.630
 5110TIP3    H115271   5.397   1.928   1.648
 5110TIP3    H215272   5.299   1.964   1.539
 5111TIP3   OH215273   2.142   0.526   1.904
 5111TIP3    H115274   2.078   0.581   1.858
 5111TIP3    H215275   2.104   0.439   1.902
 5112TIP3   OH215276   6.701   4.652   2.180
 5112TIP3    H115277   6.665   4.732   2.141
 5112TIP3    H215278   6.755   4.615   2.110
 5113TIP3   OH215279   4.902   4.651   4.690
 5113TIP3    H115280   4.944   4.732   4.718
 5113TIP3    H215281   4.855   4.620   4.767
 5114TIP3   OH215282   3.431   4.091   5.333
 5114TIP3    H115283   3.490   4.040   5.278
 5114TIP3    H215284   3.356   4.111   5.276
 5115TIP3   OH215285   1.346   3.652   2.185
 5115TIP3    H115286   1.414   3.586   2.200
 5115TIP3    H215287   1.277   3.605   2.138
 5116TIP3   OH215288   7.912   4.812   0.340
 5116TIP3    H115289   7.903   4.846   0.252
 5116TIP3    H215290   7.864   4.873   0.395
 5117TIP3   OH215291   3.286   6.576   2.645
 5117TIP3    H115292   3.302   6.662   2.683
 5117TIP3    H215293   3.193   6.578   2.620
 5118TIP3   OH215294   7.787   1.362   2.398
 5118TIP3    H115295   7.862   1.382   2.454
 5118TIP3    H215296   7.736   1.297   2.447
 5119TIP3   OH215297   3.925   0.054   2.096
 5119TIP3    H115298   3.979   0.112   2.149
 5119TIP3    H215299   3.848   0.037   2.150
 5120TIP3   OH215300   2.695   6.528   6.022
 5120TIP3    H115301   2.769   6.468   6.032
 5120TIP3    H215302   2.719   6.584   5.949
 5121TIP3   OH215303   1.003   0.499   4.501
 5121TIP3    H115304   1.035   0.410   4.485
 5121TIP3    H215305   0.944   0.515   4.427
 5122TIP3   OH215306   1.883   1.967   6.175
 5122TIP3    H115307   1.804   2.013   6.146
 5122TIP3    H215308   1.857   1.876   6.183
 5123TIP3   OH215309   7.304   0.737   6.414
 5123TIP3    H115310   7.391   0.697   6.413
 5123TIP3    H215311   7.270   0.722   6.326
 5124TIP3   OH215312   7.366   4.396   5.582
 5124TIP3    H115313   7.290   4.338   5.572
 5124TIP3    H215314   7.396   4.381   5.671
 5125TIP3   OH215315   5.590   1.031   0.690
 5125TIP3    H115316   5.627   0.950   0.654
 5125TIP3    H215317   5.496   1.022   0.678
 5126TIP3   OH215318   7.106   7.053   1.041
 5126TIP3    H115319   7.146   7.054   0.954
 5126TIP3    H215320   7.176   7.080   1.100
 5127TIP3   OH215321   0.018   2.205   1.047
 5127TIP3    H115322   0.093   2.263   1.036
 5127TIP3    H215323   0.026   2.173   1.137
 5128TIP3   OH215324   3.952   7.621   3.673
 5128TIP3    H115325   3.871   7.646   3.718
 5128TIP3    H215326   3.936   7.531   3.644
 5129TIP3   OH215327   6.064   5.177   2.756
 5129TIP3    H115328   6.139   5.235   2.742
 5129TIP3    H215329   6.067   5.116   2.683
 5130TIP3   OH215330   0.776   4.649   2.592
 5130TIP3    H115331   0.850   4.709   2.586
 5130TIP3    H215332   0.768   4.612   2.504
 5131TIP3   OH215333   2.817   2.916   6.728
 5131TIP3    H115334   2.850   2.840   6.776
 5131TIP3    H215335   2.872   2.988   6.757
 5132TIP3   OH215336   1.656   3.943   1.308
 5132TIP3    H115337   1.717   3.872   1.331
 5132TIP3    H215338   1.635   3.984   1.392
 5133TIP3   OH215339   1.944   5.954   6.057
 5133TIP3    H115340   1.907   5.996   6.135
 5133TIP3    H215341   1.877   5.891   6.030
 5134TIP3   OH215342   4.341   5.856   0.530
 5134TIP3    H115343   4.263   5.893   0.571
 5134TIP3    H215344   4.365   5.782   0.586
 5135TIP3   OH215345   1.385   3.974   1.561
 5135TIP3    H115346   1.480   3.985   1.553
 5135TIP3    H215347   1.359   3.932   1.480
 5136TIP3   OH215348   1.184   2.216   2.057
 5136TIP3    H115349   1.092   2.220   2.081
 5136TIP3    H215350   1.191   2.272   1.979
 5137TIP3   OH215351   7.998   4.964   2.755
 5137TIP3    H115352   8.011   4.979   2.848
 5137TIP3    H215353   7.934   4.893   2.751
 5138TIP3   OH215354   3.239   6.808   1.216
 5138TIP3    H115355   3.191   6.891   1.226
 5138TIP3    H215356   3.186   6.757   1.155
 5139TIP3   OH215357   0.616   5.587   0.669
 5139TIP3    H115358   0.590   5.522   0.604
 5139TIP3    H215359   0.677   5.541   0.726
 5140TIP3   OH215360   2.467   5.580   0.103
 5140TIP3    H115361   2.457   5.653   0.164
 5140TIP3    H215362   2.391   5.585   0.046
 5141TIP3   OH215363   3.683   4.642   5.169
 5141TIP3    H115364   3.735   4.577   5.216
 5141TIP3    H215365   3.706   4.629   5.077
 5142TIP3   OH215366   4.004   7.735   0.720
 5142TIP3    H115367   3.983   7.819   0.678
 5142TIP3    H215368   3.969   7.670   0.660
 5143TIP3   OH215369   2.510   0.286   2.902
 5143TIP3    H115370   2.549   0.333   2.975
 5143TIP3    H215371   2.576   0.221   2.877
 5144TIP3   OH215372   1.286   3.896   4.615
 5144TIP3    H115373   1.246   3.836   4.553
 5144TIP3    H215374   1.287   3.980   4.570
 5145TIP3   OH215375   5.034   7.862   2.927
 5145TIP3    H115376   5.121   7.888   2.955
 5145TIP3    H215377   5.042   7.849   2.832
 5146TIP3   OH215378   3.734   0.836   5.147
 5146TIP3    H115379   3.677   0.791   5.209
 5146TIP3    H215380   3.734   0.780   5.069
 5147TIP3   OH215381   0.852   3.672   4.825
 5147TIP3    H115382   0.928   3.668   4.767
 5147TIP3    H215383   0.792   3.732   4.781
 5148TIP3   OH215384   3.852   4.610   0.780
 5148TIP3    H115385   3.850   4.700   0.747
 5148TIP3    H215386   3.923   4.569   0.731
 5149TIP3   OH215387   6.816   7.930   2.358
 5149TIP3    H115388   6.733   7.975   2.364
 5149TIP3    H215389   6.831   7.918   2.264
 5150TIP3   OH215390   6.511   6.038   1.597
 5150TIP3    H115391   6.559   6.108   1.643
 5150TIP3    H215392   6.545   5.957   1.635
 5151TIP3   OH215393   6.851   4.275   4.484
 5151TIP3    H115394   6.939   4.242   4.467
 5151TIP3    H215395   6.811   4.280   4.397
 5152TIP3   OH215396   0.638   5.909   5.504
 5152TIP3    H115397   0.564   5.961   5.474
 5152TIP3    H215398   0.631   5.826   5.457
 5153TIP3   OH215399   4.819   4.591   2.001
 5153TIP3    H115400   4.898   4.639   2.026
 5153TIP3    H215401   4.747   4.643   2.036
 5154TIP3   OH215402   1.905   5.042   3.532
 5154TIP3    H115403   1.819   5.030   3.494
 5154TIP3    H215404   1.964   5.048   3.457
 5155TIP3   OH215405   7.628   6.043   5.421
 5155TIP3    H115406   7.697   6.084   5.369
 5155TIP3    H215407   7.659   6.048   5.511
 5156TIP3   OH215408   2.369   7.489   1.898
 5156TIP3    H115409   2.432   7.441   1.951
 5156TIP3    H215410   2.284   7.465   1.934
 5157TIP3   OH215411   6.036   7.212   2.442
 5157TIP3    H115412   5.989   7.253   2.369
 5157TIP3    H215413   5.984   7.136   2.465
 5158TIP3   OH215414   6.783   0.517   6.048
 5158TIP3    H115415   6.789   0.422   6.034
 5158TIP3    H215416   6.693   0.539   6.024
 5159TIP3   OH215417   4.118   1.372   6.571
 5159TIP3    H115418   4.023   1.376   6.564
 5159TIP3    H215419   4.136   1.284   6.604
 5160TIP3   OH215420   3.266   2.502   1.249
 5160TIP3    H115421   3.255   2.518   1.155
 5160TIP3    H215422   3.193   2.549   1.290
 5161TIP3   OH215423   0.603   3.986   0.085
 5161TIP3    H115424   0.668   3.915   0.087
 5161TIP3    H215425   0.585   4.000  -0.008
 5162TIP3   OH215426   2.118   1.883   3.002
 5162TIP3    H115427   2.156   1.933   3.074
 5162TIP3    H215428   2.038   1.845   3.039
 5163TIP3   OH215429   2.939   7.003   2.518
 5163TIP3    H115430   3.024   6.962   2.503
 5163TIP3    H215431   2.879   6.955   2.460
 5164TIP3   OH215432   3.280   2.442   6.406
 5164TIP3    H115433   3.239   2.521   6.442
 5164TIP3    H215434   3.239   2.432   6.320
 5165TIP3   OH215435   7.545   0.311   6.024
 5165TIP3    H115436   7.500   0.327   6.108
 5165TIP3    H215437   7.569   0.398   5.993
 5166TIP3   OH215438   0.374   1.118   3.626
 5166TIP3    H115439   0.368   1.023   3.616
 5166TIP3    H215440   0.348   1.136   3.716
 5167TIP3   OH215441   5.215   1.713   0.027
 5167TIP3    H115442   5.247   1.771  -0.043
 5167TIP3    H215443   5.293   1.695   0.080
 5168TIP3   OH215444   6.931   2.082   4.511
 5168TIP3    H115445   7.025   2.090   4.494
 5168TIP3    H215446   6.890   2.091   4.425
 5169TIP3   OH215447   2.700   0.821   1.917
 5169TIP3    H115448   2.755   0.899   1.919
 5169TIP3    H215449   2.735   0.765   1.987
 5170TIP3   OH215450   8.187   3.663   5.775
 5170TIP3    H115451   8.261   3.691   5.829
 5170TIP3    H215452   8.151   3.588   5.821
 5171TIP3   OH215453   5.962   7.824   4.974
 5171TIP3    H115454   5.962   7.822   4.879
 5171TIP3    H215455   5.889   7.767   4.999
 5172TIP3   OH215456   3.080   5.486   3.953
 5172TIP3    H115457   3.143   5.527   4.013
 5172TIP3    H215458   3.045   5.559   3.902
 5173TIP3   OH215459   3.663   7.493   2.666
 5173TIP3    H115460   3.592   7.429   2.653
 5173TIP3    H215461   3.676   7.496   2.760
 5174TIP3   OH215462   3.699   7.471   1.467
 5174TIP3    H115463   3.638   7.518   1.524
 5174TIP3    H215464   3.783   7.476   1.512
 5175TIP3   OH215465   1.552   3.623   4.927
 5175TIP3    H115466   1.572   3.686   4.996
 5175TIP3    H215467   1.612   3.550   4.944
 5176TIP3   OH215468   0.275   3.526   4.426
 5176TIP3    H115469   0.342   3.566   4.370
 5176TIP3    H215470   0.313   3.442   4.452
 5177TIP3   OH215471   6.953   6.598   2.574
 5177TIP3    H115472   7.035   6.561   2.540
 5177TIP3    H215473   6.980   6.647   2.652
 5178TIP3   OH215474   4.338   3.997   6.060
 5178TIP3    H115475   4.387   3.948   5.994
 5178TIP3    H215476   4.270   3.936   6.090
 5179TIP3   OH215477   6.848   3.386   2.985
 5179TIP3    H115478   6.921   3.324   2.977
 5179TIP3    H215479   6.770   3.333   2.966
 5180TIP3   OH215480   7.966   3.056   6.369
 5180TIP3    H115481   7.886   3.011   6.339
 5180TIP3    H215482   8.036   3.016   6.318
 5181TIP3   OH215483   0.100   0.976   0.255
 5181TIP3    H115484   0.169   0.911   0.252
 5181TIP3    H215485   0.133   1.050   0.204
 5182TIP3   OH215486   6.696   4.364   3.288
 5182TIP3    H115487   6.691   4.357   3.193
 5182TIP3    H215488   6.632   4.300   3.320
 5183TIP3   OH215489   3.266   1.582   3.561
 5183TIP3    H115490   3.278   1.550   3.650
 5183TIP3    H215491   3.249   1.503   3.509
 5184TIP3   OH215492   3.857   1.751   3.737
 5184TIP3    H115493   3.855   1.774   3.829
 5184TIP3    H215494   3.859   1.834   3.691
 5185TIP3   OH215495   5.574   3.456   1.944
 5185TIP3    H115496   5.553   3.468   1.851
 5185TIP3    H215497   5.592   3.545   1.975
 5186TIP3   OH215498   8.075   1.143   3.797
 5186TIP3    H115499   7.996   1.177   3.839
 5186TIP3    H215500   8.107   1.075   3.857
 5187TIP3   OH215501   6.614   0.628   2.339
 5187TIP3    H115502   6.678   0.652   2.406
 5187TIP3    H215503   6.585   0.711   2.303
 5188TIP3   OH215504   4.839   0.814   4.945
 5188TIP3    H115505   4.866   0.728   4.913
 5188TIP3    H215506   4.744   0.807   4.958
 5189TIP3   OH215507   3.560   5.603   1.549
 5189TIP3    H115508   3.580   5.644   1.633
 5189TIP3    H215509   3.557   5.676   1.487
 5190TIP3   OH215510   8.362   4.412   3.074
 5190TIP3    H115511   8.453   4.427   3.102
 5190TIP3    H215512   8.369   4.387   2.982
 5191TIP3   OH215513   6.226   7.355   4.789
 5191TIP3    H115514   6.235   7.444   4.755
 5191TIP3    H215515   6.268   7.300   4.723
 5192TIP3   OH215516   1.296   7.636   0.200
 5192TIP3    H115517   1.329   7.640   0.290
 5192TIP3    H215518   1.308   7.544   0.174
 5193TIP3   OH215519   0.660   6.385   4.582
 5193TIP3    H115520   0.732   6.329   4.555
 5193TIP3    H215521   0.632   6.428   4.501
 5194TIP3   OH215522   4.678   4.108   5.179
 5194TIP3    H115523   4.683   4.031   5.123
 5194TIP3    H215524   4.665   4.072   5.267
 5195TIP3   OH215525   6.830   6.056   0.127
 5195TIP3    H115526   6.755   6.075   0.070
 5195TIP3    H215527   6.792   6.048   0.214
 5196TIP3   OH215528   7.939   0.285   1.593
 5196TIP3    H115529   8.000   0.289   1.666
 5196TIP3    H215530   7.910   0.194   1.590
 5197TIP3   OH215531   2.855   3.019   0.855
 5197TIP3    H115532   2.872   2.952   0.922
 5197TIP3    H215533   2.925   3.007   0.791
 5198TIP3   OH215534   7.243   5.515   4.194
 5198TIP3    H115535   7.188   5.547   4.266
 5198TIP3    H215536   7.332   5.538   4.219
 5199TIP3   OH215537   3.643   3.971   6.513
 5199TIP3    H115538   3.693   4.027   6.453
 5199TIP3    H215539   3.660   4.009   6.599
 5200TIP3   OH215540   3.545   3.498   1.072
 5200TIP3    H115541   3.505   3.531   1.152
 5200TIP3    H215542   3.516   3.559   1.004
 5201TIP3   OH215543   4.316   6.494   0.117
 5201TIP3    H115544   4.286   6.511   0.206
 5201TIP3    H215545   4.393   6.439   0.127
 5202TIP3   OH215546   3.383   6.727   5.472
 5202TIP3    H115547   3.306   6.774   5.503
 5202TIP3    H215548   3.353   6.681   5.394
 5203TIP3   OH215549   0.303   3.260   0.844
 5203TIP3    H115550   0.337   3.197   0.781
 5203TIP3    H215551   0.380   3.302   0.882
 5204TIP3   OH215552   2.973   5.978   2.308
 5204TIP3    H115553   2.900   5.995   2.248
 5204TIP3    H215554   2.967   5.885   2.328
 5205TIP3   OH215555   1.605   5.967   5.756
 5205TIP3    H115556   1.566   5.997   5.674
 5205TIP3    H215557   1.664   5.897   5.730
 5206TIP3   OH215558   5.447   0.280   0.517
 5206TIP3    H115559   5.536   0.246   0.509
 5206TIP3    H215560   5.437   0.300   0.610
 5207TIP3   OH215561   6.791   1.482   3.044
 5207TIP3    H115562   6.807   1.492   3.138
 5207TIP3    H215563   6.862   1.530   3.002
 5208TIP3   OH215564   7.516   2.867   6.369
 5208TIP3    H115565   7.513   2.774   6.347
 5208TIP3    H215566   7.427   2.898   6.352
 5209TIP3   OH215567   5.875   3.015   6.738
 5209TIP3    H115568   5.915   3.075   6.675
 5209TIP3    H215569   5.792   2.990   6.698
 5210TIP3   OH215570   7.449   7.930   0.528
 5210TIP3    H115571   7.372   7.919   0.471
 5210TIP3    H215572   7.462   7.843   0.566
 5211TIP3   OH215573   7.930   6.937   2.927
 5211TIP3    H115574   7.896   6.859   2.883
 5211TIP3    H215575   8.013   6.909   2.966
 5212TIP3   OH215576   2.190   7.681   5.059
 5212TIP3    H115577   2.221   7.754   5.005
 5212TIP3    H215578   2.115   7.645   5.011
 5213TIP3   OH215579   6.054   4.660   5.206
 5213TIP3    H115580   6.148   4.676   5.200
 5213TIP3    H215581   6.030   4.622   5.121
 5214TIP3   OH215582   4.204   3.051   4.417
 5214TIP3    H115583   4.132   3.105   4.382
 5214TIP3    H215584   4.201   2.971   4.364
 5215TIP3   OH215585   1.547   7.862   1.448
 5215TIP3    H115586   1.638   7.890   1.448
 5215TIP3    H215587   1.521   7.864   1.540
 5216TIP3   OH215588   3.698   7.163   2.745
 5216TIP3    H115589   3.698   7.174   2.840
 5216TIP3    H215590   3.624   7.215   2.714
 5217TIP3   OH215591   4.797   5.354   5.129
 5217TIP3    H115592   4.731   5.401   5.181
 5217TIP3    H215593   4.748   5.317   5.056
 5218TIP3   OH215594   4.668   4.505   2.302
 5218TIP3    H115595   4.614   4.460   2.237
 5218TIP3    H215596   4.727   4.438   2.335
 5219TIP3   OH215597   0.092   0.469   0.095
 5219TIP3    H115598   0.164   0.511   0.047
 5219TIP3    H215599   0.099   0.505   0.183
 5220TIP3   OH215600   2.616   0.500   5.680
 5220TIP3    H115601   2.667   0.544   5.748
 5220TIP3    H215602   2.677   0.490   5.608
 5221TIP3   OH215603   6.315   7.378   0.591
 5221TIP3    H115604   6.225   7.344   0.594
 5221TIP3    H215605   6.343   7.379   0.682
 5222TIP3   OH215606   3.175   6.062   1.245
 5222TIP3    H115607   3.253   6.037   1.195
 5222TIP3    H215608   3.103   6.016   1.201
 5223TIP3   OH215609   6.875   2.838   0.788
 5223TIP3    H115610   6.929   2.850   0.710
 5223TIP3    H215611   6.847   2.746   0.785
 5224TIP3   OH215612   2.149   0.784   5.624
 5224TIP3    H115613   2.179   0.836   5.699
 5224TIP3    H215614   2.219   0.791   5.560
 5225TIP3   OH215615   5.258   5.754   4.534
 5225TIP3    H115616   5.346   5.740   4.499
 5225TIP3    H215617   5.200   5.747   4.458
 5226TIP3   OH215618   5.064   3.743   3.241
 5226TIP3    H115619   5.094   3.673   3.299
 5226TIP3    H215620   5.035   3.698   3.162
 5227TIP3   OH215621   3.679   4.808   3.180
 5227TIP3    H115622   3.698   4.773   3.267
 5227TIP3    H215623   3.597   4.856   3.190
 5228TIP3   OH215624   7.677   2.037   6.298
 5228TIP3    H115625   7.713   1.968   6.353
 5228TIP3    H215626   7.731   2.114   6.319
 5229TIP3   OH215627   6.055   1.574   4.912
 5229TIP3    H115628   6.022   1.589   4.823
 5229TIP3    H215629   6.085   1.483   4.912
 5230TIP3   OH215630   6.158   1.089   3.281
 5230TIP3    H115631   6.174   0.995   3.284
 5230TIP3    H215632   6.098   1.101   3.208
 5231TIP3   OH215633   7.829   6.884   2.362
 5231TIP3    H115634   7.799   6.953   2.421
 5231TIP3    H215635   7.899   6.925   2.311
 5232TIP3   OH215636   1.751   2.234   5.381
 5232TIP3    H115637   1.777   2.280   5.461
 5232TIP3    H215638   1.802   2.153   5.384
 5233TIP3   OH215639   6.932   5.510   6.118
 5233TIP3    H115640   6.952   5.604   6.126
 5233TIP3    H215641   6.974   5.484   6.036
 5234TIP3   OH215642   5.485   3.191   0.849
 5234TIP3    H115643   5.427   3.119   0.823
 5234TIP3    H215644   5.549   3.151   0.908
 5235TIP3   OH215645   6.215   2.383   6.426
 5235TIP3    H115646   6.214   2.389   6.522
 5235TIP3    H215647   6.125   2.403   6.400
 5236TIP3   OH215648   3.898   1.785   2.134
 5236TIP3    H115649   3.886   1.690   2.144
 5236TIP3    H215650   3.885   1.801   2.041
 5237TIP3   OH215651   5.077   6.822   2.875
 5237TIP3    H115652   5.163   6.853   2.906
 5237TIP3    H215653   5.089   6.808   2.781
 5238TIP3   OH215654   3.884   5.143   6.041
 5238TIP3    H115655   3.933   5.078   5.992
 5238TIP3    H215656   3.854   5.097   6.119
 5239TIP3   OH215657   3.188   5.194   6.787
 5239TIP3    H115658   3.279   5.214   6.766
 5239TIP3    H215659   3.180   5.100   6.770
 5240TIP3   OH215660   2.503   3.792   5.235
 5240TIP3    H115661   2.525   3.770   5.326
 5240TIP3    H215662   2.412   3.821   5.239
 5241TIP3   OH215663   2.919   5.602   2.809
 5241TIP3    H115664   2.837   5.645   2.787
 5241TIP3    H215665   2.963   5.590   2.724
 5242TIP3   OH215666   3.064   0.450   4.162
 5242TIP3    H115667   2.972   0.426   4.173
 5242TIP3    H215668   3.091   0.485   4.247
 5243TIP3   OH215669   2.699   1.948   6.839
 5243TIP3    H115670   2.729   2.005   6.768
 5243TIP3    H215671   2.746   1.979   6.916
 5244TIP3   OH215672   0.192   1.148   5.213
 5244TIP3    H115673   0.132   1.163   5.286
 5244TIP3    H215674   0.249   1.225   5.212
 5245TIP3   OH215675   4.585   1.068   6.809
 5245TIP3    H115676   4.528   1.141   6.788
 5245TIP3    H215677   4.624   1.042   6.725
 5246TIP3   OH215678   3.590   0.061   2.701
 5246TIP3    H115679   3.524   0.017   2.649
 5246TIP3    H215680   3.663   0.075   2.641
 5247TIP3   OH215681   8.394   0.658   5.671
 5247TIP3    H115682   8.379   0.740   5.719
 5247TIP3    H215683   8.314   0.607   5.684
 5248TIP3   OH215684   3.889   4.357   4.569
 5248TIP3    H115685   3.957   4.366   4.503
 5248TIP3    H215686   3.934   4.319   4.645
 5249TIP3   OH215687   5.483   3.460   3.659
 5249TIP3    H115688   5.578   3.460   3.648
 5249TIP3    H215689   5.455   3.374   3.629
 5250TIP3   OH215690   4.505   4.945   3.450
 5250TIP3    H115691   4.493   4.914   3.539
 5250TIP3    H215692   4.420   4.980   3.425
 5251TIP3   OH215693   7.141   0.948   3.073
 5251TIP3    H115694   7.058   0.936   3.119
 5251TIP3    H215695   7.142   0.879   3.006
 5252TIP3   OH215696   0.920   1.458   1.911
 5252TIP3    H115697   0.859   1.467   1.984
 5252TIP3    H215698   0.956   1.546   1.899
 5253TIP3   OH215699   4.202   4.397   5.559
 5253TIP3    H115700   4.227   4.304   5.560
 5253TIP3    H215701   4.188   4.417   5.467
 5254TIP3   OH215702   3.627   3.894   5.236
 5254TIP3    H115703   3.573   3.821   5.265
 5254TIP3    H215704   3.701   3.894   5.296
 5255TIP3   OH215705   5.023   3.952   5.505
 5255TIP3    H115706   4.967   4.012   5.554
 5255TIP3    H215707   5.105   3.950   5.555
 5256TIP3   OH215708   1.638   0.966   6.221
 5256TIP3    H115709   1.683   0.882   6.222
 5256TIP3    H215710   1.581   0.964   6.298
 5257TIP3   OH215711   0.635   0.450   1.500
 5257TIP3    H115712   0.692   0.375   1.517
 5257TIP3    H215713   0.663   0.515   1.565
 5258TIP3   OH215714   0.109   6.223   5.248
 5258TIP3    H115715   0.087   6.130   5.253
 5258TIP3    H215716   0.198   6.229   5.282
 5259TIP3   OH215717   0.623   7.556   4.708
 5259TIP3    H115718   0.636   7.479   4.764
 5259TIP3    H215719   0.665   7.627   4.757
 5260TIP3   OH215720   3.608   4.215   3.685
 5260TIP3    H115721   3.567   4.290   3.642
 5260TIP3    H215722   3.605   4.236   3.778
 5261TIP3   OH215723   5.659   5.308   4.697
 5261TIP3    H115724   5.720   5.254   4.646
 5261TIP3    H215725   5.632   5.252   4.769
 5262TIP3   OH215726   3.627   5.186   5.856
 5262TIP3    H115727   3.689   5.194   5.929
 5262TIP3    H215728   3.683   5.175   5.779
 5263TIP3   OH215729   7.069   3.630   4.905
 5263TIP3    H115730   7.073   3.644   4.999
 5263TIP3    H215731   7.065   3.535   4.894
 5264TIP3   OH215732   7.970   1.014   3.576
 5264TIP3    H115733   8.017   0.932   3.586
 5264TIP3    H215734   7.997   1.067   3.651
 5265TIP3   OH215735   7.929   3.827   6.605
 5265TIP3    H115736   7.899   3.736   6.609
 5265TIP3    H215737   7.992   3.834   6.676
 5266TIP3   OH215738   5.211   1.647   1.091
 5266TIP3    H115739   5.122   1.610   1.088
 5266TIP3    H215740   5.217   1.701   1.013
 5267TIP3   OH215741   6.013   5.321   0.899
 5267TIP3    H115742   5.964   5.403   0.892
 5267TIP3    H215743   5.959   5.257   0.853
 5268TIP3   OH215744   0.751   2.026   0.637
 5268TIP3    H115745   0.693   2.021   0.713
 5268TIP3    H215746   0.839   2.026   0.675
 5269TIP3   OH215747   0.409   1.813   1.141
 5269TIP3    H115748   0.354   1.888   1.118
 5269TIP3    H215749   0.457   1.793   1.060
 5270TIP3   OH215750   1.005   5.809   4.200
 5270TIP3    H115751   1.037   5.811   4.110
 5270TIP3    H215752   1.078   5.771   4.250
 5271TIP3   OH215753   4.794   3.230   6.247
 5271TIP3    H115754   4.857   3.268   6.186
 5271TIP3    H215755   4.730   3.300   6.262
 5272TIP3   OH215756   3.262   4.772   1.236
 5272TIP3    H115757   3.328   4.704   1.230
 5272TIP3    H215758   3.296   4.834   1.300
 5273TIP3   OH215759   6.674   2.690   6.081
 5273TIP3    H115760   6.607   2.624   6.064
 5273TIP3    H215761   6.756   2.650   6.052
 5274TIP3   OH215762   3.265   0.033   3.721
 5274TIP3    H115763   3.332   0.101   3.732
 5274TIP3    H215764   3.197   0.056   3.783
 5275TIP3   OH215765   5.420   6.396   1.811
 5275TIP3    H115766   5.430   6.334   1.883
 5275TIP3    H215767   5.509   6.417   1.785
 5276TIP3   OH215768   1.872   4.996   4.242
 5276TIP3    H115769   1.874   4.971   4.334
 5276TIP3    H215770   1.779   5.012   4.223
 5277TIP3   OH215771   4.004   2.467   3.933
 5277TIP3    H115772   4.043   2.435   3.852
 5277TIP3    H215773   3.910   2.450   3.922
 5278TIP3   OH215774   4.566   2.556   3.144
 5278TIP3    H115775   4.575   2.638   3.095
 5278TIP3    H215776   4.512   2.579   3.220
 5279TIP3   OH215777   4.494   3.898   1.579
 5279TIP3    H115778   4.566   3.846   1.614
 5279TIP3    H215779   4.449   3.932   1.656
 5280TIP3   OH215780   3.568   1.524   6.276
 5280TIP3    H115781   3.491   1.536   6.221
 5280TIP3    H215782   3.586   1.429   6.272
 5281TIP3   OH215783   7.895   4.800   5.582
 5281TIP3    H115784   7.974   4.839   5.546
 5281TIP3    H215785   7.913   4.790   5.676
 5282TIP3   OH215786   4.935   4.724   4.322
 5282TIP3    H115787   4.977   4.802   4.358
 5282TIP3    H215788   4.968   4.652   4.375
 5283TIP3   OH215789   7.705   2.819   2.150
 5283TIP3    H115790   7.685   2.727   2.132
 5283TIP3    H215791   7.682   2.832   2.242
 5284TIP3   OH215792   2.803   0.527   2.438
 5284TIP3    H115793   2.753   0.539   2.519
 5284TIP3    H215794   2.895   0.530   2.467
 5285TIP3   OH215795   6.442   0.421   2.250
 5285TIP3    H115796   6.479   0.386   2.332
 5285TIP3    H215797   6.486   0.505   2.238
 5286TIP3   OH215798   1.224   0.930   1.145
 5286TIP3    H115799   1.296   0.880   1.184
 5286TIP3    H215800   1.194   0.988   1.215
 5287TIP3   OH215801   7.502   5.039   2.862
 5287TIP3    H115802   7.468   4.951   2.846
 5287TIP3    H215803   7.582   5.025   2.912
 5288TIP3   OH215804   5.599   2.948   2.126
 5288TIP3    H115805   5.588   2.876   2.064
 5288TIP3    H215806   5.587   3.027   2.073
 5289TIP3   OH215807   1.835   7.045   0.238
 5289TIP3    H115808   1.904   6.984   0.264
 5289TIP3    H215809   1.787   7.000   0.168
 5290TIP3   OH215810   6.638   2.086   2.699
 5290TIP3    H115811   6.550   2.122   2.707
 5290TIP3    H215812   6.693   2.145   2.750
 5291TIP3   OH215813   1.238   1.832   3.643
 5291TIP3    H115814   1.205   1.815   3.555
 5291TIP3    H215815   1.159   1.842   3.696
 5292TIP3   OH215816   0.621   6.834   1.982
 5292TIP3    H115817   0.545   6.825   2.039
 5292TIP3    H215818   0.681   6.890   2.032
 5293TIP3   OH215819   6.905   3.232   2.685
 5293TIP3    H115820   6.914   3.265   2.596
 5293TIP3    H215821   6.869   3.306   2.734
 5294TIP3   OH215822   7.903   7.576   4.165
 5294TIP3    H115823   7.982   7.613   4.125
 5294TIP3    H215824   7.927   7.488   4.191
 5295TIP3   OH215825   3.173   0.675   5.073
 5295TIP3    H115826   3.117   0.751   5.059
 5295TIP3    H215827   3.218   0.663   4.989
 5296TIP3   OH215828   3.956   6.213   6.421
 5296TIP3    H115829   4.018   6.140   6.413
 5296TIP3    H215830   4.000   6.275   6.478
 5297TIP3   OH215831   0.038   7.680   0.939
 5297TIP3    H115832   0.065   7.652   0.852
 5297TIP3    H215833   0.043   7.601   0.993
 5298TIP3   OH215834   4.762   0.072   6.523
 5298TIP3    H115835   4.724   0.040   6.605
 5298TIP3    H215836   4.855   0.084   6.543
 5299TIP3   OH215837   3.712   3.037   5.340
 5299TIP3    H115838   3.752   3.027   5.254
 5299TIP3    H215839   3.630   3.084   5.323
 5300TIP3   OH215840   3.650   7.455   0.869
 5300TIP3    H115841   3.700   7.380   0.837
 5300TIP3    H215842   3.704   7.491   0.939
 5301TIP3   OH215843   4.889   7.146   2.744
 5301TIP3    H115844   4.865   7.236   2.766
 5301TIP3    H215845   4.927   7.111   2.824
 5302TIP3   OH215846   1.956   1.590   3.403
 5302TIP3    H115847   1.986   1.573   3.314
 5302TIP3    H215848   2.012   1.535   3.458
 5303TIP3   OH215849   7.335   5.728   2.772
 5303TIP3    H115850   7.343   5.747   2.865
 5303TIP3    H215851   7.270   5.791   2.740
 5304TIP3   OH215852   4.424   6.791   5.260
 5304TIP3    H115853   4.333   6.775   5.234
 5304TIP3    H215854   4.459   6.847   5.190
 5305TIP3   OH215855   0.034   7.505   2.405
 5305TIP3    H115856   0.021   7.428   2.350
 5305TIP3    H215857   0.049   7.471   2.493
 5306TIP3   OH215858   5.192   0.484   2.753
 5306TIP3    H115859   5.240   0.438   2.685
 5306TIP3    H215860   5.103   0.494   2.718
 5307TIP3   OH215861   6.905   0.057   1.677
 5307TIP3    H115862   6.996   0.062   1.705
 5307TIP3    H215863   6.907  -0.001   1.601
 5308TIP3   OH215864   1.296   1.468   1.975
 5308TIP3    H115865   1.305   1.554   1.934
 5308TIP3    H215866   1.274   1.409   1.903
 5309TIP3   OH215867   2.785   3.119   4.197
 5309TIP3    H115868   2.822   3.201   4.165
 5309TIP3    H215869   2.713   3.100   4.138
 5310TIP3   OH215870   5.225   2.028   1.386
 5310TIP3    H115871   5.130   2.039   1.391
 5310TIP3    H215872   5.246   2.044   1.294
 5311TIP3   OH215873   3.370   0.781   1.011
 5311TIP3    H115874   3.300   0.747   0.955
 5311TIP3    H215875   3.333   0.860   1.050
 5312TIP3   OH215876   3.801   4.050   1.447
 5312TIP3    H115877   3.849   3.994   1.386
 5312TIP3    H215878   3.867   4.112   1.480
 5313TIP3   OH215879   5.264   7.462   2.132
 5313TIP3    H115880   5.190   7.444   2.191
 5313TIP3    H215881   5.330   7.503   2.187
 5314TIP3   OH215882   3.034   5.428   5.752
 5314TIP3    H115883   3.053   5.435   5.846
 5314TIP3    H215884   2.954   5.480   5.741
 5315TIP3   OH215885   8.210   0.881   3.883
 5315TIP3    H115886   8.173   0.826   3.952
 5315TIP3    H215887   8.275   0.935   3.927
 5316TIP3   OH215888   6.590   7.564   5.275
 5316TIP3    H115889   6.665   7.610   5.314
 5316TIP3    H215890   6.627   7.518   5.199
 5317TIP3   OH215891   0.244   4.176   3.188
 5317TIP3    H115892   0.174   4.193   3.250
 5317TIP3    H215893   0.318   4.148   3.241
 5318TIP3   OH215894   6.437   2.653   0.731
 5318TIP3    H115895   6.406   2.704   0.655
 5318TIP3    H215896   6.479   2.576   0.692
 5319TIP3   OH215897   4.065   2.502   6.256
 5319TIP3    H115898   4.153   2.472   6.234
 5319TIP3    H215899   4.055   2.483   6.349
 5320TIP3   OH215900   7.189   3.208   2.477
 5320TIP3    H115901   7.275   3.246   2.496
 5320TIP3    H215902   7.186   3.202   2.381
 5321TIP3   OH215903   5.335   0.830   1.994
 5321TIP3    H115904   5.288   0.904   1.955
 5321TIP3    H215905   5.372   0.866   2.075
 5322TIP3   OH215906   8.386   1.512   1.605
 5322TIP3    H115907   8.405   1.595   1.648
 5322TIP3    H215908   8.306   1.480   1.648
 5323TIP3   OH215909   3.560   7.181   1.402
 5323TIP3    H115910   3.591   7.251   1.459
 5323TIP3    H215911   3.545   7.107   1.461
 5324TIP3   OH215912   5.192   2.924   5.664
 5324TIP3    H115913   5.202   2.876   5.582
 5324TIP3    H215914   5.269   2.902   5.715
 5325TIP3   OH215915   2.821   2.206   5.045
 5325TIP3    H115916   2.851   2.115   5.052
 5325TIP3    H215917   2.901   2.258   5.052
 5326TIP3   OH215918   2.942   7.738   6.675
 5326TIP3    H115919   3.027   7.701   6.698
 5326TIP3    H215920   2.963   7.811   6.617
 5327TIP3   OH215921   3.748   6.892   6.515
 5327TIP3    H115922   3.805   6.844   6.575
 5327TIP3    H215923   3.676   6.832   6.497
 5328TIP3   OH215924   4.519   4.850   0.297
 5328TIP3    H115925   4.469   4.857   0.215
 5328TIP3    H215926   4.526   4.939   0.329
 5329TIP3   OH215927   2.562   1.937   0.759
 5329TIP3    H115928   2.490   1.919   0.698
 5329TIP3    H215929   2.584   2.029   0.742
 5330TIP3   OH215930   6.764   1.417   5.579
 5330TIP3    H115931   6.690   1.471   5.605
 5330TIP3    H215932   6.736   1.327   5.595
 5331TIP3   OH215933   8.303   7.834   1.553
 5331TIP3    H115934   8.286   7.890   1.476
 5331TIP3    H215935   8.260   7.751   1.533
 5332TIP3   OH215936   5.507   5.751   4.945
 5332TIP3    H115937   5.588   5.801   4.953
 5332TIP3    H215938   5.462   5.790   4.871
 5333TIP3   OH215939   4.634   5.134   1.491
 5333TIP3    H115940   4.566   5.195   1.520
 5333TIP3    H215941   4.686   5.117   1.570
 5334TIP3   OH215942   1.525   3.413   0.930
 5334TIP3    H115943   1.558   3.421   0.840
 5334TIP3    H215944   1.533   3.502   0.966
 5335TIP3   OH215945   7.522   1.910   3.383
 5335TIP3    H115946   7.567   1.935   3.464
 5335TIP3    H215947   7.445   1.861   3.412
 5336TIP3   OH215948   5.907   2.301   1.231
 5336TIP3    H115949   5.835   2.350   1.192
 5336TIP3    H215950   5.978   2.308   1.167
 5337TIP3   OH215951   7.171   1.654   4.212
 5337TIP3    H115952   7.232   1.639   4.284
 5337TIP3    H215953   7.222   1.704   4.148
 5338TIP3   OH215954   0.498   4.870   3.081
 5338TIP3    H115955   0.489   4.782   3.044
 5338TIP3    H215956   0.409   4.895   3.105
 5339TIP3   OH215957   6.162   7.339   3.745
 5339TIP3    H115958   6.137   7.287   3.821
 5339TIP3    H215959   6.094   7.405   3.738
 5340TIP3   OH215960   1.911   5.101   6.242
 5340TIP3    H115961   1.825   5.062   6.229
 5340TIP3    H215962   1.966   5.029   6.273
 5341TIP3   OH215963   2.424   0.053   2.670
 5341TIP3    H115964   2.517   0.063   2.687
 5341TIP3    H215965   2.381   0.098   2.742
 5342TIP3   OH215966   5.722   4.627   3.315
 5342TIP3    H115967   5.673   4.550   3.343
 5342TIP3    H215968   5.781   4.645   3.388
 5343TIP3   OH215969   3.492   6.953   2.110
 5343TIP3    H115970   3.556   6.938   2.180
 5343TIP3    H215971   3.453   7.038   2.130
 5344TIP3   OH215972   3.314   5.961   3.071
 5344TIP3    H115973   3.291   5.934   2.982
 5344TIP3    H215974   3.230   5.967   3.117
 5345TIP3   OH215975   2.373   1.638   2.981
 5345TIP3    H115976   2.292   1.684   2.960
 5345TIP3    H215977   2.384   1.575   2.910
 5346TIP3   OH215978   3.460   4.674   3.737
 5346TIP3    H115979   3.552   4.694   3.720
 5346TIP3    H215980   3.412   4.743   3.690
 5347TIP3   OH215981   7.789   2.854   6.754
 5347TIP3    H115982   7.824   2.937   6.725
 5347TIP3    H215983   7.844   2.828   6.828
 5348TIP3   OH215984   0.032   7.054   6.060
 5348TIP3    H115985   0.038   7.113   6.135
 5348TIP3    H215986   0.121   7.023   6.046
 5349TIP3   OH215987   0.137   3.589   0.903
 5349TIP3    H115988   0.046   3.606   0.926
 5349TIP3    H215989   0.132   3.519   0.837
 5350TIP3   OH215990   7.924   6.695   3.710
 5350TIP3    H115991   7.885   6.780   3.690
 5350TIP3    H215992   7.994   6.714   3.772
 5351TIP3   OH215993   3.792   3.817   3.473
 5351TIP3    H115994   3.870   3.766   3.450
 5351TIP3    H215995   3.719   3.768   3.434
 5352TIP3   OH215996   5.560   6.927   3.358
 5352TIP3    H115997   5.655   6.935   3.371
 5352TIP3    H215998   5.522   6.954   3.441
 5353TIP3   OH215999   1.095   1.627   6.391
 5353TIP3    H116000   1.170   1.574   6.418
 5353TIP3    H216001   1.066   1.670   6.471
 5354TIP3   OH216002   6.498   0.328   4.388
 5354TIP3    H116003   6.503   0.391   4.460
 5354TIP3    H216004   6.407   0.333   4.358
 5355TIP3   OH216005   5.650   3.270   5.659
 5355TIP3    H116006   5.654   3.361   5.691
 5355TIP3    H216007   5.558   3.258   5.635
 5356TIP3   OH216008   0.190   1.643   6.592
 5356TIP3    H116009   0.176   1.550   6.572
 5356TIP3    H216010   0.177   1.687   6.508
 5357TIP3   OH216011   7.017   6.234   6.049
 5357TIP3    H116012   7.032   6.140   6.060
 5357TIP3    H216013   6.977   6.242   5.962
 5358TIP3   OH216014   5.203   4.937   1.337
 5358TIP3    H116015   5.273   4.998   1.315
 5358TIP3    H216016   5.167   4.909   1.253
 5359TIP3   OH216017   6.217   7.146   5.105
 5359TIP3    H116018   6.203   7.240   5.095
 5359TIP3    H216019   6.294   7.127   5.050
 5360TIP3   OH216020   4.191   1.794   2.074
 5360TIP3    H116021   4.104   1.824   2.101
 5360TIP3    H216022   4.241   1.788   2.156
 5361TIP3   OH216023   4.029   0.015   3.793
 5361TIP3    H116024   3.978   0.096   3.790
 5361TIP3    H216025   4.054  -0.002   3.702
 5362TIP3   OH216026   3.746   6.972   3.242
 5362TIP3    H116027   3.784   6.952   3.328
 5362TIP3    H216028   3.778   6.903   3.185
 5363TIP3   OH216029   0.387   4.603   4.438
 5363TIP3    H116030   0.426   4.576   4.521
 5363TIP3    H216031   0.350   4.690   4.456
 5364TIP3   OH216032   6.806   7.659   5.739
 5364TIP3    H116033   6.779   7.725   5.675
 5364TIP3    H216034   6.725   7.616   5.766
 5365TIP3   OH216035   6.829   5.630   2.885
 5365TIP3    H116036   6.847   5.562   2.950
 5365TIP3    H216037   6.740   5.612   2.856
 5366TIP3   OH216038   7.180   5.175   2.020
 5366TIP3    H116039   7.100   5.170   2.071
 5366TIP3    H216040   7.250   5.164   2.084
 5367TIP3   OH216041   2.690   5.782   2.791
 5367TIP3    H116042   2.666   5.872   2.767
 5367TIP3    H216043   2.649   5.768   2.876
 5368TIP3   OH216044   6.147   5.347   3.357
 5368TIP3    H116045   6.213   5.414   3.340
 5368TIP3    H216046   6.189   5.265   3.334
 5369TIP3   OH216047   2.743   7.670   0.518
 5369TIP3    H116048   2.734   7.753   0.470
 5369TIP3    H216049   2.653   7.649   0.546
 5370TIP3   OH216050   2.865   5.993   3.085
 5370TIP3    H116051   2.878   5.984   2.990
 5370TIP3    H216052   2.788   5.939   3.103
 5371TIP3   OH216053   0.861   7.162   6.863
 5371TIP3    H116054   0.776   7.125   6.885
 5371TIP3    H216055   0.846   7.213   6.784
 5372TIP3   OH216056   6.359   1.957   4.726
 5372TIP3    H116057   6.307   1.881   4.701
 5372TIP3    H216058   6.379   1.944   4.818
 5373TIP3   OH216059   0.524   4.463   3.647
 5373TIP3    H116060   0.440   4.467   3.600
 5373TIP3    H216061   0.582   4.417   3.587
 5374TIP3   OH216062   7.039   2.048   5.791
 5374TIP3    H116063   7.111   2.058   5.854
 5374TIP3    H216064   7.074   2.083   5.709
 5375TIP3   OH216065   5.621   0.878   1.745
 5375TIP3    H116066   5.701   0.923   1.718
 5375TIP3    H216067   5.550   0.933   1.712
 5376TIP3   OH216068   0.390   1.781   6.440
 5376TIP3    H116069   0.378   1.695   6.480
 5376TIP3    H216070   0.367   1.769   6.348
 5377TIP3   OH216071   5.419   6.091   5.550
 5377TIP3    H116072   5.482   6.031   5.590
 5377TIP3    H216073   5.334   6.063   5.585
 5378TIP3   OH216074   7.859   6.487   1.562
 5378TIP3    H116075   7.919   6.498   1.489
 5378TIP3    H216076   7.903   6.427   1.621
 5379TIP3   OH216077   1.590   7.073   2.616
 5379TIP3    H116078   1.541   6.992   2.608
 5379TIP3    H216079   1.524   7.139   2.637
 5380TIP3   OH216080   7.385   5.759   0.246
 5380TIP3    H116081   7.474   5.774   0.278
 5380TIP3    H216082   7.328   5.802   0.310
 5381TIP3   OH216083   1.906   2.161   4.393
 5381TIP3    H116084   1.948   2.157   4.479
 5381TIP3    H216085   1.909   2.071   4.361
 5382TIP3   OH216086   7.781   7.251   2.573
 5382TIP3    H116087   7.717   7.180   2.579
 5382TIP3    H216088   7.729   7.331   2.568
 5383TIP3   OH216089   8.065   3.876   4.214
 5383TIP3    H116090   8.065   3.963   4.255
 5383TIP3    H216091   8.134   3.881   4.148
 5384TIP3   OH216092   0.230   5.967   2.814
 5384TIP3    H116093   0.146   5.983   2.770
 5384TIP3    H216094   0.215   5.889   2.867
 5385TIP3   OH216095   2.792   6.096   1.008
 5385TIP3    H116096   2.805   6.005   0.984
 5385TIP3    H216097   2.878   6.125   1.039
 5386TIP3   OH216098   1.166   7.523   5.342
 5386TIP3    H116099   1.260   7.512   5.357
 5386TIP3    H216100   1.150   7.480   5.258
 5387TIP3   OH216101   3.484   4.846   0.140
 5387TIP3    H116102   3.429   4.768   0.137
 5387TIP3    H216103   3.574   4.812   0.143
 5388TIP3   OH216104   4.616   1.035   4.348
 5388TIP3    H116105   4.662   1.096   4.291
 5388TIP3    H216106   4.685   0.986   4.392
 5389TIP3   OH216107   3.035   0.865   2.901
 5389TIP3    H116108   3.070   0.922   2.970
 5389TIP3    H216109   2.974   0.807   2.946
 5390TIP3   OH216110   0.120   2.250   0.638
 5390TIP3    H116111   0.085   2.165   0.664
 5390TIP3    H216112   0.064   2.314   0.681
 5391TIP3   OH216113   1.623   6.405   4.269
 5391TIP3    H116114   1.664   6.489   4.247
 5391TIP3    H216115   1.529   6.421   4.261
 5392TIP3   OH216116   7.325   6.293   4.576
 5392TIP3    H116117   7.367   6.374   4.546
 5392TIP3    H216118   7.329   6.299   4.671
 5393TIP3   OH216119   4.680   2.728   6.402
 5393TIP3    H116120   4.702   2.805   6.349
 5393TIP3    H216121   4.672   2.657   6.339
 5394TIP3   OH216122   3.897   2.992   2.183
 5394TIP3    H116123   3.981   3.037   2.195
 5394TIP3    H216124   3.906   2.910   2.231
 5395TIP3   OH216125   1.772   6.607   0.119
 5395TIP3    H116126   1.797   6.694   0.088
 5395TIP3    H216127   1.849   6.575   0.165
 5396TIP3   OH216128   5.581   6.542   1.233
 5396TIP3    H116129   5.576   6.483   1.309
 5396TIP3    H216130   5.633   6.494   1.169
 5397TIP3   OH216131   2.747   2.475   1.435
 5397TIP3    H116132   2.767   2.549   1.492
 5397TIP3    H216133   2.703   2.515   1.360
 5398TIP3   OH216134   6.743   1.994   1.145
 5398TIP3    H116135   6.730   2.014   1.238
 5398TIP3    H216136   6.657   1.968   1.113
 5399TIP3   OH216137   3.462   7.808   5.512
 5399TIP3    H116138   3.416   7.887   5.540
 5399TIP3    H216139   3.421   7.783   5.429
 5400TIP3   OH216140   2.264   7.732   0.074
 5400TIP3    H116141   2.207   7.808   0.085
 5400TIP3    H216142   2.216   7.674   0.014
 5401TIP3   OH216143   5.363   4.751   4.216
 5401TIP3    H116144   5.268   4.744   4.208
 5401TIP3    H216145   5.393   4.772   4.128
 5402TIP3   OH216146   0.219   6.725   1.439
 5402TIP3    H116147   0.167   6.660   1.393
 5402TIP3    H216148   0.237   6.685   1.524
 5403TIP3   OH216149   2.677   5.398   2.965
 5403TIP3    H116150   2.591   5.439   2.955
 5403TIP3    H216151   2.665   5.333   3.035
 5404TIP3   OH216152   6.499   1.699   4.760
 5404TIP3    H116153   6.431   1.673   4.697
 5404TIP3    H216154   6.531   1.616   4.795
 5405TIP3   OH216155   5.133   7.857   5.411
 5405TIP3    H116156   5.209   7.826   5.460
 5405TIP3    H216157   5.133   7.803   5.332
 5406TIP3   OH216158   0.064   0.836   5.108
 5406TIP3    H116159   0.006   0.761   5.123
 5406TIP3    H216160   0.006   0.912   5.116
 5407TIP3   OH216161   2.471   6.613   5.690
 5407TIP3    H116162   2.421   6.543   5.730
 5407TIP3    H216163   2.487   6.583   5.600
 5408TIP3   OH216164   0.806   6.983   1.046
 5408TIP3    H116165   0.899   7.004   1.057
 5408TIP3    H216166   0.805   6.894   1.010
 5409TIP3   OH216167   0.769   3.312   6.037
 5409TIP3    H116168   0.721   3.331   5.956
 5409TIP3    H216169   0.748   3.221   6.056
 5410TIP3   OH216170   3.071   6.157   3.404
 5410TIP3    H116171   3.006   6.225   3.388
 5410TIP3    H216172   3.155   6.203   3.399
 5411TIP3   OH216173   5.619   5.396   3.854
 5411TIP3    H116174   5.634   5.302   3.859
 5411TIP3    H216175   5.691   5.429   3.801
 5412TIP3   OH216176   3.272   3.603   6.784
 5412TIP3    H116177   3.332   3.678   6.778
 5412TIP3    H216178   3.185   3.641   6.770
 5413TIP3   OH216179   5.578   4.400   2.413
 5413TIP3    H116180   5.483   4.400   2.400
 5413TIP3    H216181   5.613   4.370   2.329
 5414TIP3   OH216182   5.330   2.339   4.231
 5414TIP3    H116183   5.392   2.360   4.161
 5414TIP3    H216184   5.245   2.332   4.186
 5415TIP3   OH216185   2.601   4.358   4.109
 5415TIP3    H116186   2.607   4.396   4.021
 5415TIP3    H216187   2.521   4.397   4.146
 5416TIP3   OH216188   0.101   2.610   2.769
 5416TIP3    H116189   0.094   2.682   2.831
 5416TIP3    H216190   0.010   2.584   2.752
 5417TIP3   OH216191   1.647   0.800   3.866
 5417TIP3    H116192   1.613   0.815   3.954
 5417TIP3    H216193   1.655   0.888   3.829
 5418TIP3   OH216194   4.910   3.794   3.478
 5418TIP3    H116195   4.964   3.795   3.400
 5418TIP3    H216196   4.849   3.722   3.465
 5419TIP3   OH216197   7.483   5.473   0.801
 5419TIP3    H116198   7.490   5.383   0.770
 5419TIP3    H216199   7.411   5.510   0.749
 5420TIP3   OH216200   7.689   3.844   5.474
 5420TIP3    H116201   7.736   3.766   5.504
 5420TIP3    H216202   7.719   3.914   5.533
 5421TIP3   OH216203   1.955   3.420   3.942
 5421TIP3    H116204   2.013   3.494   3.958
 5421TIP3    H216205   1.867   3.453   3.960
 5422TIP3   OH216206   7.760   0.210   0.107
 5422TIP3    H116207   7.854   0.224   0.096
 5422TIP3    H216208   7.720   0.294   0.085
 5423TIP3   OH216209   0.190   0.137   0.984
 5423TIP3    H116210   0.231   0.131   0.898
 5423TIP3    H216211   0.236   0.209   1.027
 5424TIP3   OH216212   0.452   6.203   1.823
 5424TIP3    H116213   0.373   6.257   1.823
 5424TIP3    H216214   0.524   6.266   1.817
 5425TIP3   OH216215   2.206   5.590   3.224
 5425TIP3    H116216   2.201   5.649   3.148
 5425TIP3    H216217   2.115   5.583   3.254
 5426TIP3   OH216218   2.275   2.120   4.976
 5426TIP3    H116219   2.350   2.173   4.947
 5426TIP3    H216220   2.276   2.044   4.917
 5427TIP3   OH216221   5.970   3.617   3.972
 5427TIP3    H116222   5.981   3.611   3.878
 5427TIP3    H216223   6.033   3.555   4.008
 5428TIP3   OH216224   8.169   2.886   6.603
 5428TIP3    H116225   8.106   2.949   6.639
 5428TIP3    H216226   8.212   2.849   6.680
 5429TIP3   OH216227   7.916   6.712   3.197
 5429TIP3    H116228   7.877   6.789   3.158
 5429TIP3    H216229   7.843   6.666   3.238
 5430TIP3   OH216230   1.253   1.255   3.863
 5430TIP3    H116231   1.174   1.235   3.813
 5430TIP3    H216232   1.316   1.188   3.836
 5431TIP3   OH216233   1.897   4.511   4.791
 5431TIP3    H116234   1.839   4.554   4.854
 5431TIP3    H216235   1.875   4.551   4.707
 5432TIP3   OH216236   3.281   3.301   4.982
 5432TIP3    H116237   3.300   3.227   5.040
 5432TIP3    H216238   3.335   3.284   4.904
 5433TIP3   OH216239   2.611   7.180   0.611
 5433TIP3    H116240   2.633   7.155   0.521
 5433TIP3    H216241   2.527   7.138   0.627
 5434TIP3   OH216242   5.495   4.986   6.016
 5434TIP3    H116243   5.456   5.072   6.000
 5434TIP3    H216244   5.422   4.931   6.041
 5435TIP3   OH216245   4.221   3.627   5.407
 5435TIP3    H116246   4.184   3.565   5.345
 5435TIP3    H216247   4.316   3.613   5.400
 5436TIP3   OH216248   4.755   1.547   5.789
 5436TIP3    H116249   4.716   1.460   5.782
 5436TIP3    H216250   4.800   1.559   5.705
 5437TIP3   OH216251   1.539   6.224   5.885
 5437TIP3    H116252   1.569   6.148   5.835
 5437TIP3    H216253   1.576   6.210   5.972
 5438TIP3   OH216254   4.756   0.209   4.448
 5438TIP3    H116255   4.760   0.114   4.435
 5438TIP3    H216256   4.727   0.243   4.363
 5439TIP3   OH216257   7.063   6.554   5.431
 5439TIP3    H116258   7.136   6.497   5.405
 5439TIP3    H216259   7.092   6.595   5.512
 5440TIP3   OH216260   3.648   7.737   6.016
 5440TIP3    H116261   3.575   7.781   6.060
 5440TIP3    H216262   3.619   7.646   6.008
 5441TIP3   OH216263   6.724   1.888   6.270
 5441TIP3    H116264   6.704   1.963   6.327
 5441TIP3    H216265   6.756   1.927   6.189
 5442TIP3   OH216266   1.552   2.324   1.968
 5442TIP3    H116267   1.476   2.267   1.956
 5442TIP3    H216268   1.627   2.266   1.967
 5443TIP3   OH216269   3.941   5.596   3.222
 5443TIP3    H116270   3.916   5.681   3.184
 5443TIP3    H216271   4.020   5.615   3.272
 5444TIP3   OH216272   2.487   2.445   1.563
 5444TIP3    H116273   2.552   2.395   1.512
 5444TIP3    H216274   2.540   2.496   1.625
 5445TIP3   OH216275   4.551   7.499   2.867
 5445TIP3    H116276   4.459   7.479   2.885
 5445TIP3    H216277   4.595   7.414   2.873
 5446TIP3   OH216278   2.941   7.209   4.096
 5446TIP3    H116279   2.984   7.221   4.011
 5446TIP3    H216280   2.847   7.208   4.075
 5447TIP3   OH216281   3.906   5.265   1.951
 5447TIP3    H116282   3.941   5.177   1.963
 5447TIP3    H216283   3.967   5.308   1.891
 5448TIP3   OH216284   4.548   0.399   1.244
 5448TIP3    H116285   4.628   0.391   1.296
 5448TIP3    H216286   4.484   0.346   1.290
 5449TIP3   OH216287   5.434   0.277   4.186
 5449TIP3    H116288   5.383   0.358   4.181
 5449TIP3    H216289   5.371   0.207   4.170
 5450TIP3   OH216290   0.122   7.100   6.573
 5450TIP3    H116291   0.124   7.133   6.483
 5450TIP3    H216292   0.077   7.016   6.568
 5451TIP3   OH216293   0.414   3.818   5.709
 5451TIP3    H116294   0.346   3.846   5.647
 5451TIP3    H216295   0.448   3.736   5.672
 5452TIP3   OH216296   2.222   3.460   6.877
 5452TIP3    H116297   2.189   3.509   6.802
 5452TIP3    H216298   2.202   3.368   6.857
 5453TIP3   OH216299   6.386   3.681   3.821
 5453TIP3    H116300   6.388   3.754   3.759
 5453TIP3    H216301   6.394   3.721   3.907
 5454TIP3   OH216302   3.918   7.098   4.208
 5454TIP3    H116303   3.979   7.064   4.273
 5454TIP3    H216304   3.955   7.183   4.183
 5455TIP3   OH216305   1.275   4.957   4.965
 5455TIP3    H116306   1.276   5.045   5.002
 5455TIP3    H216307   1.217   4.907   5.023
 5456TIP3   OH216308   4.346   1.546   5.007
 5456TIP3    H116309   4.407   1.513   5.073
 5456TIP3    H216310   4.392   1.619   4.966
 5457TIP3   OH216311   6.333   5.530   0.249
 5457TIP3    H116312   6.271   5.460   0.230
 5457TIP3    H216313   6.279   5.605   0.272
 5458TIP3   OH216314   7.555   2.658   5.653
 5458TIP3    H116315   7.516   2.746   5.646
 5458TIP3    H216316   7.520   2.624   5.735
 5459TIP3   OH216317   2.844   4.745   4.327
 5459TIP3    H116318   2.910   4.768   4.392
 5459TIP3    H216319   2.780   4.692   4.375
 5460TIP3   OH216320   3.427   3.450   2.545
 5460TIP3    H116321   3.374   3.411   2.614
 5460TIP3    H216322   3.366   3.507   2.497
 5461TIP3   OH216323   5.839   5.831   3.690
 5461TIP3    H116324   5.817   5.739   3.702
 5461TIP3    H216325   5.924   5.842   3.735
 5462TIP3   OH216326   4.240   1.887   0.188
 5462TIP3    H116327   4.203   1.950   0.125
 5462TIP3    H216328   4.260   1.810   0.135
 5463TIP3   OH216329   3.100   5.886   4.558
 5463TIP3    H116330   3.073   5.926   4.476
 5463TIP3    H216331   3.195   5.891   4.557
 5464TIP3   OH216332   5.404   1.002   4.899
 5464TIP3    H116333   5.479   1.034   4.850
 5464TIP3    H216334   5.332   1.001   4.835
 5465TIP3   OH216335   2.443   2.645   6.074
 5465TIP3    H116336   2.512   2.643   6.008
 5465TIP3    H216337   2.375   2.700   6.035
 5466TIP3   OH216338   5.998   6.364   2.923
 5466TIP3    H116339   5.972   6.389   3.012
 5466TIP3    H216340   5.973   6.439   2.869
 5467TIP3   OH216341   7.986   0.731   2.663
 5467TIP3    H116342   7.913   0.709   2.604
 5467TIP3    H216343   7.962   0.690   2.746
 5468TIP3   OH216344   8.128   4.745   4.414
 5468TIP3    H116345   8.205   4.691   4.433
 5468TIP3    H216346   8.094   4.769   4.500
 5469TIP3   OH216347   3.238   1.377   2.278
 5469TIP3    H116348   3.184   1.445   2.318
 5469TIP3    H216349   3.210   1.296   2.320
 5470TIP3   OH216350   5.233   7.537   5.413
 5470TIP3    H116351   5.298   7.469   5.395
 5470TIP3    H216352   5.267   7.582   5.491
 5471TIP3   OH216353   1.658   4.825   0.073
 5471TIP3    H116354   1.575   4.872   0.082
 5471TIP3    H216355   1.674   4.821  -0.022
 5472TIP3   OH216356   1.417   1.248   4.826
 5472TIP3    H116357   1.386   1.319   4.770
 5472TIP3    H216358   1.472   1.195   4.769
 5473TIP3   OH216359   0.676   1.943   3.524
 5473TIP3    H116360   0.765   1.959   3.492
 5473TIP3    H216361   0.638   1.884   3.459
 5474TIP3   OH216362   6.049   1.370   3.397
 5474TIP3    H116363   6.081   1.302   3.339
 5474TIP3    H216364   6.095   1.449   3.369
 5475TIP3   OH216365   5.605   4.737   3.090
 5475TIP3    H116366   5.532   4.675   3.089
 5475TIP3    H216367   5.648   4.722   3.174
 5476TIP3   OH216368   6.766   4.329   4.189
 5476TIP3    H116369   6.722   4.322   4.105
 5476TIP3    H216370   6.747   4.418   4.219
 5477TIP3   OH216371   8.323   1.480   6.200
 5477TIP3    H116372   8.312   1.527   6.282
 5477TIP3    H216373   8.307   1.546   6.132
 5478TIP3   OH216374   2.377   5.431   0.583
 5478TIP3    H116375   2.398   5.349   0.539
 5478TIP3    H216376   2.304   5.466   0.532
 5479TIP3   OH216377   5.557   0.485   2.144
 5479TIP3    H116378   5.541   0.542   2.068
 5479TIP3    H216379   5.637   0.519   2.182
 5480TIP3   OH216380   3.854   0.053   1.633
 5480TIP3    H116381   3.887   0.034   1.545
 5480TIP3    H216382   3.781  -0.007   1.646
 5481TIP3   OH216383   6.630   2.875   2.908
 5481TIP3    H116384   6.600   2.786   2.927
 5481TIP3    H216385   6.718   2.879   2.946
 5482TIP3   OH216386   6.466   2.972   0.246
 5482TIP3    H116387   6.536   3.013   0.196
 5482TIP3    H216388   6.506   2.891   0.280
 5483TIP3   OH216389   7.154   6.865   0.338
 5483TIP3    H116390   7.068   6.881   0.301
 5483TIP3    H216391   7.169   6.939   0.398
 5484TIP3   OH216392   0.768   6.783   0.193
 5484TIP3    H116393   0.702   6.850   0.212
 5484TIP3    H216394   0.840   6.832   0.153
 5485TIP3   OH216395   6.340   4.128   2.134
 5485TIP3    H116396   6.330   4.095   2.044
 5485TIP3    H216397   6.280   4.074   2.186
 5486TIP3   OH216398   5.075   4.951   2.026
 5486TIP3    H116399   5.126   5.026   1.995
 5486TIP3    H216400   4.984   4.975   2.012
 5487TIP3   OH216401   2.309   1.354   3.029
 5487TIP3    H116402   2.363   1.423   3.069
 5487TIP3    H216403   2.322   1.364   2.935
 5488TIP3   OH216404   4.669   2.164   6.735
 5488TIP3    H116405   4.609   2.114   6.791
 5488TIP3    H216406   4.756   2.139   6.767
 5489TIP3   OH216407   0.208   7.071   2.217
 5489TIP3    H116408   0.132   7.016   2.199
 5489TIP3    H216409   0.176   7.161   2.210
 5490TIP3   OH216410   6.115   2.948   3.133
 5490TIP3    H116411   6.097   2.854   3.142
 5490TIP3    H216412   6.174   2.954   3.058
 5491TIP3   OH216413   6.880   5.789   4.049
 5491TIP3    H116414   6.894   5.821   3.960
 5491TIP3    H216415   6.941   5.840   4.102
 5492TIP3   OH216416   4.479   6.059   6.514
 5492TIP3    H116417   4.539   6.055   6.439
 5492TIP3    H216418   4.514   6.128   6.570
 5493TIP3   OH216419   2.778   2.046   6.580
 5493TIP3    H116420   2.770   1.953   6.561
 5493TIP3    H216421   2.738   2.090   6.505
 5494TIP3   OH216422   0.200   7.324   5.535
 5494TIP3    H116423   0.198   7.283   5.449
 5494TIP3    H216424   0.235   7.412   5.519
 5495TIP3   OH216425   1.236   2.869   0.685
 5495TIP3    H116426   1.159   2.867   0.741
 5495TIP3    H216427   1.209   2.917   0.607
 5496TIP3   OH216428   6.238   5.671   5.739
 5496TIP3    H116429   6.242   5.752   5.689
 5496TIP3    H216430   6.314   5.674   5.797
 5497TIP3   OH216431   4.055   5.221   5.207
 5497TIP3    H116432   4.092   5.134   5.214
 5497TIP3    H216433   4.117   5.270   5.154
 5498TIP3   OH216434   7.683   6.681   1.064
 5498TIP3    H116435   7.611   6.661   1.124
 5498TIP3    H216436   7.707   6.597   1.026
 5499TIP3   OH216437   7.742   5.595   2.214
 5499TIP3    H116438   7.820   5.589   2.269
 5499TIP3    H216439   7.744   5.517   2.160
 5500TIP3   OH216440   4.992   1.423   1.528
 5500TIP3    H116441   5.065   1.441   1.469
 5500TIP3    H216442   5.032   1.417   1.615
 5501TIP3   OH216443   4.419   4.022   4.633
 5501TIP3    H116444   4.381   4.069   4.559
 5501TIP3    H216445   4.366   3.942   4.640
 5502TIP3   OH216446   2.061   5.057   3.787
 5502TIP3    H116447   1.971   5.086   3.800
 5502TIP3    H216448   2.114   5.121   3.834
 5503TIP3   OH216449   0.218   6.314   1.906
 5503TIP3    H116450   0.151   6.271   1.853
 5503TIP3    H216451   0.188   6.303   1.996
 5504TIP3   OH216452   2.449   1.142   6.109
 5504TIP3    H116453   2.457   1.183   6.023
 5504TIP3    H216454   2.539   1.119   6.132
 5505TIP3   OH216455   1.311   4.019   4.847
 5505TIP3    H116456   1.302   3.963   4.769
 5505TIP3    H216457   1.251   4.091   4.832
 5506TIP3   OH216458   0.520   3.895   1.765
 5506TIP3    H116459   0.602   3.943   1.755
 5506TIP3    H216460   0.500   3.902   1.859
 5507TIP3   OH216461   6.648   4.767   5.312
 5507TIP3    H116462   6.693   4.687   5.339
 5507TIP3    H216463   6.560   4.760   5.348
 5508TIP3   OH216464   7.784   7.367   0.273
 5508TIP3    H116465   7.870   7.354   0.312
 5508TIP3    H216466   7.766   7.287   0.224
 5509TIP3   OH216467   7.087   1.771   4.619
 5509TIP3    H116468   7.040   1.763   4.536
 5509TIP3    H216469   7.179   1.757   4.595
 5510TIP3   OH216470   0.715   1.847   4.623
 5510TIP3    H116471   0.730   1.753   4.633
 5510TIP3    H216472   0.645   1.853   4.558
 5511TIP3   OH216473   7.851   3.720   0.370
 5511TIP3    H116474   7.892   3.739   0.286
 5511TIP3    H216475   7.758   3.709   0.351
 5512TIP3   OH216476   0.465   0.169   6.479
 5512TIP3    H116477   0.421   0.179   6.564
 5512TIP3    H216478   0.549   0.130   6.501
 5513TIP3   OH216479   7.161   3.211   4.985
 5513TIP3    H116480   7.124   3.248   5.065
 5513TIP3    H216481   7.126   3.265   4.915
 5514TIP3   OH216482   5.820   2.624   1.237
 5514TIP3    H116483   5.859   2.709   1.218
 5514TIP3    H216484   5.732   2.645   1.269
 5515TIP3   OH216485   5.471   5.504   4.651
 5515TIP3    H116486   5.494   5.582   4.702
 5515TIP3    H216487   5.524   5.434   4.689
 5516TIP3   OH216488   5.254   2.687   0.353
 5516TIP3    H116489   5.250   2.592   0.359
 5516TIP3    H216490   5.235   2.718   0.442
 5517TIP3   OH216491   4.397   2.568   5.703
 5517TIP3    H116492   4.428   2.479   5.688
 5517TIP3    H216493   4.458   2.624   5.654
 5518TIP3   OH216494   7.119   6.088   1.475
 5518TIP3    H116495   7.196   6.064   1.425
 5518TIP3    H216496   7.085   6.004   1.508
 5519TIP3   OH216497   7.492   6.666   4.368
 5519TIP3    H116498   7.545   6.591   4.342
 5519TIP3    H216499   7.555   6.730   4.401
 5520TIP3   OH216500   5.470   5.008   2.998
 5520TIP3    H116501   5.547   5.063   2.983
 5520TIP3    H216502   5.503   4.932   3.045
 5521TIP3   OH216503   4.380   0.466   5.932
 5521TIP3    H116504   4.354   0.558   5.932
 5521TIP3    H216505   4.410   0.449   5.843
 5522TIP3   OH216506   1.428   0.921   5.323
 5522TIP3    H116507   1.371   0.879   5.259
 5522TIP3    H216508   1.479   0.984   5.272
 5523TIP3   OH216509   6.937   0.006   4.198
 5523TIP3    H116510   6.852   0.040   4.168
 5523TIP3    H216511   6.996   0.021   4.125
 5524TIP3   OH216512   0.255   2.463   2.408
 5524TIP3    H116513   0.304   2.444   2.488
 5524TIP3    H216514   0.242   2.558   2.409
 5525TIP3   OH216515   4.682   1.776   1.780
 5525TIP3    H116516   4.661   1.836   1.852
 5525TIP3    H216517   4.774   1.793   1.760
 5526TIP3   OH216518   4.516   4.112   2.798
 5526TIP3    H116519   4.538   4.185   2.856
 5526TIP3    H216520   4.504   4.153   2.712
 5527TIP3   OH216521   3.726   2.448   4.523
 5527TIP3    H116522   3.774   2.388   4.466
 5527TIP3    H216523   3.760   2.430   4.611
 5528TIP3   OH216524   6.664   1.110   0.126
 5528TIP3    H116525   6.658   1.147   0.214
 5528TIP3    H216526   6.750   1.137   0.094
 5529TIP3   OH216527   7.707   5.619   5.767
 5529TIP3    H116528   7.798   5.602   5.740
 5529TIP3    H216529   7.659   5.626   5.685
 5530TIP3   OH216530   8.405   0.498   0.772
 5530TIP3    H116531   8.475   0.552   0.809
 5530TIP3    H216532   8.343   0.561   0.736
 5531TIP3   OH216533   0.658   6.846   6.093
 5531TIP3    H116534   0.604   6.925   6.097
 5531TIP3    H216535   0.722   6.857   6.163
 5532TIP3   OH216536   5.672   4.316   2.136
 5532TIP3    H116537   5.628   4.330   2.052
 5532TIP3    H216538   5.666   4.221   2.150
 5533TIP3   OH216539   0.589   2.936   0.289
 5533TIP3    H116540   0.556   3.026   0.297
 5533TIP3    H216541   0.546   2.889   0.361
 5534TIP3   OH216542   8.198   2.686   3.912
 5534TIP3    H116543   8.225   2.749   3.845
 5534TIP3    H216544   8.110   2.714   3.938
 5535TIP3   OH216545   4.590   4.173   2.530
 5535TIP3    H116546   4.568   4.134   2.445
 5535TIP3    H216547   4.532   4.248   2.537
 5536TIP3   OH216548   0.108   7.344   2.181
 5536TIP3    H116549   0.014   7.339   2.164
 5536TIP3    H216550   0.143   7.399   2.111
 5537TIP3   OH216551   2.966   2.830   0.382
 5537TIP3    H116552   2.980   2.866   0.295
 5537TIP3    H216553   2.909   2.893   0.426
 5538TIP3   OH216554   8.298   5.061   0.912
 5538TIP3    H116555   8.242   5.039   0.987
 5538TIP3    H216556   8.246   5.124   0.862
 5539TIP3   OH216557   5.559   1.072   5.601
 5539TIP3    H116558   5.643   1.103   5.634
 5539TIP3    H216559   5.533   1.003   5.662
 5540TIP3   OH216560   6.924   5.782   0.347
 5540TIP3    H116561   6.837   5.805   0.314
 5540TIP3    H216562   6.941   5.847   0.416
 5541TIP3   OH216563   2.958   7.939   4.830
 5541TIP3    H116564   3.019   7.908   4.763
 5541TIP3    H216565   2.882   7.881   4.822
 5542TIP3   OH216566   3.508   6.167   3.400
 5542TIP3    H116567   3.425   6.200   3.363
 5542TIP3    H216568   3.509   6.074   3.379
 5543TIP3   OH216569   3.181   1.500   1.219
 5543TIP3    H116570   3.164   1.473   1.129
 5543TIP3    H216571   3.094   1.508   1.258
 5544TIP3   OH216572   6.247   0.847   3.405
 5544TIP3    H116573   6.279   0.760   3.381
 5544TIP3    H216574   6.319   0.884   3.456
 5545TIP3   OH216575   6.827   5.952   6.485
 5545TIP3    H116576   6.866   5.871   6.454
 5545TIP3    H216577   6.890   6.020   6.461
 5546TIP3   OH216578   6.815   2.944   1.597
 5546TIP3    H116579   6.908   2.922   1.598
 5546TIP3    H216580   6.794   2.953   1.504
 5547TIP3   OH216581   3.333   6.789   6.760
 5547TIP3    H116582   3.264   6.846   6.727
 5547TIP3    H216583   3.311   6.776   6.852
 5548TIP3   OH216584   8.123   6.008   2.732
 5548TIP3    H116585   8.087   5.991   2.645
 5548TIP3    H216586   8.217   5.992   2.723
 5549TIP3   OH216587   4.952   5.330   2.151
 5549TIP3    H116588   5.004   5.269   2.203
 5549TIP3    H216589   4.960   5.413   2.198
 5550TIP3   OH216590   7.511   1.485   6.170
 5550TIP3    H116591   7.523   1.448   6.083
 5550TIP3    H216592   7.546   1.419   6.229
 5551TIP3   OH216593   4.140   5.829   1.884
 5551TIP3    H116594   4.154   5.872   1.799
 5551TIP3    H216595   4.222   5.784   1.901
 5552TIP3   OH216596   7.483   3.400   6.541
 5552TIP3    H116597   7.422   3.465   6.508
 5552TIP3    H216598   7.466   3.322   6.488
 5553TIP3   OH216599   0.977   2.733   0.463
 5553TIP3    H116600   0.938   2.766   0.544
 5553TIP3    H216601   0.910   2.749   0.397
 5554TIP3   OH216602   3.438   6.777   6.475
 5554TIP3    H116603   3.436   6.866   6.441
 5554TIP3    H216604   3.425   6.787   6.569
 5555TIP3   OH216605   2.815   1.587   2.977
 5555TIP3    H116606   2.871   1.509   2.974
 5555TIP3    H216607   2.735   1.558   3.020
 5556TIP3   OH216608   5.139   1.665   1.657
 5556TIP3    H116609   5.212   1.725   1.645
 5556TIP3    H216610   5.168   1.605   1.726
 5557TIP3   OH216611   7.585   1.524   3.429
 5557TIP3    H116612   7.560   1.435   3.405
 5557TIP3    H216613   7.628   1.559   3.351
 5558TIP3   OH216614   6.095   4.956   4.971
 5558TIP3    H116615   6.112   4.976   5.063
 5558TIP3    H216616   6.003   4.928   4.969
 5559TIP3   OH216617   4.818   2.150   3.788
 5559TIP3    H116618   4.761   2.227   3.789
 5559TIP3    H216619   4.758   2.076   3.799
 5560TIP3   OH216620   0.955   5.093   0.673
 5560TIP3    H116621   0.868   5.127   0.692
 5560TIP3    H216622   1.002   5.099   0.757
 5561TIP3   OH216623   7.852   5.076   4.811
 5561TIP3    H116624   7.934   5.029   4.794
 5561TIP3    H216625   7.877   5.145   4.873
 5562TIP3   OH216626   4.454   4.598   0.334
 5562TIP3    H116627   4.428   4.582   0.243
 5562TIP3    H216628   4.460   4.693   0.341
 5563TIP3   OH216629   7.410   7.833   1.874
 5563TIP3    H116630   7.377   7.868   1.957
 5563TIP3    H216631   7.503   7.816   1.890
 5564TIP3   OH216632   5.604   2.157   3.601
 5564TIP3    H116633   5.696   2.180   3.618
 5564TIP3    H216634   5.609   2.079   3.547
 5565TIP3   OH216635   8.376   1.610   3.956
 5565TIP3    H116636   8.303   1.649   3.909
 5565TIP3    H216637   8.341   1.527   3.990
 5566TIP3   OH216638   3.830   3.135   0.887
 5566TIP3    H116639   3.913   3.163   0.848
 5566TIP3    H216640   3.783   3.092   0.815
 5567TIP3   OH216641   4.079   0.308   6.521
 5567TIP3    H116642   4.061   0.398   6.550
 5567TIP3    H216643   4.015   0.255   6.567
 5568TIP3   OH216644   7.008   1.556   4.019
 5568TIP3    H116645   7.068   1.561   4.094
 5568TIP3    H216646   6.921   1.562   4.057
 5569TIP3   OH216647   4.379   0.155   0.688
 5569TIP3    H116648   4.347   0.106   0.613
 5569TIP3    H216649   4.338   0.114   0.764
 5570TIP3   OH216650   2.517   0.122   6.882
 5570TIP3    H116651   2.488   0.183   6.813
 5570TIP3    H216652   2.573   0.060   6.837
 5571TIP3   OH216653   6.251   7.666   1.743
 5571TIP3    H116654   6.184   7.599   1.750
 5571TIP3    H216655   6.273   7.669   1.650
 5572TIP3   OH216656   1.427   5.632   0.841
 5572TIP3    H116657   1.351   5.584   0.809
 5572TIP3    H216658   1.412   5.639   0.935
 5573TIP3   OH216659   3.920   5.956   5.480
 5573TIP3    H116660   3.897   5.865   5.464
 5573TIP3    H216661   3.947   5.958   5.572
 5574TIP3   OH216662   8.353   6.134   4.968
 5574TIP3    H116663   8.324   6.169   4.883
 5574TIP3    H216664   8.337   6.039   4.962
 5575TIP3   OH216665   7.864   4.199   3.650
 5575TIP3    H116666   7.821   4.271   3.695
 5575TIP3    H216667   7.947   4.235   3.620
 5576TIP3   OH216668   6.704   1.104   3.785
 5576TIP3    H116669   6.682   1.174   3.723
 5576TIP3    H216670   6.708   1.025   3.731
 5577TIP3   OH216671   6.186   3.963   5.695
 5577TIP3    H116672   6.090   3.970   5.690
 5577TIP3    H216673   6.217   4.053   5.697
 5578TIP3   OH216674   4.650   1.477   5.444
 5578TIP3    H116675   4.687   1.405   5.496
 5578TIP3    H216676   4.688   1.556   5.482
 5579TIP3   OH216677   2.492   6.950   3.885
 5579TIP3    H116678   2.416   6.897   3.860
 5579TIP3    H216679   2.561   6.921   3.826
 5580TIP3   OH216680   4.623   0.554   5.090
 5580TIP3    H116681   4.680   0.557   5.013
 5580TIP3    H216682   4.674   0.506   5.155
 5581TIP3   OH216683   7.912   4.010   6.104
 5581TIP3    H116684   7.816   4.006   6.108
 5581TIP3    H216685   7.931   4.095   6.064
 5582TIP3   OH216686   0.670   7.318   1.522
 5582TIP3    H116687   0.679   7.229   1.486
 5582TIP3    H216688   0.713   7.314   1.608
 5583TIP3   OH216689   1.348   1.138   0.762
 5583TIP3    H116690   1.272   1.185   0.796
 5583TIP3    H216691   1.400   1.117   0.840
 5584TIP3   OH216692   3.346   4.452   4.091
 5584TIP3    H116693   3.306   4.376   4.134
 5584TIP3    H216694   3.275   4.492   4.041
 5585TIP3   OH216695   3.697   1.218   5.736
 5585TIP3    H116696   3.640   1.205   5.812
 5585TIP3    H216697   3.644   1.191   5.661
 5586TIP3   OH216698   6.667   7.002   0.724
 5586TIP3    H116699   6.680   7.026   0.816
 5586TIP3    H216700   6.756   6.990   0.690
 5587TIP3   OH216701   0.202   5.083   0.537
 5587TIP3    H116702   0.167   5.039   0.614
 5587TIP3    H216703   0.257   5.017   0.494
 5588TIP3   OH216704   3.202   7.083   1.371
 5588TIP3    H116705   3.228   7.127   1.290
 5588TIP3    H216706   3.281   7.082   1.425
 5589TIP3   OH216707   2.900   7.299   2.152
 5589TIP3    H116708   2.839   7.246   2.102
 5589TIP3    H216709   2.848   7.372   2.185
 5590TIP3   OH216710   3.469   6.052   0.170
 5590TIP3    H116711   3.421   6.092   0.097
 5590TIP3    H216712   3.413   5.980   0.198
 5591TIP3   OH216713   3.456   0.864   3.224
 5591TIP3    H116714   3.416   0.906   3.300
 5591TIP3    H216715   3.517   0.929   3.189
 5592TIP3   OH216716   6.871   4.860   0.731
 5592TIP3    H116717   6.922   4.902   0.800
 5592TIP3    H216718   6.825   4.933   0.688
 5593TIP3   OH216719   8.292   7.915   4.219
 5593TIP3    H116720   8.222   7.971   4.254
 5593TIP3    H216721   8.320   7.862   4.294
 5594TIP3   OH216722   6.742   0.371   2.989
 5594TIP3    H116723   6.652   0.397   3.011
 5594TIP3    H216724   6.790   0.454   2.983
 5595TIP3   OH216725   3.238   5.389   1.853
 5595TIP3    H116726   3.265   5.472   1.812
 5595TIP3    H216727   3.195   5.415   1.934
 5596TIP3   OH216728   3.829   0.307   4.792
 5596TIP3    H116729   3.905   0.365   4.788
 5596TIP3    H216730   3.766   0.347   4.732
 5597TIP3   OH216731   4.982   0.916   3.499
 5597TIP3    H116732   5.016   1.006   3.496
 5597TIP3    H216733   5.051   0.862   3.462
 5598TIP3   OH216734   0.818   3.265   4.078
 5598TIP3    H116735   0.785   3.180   4.049
 5598TIP3    H216736   0.775   3.279   4.163
 5599TIP3   OH216737   0.179   6.478   2.519
 5599TIP3    H116738   0.242   6.549   2.506
 5599TIP3    H216739   0.109   6.496   2.456
 5600TIP3   OH216740   3.788   2.852   5.960
 5600TIP3    H116741   3.743   2.788   6.016
 5600TIP3    H216742   3.866   2.806   5.929
 5601TIP3   OH216743   4.020   4.737   5.647
 5601TIP3    H116744   4.003   4.757   5.555
 5601TIP3    H216745   4.073   4.810   5.678
 5602TIP3   OH216746   4.917   5.167   1.374
 5602TIP3    H116747   5.007   5.186   1.346
 5602TIP3    H216748   4.892   5.090   1.322
 5603TIP3   OH216749   1.525   2.227   3.357
 5603TIP3    H116750   1.538   2.301   3.417
 5603TIP3    H216751   1.442   2.247   3.314
 5604TIP3   OH216752   4.036   3.700   3.783
 5604TIP3    H116753   3.964   3.689   3.844
 5604TIP3    H216754   4.031   3.791   3.755
 5605TIP3   OH216755   3.342   5.791   5.561
 5605TIP3    H116756   3.303   5.878   5.568
 5605TIP3    H216757   3.270   5.731   5.575
 5606TIP3   OH216758   8.062   7.723   1.976
 5606TIP3    H116759   8.099   7.793   2.029
 5606TIP3    H216760   8.053   7.649   2.037
 5607TIP3   OH216761   3.385   2.012   2.277
 5607TIP3    H116762   3.456   2.058   2.321
 5607TIP3    H216763   3.366   2.065   2.199
 5608TIP3   OH216764   5.704   5.109   2.221
 5608TIP3    H116765   5.766   5.152   2.280
 5608TIP3    H216766   5.758   5.048   2.170
 5609TIP3   OH216767   1.237   4.204   0.224
 5609TIP3    H116768   1.256   4.110   0.217
 5609TIP3    H216769   1.148   4.208   0.261
 5610TIP3   OH216770   7.293   5.809   6.500
 5610TIP3    H116771   7.342   5.811   6.417
 5610TIP3    H216772   7.330   5.735   6.548
 5611TIP3   OH216773   3.847   4.804   1.930
 5611TIP3    H116774   3.873   4.802   1.838
 5611TIP3    H216775   3.761   4.761   1.931
 5612TIP3   OH216776   4.331   3.752   1.898
 5612TIP3    H116777   4.375   3.671   1.873
 5612TIP3    H216778   4.244   3.744   1.860
 5613TIP3   OH216779   0.351   1.975   3.357
 5613TIP3    H116780   0.259   1.986   3.332
 5613TIP3    H216781   0.369   2.051   3.413
 5614TIP3   OH216782   5.661   6.308   3.503
 5614TIP3    H116783   5.754   6.298   3.482
 5614TIP3    H216784   5.659   6.317   3.598
 5615TIP3   OH216785   2.351   2.804   2.136
 5615TIP3    H116786   2.284   2.795   2.067
 5615TIP3    H216787   2.301   2.829   2.214
 5616TIP3   OH216788   6.526   2.428   0.595
 5616TIP3    H116789   6.580   2.398   0.668
 5616TIP3    H216790   6.589   2.462   0.531
 5617TIP3   OH216791   5.618   5.098   6.606
 5617TIP3    H116792   5.536   5.133   6.643
 5617TIP3    H216793   5.652   5.170   6.553
 5618TIP3   OH216794   0.019   1.138   4.078
 5618TIP3    H116795  -0.018   1.225   4.094
 5618TIP3    H216796   0.109   1.156   4.049
 5619TIP3   OH216797   3.081   1.700   0.309
 5619TIP3    H116798   3.040   1.707   0.395
 5619TIP3    H216799   3.174   1.716   0.324
 5620TIP3   OH216800   4.754   5.583   4.113
 5620TIP3    H116801   4.670   5.538   4.104
 5620TIP3    H216802   4.734   5.676   4.098
 5621TIP3   OH216803   7.421   7.509   2.439
 5621TIP3    H116804   7.344   7.539   2.487
 5621TIP3    H216805   7.438   7.420   2.472
 5622TIP3   OH216806   3.013   7.685   5.070
 5622TIP3    H116807   2.923   7.718   5.067
 5622TIP3    H216808   3.037   7.688   5.162
 5623TIP3   OH216809   3.761   6.367   0.935
 5623TIP3    H116810   3.758   6.288   0.882
 5623TIP3    H216811   3.822   6.425   0.888
 5624TIP3   OH216812   3.372   4.031   1.406
 5624TIP3    H116813   3.338   3.965   1.466
 5624TIP3    H216814   3.352   3.996   1.319
 5625TIP3   OH216815   0.850   1.627   4.309
 5625TIP3    H116816   0.771   1.643   4.360
 5625TIP3    H216817   0.900   1.708   4.315
 5626TIP3   OH216818   6.960   4.345   2.823
 5626TIP3    H116819   7.033   4.384   2.871
 5626TIP3    H216820   6.999   4.278   2.769
 5627TIP3   OH216821   1.538   3.884   5.340
 5627TIP3    H116822   1.472   3.953   5.327
 5627TIP3    H216823   1.513   3.815   5.280
 5628TIP3   OH216824   5.660   0.130   4.582
 5628TIP3    H116825   5.692   0.115   4.671
 5628TIP3    H216826   5.710   0.205   4.551
 5629TIP3   OH216827   5.435   3.648   0.403
 5629TIP3    H116828   5.510   3.695   0.439
 5629TIP3    H216829   5.457   3.556   0.415
 5630TIP3   OH216830   2.556   3.631   2.662
 5630TIP3    H116831   2.490   3.687   2.703
 5630TIP3    H216832   2.541   3.641   2.568
 5631TIP3   OH216833   1.066   1.619   3.947
 5631TIP3    H116834   0.993   1.604   3.887
 5631TIP3    H216835   1.093   1.709   3.930
 5632TIP3   OH216836   3.000   7.071   4.993
 5632TIP3    H116837   3.028   7.159   4.969
 5632TIP3    H216838   2.957   7.037   4.914
 5633TIP3   OH216839   6.159   6.984   3.708
 5633TIP3    H116840   6.092   6.954   3.768
 5633TIP3    H216841   6.165   6.916   3.641
 5634TIP3   OH216842   4.514   5.986   4.176
 5634TIP3    H116843   4.426   6.001   4.141
 5634TIP3    H216844   4.514   6.029   4.261
 5635TIP3   OH216845   0.641   3.532   5.412
 5635TIP3    H116846   0.633   3.484   5.494
 5635TIP3    H216847   0.625   3.467   5.344
 5636TIP3   OH216848   7.595   5.997   1.309
 5636TIP3    H116849   7.676   6.027   1.351
 5636TIP3    H216850   7.617   5.909   1.277
 5637TIP3   OH216851   3.481   3.034   2.896
 5637TIP3    H116852   3.447   3.002   2.813
 5637TIP3    H216853   3.551   2.973   2.919
 5638TIP3   OH216854   0.109   0.509   2.334
 5638TIP3    H116855   0.050   0.521   2.259
 5638TIP3    H216856   0.070   0.437   2.384
 5639TIP3   OH216857   6.971   7.818   5.412
 5639TIP3    H116858   6.881   7.818   5.444
 5639TIP3    H216859   6.966   7.773   5.328
 5640TIP3   OH216860   6.736   2.847   0.497
 5640TIP3    H116861   6.817   2.798   0.483
 5640TIP3    H216862   6.668   2.795   0.454
 5641TIP3   OH216863   2.945   4.166   4.576
 5641TIP3    H116864   3.037   4.136   4.579
 5641TIP3    H216865   2.895   4.089   4.604
 5642TIP3   OH216866   7.703   3.667   4.564
 5642TIP3    H116867   7.677   3.629   4.480
 5642TIP3    H216868   7.659   3.612   4.629
 5643TIP3   OH216869   2.987   5.078   0.233
 5643TIP3    H116870   3.056   5.013   0.223
 5643TIP3    H216871   2.946   5.057   0.317
 5644TIP3   OH216872   4.835   4.469   3.124
 5644TIP3    H116873   4.902   4.455   3.191
 5644TIP3    H216874   4.818   4.563   3.128
 5645TIP3   OH216875   4.635   3.683   1.700
 5645TIP3    H116876   4.582   3.609   1.672
 5645TIP3    H216877   4.642   3.674   1.795
 5646TIP3   OH216878   8.312   3.716   6.337
 5646TIP3    H116879   8.223   3.752   6.337
 5646TIP3    H216880   8.360   3.770   6.399
 5647TIP3   OH216881   0.958   3.962   1.151
 5647TIP3    H116882   0.932   3.892   1.092
 5647TIP3    H216883   0.985   3.918   1.231
 5648TIP3   OH216884   5.185   0.844   3.858
 5648TIP3    H116885   5.090   0.854   3.846
 5648TIP3    H216886   5.223   0.915   3.807
 5649TIP3   OH216887   6.651   0.253   2.689
 5649TIP3    H116888   6.655   0.252   2.785
 5649TIP3    H216889   6.587   0.185   2.667
 5650TIP3   OH216890   5.803   0.165   6.884
 5650TIP3    H116891   5.883   0.176   6.832
 5650TIP3    H216892   5.733   0.156   6.820
 5651TIP3   OH216893   3.794   4.055   1.007
 5651TIP3    H116894   3.751   4.072   0.923
 5651TIP3    H216895   3.741   4.103   1.070
 5652TIP3   OH216896   1.672   5.617   2.562
 5652TIP3    H116897   1.643   5.671   2.488
 5652TIP3    H216898   1.594   5.606   2.616
 5653TIP3   OH216899   0.907   2.768   4.013
 5653TIP3    H116900   0.862   2.729   4.088
 5653TIP3    H216901   0.860   2.851   3.997
 5654TIP3   OH216902   6.705   3.359   0.672
 5654TIP3    H116903   6.699   3.419   0.746
 5654TIP3    H216904   6.783   3.307   0.688
 5655TIP3   OH216905   7.811   5.814   1.632
 5655TIP3    H116906   7.826   5.774   1.717
 5655TIP3    H216907   7.717   5.806   1.617
 5656TIP3   OH216908   7.664   5.884   2.165
 5656TIP3    H116909   7.715   5.812   2.203
 5656TIP3    H216910   7.701   5.963   2.204
 5657TIP3   OH216911   3.646   0.018   3.743
 5657TIP3    H116912   3.721  -0.031   3.775
 5657TIP3    H216913   3.591  -0.047   3.698
 5658TIP3   OH216914   2.560   3.230   1.557
 5658TIP3    H116915   2.505   3.169   1.508
 5658TIP3    H216916   2.504   3.262   1.627
 5659TIP3   OH216917   3.541   3.677   2.336
 5659TIP3    H116918   3.501   3.683   2.423
 5659TIP3    H216919   3.587   3.593   2.337
 5660TIP3   OH216920   0.761   6.410   3.151
 5660TIP3    H116921   0.771   6.415   3.056
 5660TIP3    H216922   0.789   6.496   3.182
 5661TIP3   OH216923   2.231   0.084   2.858
 5661TIP3    H116924   2.145   0.061   2.823
 5661TIP3    H216925   2.256   0.009   2.912
 5662TIP3   OH216926   6.426   4.615   4.769
 5662TIP3    H116927   6.453   4.524   4.781
 5662TIP3    H216928   6.361   4.631   4.837
 5663TIP3   OH216929   8.236   6.993   2.647
 5663TIP3    H116930   8.213   7.082   2.674
 5663TIP3    H216931   8.331   6.990   2.653
 5664TIP3   OH216932   4.781   6.573   4.827
 5664TIP3    H116933   4.768   6.492   4.778
 5664TIP3    H216934   4.720   6.635   4.787
 5665TIP3   OH216935   8.211   6.882   4.444
 5665TIP3    H116936   8.303   6.872   4.419
 5665TIP3    H216937   8.209   6.961   4.498
 5666TIP3   OH216938   2.826   0.118   0.153
 5666TIP3    H116939   2.863   0.055   0.092
 5666TIP3    H216940   2.885   0.194   0.149
 5667TIP3   OH216941   7.109   1.882   3.353
 5667TIP3    H116942   7.087   1.798   3.393
 5667TIP3    H216943   7.149   1.932   3.424
 5668TIP3   OH216944   7.558   7.636   1.629
 5668TIP3    H116945   7.612   7.665   1.702
 5668TIP3    H216946   7.622   7.607   1.563
 5669TIP3   OH216947   2.680   3.830   3.240
 5669TIP3    H116948   2.751   3.891   3.258
 5669TIP3    H216949   2.719   3.743   3.250
 5670TIP3   OH216950   5.785   7.130   3.783
 5670TIP3    H116951   5.810   7.103   3.872
 5670TIP3    H216952   5.748   7.218   3.794
 5671TIP3   OH216953   3.737   6.285   5.024
 5671TIP3    H116954   3.703   6.260   5.110
 5671TIP3    H216955   3.711   6.377   5.015
 5672TIP3   OH216956   2.504   1.538   1.892
 5672TIP3    H116957   2.588   1.584   1.892
 5672TIP3    H216958   2.507   1.484   1.971
 5673TIP3   OH216959   0.292   5.300   5.537
 5673TIP3    H116960   0.280   5.340   5.623
 5673TIP3    H216961   0.386   5.289   5.528
 5674TIP3   OH216962   2.065   7.348   6.341
 5674TIP3    H116963   2.091   7.389   6.259
 5674TIP3    H216964   2.147   7.331   6.387
 5675TIP3   OH216965   4.301   0.641   0.206
 5675TIP3    H116966   4.287   0.669   0.116
 5675TIP3    H216967   4.219   0.600   0.232
 5676TIP3   OH216968   4.274   0.520   6.236
 5676TIP3    H116969   4.181   0.509   6.256
 5676TIP3    H216970   4.287   0.614   6.234
 5677TIP3   OH216971   2.110   2.294   1.656
 5677TIP3    H116972   2.143   2.334   1.576
 5677TIP3    H216973   2.179   2.311   1.721
 5678TIP3   OH216974   1.038   4.100   1.905
 5678TIP3    H116975   1.107   4.068   1.963
 5678TIP3    H216976   1.077   4.175   1.861
 5679TIP3   OH216977   4.004   6.201   2.089
 5679TIP3    H116978   4.047   6.256   2.154
 5679TIP3    H216979   3.985   6.260   2.016
 5680TIP3   OH216980   6.226   1.711   1.113
 5680TIP3    H116981   6.167   1.648   1.072
 5680TIP3    H216982   6.178   1.793   1.111
 5681TIP3   OH216983   6.582   5.788   2.740
 5681TIP3    H116984   6.559   5.804   2.648
 5681TIP3    H216985   6.542   5.703   2.759
 5682TIP3   OH216986   4.134   4.087   6.775
 5682TIP3    H116987   4.226   4.061   6.776
 5682TIP3    H216988   4.086   4.007   6.796
 5683TIP3   OH216989   7.757   6.487   0.663
 5683TIP3    H116990   7.764   6.569   0.615
 5683TIP3    H216991   7.822   6.495   0.734
 5684TIP3   OH216992   7.587   6.592   5.675
 5684TIP3    H116993   7.548   6.512   5.640
 5684TIP3    H216994   7.518   6.633   5.726
 5685TIP3   OH216995   2.135   6.544   5.086
 5685TIP3    H116996   2.206   6.597   5.123
 5685TIP3    H216997   2.171   6.455   5.082
 5686TIP3   OH216998   5.113   0.391   0.983
 5686TIP3    H116999   5.135   0.331   1.053
 5686TIP3    H217000   5.069   0.464   1.027
 5687TIP3   OH217001   6.741   6.148   4.162
 5687TIP3    H117002   6.681   6.079   4.188
 5687TIP3    H217003   6.784   6.175   4.243
 5688TIP3   OH217004   3.733   7.381   4.830
 5688TIP3    H117005   3.779   7.464   4.827
 5688TIP3    H217006   3.706   7.371   4.921
 5689TIP3   OH217007   7.470   7.183   5.817
 5689TIP3    H117008   7.405   7.217   5.756
 5689TIP3    H217009   7.514   7.113   5.769
 5690TIP3   OH217010   2.456   3.625   6.506
 5690TIP3    H117011   2.437   3.532   6.500
 5690TIP3    H217012   2.399   3.657   6.576
 5691TIP3   OH217013   5.030   6.591   3.913
 5691TIP3    H117014   4.963   6.655   3.937
 5691TIP3    H217015   5.033   6.531   3.988
 5692TIP3   OH217016   5.994   6.009   1.008
 5692TIP3    H117017   6.048   6.038   1.082
 5692TIP3    H217018   5.943   6.087   0.985
 5693TIP3   OH217019   6.844   0.788   6.357
 5693TIP3    H117020   6.758   0.820   6.382
 5693TIP3    H217021   6.890   0.773   6.441
 5694TIP3   OH217022   7.978   2.304   5.588
 5694TIP3    H117023   7.901   2.326   5.641
 5694TIP3    H217024   8.046   2.364   5.619
 5695TIP3   OH217025   7.455   3.681   4.162
 5695TIP3    H117026   7.479   3.631   4.083
 5695TIP3    H217027   7.392   3.746   4.131
 5696TIP3   OH217028   7.959   5.506   0.961
 5696TIP3    H117029   7.913   5.485   0.879
 5696TIP3    H217030   7.913   5.455   1.028
 5697TIP3   OH217031   4.973   4.046   3.560
 5697TIP3    H117032   4.885   4.075   3.533
 5697TIP3    H217033   4.969   3.951   3.556
 5698TIP3   OH217034   8.056   1.970   3.297
 5698TIP3    H117035   7.988   1.912   3.330
 5698TIP3    H217036   8.009   2.046   3.263
 5699TIP3   OH217037   5.315   4.648   1.791
 5699TIP3    H117038   5.286   4.629   1.881
 5699TIP3    H217039   5.410   4.638   1.794
 5700TIP3   OH217040   4.632   1.938   4.019
 5700TIP3    H117041   4.552   1.886   4.027
 5700TIP3    H217042   4.648   1.972   4.107
 5701TIP3   OH217043   0.744   2.846   6.276
 5701TIP3    H117044   0.798   2.832   6.198
 5701TIP3    H217045   0.691   2.767   6.282
 5702TIP3   OH217046   1.561   7.679   3.440
 5702TIP3    H117047   1.518   7.687   3.525
 5702TIP3    H217048   1.581   7.586   3.433
 5703TIP3   OH217049   6.895   3.137   4.884
 5703TIP3    H117050   6.877   3.187   4.804
 5703TIP3    H217051   6.874   3.047   4.861
 5704TIP3   OH217052   2.374   1.177   3.444
 5704TIP3    H117053   2.282   1.150   3.452
 5704TIP3    H217054   2.422   1.113   3.496
 5705TIP3   OH217055   6.399   1.648   0.870
 5705TIP3    H117056   6.465   1.699   0.917
 5705TIP3    H217057   6.439   1.562   0.858
 5706TIP3   OH217058   0.867   1.736   5.412
 5706TIP3    H117059   0.806   1.711   5.482
 5706TIP3    H217060   0.875   1.658   5.358
 5707TIP3   OH217061   4.655   0.179   6.836
 5707TIP3    H117062   4.628   0.141   6.920
 5707TIP3    H217063   4.671   0.271   6.855
 5708TIP3   OH217064   0.116   0.562   1.482
 5708TIP3    H117065   0.191   0.612   1.449
 5708TIP3    H217066   0.071   0.623   1.540
 5709TIP3   OH217067   2.952   2.174   0.605
 5709TIP3    H117068   3.047   2.183   0.601
 5709TIP3    H217069   2.918   2.264   0.600
 5710TIP3   OH217070   4.269   3.074   2.713
 5710TIP3    H117071   4.267   3.154   2.765
 5710TIP3    H217072   4.182   3.036   2.724
 5711TIP3   OH217073   0.045   0.889   5.983
 5711TIP3    H117074  -0.045   0.895   6.015
 5711TIP3    H217075   0.084   0.973   6.006
 5712TIP3   OH217076   4.176   6.762   4.808
 5712TIP3    H117077   4.104   6.724   4.759
 5712TIP3    H217078   4.143   6.769   4.898
 5713TIP3   OH217079   4.270   4.142   4.438
 5713TIP3    H117080   4.180   4.162   4.413
 5713TIP3    H217081   4.304   4.092   4.364
 5714TIP3   OH217082   1.084   5.353   0.547
 5714TIP3    H117083   1.067   5.342   0.453
 5714TIP3    H217084   1.069   5.266   0.584
 5715TIP3   OH217085   3.795   7.244   0.762
 5715TIP3    H117086   3.885   7.245   0.795
 5715TIP3    H217087   3.790   7.167   0.706
 5716TIP3   OH217088   4.587   2.165   5.815
 5716TIP3    H117089   4.629   2.108   5.879
 5716TIP3    H217090   4.494   2.163   5.838
 5717TIP3   OH217091   3.748   0.123   6.084
 5717TIP3    H117092   3.713   0.206   6.053
 5717TIP3    H217093   3.734   0.125   6.179
 5718TIP3   OH217094   2.642   4.128   3.647
 5718TIP3    H117095   2.632   4.047   3.598
 5718TIP3    H217096   2.691   4.102   3.726
 5719TIP3   OH217097   1.638   4.856   5.697
 5719TIP3    H117098   1.575   4.888   5.761
 5719TIP3    H217099   1.585   4.826   5.623
 5720TIP3   OH217100   8.000   4.442   2.772
 5720TIP3    H117101   7.946   4.505   2.820
 5720TIP3    H217102   8.015   4.371   2.834
 5721TIP3   OH217103   4.723   1.020   6.512
 5721TIP3    H117104   4.785   0.987   6.447
 5721TIP3    H217105   4.647   1.048   6.459
 5722TIP3   OH217106   1.279   4.066   2.048
 5722TIP3    H117107   1.321   4.021   2.121
 5722TIP3    H217108   1.320   4.028   1.970
 5723TIP3   OH217109   5.384   6.075   0.283
 5723TIP3    H117110   5.464   6.081   0.231
 5723TIP3    H217111   5.370   6.164   0.315
 5724TIP3   OH217112   4.800   4.368   4.239
 5724TIP3    H117113   4.759   4.369   4.152
 5724TIP3    H217114   4.774   4.451   4.279
 5725TIP3   OH217115   0.576   1.020   6.518
 5725TIP3    H117116   0.589   0.926   6.534
 5725TIP3    H217117   0.607   1.062   6.598
 5726TIP3   OH217118   6.381   0.474   1.748
 5726TIP3    H117119   6.404   0.417   1.821
 5726TIP3    H217120   6.397   0.563   1.781
 5727TIP3   OH217121   3.206   5.098   6.200
 5727TIP3    H117122   3.120   5.061   6.180
 5727TIP3    H217123   3.246   5.113   6.114
 5728TIP3   OH217124   5.328   7.603   3.633
 5728TIP3    H117125   5.280   7.587   3.715
 5728TIP3    H217126   5.296   7.688   3.603
 5729TIP3   OH217127   4.879   2.442   6.765
 5729TIP3    H117128   4.917   2.505   6.704
 5729TIP3    H217129   4.955   2.400   6.806
 5730TIP3   OH217130   6.185   4.896   5.448
 5730TIP3    H117131   6.113   4.869   5.504
 5730TIP3    H217132   6.252   4.929   5.508
 5731TIP3   OH217133   8.382   3.276   0.971
 5731TIP3    H117134   8.384   3.361   1.016
 5731TIP3    H217135   8.432   3.218   1.028
 5732TIP3   OH217136   2.327   2.418   5.824
 5732TIP3    H117137   2.359   2.379   5.743
 5732TIP3    H217138   2.327   2.345   5.887
 5733TIP3   OH217139   1.570   6.782   1.174
 5733TIP3    H117140   1.634   6.777   1.104
 5733TIP3    H217141   1.492   6.820   1.132
 5734TIP3   OH217142   5.892   2.959   3.585
 5734TIP3    H117143   5.880   3.044   3.629
 5734TIP3    H217144   5.987   2.948   3.581
 5735TIP3   OH217145   7.671   1.869   0.044
 5735TIP3    H117146   7.635   1.833  -0.036
 5735TIP3    H217147   7.631   1.956   0.052
 5736TIP3   OH217148   6.917   0.854   3.191
 5736TIP3    H117149   6.929   0.763   3.165
 5736TIP3    H217150   6.836   0.854   3.242
 5737TIP3   OH217151   6.804   7.518   6.165
 5737TIP3    H117152   6.821   7.455   6.094
 5737TIP3    H217153   6.781   7.464   6.240
 5738TIP3   OH217154   1.673   7.957   5.677
 5738TIP3    H117155   1.642   7.872   5.644
 5738TIP3    H217156   1.611   8.021   5.641
 5739TIP3   OH217157   3.294   4.726   3.295
 5739TIP3    H117158   3.237   4.658   3.330
 5739TIP3    H217159   3.239   4.774   3.232
 5740TIP3   OH217160   0.252   3.374   5.807
 5740TIP3    H117161   0.201   3.389   5.886
 5740TIP3    H217162   0.224   3.288   5.775
 5741TIP3   OH217163   0.170   1.819   0.270
 5741TIP3    H117164   0.171   1.914   0.277
 5741TIP3    H217165   0.257   1.792   0.300
 5742TIP3   OH217166   2.383   3.776   1.321
 5742TIP3    H117167   2.441   3.809   1.253
 5742TIP3    H217168   2.410   3.822   1.400
 5743TIP3   OH217169   7.612   2.626   2.457
 5743TIP3    H117170   7.645   2.541   2.488
 5743TIP3    H217171   7.691   2.674   2.433
 5744TIP3   OH217172   2.376   1.605   5.293
 5744TIP3    H117173   2.380   1.510   5.279
 5744TIP3    H217174   2.344   1.614   5.383
 5745TIP3   OH217175   4.897   6.516   0.992
 5745TIP3    H117176   4.980   6.561   1.009
 5745TIP3    H217177   4.873   6.478   1.077
 5746TIP3   OH217178   5.569   1.117   3.397
 5746TIP3    H117179   5.487   1.069   3.410
 5746TIP3    H217180   5.636   1.061   3.438
 5747TIP3   OH217181   0.036   4.722   4.608
 5747TIP3    H117182  -0.027   4.652   4.627
 5747TIP3    H217183   0.119   4.690   4.645
 5748TIP3   OH217184   4.520   2.082   2.944
 5748TIP3    H117185   4.568   2.000   2.932
 5748TIP3    H217186   4.587   2.147   2.963
 5749TIP3   OH217187   8.191   5.954   4.100
 5749TIP3    H117188   8.157   5.867   4.078
 5749TIP3    H217189   8.145   6.012   4.040
 5750TIP3   OH217190   7.223   1.758   1.179
 5750TIP3    H117191   7.293   1.779   1.241
 5750TIP3    H217192   7.147   1.738   1.234
 5751TIP3   OH217193   1.664   7.715   6.540
 5751TIP3    H117194   1.723   7.652   6.498
 5751TIP3    H217195   1.711   7.745   6.618
 5752TIP3   OH217196   0.833   7.440   5.841
 5752TIP3    H117197   0.926   7.438   5.820
 5752TIP3    H217198   0.804   7.349   5.831
 5753TIP3   OH217199   7.828   2.484   0.209
 5753TIP3    H117200   7.749   2.431   0.220
 5753TIP3    H217201   7.852   2.471   0.117
 5754TIP3   OH217202   5.098   0.773   4.244
 5754TIP3    H117203   5.189   0.798   4.230
 5754TIP3    H217204   5.047   0.839   4.196
 5755TIP3   OH217205   7.557   4.945   6.441
 5755TIP3    H117206   7.513   4.864   6.416
 5755TIP3    H217207   7.540   4.954   6.535
 5756TIP3   OH217208   3.081   0.831   1.861
 5756TIP3    H117209   3.071   0.912   1.810
 5756TIP3    H217210   3.130   0.773   1.803
 5757TIP3   OH217211   7.653   3.050   4.942
 5757TIP3    H117212   7.684   3.036   4.853
 5757TIP3    H217213   7.578   2.990   4.951
 5758TIP3   OH217214   3.090   4.808   0.716
 5758TIP3    H117215   3.052   4.874   0.774
 5758TIP3    H217216   3.102   4.853   0.633
 5759TIP3   OH217217   6.101   1.794   6.377
 5759TIP3    H117218   6.098   1.889   6.374
 5759TIP3    H217219   6.094   1.767   6.285
 5760TIP3   OH217220   5.729   5.982   3.894
 5760TIP3    H117221   5.688   5.996   3.809
 5760TIP3    H217222   5.771   5.897   3.887
 5761TIP3   OH217223   6.612   0.063   4.355
 5761TIP3    H117224   6.563   0.008   4.293
 5761TIP3    H217225   6.569   0.148   4.349
 5762TIP3   OH217226   4.309   5.960   2.515
 5762TIP3    H117227   4.331   5.967   2.422
 5762TIP3    H217228   4.221   5.922   2.515
 5763TIP3   OH217229   7.622   6.413   0.908
 5763TIP3    H117230   7.667   6.420   0.824
 5763TIP3    H217231   7.670   6.345   0.955
 5764TIP3   OH217232   8.023   2.737   5.832
 5764TIP3    H117233   8.077   2.812   5.856
 5764TIP3    H217234   8.015   2.744   5.737
 5765TIP3   OH217235   0.552   4.723   2.271
 5765TIP3    H117236   0.593   4.789   2.328
 5765TIP3    H217237   0.481   4.687   2.324
 5766TIP3   OH217238   6.424   2.335   4.828
 5766TIP3    H117239   6.351   2.386   4.865
 5766TIP3    H217240   6.502   2.372   4.870
 5767TIP3   OH217241   3.765   1.421   5.455
 5767TIP3    H117242   3.772   1.452   5.365
 5767TIP3    H217243   3.756   1.326   5.448
 5768TIP3   OH217244   2.066   3.523   2.298
 5768TIP3    H117245   1.978   3.518   2.261
 5768TIP3    H217246   2.124   3.527   2.222
 5769TIP3   OH217247   4.682   6.626   4.304
 5769TIP3    H117248   4.761   6.674   4.330
 5769TIP3    H217249   4.713   6.556   4.247
 5770TIP3   OH217250   5.919   1.588   5.761
 5770TIP3    H117251   5.915   1.562   5.852
 5770TIP3    H217252   5.839   1.639   5.747
 5771TIP3   OH217253   2.877   5.631   3.823
 5771TIP3    H117254   2.782   5.641   3.816
 5771TIP3    H217255   2.909   5.720   3.840
 5772TIP3   OH217256   5.767   1.086   1.612
 5772TIP3    H117257   5.747   1.123   1.526
 5772TIP3    H217258   5.824   1.011   1.594
 5773TIP3   OH217259   5.369   3.862   3.014
 5773TIP3    H117260   5.370   3.805   3.091
 5773TIP3    H217261   5.312   3.935   3.039
 5774TIP3   OH217262   3.824   4.736   3.468
 5774TIP3    H117263   3.839   4.670   3.400
 5774TIP3    H217264   3.907   4.742   3.516
 5775TIP3   OH217265   2.993   2.545   3.206
 5775TIP3    H117266   3.068   2.522   3.260
 5775TIP3    H217267   2.976   2.637   3.227
 5776TIP3   OH217268   8.220   2.521   6.684
 5776TIP3    H117269   8.196   2.559   6.599
 5776TIP3    H217270   8.266   2.440   6.662
 5777TIP3   OH217271   1.247   4.704   6.415
 5777TIP3    H117272   1.184   4.756   6.365
 5777TIP3    H217273   1.312   4.676   6.351
 5778TIP3   OH217274   5.618   4.873   0.745
 5778TIP3    H117275   5.672   4.950   0.727
 5778TIP3    H217276   5.597   4.837   0.659
 5779TIP3   OH217277   4.576   7.679   5.816
 5779TIP3    H117278   4.622   7.629   5.884
 5779TIP3    H217279   4.639   7.744   5.787
 5780TIP3   OH217280   4.115   5.024   2.893
 5780TIP3    H117281   4.029   5.029   2.850
 5780TIP3    H217282   4.110   5.088   2.964
 5781TIP3   OH217283   0.576   6.733   1.526
 5781TIP3    H117284   0.664   6.714   1.557
 5781TIP3    H217285   0.565   6.827   1.543
 5782TIP3   OH217286   7.952   6.058   2.471
 5782TIP3    H117287   7.861   6.070   2.497
 5782TIP3    H217288   7.985   6.146   2.455
 5783TIP3   OH217289   5.626   7.923   5.791
 5783TIP3    H117290   5.634   7.962   5.879
 5783TIP3    H217291   5.610   7.830   5.807
 5784TIP3   OH217292   0.161   1.585   0.896
 5784TIP3    H117293   0.209   1.504   0.878
 5784TIP3    H217294   0.069   1.562   0.881
 5785TIP3   OH217295   3.457   6.936   0.529
 5785TIP3    H117296   3.472   6.952   0.436
 5785TIP3    H217297   3.483   7.017   0.573
 5786TIP3   OH217298   8.342   4.273   4.389
 5786TIP3    H117299   8.267   4.314   4.432
 5786TIP3    H217300   8.417   4.327   4.415
 5787TIP3   OH217301   3.351   0.639   5.310
 5787TIP3    H117302   3.379   0.586   5.235
 5787TIP3    H217303   3.262   0.667   5.288
 5788TIP3   OH217304   1.866   4.580   3.777
 5788TIP3    H117305   1.849   4.523   3.852
 5788TIP3    H217306   1.893   4.663   3.817
 5789TIP3   OH217307   2.471   5.166   2.340
 5789TIP3    H117308   2.463   5.185   2.433
 5789TIP3    H217309   2.384   5.136   2.314
 5790TIP3   OH217310   5.539   0.001   2.918
 5790TIP3    H117311   5.470   0.029   2.977
 5790TIP3    H217312   5.555   0.077   2.861
 5791TIP3   OH217313   7.414   4.300   5.868
 5791TIP3    H117314   7.420   4.265   5.957
 5791TIP3    H217315   7.321   4.298   5.847
 5792TIP3   OH217316   8.120   1.530   4.197
 5792TIP3    H117317   8.142   1.612   4.154
 5792TIP3    H217318   8.098   1.554   4.287
 5793TIP3   OH217319   8.226   3.092   3.661
 5793TIP3    H117320   8.261   3.085   3.572
 5793TIP3    H217321   8.212   3.186   3.674
 5794TIP3   OH217322   3.627   1.820   0.782
 5794TIP3    H117323   3.583   1.845   0.700
 5794TIP3    H217324   3.567   1.849   0.851
 5795TIP3   OH217325   2.942   6.970   4.248
 5795TIP3    H117326   2.952   7.054   4.204
 5795TIP3    H217327   3.029   6.950   4.281
 5796TIP3   OH217328   6.815   7.358   4.711
 5796TIP3    H117329   6.820   7.453   4.719
 5796TIP3    H217330   6.722   7.338   4.715
 5797TIP3   OH217331   3.567   7.895   1.433
 5797TIP3    H117332   3.488   7.885   1.381
 5797TIP3    H217333   3.559   7.981   1.474
 5798TIP3   OH217334   0.637   1.292   4.631
 5798TIP3    H117335   0.677   1.264   4.548
 5798TIP3    H217336   0.632   1.212   4.683
 5799TIP3   OH217337   6.775   5.408   0.698
 5799TIP3    H117338   6.768   5.493   0.654
 5799TIP3    H217339   6.737   5.422   0.784
 5800TIP3   OH217340   6.952   2.892   3.286
 5800TIP3    H117341   7.003   2.873   3.365
 5800TIP3    H217342   6.860   2.880   3.313
 5801TIP3   OH217343   0.609   4.854   6.577
 5801TIP3    H117344   0.636   4.920   6.640
 5801TIP3    H217345   0.546   4.799   6.624
 5802TIP3   OH217346   2.307   0.697   4.678
 5802TIP3    H117347   2.308   0.699   4.774
 5802TIP3    H217348   2.347   0.780   4.652
 5803TIP3   OH217349   6.380   6.850   4.712
 5803TIP3    H117350   6.298   6.834   4.666
 5803TIP3    H217351   6.360   6.832   4.804
 5804TIP3   OH217352   1.907   1.931   1.190
 5804TIP3    H117353   1.920   1.955   1.098
 5804TIP3    H217354   1.838   1.991   1.221
 5805TIP3   OH217355   2.963   4.814   5.349
 5805TIP3    H117356   2.980   4.894   5.399
 5805TIP3    H217357   2.939   4.844   5.262
 5806TIP3   OH217358   5.168   0.240   2.262
 5806TIP3    H117359   5.226   0.167   2.240
 5806TIP3    H217360   5.227   0.309   2.294
 5807TIP3   OH217361   7.818   1.243   0.325
 5807TIP3    H117362   7.902   1.231   0.368
 5807TIP3    H217363   7.833   1.313   0.261
 5808TIP3   OH217364   4.491   3.182   0.562
 5808TIP3    H117365   4.418   3.236   0.591
 5808TIP3    H217366   4.483   3.102   0.613
 5809TIP3   OH217367   1.164   7.542   6.682
 5809TIP3    H117368   1.112   7.616   6.649
 5809TIP3    H217369   1.139   7.468   6.627
 5810TIP3   OH217370   7.923   3.475   1.577
 5810TIP3    H117371   7.948   3.445   1.490
 5810TIP3    H217372   7.988   3.541   1.599
 5811TIP3   OH217373   1.075   6.995   4.771
 5811TIP3    H117374   1.152   6.975   4.824
 5811TIP3    H217375   1.014   6.924   4.791
 5812TIP3   OH217376   4.581   4.943   5.308
 5812TIP3    H117377   4.672   4.964   5.287
 5812TIP3    H217378   4.552   4.885   5.238
 5813TIP3   OH217379   1.661   6.545   5.059
 5813TIP3    H117380   1.612   6.475   5.016
 5813TIP3    H217381   1.598   6.617   5.067
 5814TIP3   OH217382   0.692   1.389   1.470
 5814TIP3    H117383   0.708   1.304   1.510
 5814TIP3    H217384   0.633   1.433   1.531
 5815TIP3   OH217385   1.554   6.488   1.695
 5815TIP3    H117386   1.539   6.482   1.789
 5815TIP3    H217387   1.647   6.471   1.684
 5816TIP3   OH217388   2.533   5.775   5.795
 5816TIP3    H117389   2.506   5.769   5.703
 5816TIP3    H217390   2.465   5.727   5.843
 5817TIP3   OH217391   6.823   0.853   4.573
 5817TIP3    H117392   6.916   0.873   4.583
 5817TIP3    H217393   6.793   0.832   4.662
 5818TIP3   OH217394   6.899   3.382   5.153
 5818TIP3    H117395   6.954   3.312   5.186
 5818TIP3    H217396   6.820   3.338   5.120
 5819TIP3   OH217397   6.678   0.747   2.867
 5819TIP3    H117398   6.761   0.782   2.900
 5819TIP3    H217399   6.614   0.769   2.935
 5820TIP3   OH217400   4.523   4.923   0.596
 5820TIP3    H117401   4.435   4.922   0.633
 5820TIP3    H217402   4.532   4.838   0.552
 5821TIP3   OH217403   6.055   0.739   4.348
 5821TIP3    H117404   6.144   0.746   4.382
 5821TIP3    H217405   6.009   0.815   4.385
 5822TIP3   OH217406   2.008   2.698   0.939
 5822TIP3    H117407   2.046   2.616   0.968
 5822TIP3    H217408   2.068   2.732   0.873
 5823TIP3   OH217409   3.730   6.075   6.454
 5823TIP3    H117410   3.699   6.064   6.365
 5823TIP3    H217411   3.801   6.140   6.447
 5824TIP3   OH217412   0.502   5.390   0.519
 5824TIP3    H117413   0.526   5.423   0.432
 5824TIP3    H217414   0.406   5.388   0.518
 5825TIP3   OH217415   6.193   4.887   0.342
 5825TIP3    H117416   6.202   4.957   0.406
 5825TIP3    H217417   6.131   4.921   0.277
 5826TIP3   OH217418   7.231   0.352   4.803
 5826TIP3    H117419   7.163   0.393   4.749
 5826TIP3    H217420   7.295   0.422   4.818
 5827TIP3   OH217421   6.907   5.019   5.965
 5827TIP3    H117422   6.994   5.060   5.970
 5827TIP3    H217423   6.914   4.941   6.020
 5828TIP3   OH217424   7.010   1.339   1.616
 5828TIP3    H117425   6.985   1.249   1.637
 5828TIP3    H217426   7.029   1.379   1.701
 5829TIP3   OH217427   4.871   1.695   2.717
 5829TIP3    H117428   4.959   1.658   2.712
 5829TIP3    H217429   4.837   1.689   2.628
 5830TIP3   OH217430   0.385   7.672   2.846
 5830TIP3    H117431   0.367   7.626   2.764
 5830TIP3    H217432   0.466   7.720   2.828
 5831TIP3   OH217433   8.122   2.495   0.132
 5831TIP3    H117434   8.043   2.452   0.099
 5831TIP3    H217435   8.175   2.511   0.054
 5832TIP3   OH217436   4.569   2.725   0.806
 5832TIP3    H117437   4.619   2.758   0.881
 5832TIP3    H217438   4.528   2.645   0.838
 5833TIP3   OH217439   2.307   0.977   1.004
 5833TIP3    H117440   2.275   1.001   0.917
 5833TIP3    H217441   2.236   0.999   1.064
 5834TIP3   OH217442   0.889   1.925   2.428
 5834TIP3    H117443   0.839   1.938   2.347
 5834TIP3    H217444   0.822   1.905   2.494
 5835TIP3   OH217445   6.861   5.439   2.660
 5835TIP3    H117446   6.774   5.434   2.699
 5835TIP3    H217447   6.911   5.496   2.719
 5836TIP3   OH217448   3.295   2.078   1.218
 5836TIP3    H117449   3.365   2.116   1.165
 5836TIP3    H217450   3.263   2.003   1.167
 5837TIP3   OH217451   0.089   3.258   3.489
 5837TIP3    H117452   0.127   3.282   3.574
 5837TIP3    H217453   0.074   3.342   3.446
 5838TIP3   OH217454   2.920   5.229   2.979
 5838TIP3    H117455   2.906   5.323   2.988
 5838TIP3    H217456   2.854   5.190   3.037
 5839TIP3   OH217457   5.207   2.153   5.454
 5839TIP3    H117458   5.258   2.147   5.534
 5839TIP3    H217459   5.239   2.233   5.411
 5840TIP3   OH217460   0.539   3.565   0.204
 5840TIP3    H117461   0.579   3.537   0.121
 5840TIP3    H217462   0.513   3.484   0.246
 5841TIP3   OH217463   1.007   3.086   2.649
 5841TIP3    H117464   1.045   3.135   2.722
 5841TIP3    H217465   1.046   3.126   2.571
 5842TIP3   OH217466   0.164   0.419   1.046
 5842TIP3    H117467   0.125   0.494   1.091
 5842TIP3    H217468   0.198   0.455   0.964
 5843TIP3   OH217469   4.514   3.687   0.694
 5843TIP3    H117470   4.444   3.738   0.653
 5843TIP3    H217471   4.588   3.694   0.634
 5844TIP3   OH217472   0.757   4.336   3.545
 5844TIP3    H117473   0.804   4.328   3.462
 5844TIP3    H217474   0.823   4.368   3.607
 5845TIP3   OH217475   6.916   5.205   2.130
 5845TIP3    H117476   6.867   5.280   2.165
 5845TIP3    H217477   6.866   5.129   2.158
 5846TIP3   OH217478   3.723   1.441   5.916
 5846TIP3    H117479   3.705   1.374   5.850
 5846TIP3    H217480   3.702   1.400   5.999
 5847TIP3   OH217481   6.225   7.410   5.055
 5847TIP3    H117482   6.270   7.473   5.112
 5847TIP3    H217483   6.266   7.421   4.970
 5848TIP3   OH217484   3.573   3.924   5.940
 5848TIP3    H117485   3.508   3.868   5.982
 5848TIP3    H217486   3.591   3.992   6.005
 5849TIP3   OH217487   1.225   5.707   5.164
 5849TIP3    H117488   1.300   5.648   5.153
 5849TIP3    H217489   1.240   5.776   5.099
 5850TIP3   OH217490   6.284   1.461   2.461
 5850TIP3    H117491   6.326   1.492   2.542
 5850TIP3    H217492   6.229   1.533   2.432
 5851TIP3   OH217493   3.329   2.744   6.135
 5851TIP3    H117494   3.241   2.726   6.103
 5851TIP3    H217495   3.319   2.822   6.190
 5852TIP3   OH217496   6.424   0.970   6.811
 5852TIP3    H117497   6.444   0.888   6.858
 5852TIP3    H217498   6.345   0.949   6.761
 5853TIP3   OH217499   3.200   5.596   4.182
 5853TIP3    H117500   3.153   5.603   4.265
 5853TIP3    H217501   3.287   5.632   4.200
 5854TIP3   OH217502   1.455   6.388   4.905
 5854TIP3    H117503   1.364   6.403   4.932
 5854TIP3    H217504   1.481   6.310   4.954
 5855TIP3   OH217505   0.072   0.119   4.446
 5855TIP3    H117506   0.086   0.187   4.380
 5855TIP3    H217507   0.158   0.108   4.488
 5856TIP3   OH217508   0.905   4.755   5.338
 5856TIP3    H117509   0.860   4.679   5.299
 5856TIP3    H217510   0.923   4.728   5.428
 5857TIP3   OH217511   8.324   4.596   4.815
 5857TIP3    H117512   8.255   4.586   4.880
 5857TIP3    H217513   8.386   4.526   4.835
 5858TIP3   OH217514   7.267   6.245   4.901
 5858TIP3    H117515   7.322   6.175   4.866
 5858TIP3    H217516   7.190   6.200   4.936
 5859TIP3   OH217517   3.339   7.282   0.273
 5859TIP3    H117518   3.386   7.316   0.350
 5859TIP3    H217519   3.258   7.334   0.270
 5860TIP3   OH217520   0.157   6.665   2.221
 5860TIP3    H117521   0.067   6.645   2.197
 5860TIP3    H217522   0.150   6.723   2.296
 5861TIP3   OH217523   6.901   2.743   4.944
 5861TIP3    H117524   6.941   2.659   4.920
 5861TIP3    H217525   6.974   2.800   4.965
 5862TIP3   OH217526   5.132   4.504   6.615
 5862TIP3    H117527   5.168   4.479   6.700
 5862TIP3    H217528   5.077   4.429   6.590
 5863TIP3   OH217529   0.568   0.934   5.035
 5863TIP3    H117530   0.622   0.857   5.053
 5863TIP3    H217531   0.484   0.914   5.075
 5864TIP3   OH217532   7.442   5.616   1.803
 5864TIP3    H117533   7.434   5.666   1.885
 5864TIP3    H217534   7.399   5.533   1.821
 5865TIP3   OH217535   5.004   4.394   0.340
 5865TIP3    H117536   5.081   4.450   0.349
 5865TIP3    H217537   4.989   4.388   0.246
 5866TIP3   OH217538   0.765   4.077   4.387
 5866TIP3    H117539   0.670   4.067   4.382
 5866TIP3    H217540   0.779   4.129   4.466
 5867TIP3   OH217541   5.057   1.287   4.045
 5867TIP3    H117542   5.099   1.201   4.055
 5867TIP3    H217543   4.970   1.276   4.084
 5868TIP3   OH217544   5.960   1.586  -0.026
 5868TIP3    H117545   6.022   1.580   0.046
 5868TIP3    H217546   5.962   1.678  -0.052
 5869TIP3   OH217547   2.781   0.406   4.216
 5869TIP3    H117548   2.754   0.417   4.125
 5869TIP3    H217549   2.701   0.379   4.262
 5870TIP3   OH217550   2.381   7.366   4.303
 5870TIP3    H117551   2.366   7.419   4.381
 5870TIP3    H217552   2.473   7.379   4.282
 5871TIP3   OH217553   4.950   6.775   4.903
 5871TIP3    H117554   4.928   6.759   4.995
 5871TIP3    H217555   4.899   6.710   4.855
 5872TIP3   OH217556   2.840   0.381   5.514
 5872TIP3    H117557   2.825   0.297   5.558
 5872TIP3    H217558   2.898   0.360   5.441
 5873TIP3   OH217559   4.288   3.135   6.091
 5873TIP3    H117560   4.286   3.082   6.011
 5873TIP3    H217561   4.357   3.200   6.074
 5874TIP3   OH217562   6.820   7.452   0.653
 5874TIP3    H117563   6.800   7.532   0.603
 5874TIP3    H217564   6.858   7.392   0.589
 5875TIP3   OH217565   1.255   5.104   5.326
 5875TIP3    H117566   1.303   5.186   5.318
 5875TIP3    H217567   1.203   5.113   5.406
 5876TIP3   OH217568   6.813   5.515   5.372
 5876TIP3    H117569   6.870   5.450   5.413
 5876TIP3    H217570   6.842   5.517   5.280
 5877TIP3   OH217571   0.901   4.506   3.127
 5877TIP3    H117572   0.869   4.421   3.097
 5877TIP3    H217573   0.877   4.508   3.220
 5878TIP3   OH217574   8.374   0.374   3.887
 5878TIP3    H117575   8.351   0.465   3.867
 5878TIP3    H217576   8.384   0.333   3.801
 5879TIP3   OH217577   7.341   6.961   3.070
 5879TIP3    H117578   7.387   7.035   3.030
 5879TIP3    H217579   7.289   7.000   3.140
 5880TIP3   OH217580   6.224   2.217   1.513
 5880TIP3    H117581   6.132   2.198   1.527
 5880TIP3    H217582   6.271   2.148   1.560
 5881TIP3   OH217583   0.927   7.710   1.680
 5881TIP3    H117584   0.914   7.645   1.749
 5881TIP3    H217585   0.855   7.694   1.619
 5882TIP3   OH217586   0.054   5.985   0.729
 5882TIP3    H117587   0.100   5.921   0.675
 5882TIP3    H217588  -0.039   5.966   0.716
 5883TIP3   OH217589   8.104   2.045   4.349
 5883TIP3    H117590   8.075   2.119   4.402
 5883TIP3    H217591   8.148   2.085   4.273
 5884TIP3   OH217592   3.278   7.618   1.092
 5884TIP3    H117593   3.340   7.678   1.050
 5884TIP3    H217594   3.251   7.559   1.022
 5885TIP3   OH217595   4.083   0.512   5.887
 5885TIP3    H117596   4.159   0.560   5.852
 5885TIP3    H217597   4.112   0.421   5.892
 5886TIP3   OH217598   6.794   3.656   5.015
 5886TIP3    H117599   6.748   3.573   4.998
 5886TIP3    H217600   6.747   3.695   5.089
 5887TIP3   OH217601   6.371   2.990   1.874
 5887TIP3    H117602   6.466   2.977   1.879
 5887TIP3    H217603   6.337   2.947   1.953
 5888TIP3   OH217604   7.352   6.476   3.405
 5888TIP3    H117605   7.272   6.424   3.401
 5888TIP3    H217606   7.359   6.504   3.496
 5889TIP3   OH217607   0.840   1.628   1.412
 5889TIP3    H117608   0.755   1.594   1.441
 5889TIP3    H217609   0.853   1.589   1.326
 5890TIP3   OH217610   1.939   6.945   3.657
 5890TIP3    H117611   1.938   6.851   3.670
 5890TIP3    H217612   1.999   6.978   3.724
 5891TIP3   OH217613   3.981   2.104   1.819
 5891TIP3    H117614   3.941   2.026   1.856
 5891TIP3    H217615   3.937   2.177   1.863
 5892TIP3   OH217616   5.918   6.154   5.054
 5892TIP3    H117617   6.000   6.117   5.020
 5892TIP3    H217618   5.892   6.095   5.124
 5893TIP3   OH217619   2.931   5.408   4.509
 5893TIP3    H117620   2.894   5.397   4.597
 5893TIP3    H217621   2.870   5.362   4.452
 5894TIP3   OH217622   2.531   5.092   4.433
 5894TIP3    H117623   2.595   5.164   4.435
 5894TIP3    H217624   2.573   5.022   4.485
 5895TIP3   OH217625   7.397   0.579   4.820
 5895TIP3    H117626   7.420   0.627   4.741
 5895TIP3    H217627   7.479   0.534   4.844
 5896TIP3   OH217628   6.837   4.776   2.598
 5896TIP3    H117629   6.886   4.807   2.521
 5896TIP3    H217630   6.896   4.794   2.672
 5897TIP3   OH217631   2.174   5.349   2.110
 5897TIP3    H117632   2.164   5.438   2.077
 5897TIP3    H217633   2.213   5.360   2.197
 5898TIP3   OH217634   2.584   6.345   3.525
 5898TIP3    H117635   2.625   6.339   3.611
 5898TIP3    H217636   2.608   6.263   3.482
 5899TIP3   OH217637   5.618   6.702   6.587
 5899TIP3    H117638   5.696   6.721   6.640
 5899TIP3    H217639   5.571   6.636   6.637
 5900TIP3   OH217640   6.658   1.439   6.081
 5900TIP3    H117641   6.563   1.446   6.085
 5900TIP3    H217642   6.682   1.489   6.003
 5901TIP3   OH217643   5.720   3.717   1.499
 5901TIP3    H117644   5.641   3.695   1.450
 5901TIP3    H217645   5.772   3.771   1.440
 5902TIP3   OH217646   2.749   2.080   2.670
 5902TIP3    H117647   2.726   2.081   2.577
 5902TIP3    H217648   2.778   2.169   2.688
 5903TIP3   OH217649   7.332   6.035   2.500
 5903TIP3    H117650   7.269   6.072   2.438
 5903TIP3    H217651   7.355   6.108   2.557
 5904TIP3   OH217652   5.050   6.763   1.516
 5904TIP3    H117653   5.081   6.848   1.547
 5904TIP3    H217654   5.107   6.743   1.442
 5905TIP3   OH217655   5.935   7.173   0.894
 5905TIP3    H117656   5.965   7.171   0.803
 5905TIP3    H217657   5.894   7.087   0.908
 5906TIP3   OH217658   3.845   3.426   1.940
 5906TIP3    H117659   3.918   3.364   1.949
 5906TIP3    H217660   3.785   3.383   1.879
 5907TIP3   OH217661   6.884   7.649   3.957
 5907TIP3    H117662   6.977   7.627   3.970
 5907TIP3    H217663   6.836   7.582   4.006
 5908TIP3   OH217664   0.029   0.133   1.652
 5908TIP3    H117665   0.021   0.203   1.717
 5908TIP3    H217666   0.043   0.053   1.704
 5909TIP3   OH217667   7.294   0.543   3.410
 5909TIP3    H117668   7.294   0.575   3.320
 5909TIP3    H217669   7.372   0.489   3.417
 5910TIP3   OH217670   2.494   7.652   3.792
 5910TIP3    H117671   2.443   7.731   3.774
 5910TIP3    H217672   2.485   7.599   3.713
 5911TIP3   OH217673   8.220   4.850   3.071
 5911TIP3    H117674   8.246   4.924   3.016
 5911TIP3    H217675   8.299   4.796   3.078
 5912TIP3   OH217676   3.780   3.762   3.080
 5912TIP3    H117677   3.740   3.827   3.138
 5912TIP3    H217678   3.874   3.774   3.092
 5913TIP3   OH217679   1.394   5.205   4.195
 5913TIP3    H117680   1.486   5.184   4.182
 5913TIP3    H217681   1.365   5.236   4.109
 5914TIP3   OH217682   7.479   7.112   6.386
 5914TIP3    H117683   7.523   7.080   6.464
 5914TIP3    H217684   7.483   7.038   6.325
 5915TIP3   OH217685   5.743   1.870   6.496
 5915TIP3    H117686   5.672   1.830   6.546
 5915TIP3    H217687   5.823   1.845   6.542
 5916TIP3   OH217688   0.365   1.387   2.048
 5916TIP3    H117689   0.355   1.454   1.980
 5916TIP3    H217690   0.400   1.435   2.124
 5917TIP3   OH217691   5.688   4.512   0.585
 5917TIP3    H117692   5.628   4.584   0.571
 5917TIP3    H217693   5.648   4.460   0.654
 5918TIP3   OH217694   5.279   7.746   2.250
 5918TIP3    H117695   5.269   7.828   2.299
 5918TIP3    H217696   5.359   7.758   2.199
 5919TIP3   OH217697   5.611   7.164   5.486
 5919TIP3    H117698   5.630   7.117   5.404
 5919TIP3    H217699   5.644   7.252   5.471
 5920TIP3   OH217700   2.517   0.039   6.049
 5920TIP3    H117701   2.576   0.079   5.985
 5920TIP3    H217702   2.435   0.026   6.001
 5921TIP3   OH217703   2.268   3.137   1.842
 5921TIP3    H117704   2.344   3.095   1.802
 5921TIP3    H217705   2.226   3.185   1.770
 5922TIP3   OH217706   5.614   5.553   0.370
 5922TIP3    H117707   5.570   5.482   0.323
 5922TIP3    H217708   5.690   5.511   0.411
 5923TIP3   OH217709   2.562   2.473   0.742
 5923TIP3    H117710   2.541   2.566   0.735
 5923TIP3    H217711   2.641   2.462   0.688
 5924TIP3   OH217712   6.047   4.442   2.664
 5924TIP3    H117713   6.014   4.364   2.617
 5924TIP3    H217714   5.970   4.476   2.710
 5925TIP3   OH217715   5.968   7.674   4.339
 5925TIP3    H117716   5.888   7.726   4.326
 5925TIP3    H217717   5.988   7.638   4.253
 5926TIP3   OH217718   2.069   3.021   3.179
 5926TIP3    H117719   2.067   2.927   3.167
 5926TIP3    H217720   2.162   3.044   3.177
 5927TIP3   OH217721   3.816   6.624   1.497
 5927TIP3    H117722   3.773   6.688   1.441
 5927TIP3    H217723   3.864   6.567   1.436
 5928TIP3   OH217724   7.644   3.625   1.478
 5928TIP3    H117725   7.616   3.578   1.557
 5928TIP3    H217726   7.639   3.560   1.408
 5929TIP3   OH217727   4.955   1.060   6.677
 5929TIP3    H117728   4.958   1.149   6.714
 5929TIP3    H217729   4.870   1.056   6.633
 5930TIP3   OH217730   1.385   0.294   5.932
 5930TIP3    H117731   1.452   0.301   5.863
 5930TIP3    H217732   1.317   0.357   5.906
 5931TIP3   OH217733   0.183   2.945   3.290
 5931TIP3    H117734   0.152   2.982   3.207
 5931TIP3    H217735   0.269   2.986   3.304
 5932TIP3   OH217736   7.287   2.848  -0.005
 5932TIP3    H117737   7.296   2.928   0.045
 5932TIP3    H217738   7.231   2.872  -0.079
 5933TIP3   OH217739   1.984   0.048   1.472
 5933TIP3    H117740   1.952   0.127   1.428
 5933TIP3    H217741   1.906   0.006   1.507
 5934TIP3   OH217742   1.415   4.911   0.295
 5934TIP3    H117743   1.461   4.859   0.361
 5934TIP3    H217744   1.482   4.969   0.259
 5935TIP3   OH217745  -0.040   7.274   4.705
 5935TIP3    H117746  -0.020   7.191   4.749
 5935TIP3    H217747   0.028   7.334   4.735
 5936TIP3   OH217748   5.642   0.680   4.221
 5936TIP3    H117749   5.674   0.753   4.169
 5936TIP3    H217750   5.700   0.607   4.200
 5937TIP3   OH217751   2.523   6.226   0.204
 5937TIP3    H117752   2.435   6.195   0.182
 5937TIP3    H217753   2.582   6.165   0.161
 5938TIP3   OH217754   1.386   2.588   1.343
 5938TIP3    H117755   1.437   2.546   1.412
 5938TIP3    H217756   1.341   2.660   1.387
 5939TIP3   OH217757   1.119   2.965   3.664
 5939TIP3    H117758   1.175   3.036   3.635
 5939TIP3    H217759   1.179   2.902   3.704
 5940TIP3   OH217760   1.043   5.511   3.259
 5940TIP3    H117761   1.086   5.475   3.336
 5940TIP3    H217762   1.099   5.485   3.186
 5941TIP3   OH217763   4.395   7.514   0.743
 5941TIP3    H117764   4.341   7.481   0.815
 5941TIP3    H217765   4.367   7.605   0.731
 5942TIP3   OH217766   0.769   7.409   5.497
 5942TIP3    H117767   0.791   7.449   5.412
 5942TIP3    H217768   0.842   7.432   5.554
 5943TIP3   OH217769   1.733   1.599   6.022
 5943TIP3    H117770   1.758   1.599   6.114
 5943TIP3    H217771   1.642   1.629   6.021
 5944TIP3   OH217772   2.327   4.105   1.239
 5944TIP3    H117773   2.376   4.047   1.180
 5944TIP3    H217774   2.251   4.131   1.189
 5945TIP3   OH217775   4.799   6.464   5.399
 5945TIP3    H117776   4.821   6.407   5.473
 5945TIP3    H217777   4.841   6.548   5.421
 5946TIP3   OH217778   6.295   5.971   3.663
 5946TIP3    H117779   6.379   5.926   3.670
 5946TIP3    H217780   6.310   6.056   3.705
 5947TIP3   OH217781   0.324   0.157   6.015
 5947TIP3    H117782   0.381   0.209   6.071
 5947TIP3    H217783   0.275   0.222   5.964
 5948TIP3   OH217784   1.090   7.411   1.423
 5948TIP3    H117785   1.075   7.347   1.493
 5948TIP3    H217786   1.110   7.493   1.469
 5949TIP3   OH217787   2.790   5.380   4.751
 5949TIP3    H117788   2.739   5.439   4.695
 5949TIP3    H217789   2.761   5.400   4.840
 5950TIP3   OH217790   7.699   5.341   5.099
 5950TIP3    H117791   7.780   5.301   5.067
 5950TIP3    H217792   7.637   5.332   5.027
 5951TIP3   OH217793   3.524   7.806   0.561
 5951TIP3    H117794   3.612   7.844   0.565
 5951TIP3    H217795   3.467   7.879   0.537
 5952TIP3   OH217796   1.191   3.131   6.509
 5952TIP3    H117797   1.187   3.062   6.443
 5952TIP3    H217798   1.142   3.096   6.584
 5953TIP3   OH217799   1.142   6.366   5.551
 5953TIP3    H117800   1.089   6.288   5.564
 5953TIP3    H217801   1.194   6.373   5.631
 5954TIP3   OH217802   2.320   2.894   6.706
 5954TIP3    H117803   2.270   2.897   6.625
 5954TIP3    H217804   2.392   2.956   6.692
 5955TIP3   OH217805   6.535   4.617   3.022
 5955TIP3    H117806   6.619   4.573   3.039
 5955TIP3    H217807   6.507   4.582   2.937
 5956TIP3   OH217808   0.470   1.497   4.513
 5956TIP3    H117809   0.509   1.426   4.564
 5956TIP3    H217810   0.385   1.511   4.555
 5957TIP3   OH217811   0.534   6.610   0.789
 5957TIP3    H117812   0.513   6.524   0.825
 5957TIP3    H217813   0.603   6.593   0.725
 5958TIP3   OH217814   0.223   0.407   6.477
 5958TIP3    H117815   0.316   0.424   6.462
 5958TIP3    H217816   0.208   0.429   6.569
 5959TIP3   OH217817   1.261   5.632   0.409
 5959TIP3    H117818   1.172   5.660   0.431
 5959TIP3    H217819   1.300   5.706   0.363
 5960TIP3   OH217820   5.166   6.120   0.414
 5960TIP3    H117821   5.081   6.152   0.446
 5960TIP3    H217822   5.229   6.185   0.445
 5961TIP3   OH217823   3.189   2.063   4.894
 5961TIP3    H117824   3.159   2.057   4.804
 5961TIP3    H217825   3.275   2.104   4.889
 5962TIP3   OH217826   5.532   4.115   4.524
 5962TIP3    H117827   5.512   4.055   4.452
 5962TIP3    H217828   5.589   4.065   4.582
 5963TIP3   OH217829   1.205   2.063   1.596
 5963TIP3    H117830   1.124   2.013   1.600
 5963TIP3    H217831   1.273   1.997   1.582
 5964TIP3   OH217832   2.726   0.387   3.926
 5964TIP3    H117833   2.727   0.436   3.844
 5964TIP3    H217834   2.682   0.304   3.904
 5965TIP3   OH217835   4.222   3.438   6.251
 5965TIP3    H117836   4.215   3.413   6.159
 5965TIP3    H217837   4.135   3.425   6.287
 5966TIP3   OH217838   2.065   6.721   6.056
 5966TIP3    H117839   2.093   6.787   6.118
 5966TIP3    H217840   2.046   6.770   5.976
 5967TIP3   OH217841   0.745   3.496   5.700
 5967TIP3    H117842   0.671   3.461   5.750
 5967TIP3    H217843   0.796   3.419   5.676
 5968TIP3   OH217844   4.363   3.873   3.957
 5968TIP3    H117845   4.411   3.872   3.875
 5968TIP3    H217846   4.428   3.896   4.023
 5969TIP3   OH217847   2.092   4.324   5.986
 5969TIP3    H117848   2.123   4.400   5.938
 5969TIP3    H217849   2.036   4.360   6.055
 5970TIP3   OH217850   4.034   1.714   0.433
 5970TIP3    H117851   4.002   1.770   0.361
 5970TIP3    H217852   3.978   1.738   0.507
 5971TIP3   OH217853   1.689   7.613   1.254
 5971TIP3    H117854   1.609   7.609   1.307
 5971TIP3    H217855   1.671   7.555   1.180
 5972TIP3   OH217856   5.572   5.074   4.395
 5972TIP3    H117857   5.630   5.083   4.471
 5972TIP3    H217858   5.565   4.979   4.383
 5973TIP3   OH217859   3.280   5.517   3.658
 5973TIP3    H117860   3.360   5.568   3.643
 5973TIP3    H217861   3.213   5.584   3.674
 5974TIP3   OH217862   1.510   1.059   5.976
 5974TIP3    H117863   1.564   1.033   5.902
 5974TIP3    H217864   1.569   1.059   6.052
 5975TIP3   OH217865   3.507   4.613   5.588
 5975TIP3    H117866   3.450   4.690   5.580
 5975TIP3    H217867   3.470   4.550   5.527
 5976TIP3   OH217868   1.444   7.640   2.435
 5976TIP3    H117869   1.354   7.611   2.420
 5976TIP3    H217870   1.451   7.722   2.385
 5977TIP3   OH217871   1.170   3.684   0.925
 5977TIP3    H117872   1.171   3.642   1.011
 5977TIP3    H217873   1.081   3.671   0.892
 5978TIP3   OH217874   0.731   6.468   2.821
 5978TIP3    H117875   0.675   6.412   2.767
 5978TIP3    H217876   0.797   6.501   2.760
 5979TIP3   OH217877   5.098   6.187   3.612
 5979TIP3    H117878   5.067   6.265   3.659
 5979TIP3    H217879   5.095   6.212   3.520
 5980TIP3   OH217880   5.112   7.061   0.862
 5980TIP3    H117881   5.087   7.153   0.846
 5980TIP3    H217882   5.126   7.024   0.775
 5981TIP3   OH217883   5.526   7.183   1.005
 5981TIP3    H117884   5.469   7.158   1.078
 5981TIP3    H217885   5.475   7.247   0.955
 5982TIP3   OH217886   7.095   0.434   4.564
 5982TIP3    H117887   7.058   0.499   4.504
 5982TIP3    H217888   7.186   0.425   4.536
 5983TIP3   OH217889   4.572   4.567   1.724
 5983TIP3    H117890   4.594   4.616   1.803
 5983TIP3    H217891   4.527   4.630   1.668
 5984TIP3   OH217892   1.932   5.590   3.257
 5984TIP3    H117893   1.927   5.645   3.178
 5984TIP3    H217894   1.900   5.504   3.229
 5985TIP3   OH217895   2.971   0.938   0.658
 5985TIP3    H117896   3.050   0.929   0.604
 5985TIP3    H217897   2.974   1.028   0.690
 5986TIP3   OH217898   7.511   0.351   2.333
 5986TIP3    H117899   7.480   0.435   2.365
 5986TIP3    H217900   7.456   0.333   2.257
 5987TIP3   OH217901   1.023   4.545   1.531
 5987TIP3    H117902   0.956   4.521   1.595
 5987TIP3    H217903   1.041   4.464   1.484
 5988TIP3   OH217904   4.752   7.848   2.041
 5988TIP3    H117905   4.827   7.885   1.994
 5988TIP3    H217906   4.676   7.870   1.987
 5989TIP3   OH217907   2.649   0.700   4.702
 5989TIP3    H117908   2.607   0.786   4.706
 5989TIP3    H217909   2.716   0.709   4.634
 5990TIP3   OH217910   2.967   4.296   0.131
 5990TIP3    H117911   2.958   4.201   0.123
 5990TIP3    H217912   2.904   4.332   0.069
 5991TIP3   OH217913   3.742   0.107   4.341
 5991TIP3    H117914   3.815   0.134   4.397
 5991TIP3    H217915   3.711   0.188   4.300
 5992TIP3   OH217916   0.062   7.911   3.430
 5992TIP3    H117917   0.148   7.947   3.448
 5992TIP3    H217918   0.033   7.874   3.513
 5993TIP3   OH217919   2.518   7.026   2.321
 5993TIP3    H117920   2.452   6.983   2.376
 5993TIP3    H217921   2.522   7.116   2.353
 5994TIP3   OH217922   6.739   0.977   2.095
 5994TIP3    H117923   6.676   0.931   2.151
 5994TIP3    H217924   6.824   0.946   2.125
 5995TIP3   OH217925   1.119   1.552   2.514
 5995TIP3    H117926   1.140   1.571   2.423
 5995TIP3    H217927   1.203   1.555   2.560
 5996TIP3   OH217928   0.429   7.032   5.566
 5996TIP3    H117929   0.508   7.085   5.559
 5996TIP3    H217930   0.371   7.083   5.623
 5997TIP3   OH217931   1.383   1.423   5.328
 5997TIP3    H117932   1.419   1.342   5.364
 5997TIP3    H217933   1.356   1.400   5.239
 5998TIP3   OH217934   2.875   2.887   5.315
 5998TIP3    H117935   2.868   2.865   5.408
 5998TIP3    H217936   2.914   2.810   5.275
 5999TIP3   OH217937   3.071   2.404   1.695
 5999TIP3    H117938   3.155   2.383   1.655
 5999TIP3    H217939   3.041   2.322   1.733
 6000TIP3   OH217940   0.217   3.929   2.816
 6000TIP3    H117941   0.275   4.004   2.802
 6000TIP3    H217942   0.154   3.960   2.881
 6001TIP3   OH217943   4.943   5.784   1.899
 6001TIP3    H117944   4.977   5.823   1.980
 6001TIP3    H217945   5.013   5.727   1.869
 6002TIP3   OH217946   1.492   3.020   4.257
 6002TIP3    H117947   1.545   2.944   4.280
 6002TIP3    H217948   1.409   2.983   4.228
 6003TIP3   OH217949   6.049   0.660   3.161
 6003TIP3    H117950   6.068   0.610   3.241
 6003TIP3    H217951   6.037   0.593   3.094
 6004TIP3   OH217952   0.722   2.095   5.656
 6004TIP3    H117953   0.754   2.016   5.700
 6004TIP3    H217954   0.668   2.139   5.722
 6005TIP3   OH217955   7.475   7.689   3.980
 6005TIP3    H117956   7.539   7.716   4.046
 6005TIP3    H217957   7.478   7.759   3.914
 6006TIP3   OH217958   7.868   2.205   6.553
 6006TIP3    H117959   7.911   2.174   6.633
 6006TIP3    H217960   7.898   2.145   6.485
 6007TIP3   OH217961   6.868   4.313   5.281
 6007TIP3    H117962   6.941   4.296   5.221
 6007TIP3    H217963   6.796   4.340   5.224
 6008TIP3   OH217964   6.793   3.009   3.651
 6008TIP3    H117965   6.706   3.021   3.613
 6008TIP3    H217966   6.791   3.058   3.733
 6009TIP3   OH217967   4.006   4.363   1.892
 6009TIP3    H117968   3.999   4.301   1.965
 6009TIP3    H217969   3.915   4.382   1.868
 6010TIP3   OH217970   1.147   7.109   1.351
 6010TIP3    H117971   1.169   7.057   1.428
 6010TIP3    H217972   1.093   7.180   1.385
 6011TIP3   OH217973   5.332   7.685   4.045
 6011TIP3    H117974   5.282   7.740   4.106
 6011TIP3    H217975   5.413   7.733   4.030
 6012TIP3   OH217976   0.095   7.537   6.444
 6012TIP3    H117977   0.021   7.574   6.396
 6012TIP3    H217978   0.056   7.471   6.501
 6013TIP3   OH217979   7.226   4.656   4.604
 6013TIP3    H117980   7.234   4.717   4.677
 6013TIP3    H217981   7.315   4.626   4.586
 6014TIP3   OH217982   3.430   5.540   4.610
 6014TIP3    H117983   3.350   5.508   4.654
 6014TIP3    H217984   3.473   5.594   4.677
 6015TIP3   OH217985   0.614   3.212   1.914
 6015TIP3    H117986   0.633   3.297   1.873
 6015TIP3    H217987   0.569   3.162   1.846
 6016TIP3   OH217988   4.758   6.869   1.330
 6016TIP3    H117989   4.734   6.895   1.419
 6016TIP3    H217990   4.825   6.932   1.304
 6017TIP3   OH217991   2.492   0.914   4.447
 6017TIP3    H117992   2.501   0.921   4.542
 6017TIP3    H217993   2.568   0.862   4.420
 6018TIP3   OH217994   3.602   4.027   3.258
 6018TIP3    H117995   3.533   3.976   3.215
 6018TIP3    H217996   3.560   4.060   3.338
 6019TIP3   OH217997   4.115   3.223   3.777
 6019TIP3    H117998   4.096   3.146   3.725
 6019TIP3    H217999   4.046   3.224   3.844
 6020TIP3   OH218000   6.144   0.663   6.071
 6020TIP3    H118001   6.084   0.667   6.145
 6020TIP3    H218002   6.120   0.738   6.016
 6021TIP3   OH218003   7.093   3.612   1.190
 6021TIP3    H118004   7.004   3.579   1.180
 6021TIP3    H218005   7.108   3.615   1.284
 6022TIP3   OH218006   1.513   3.175   3.406
 6022TIP3    H118007   1.523   3.132   3.321
 6022TIP3    H218008   1.600   3.173   3.445
 6023TIP3   OH218009   1.239   2.502   2.178
 6023TIP3    H118010   1.225   2.426   2.234
 6023TIP3    H218011   1.334   2.505   2.165
 6024TIP3   OH218012   7.911   2.012   5.993
 6024TIP3    H118013   7.890   2.105   6.001
 6024TIP3    H218014   7.843   1.976   5.936
 6025TIP3   OH218015   7.998   0.871   1.676
 6025TIP3    H118016   7.909   0.845   1.653
 6025TIP3    H218017   7.986   0.946   1.735
 6026TIP3   OH218018   2.136   2.534   2.968
 6026TIP3    H118019   2.135   2.442   2.991
 6026TIP3    H218020   2.219   2.548   2.924
 6027TIP3   OH218021   8.153   6.254   2.311
 6027TIP3    H118022   8.119   6.244   2.222
 6027TIP3    H218023   8.242   6.219   2.306
 6028TIP3   OH218024   6.322   5.673   4.502
 6028TIP3    H118025   6.340   5.642   4.413
 6028TIP3    H218026   6.268   5.604   4.541
 6029TIP3   OH218027   5.381   6.795   2.267
 6029TIP3    H118028   5.452   6.773   2.327
 6029TIP3    H218029   5.370   6.889   2.276
 6030TIP3   OH218030   0.166   0.009   1.434
 6030TIP3    H118031   0.097   0.022   1.369
 6030TIP3    H218032   0.132   0.050   1.514
 6031TIP3   OH218033   5.197   1.919   3.732
 6031TIP3    H118034   5.177   1.829   3.758
 6031TIP3    H218035   5.253   1.953   3.802
 6032TIP3   OH218036   4.341   2.116   3.365
 6032TIP3    H118037   4.328   2.124   3.270
 6032TIP3    H218038   4.343   2.021   3.380
 6033TIP3   OH218039   6.437   0.663   1.252
 6033TIP3    H118040   6.345   0.637   1.254
 6033TIP3    H218041   6.470   0.646   1.340
 6034TIP3   OH218042   1.369   0.254   2.148
 6034TIP3    H118043   1.287   0.291   2.179
 6034TIP3    H218044   1.344   0.177   2.098
 6035TIP3   OH218045   3.833   0.673   1.163
 6035TIP3    H118046   3.780   0.753   1.171
 6035TIP3    H218047   3.781   0.615   1.107
 6036TIP3   OH218048   0.278   7.587   6.099
 6036TIP3    H118049   0.288   7.650   6.170
 6036TIP3    H218050   0.337   7.619   6.030
 6037TIP3   OH218051   2.013   4.265   5.528
 6037TIP3    H118052   1.939   4.234   5.476
 6037TIP3    H218053   1.976   4.333   5.584
 6038TIP3   OH218054   3.235   3.989   2.306
 6038TIP3    H118055   3.286   3.961   2.230
 6038TIP3    H218056   3.301   4.008   2.373
 6039TIP3   OH218057   7.457   2.008   0.739
 6039TIP3    H118058   7.386   1.952   0.770
 6039TIP3    H218059   7.530   1.991   0.799
 6040TIP3   OH218060   4.616   5.843   5.545
 6040TIP3    H118061   4.601   5.751   5.527
 6040TIP3    H218062   4.543   5.869   5.601
 6041TIP3   OH218063   4.983   6.441   3.686
 6041TIP3    H118064   4.889   6.424   3.676
 6041TIP3    H218065   4.995   6.460   3.779
 6042TIP3   OH218066   2.349   7.675   1.342
 6042TIP3    H118067   2.316   7.585   1.345
 6042TIP3    H218068   2.302   7.720   1.413
 6043TIP3   OH218069   0.868   3.730   5.780
 6043TIP3    H118070   0.828   3.651   5.742
 6043TIP3    H218071   0.856   3.720   5.874
 6044TIP3   OH218072   1.051   5.094   0.926
 6044TIP3    H118073   1.055   5.006   0.962
 6044TIP3    H218074   1.143   5.122   0.920
 6045TIP3   OH218075   0.900   5.920   2.584
 6045TIP3    H118076   0.938   5.910   2.496
 6045TIP3    H218077   0.927   5.841   2.631
 6046TIP3   OH218078   0.392   4.387   1.967
 6046TIP3    H118079   0.447   4.310   1.985
 6046TIP3    H218080   0.337   4.394   2.045
 6047TIP3   OH218081   6.566   2.514   5.747
 6047TIP3    H118082   6.489   2.539   5.799
 6047TIP3    H218083   6.638   2.512   5.810
 6048TIP3   OH218084   7.014   4.915   5.447
 6048TIP3    H118085   6.971   4.992   5.485
 6048TIP3    H218086   7.087   4.950   5.396
 6049TIP3   OH218087   4.783   5.403   3.091
 6049TIP3    H118088   4.873   5.435   3.100
 6049TIP3    H218089   4.764   5.410   2.998
 6050TIP3   OH218090   3.848   6.886   0.093
 6050TIP3    H118091   3.756   6.871   0.069
 6050TIP3    H218092   3.852   6.864   0.186
 6051TIP3   OH218093   7.284   6.082   5.621
 6051TIP3    H118094   7.315   6.025   5.550
 6051TIP3    H218095   7.357   6.084   5.684
 6052TIP3   OH218096   2.219   4.208   0.974
 6052TIP3    H118097   2.272   4.132   0.949
 6052TIP3    H218098   2.174   4.233   0.893
 6053TIP3   OH218099   2.612   2.857   5.305
 6053TIP3    H118100   2.704   2.883   5.309
 6053TIP3    H218101   2.601   2.796   5.378
 6054TIP3   OH218102   4.390   6.364   2.015
 6054TIP3    H118103   4.429   6.306   2.081
 6054TIP3    H218104   4.332   6.421   2.065
 6055TIP3   OH218105   5.345   2.946   0.212
 6055TIP3    H118106   5.323   2.853   0.216
 6055TIP3    H218107   5.261   2.989   0.198
 6056TIP3   OH218108   3.091   1.175   6.532
 6056TIP3    H118109   3.132   1.254   6.496
 6056TIP3    H218110   3.007   1.205   6.567
 6057TIP3   OH218111   5.352   7.634   0.689
 6057TIP3    H118112   5.281   7.598   0.635
 6057TIP3    H218113   5.334   7.602   0.777
 6058TIP3   OH218114   0.829   6.707   1.604
 6058TIP3    H118115   0.879   6.725   1.683
 6058TIP3    H218116   0.848   6.615   1.585
 6059TIP3   OH218117   7.260   1.379   4.397
 6059TIP3    H118118   7.308   1.352   4.319
 6059TIP3    H218119   7.184   1.321   4.399
 6060TIP3   OH218120   4.820   1.724   3.368
 6060TIP3    H118121   4.812   1.812   3.331
 6060TIP3    H218122   4.912   1.702   3.357
 6061TIP3   OH218123   2.948   4.617   1.635
 6061TIP3    H118124   2.991   4.538   1.601
 6061TIP3    H218125   3.017   4.683   1.634
 6062TIP3   OH218126   7.343   5.834   1.983
 6062TIP3    H118127   7.291   5.834   2.063
 6062TIP3    H218128   7.380   5.922   1.979
 6063TIP3   OH218129   7.202   6.699   2.998
 6063TIP3    H118130   7.264   6.749   3.051
 6063TIP3    H218131   7.136   6.669   3.060
 6064TIP3   OH218132   3.977   0.093   4.889
 6064TIP3    H118133   3.916   0.153   4.847
 6064TIP3    H218134   4.049   0.085   4.827
 6065TIP3   OH218135   0.013   6.636   5.661
 6065TIP3    H118136   0.081   6.664   5.723
 6065TIP3    H218137   0.053   6.647   5.575
 6066TIP3   OH218138   2.290   1.600   3.495
 6066TIP3    H118139   2.267   1.533   3.559
 6066TIP3    H218140   2.386   1.600   3.494
 6067TIP3   OH218141   5.786   2.251   2.226
 6067TIP3    H118142   5.845   2.273   2.299
 6067TIP3    H218143   5.717   2.317   2.231
 6068TIP3   OH218144   0.372   5.162   2.887
 6068TIP3    H118145   0.321   5.103   2.943
 6068TIP3    H218146   0.374   5.118   2.802
 6069TIP3   OH218147   1.523   5.413   6.769
 6069TIP3    H118148   1.556   5.343   6.711
 6069TIP3    H218149   1.513   5.489   6.711
 6070TIP3   OH218150   0.824   6.227   3.784
 6070TIP3    H118151   0.866   6.154   3.830
 6070TIP3    H218152   0.887   6.251   3.716
 6071TIP3   OH218153   4.727   6.846   2.738
 6071TIP3    H118154   4.763   6.773   2.690
 6071TIP3    H218155   4.708   6.913   2.672
 6072TIP3   OH218156   4.148   6.509   4.045
 6072TIP3    H118157   4.067   6.462   4.066
 6072TIP3    H218158   4.211   6.439   4.024
 6073TIP3   OH218159   3.011   1.682   0.853
 6073TIP3    H118160   2.950   1.615   0.884
 6073TIP3    H218161   2.955   1.755   0.827
 6074TIP3   OH218162   7.312   5.465   1.286
 6074TIP3    H118163   7.301   5.489   1.378
 6074TIP3    H218164   7.367   5.533   1.250
 6075TIP3   OH218165   7.544   1.712   3.698
 6075TIP3    H118166   7.581   1.632   3.660
 6075TIP3    H218167   7.615   1.776   3.693
 6076TIP3   OH218168   6.181   1.057   2.697
 6076TIP3    H118169   6.122   1.092   2.764
 6076TIP3    H218170   6.266   1.048   2.742
 6077TIP3   OH218171   7.612   7.866   6.892
 6077TIP3    H118172   7.574   7.796   6.839
 6077TIP3    H218173   7.680   7.903   6.836
 6078TIP3   OH218174   0.400   6.025   5.431
 6078TIP3    H118175   0.374   5.933   5.429
 6078TIP3    H218176   0.325   6.071   5.470
 6079TIP3   OH218177   0.199   7.019   0.195
 6079TIP3    H118178   0.246   7.062   0.266
 6079TIP3    H218179   0.233   7.060   0.115
 6080TIP3   OH218180   5.449   1.263   3.833
 6080TIP3    H118181   5.543   1.253   3.849
 6080TIP3    H218182   5.430   1.354   3.857
 6081TIP3   OH218183   5.554   7.899   1.268
 6081TIP3    H118184   5.620   7.874   1.204
 6081TIP3    H218185   5.523   7.816   1.305
 6082TIP3   OH218186   1.666   4.536   1.215
 6082TIP3    H118187   1.656   4.624   1.177
 6082TIP3    H218188   1.576   4.504   1.223
 6083TIP3   OH218189   2.662   2.230   1.745
 6083TIP3    H118190   2.605   2.305   1.760
 6083TIP3    H218191   2.749   2.259   1.772
 6084TIP3   OH218192   8.117   3.274   6.386
 6084TIP3    H118193   8.060   3.198   6.381
 6084TIP3    H218194   8.200   3.245   6.348
 6085TIP3   OH218195   0.280   1.603   2.553
 6085TIP3    H118196   0.365   1.564   2.570
 6085TIP3    H218197   0.290   1.695   2.579
 6086TIP3   OH218198   1.019   4.324   3.694
 6086TIP3    H118199   1.006   4.419   3.688
 6086TIP3    H218200   1.114   4.313   3.692
 6087TIP3   OH218201   3.934   4.775   0.067
 6087TIP3    H118202   3.912   4.848   0.009
 6087TIP3    H218203   3.874   4.787   0.142
 6088TIP3   OH218204   6.331   0.222   5.020
 6088TIP3    H118205   6.411   0.199   4.973
 6088TIP3    H218206   6.272   0.256   4.952
 6089TIP3   OH218207   1.677   3.984   1.604
 6089TIP3    H118208   1.703   4.076   1.601
 6089TIP3    H218209   1.747   3.940   1.652
 6090TIP3   OH218210   7.850   1.017   0.170
 6090TIP3    H118211   7.762   0.979   0.174
 6090TIP3    H218212   7.843   1.098   0.219
 6091TIP3   OH218213   5.280   0.221   3.279
 6091TIP3    H118214   5.298   0.160   3.208
 6091TIP3    H218215   5.250   0.166   3.351
 6092TIP3   OH218216   1.483   2.137   4.734
 6092TIP3    H118217   1.466   2.055   4.779
 6092TIP3    H218218   1.500   2.200   4.804
 6093TIP3   OH218219   2.182   4.002   0.656
 6093TIP3    H118220   2.263   3.952   0.660
 6093TIP3    H218221   2.121   3.944   0.609
 6094TIP3   OH218222   8.099   0.784   3.651
 6094TIP3    H118223   8.139   0.697   3.644
 6094TIP3    H218224   8.146   0.825   3.723
 6095TIP3   OH218225   3.248   3.018   0.186
 6095TIP3    H118226   3.313   3.066   0.237
 6095TIP3    H218227   3.239   3.068   0.105
 6096TIP3   OH218228   8.226   3.433   2.365
 6096TIP3    H118229   8.150   3.492   2.369
 6096TIP3    H218230   8.249   3.431   2.272
 6097TIP3   OH218231   3.926   3.283   2.322
 6097TIP3    H118232   3.974   3.221   2.267
 6097TIP3    H218233   3.860   3.320   2.265
 6098TIP3   OH218234   4.958   1.850   1.097
 6098TIP3    H118235   4.972   1.843   1.191
 6098TIP3    H218236   4.876   1.802   1.081
 6099TIP3   OH218237   3.184   7.732   0.559
 6099TIP3    H118238   3.156   7.724   0.650
 6099TIP3    H218239   3.126   7.674   0.510
 6100TIP3   OH218240   2.210   2.763   5.995
 6100TIP3    H118241   2.174   2.852   5.998
 6100TIP3    H218242   2.133   2.707   5.981
 6101TIP3   OH218243   7.029   7.056   6.798
 6101TIP3    H118244   7.080   7.137   6.795
 6101TIP3    H218245   7.002   7.042   6.707
 6102TIP3   OH218246   5.533   5.599   3.683
 6102TIP3    H118247   5.578   5.681   3.706
 6102TIP3    H218248   5.601   5.532   3.691
 6103TIP3   OH218249   6.917   2.941   4.337
 6103TIP3    H118250   6.980   2.869   4.338
 6103TIP3    H218251   6.834   2.901   4.365
 6104TIP3   OH218252   7.590   7.185   4.146
 6104TIP3    H118253   7.653   7.167   4.076
 6104TIP3    H218254   7.643   7.222   4.216
 6105TIP3   OH218255   5.482   5.155   5.596
 6105TIP3    H118256   5.551   5.187   5.654
 6105TIP3    H218257   5.526   5.143   5.511
 6106TIP3   OH218258   3.297   7.290   5.338
 6106TIP3    H118259   3.354   7.253   5.271
 6106TIP3    H218260   3.289   7.220   5.403
 6107TIP3   OH218261   5.003   7.760   2.342
 6107TIP3    H118262   5.075   7.728   2.288
 6107TIP3    H218263   5.032   7.844   2.375
 6108TIP3   OH218264   6.380   5.137   2.052
 6108TIP3    H118265   6.430   5.129   1.970
 6108TIP3    H218266   6.396   5.054   2.098
 6109TIP3   OH218267   0.739   6.710   5.160
 6109TIP3    H118268   0.663   6.765   5.138
 6109TIP3    H218269   0.725   6.630   5.109
 6110TIP3   OH218270   7.836   0.131   1.321
 6110TIP3    H118271   7.836   0.157   1.229
 6110TIP3    H218272   7.917   0.082   1.332
 6111TIP3   OH218273   4.215   7.629   0.436
 6111TIP3    H118274   4.230   7.550   0.488
 6111TIP3    H218275   4.120   7.636   0.429
 6112TIP3   OH218276   8.459   0.806   0.627
 6112TIP3    H118277   8.437   0.883   0.573
 6112TIP3    H218278   8.377   0.757   0.633
 6113TIP3   OH218279   3.422   1.314   4.419
 6113TIP3    H118280   3.482   1.389   4.421
 6113TIP3    H218281   3.345   1.346   4.372
 6114TIP3   OH218282   3.345   3.531   0.432
 6114TIP3    H118283   3.370   3.514   0.523
 6114TIP3    H218284   3.371   3.622   0.417
 6115TIP3   OH218285   5.639   0.968   2.334
 6115TIP3    H118286   5.693   0.919   2.270
 6115TIP3    H218287   5.690   1.046   2.353
 6116TIP3   OH218288   5.203   7.412   4.226
 6116TIP3    H118289   5.281   7.431   4.174
 6116TIP3    H218290   5.131   7.455   4.179
 6117TIP3   OH218291   7.108   5.964   6.037
 6117TIP3    H118292   7.201   5.968   6.057
 6117TIP3    H218293   7.104   5.915   5.955
 6118TIP3   OH218294   0.985   4.137   0.388
 6118TIP3    H118295   0.924   4.129   0.462
 6118TIP3    H218296   1.071   4.146   0.429
 6119TIP3   OH218297   5.613   5.905   4.156
 6119TIP3    H118298   5.532   5.956   4.147
 6119TIP3    H218299   5.682   5.971   4.161
 6120TIP3   OH218300   0.647   1.165   1.620
 6120TIP3    H118301   0.626   1.143   1.711
 6120TIP3    H218302   0.676   1.083   1.581
 6121TIP3   OH218303   5.417   7.080   5.095
 6121TIP3    H118304   5.486   7.064   5.030
 6121TIP3    H218305   5.336   7.058   5.049
 6122TIP3   OH218306   5.366   7.193   2.975
 6122TIP3    H118307   5.341   7.285   2.963
 6122TIP3    H218308   5.400   7.190   3.065
 6123TIP3   OH218309   7.681   4.585   5.009
 6123TIP3    H118310   7.731   4.617   4.934
 6123TIP3    H218311   7.606   4.538   4.970
 6124TIP3   OH218312   7.594   6.987   1.148
 6124TIP3    H118313   7.637   6.909   1.111
 6124TIP3    H218314   7.663   7.052   1.153
 6125TIP3   OH218315   8.315   3.650   4.030
 6125TIP3    H118316   8.348   3.653   4.120
 6125TIP3    H218317   8.338   3.736   3.994
 6126TIP3   OH218318   8.247   3.624   5.044
 6126TIP3    H118319   8.245   3.645   5.138
 6126TIP3    H218320   8.186   3.686   5.005
 6127TIP3   OH218321   2.103   4.447   6.632
 6127TIP3    H118322   2.147   4.362   6.621
 6127TIP3    H218323   2.173   4.512   6.620
 6128TIP3   OH218324   3.697   2.873   5.580
 6128TIP3    H118325   3.732   2.784   5.586
 6128TIP3    H218326   3.713   2.898   5.489
 6129TIP3   OH218327   1.834   0.425   2.728
 6129TIP3    H118328   1.913   0.447   2.777
 6129TIP3    H218329   1.804   0.509   2.693
 6130TIP3   OH218330   0.591   7.879   2.563
 6130TIP3    H118331   0.543   7.804   2.529
 6130TIP3    H218332   0.600   7.938   2.489
 6131TIP3   OH218333   3.059   5.987   4.802
 6131TIP3    H118334   3.152   6.005   4.790
 6131TIP3    H218335   3.032   5.947   4.720
 6132TIP3   OH218336   5.217   2.725   6.275
 6132TIP3    H118337   5.292   2.784   6.285
 6132TIP3    H218338   5.147   2.779   6.239
 6133TIP3   OH218339   2.483   5.528   5.062
 6133TIP3    H118340   2.449   5.611   5.095
 6133TIP3    H218341   2.431   5.510   4.983
 6134TIP3   OH218342   7.331   1.845   0.051
 6134TIP3    H118343   7.356   1.761   0.012
 6134TIP3    H218344   7.237   1.840   0.063
 6135TIP3   OH218345   3.486   1.166   3.844
 6135TIP3    H118346   3.529   1.146   3.761
 6135TIP3    H218347   3.460   1.081   3.879
 6136TIP3   OH218348   6.699   4.561   5.462
 6136TIP3    H118349   6.687   4.516   5.379
 6136TIP3    H218350   6.793   4.557   5.479
 6137TIP3   OH218351   1.849   3.846   4.867
 6137TIP3    H118352   1.913   3.911   4.838
 6137TIP3    H218353   1.902   3.772   4.897
 6138TIP3   OH218354   5.226   3.059   1.938
 6138TIP3    H118355   5.191   3.093   1.855
 6138TIP3    H218356   5.293   3.122   1.964
 6139TIP3   OH218357   3.393   7.734   5.260
 6139TIP3    H118358   3.435   7.728   5.174
 6139TIP3    H218359   3.332   7.808   5.252
 6140TIP3   OH218360   0.375   0.015   6.260
 6140TIP3    H118361   0.414   0.069   6.329
 6140TIP3    H218362   0.430   0.031   6.183
 6141TIP3   OH218363   4.521   7.578   1.368
 6141TIP3    H118364   4.471   7.635   1.427
 6141TIP3    H218365   4.577   7.526   1.426
 6142TIP3   OH218366   1.580   1.841   0.618
 6142TIP3    H118367   1.556   1.933   0.628
 6142TIP3    H218368   1.506   1.801   0.572
 6143TIP3   OH218369   6.848   5.164   1.860
 6143TIP3    H118370   6.868   5.184   1.952
 6143TIP3    H218371   6.762   5.205   1.846
 6144TIP3   OH218372   7.210   3.791   0.767
 6144TIP3    H118373   7.167   3.757   0.689
 6144TIP3    H218374   7.138   3.818   0.825
 6145TIP3   OH218375   5.923   6.470   5.705
 6145TIP3    H118376   5.873   6.535   5.754
 6145TIP3    H218377   5.864   6.444   5.634
 6146TIP3   OH218378   7.833   1.977   1.390
 6146TIP3    H118379   7.839   1.928   1.472
 6146TIP3    H218380   7.903   1.942   1.336
 6147TIP3   OH218381   3.621   1.255   6.394
 6147TIP3    H118382   3.641   1.269   6.487
 6147TIP3    H218383   3.551   1.190   6.394
 6148TIP3   OH218384   1.962   4.624   0.649
 6148TIP3    H118385   2.025   4.690   0.676
 6148TIP3    H218386   1.886   4.639   0.704
 6149TIP3   OH218387   0.809   3.803   0.071
 6149TIP3    H118388   0.840   3.765   0.154
 6149TIP3    H218389   0.874   3.868   0.048
 6150TIP3   OH218390   7.217   7.784   4.162
 6150TIP3    H118391   7.305   7.746   4.153
 6150TIP3    H218392   7.190   7.804   4.073
 6151TIP3   OH218393   6.700   3.092   3.965
 6151TIP3    H118394   6.654   3.113   4.047
 6151TIP3    H218395   6.759   3.166   3.951
 6152TIP3   OH218396   4.424   5.054   5.832
 6152TIP3    H118397   4.489   5.035   5.900
 6152TIP3    H218398   4.475   5.093   5.761
 6153TIP3   OH218399   4.197   5.036   4.702
 6153TIP3    H118400   4.111   5.035   4.746
 6153TIP3    H218401   4.212   5.129   4.683
 6154TIP3   OH218402   7.637   5.398   0.137
 6154TIP3    H118403   7.549   5.404   0.174
 6154TIP3    H218404   7.696   5.412   0.211
 6155TIP3   OH218405   0.983   3.632   5.088
 6155TIP3    H118406   0.966   3.602   4.998
 6155TIP3    H218407   0.897   3.632   5.130
 6156TIP3   OH218408   1.890   0.386   3.048
 6156TIP3    H118409   1.947   0.431   2.986
 6156TIP3    H218410   1.921   0.412   3.134
 6157TIP3   OH218411   1.735   3.561   5.593
 6157TIP3    H118412   1.816   3.512   5.608
 6157TIP3    H218413   1.759   3.629   5.531
 6158TIP3   OH218414   1.819   6.251   6.532
 6158TIP3    H118415   1.832   6.303   6.612
 6158TIP3    H218416   1.723   6.245   6.523
 6159TIP3   OH218417   4.663   3.361   0.472
 6159TIP3    H118418   4.737   3.357   0.410
 6159TIP3    H218419   4.640   3.269   0.486
 6160TIP3   OH218420   8.109   3.684   5.276
 6160TIP3    H118421   8.116   3.717   5.366
 6160TIP3    H218422   8.015   3.672   5.263
 6161TIP3   OH218423   6.593   1.669   6.858
 6161TIP3    H118424   6.655   1.639   6.792
 6161TIP3    H218425   6.572   1.759   6.833
 6162TIP3   OH218426   5.260   2.134   5.727
 6162TIP3    H118427   5.232   2.193   5.797
 6162TIP3    H218428   5.315   2.069   5.771
 6163TIP3   OH218429   7.844   0.555   0.634
 6163TIP3    H118430   7.848   0.637   0.584
 6163TIP3    H218431   7.801   0.578   0.715
 6164TIP3   OH218432   6.785   6.719   3.229
 6164TIP3    H118433   6.758   6.728   3.320
 6164TIP3    H218434   6.719   6.768   3.180
 6165TIP3   OH218435   3.678   0.889   3.462
 6165TIP3    H118436   3.669   0.795   3.448
 6165TIP3    H218437   3.762   0.912   3.422
 6166TIP3   OH218438   5.270   0.532   2.044
 6166TIP3    H118439   5.237   0.573   2.124
 6166TIP3    H218440   5.287   0.606   1.985
 6167TIP3   OH218441   7.072   4.405   3.838
 6167TIP3    H118442   7.066   4.356   3.920
 6167TIP3    H218443   7.011   4.477   3.849
 6168TIP3   OH218444   3.803   7.878   3.333
 6168TIP3    H118445   3.824   7.917   3.247
 6168TIP3    H218446   3.713   7.847   3.324
 6169TIP3   OH218447   2.174   2.173   6.542
 6169TIP3    H118448   2.180   2.200   6.450
 6169TIP3    H218449   2.260   2.190   6.579
 6170TIP3   OH218450   7.066   6.964   1.447
 6170TIP3    H118451   7.108   7.012   1.517
 6170TIP3    H218452   7.068   6.873   1.476
 6171TIP3   OH218453   0.145   5.552   1.206
 6171TIP3    H118454   0.233   5.552   1.245
 6171TIP3    H218455   0.108   5.468   1.231
 6172TIP3   OH218456   0.169   0.648   3.191
 6172TIP3    H118457   0.245   0.594   3.213
 6172TIP3    H218458   0.170   0.717   3.257
 6173TIP3   OH218459   5.817   2.639   3.359
 6173TIP3    H118460   5.780   2.679   3.280
 6173TIP3    H218461   5.885   2.700   3.387
 6174TIP3   OH218462   6.848   2.837   2.502
 6174TIP3    H118463   6.828   2.846   2.595
 6174TIP3    H218464   6.854   2.927   2.470
 6175TIP3   OH218465   6.060   3.765   2.230
 6175TIP3    H118466   6.100   3.817   2.161
 6175TIP3    H218467   6.061   3.675   2.198
 6176TIP3   OH218468   2.542   7.862   3.449
 6176TIP3    H118469   2.505   7.828   3.367
 6176TIP3    H218470   2.480   7.928   3.477
 6177TIP3   OH218471   1.735   7.142   3.659
 6177TIP3    H118472   1.808   7.080   3.662
 6177TIP3    H218473   1.670   7.100   3.602
 6178TIP3   OH218474   5.481   7.358   3.681
 6178TIP3    H118475   5.430   7.438   3.667
 6178TIP3    H218476   5.553   7.384   3.738
 6179TIP3   OH218477   4.222   1.100   5.060
 6179TIP3    H118478   4.153   1.117   5.124
 6179TIP3    H218479   4.303   1.101   5.111
 6180TIP3   OH218480   2.337   5.791   2.600
 6180TIP3    H118481   2.367   5.857   2.663
 6180TIP3    H218482   2.318   5.840   2.521
 6181TIP3   OH218483   2.436   2.655   6.390
 6181TIP3    H118484   2.343   2.669   6.410
 6181TIP3    H218485   2.436   2.608   6.307
 6182TIP3   OH218486   0.990   2.001   1.969
 6182TIP3    H118487   0.934   2.069   2.006
 6182TIP3    H218488   1.076   2.017   2.005
 6183TIP3   OH218489   7.457   6.178   2.682
 6183TIP3    H118490   7.376   6.214   2.719
 6183TIP3    H218491   7.508   6.151   2.758
 6184TIP3   OH218492   7.611   1.982   1.225
 6184TIP3    H118493   7.545   1.937   1.279
 6184TIP3    H218494   7.694   1.966   1.269
 6185TIP3   OH218495   3.254   6.014   0.558
 6185TIP3    H118496   3.160   5.996   0.568
 6185TIP3    H218497   3.291   5.933   0.523
 6186TIP3   OH218498   3.694   2.566   3.158
 6186TIP3    H118499   3.746   2.584   3.237
 6186TIP3    H218500   3.759   2.559   3.088
 6187TIP3   OH218501   2.451   5.952   4.650
 6187TIP3    H118502   2.389   6.025   4.651
 6187TIP3    H218503   2.519   5.978   4.588
 6188TIP3   OH218504   0.412   0.477   2.256
 6188TIP3    H118505   0.323   0.501   2.282
 6188TIP3    H218506   0.400   0.418   2.181
 6189TIP3   OH218507   1.346   7.899   3.526
 6189TIP3    H118508   1.413   7.966   3.542
 6189TIP3    H218509   1.379   7.821   3.571
 6190TIP3   OH218510   7.804   4.055   1.831
 6190TIP3    H118511   7.839   4.010   1.908
 6190TIP3    H218512   7.841   4.006   1.757
 6191TIP3   OH218513   2.640   0.240   4.930
 6191TIP3    H118514   2.621   0.330   4.903
 6191TIP3    H218515   2.589   0.228   5.010
 6192TIP3   OH218516   7.377   1.711   2.253
 6192TIP3    H118517   7.456   1.708   2.308
 6192TIP3    H218518   7.352   1.804   2.252
 6193TIP3   OH218519   1.657   1.222   1.093
 6193TIP3    H118520   1.665   1.157   1.163
 6193TIP3    H218521   1.747   1.248   1.074
 6194TIP3   OH218522   4.772   7.750   4.846
 6194TIP3    H118523   4.680   7.724   4.841
 6194TIP3    H218524   4.777   7.809   4.921
 6195TIP3   OH218525   1.476   1.518   6.143
 6195TIP3    H118526   1.422   1.471   6.080
 6195TIP3    H218527   1.443   1.608   6.141
 6196TIP3   OH218528   1.296   1.185   3.506
 6196TIP3    H118529   1.333   1.140   3.582
 6196TIP3    H218530   1.206   1.205   3.532
 6197TIP3   OH218531   0.083   0.106   2.113
 6197TIP3    H118532   0.093   0.176   2.048
 6197TIP3    H218533   0.157   0.048   2.098
 6198TIP3   OH218534   0.141   0.238   4.212
 6198TIP3    H118535   0.133   0.332   4.196
 6198TIP3    H218536   0.079   0.197   4.152
 6199TIP3   OH218537   7.817   3.392   5.741
 6199TIP3    H118538   7.873   3.318   5.762
 6199TIP3    H218539   7.730   3.353   5.727
 6200TIP3   OH218540   0.059   4.999   3.300
 6200TIP3    H118541   0.016   4.920   3.334
 6200TIP3    H218542   0.128   5.018   3.364
 6201TIP3   OH218543   1.294   6.933   4.960
 6201TIP3    H118544   1.247   6.951   5.041
 6201TIP3    H218545   1.379   6.899   4.989
 6202TIP3   OH218546   1.046   5.010   0.147
 6202TIP3    H118547   0.980   4.989   0.080
 6202TIP3    H218548   1.113   5.059   0.099
 6203TIP3   OH218549   2.465   7.334   6.107
 6203TIP3    H118550   2.482   7.429   6.112
 6203TIP3    H218551   2.495   7.300   6.191
 6204TIP3   OH218552   3.307   1.283   6.182
 6204TIP3    H118553   3.295   1.361   6.237
 6204TIP3    H218554   3.352   1.316   6.104
 6205TIP3   OH218555   5.387   7.756   4.767
 6205TIP3    H118556   5.467   7.807   4.780
 6205TIP3    H218557   5.412   7.666   4.787
 6206TIP3   OH218558   2.918   3.145   6.521
 6206TIP3    H118559   2.994   3.089   6.539
 6206TIP3    H218560   2.904   3.194   6.602
 6207TIP3   OH218561   0.425   0.765   3.042
 6207TIP3    H118562   0.517   0.737   3.047
 6207TIP3    H218563   0.394   0.761   3.132
 6208TIP3   OH218564   2.119   1.759   2.700
 6208TIP3    H118565   2.046   1.760   2.762
 6208TIP3    H218566   2.092   1.695   2.633
 6209TIP3   OH218567   8.065   5.507   1.251
 6209TIP3    H118568   8.128   5.568   1.212
 6209TIP3    H218569   8.072   5.427   1.198
 6210TIP3   OH218570   7.243   5.133   0.502
 6210TIP3    H118571   7.166   5.178   0.535
 6210TIP3    H218572   7.211   5.048   0.472
 6211TIP3   OH218573   3.631   6.434   4.579
 6211TIP3    H118574   3.681   6.515   4.580
 6211TIP3    H218575   3.642   6.401   4.490
 6212TIP3   OH218576   5.523   0.069   5.092
 6212TIP3    H118577   5.572   0.149   5.074
 6212TIP3    H218578   5.529   0.018   5.012
 6213TIP3   OH218579   4.236   0.909   4.848
 6213TIP3    H118580   4.264   0.842   4.910
 6213TIP3    H218581   4.228   0.989   4.900
 6214TIP3   OH218582   5.536   3.491   4.199
 6214TIP3    H118583   5.577   3.467   4.116
 6214TIP3    H218584   5.546   3.414   4.254
 6215TIP3   OH218585   2.238   2.542   4.967
 6215TIP3    H118586   2.191   2.617   4.932
 6215TIP3    H218587   2.285   2.506   4.892
 6216TIP3   OH218588   3.610   6.311   0.103
 6216TIP3    H118589   3.664   6.318   0.024
 6216TIP3    H218590   3.599   6.217   0.116
 6217TIP3   OH218591   1.974   7.336   4.545
 6217TIP3    H118592   1.968   7.404   4.478
 6217TIP3    H218593   1.984   7.255   4.495
 6218TIP3   OH218594   6.859   6.720   2.854
 6218TIP3    H118595   6.951   6.727   2.828
 6218TIP3    H218596   6.830   6.811   2.864
 6219TIP3   OH218597   3.878   3.997   5.434
 6219TIP3    H118598   3.973   4.011   5.437
 6219TIP3    H218599   3.851   3.995   5.526
 6220TIP3   OH218600   2.944   6.050   2.801
 6220TIP3    H118601   3.006   6.123   2.798
 6220TIP3    H218602   2.975   5.989   2.735
 6221TIP3   OH218603   1.498   2.513   4.815
 6221TIP3    H118604   1.469   2.455   4.886
 6221TIP3    H218605   1.591   2.524   4.830
 6222TIP3   OH218606   6.132   3.269   5.193
 6222TIP3    H118607   6.042   3.239   5.185
 6222TIP3    H218608   6.132   3.357   5.155
 6223TIP3   OH218609   8.369   7.874   0.599
 6223TIP3    H118610   8.304   7.915   0.655
 6223TIP3    H218611   8.331   7.877   0.511
 6224TIP3   OH218612   2.227   3.473   2.078
 6224TIP3    H118613   2.315   3.510   2.077
 6224TIP3    H218614   2.232   3.397   2.020
 6225TIP3   OH218615   4.811   0.098   2.648
 6225TIP3    H118616   4.803   0.050   2.731
 6225TIP3    H218617   4.771   0.184   2.667
 6226TIP3   OH218618   0.874   5.104   3.205
 6226TIP3    H118619   0.780   5.105   3.189
 6226TIP3    H218620   0.885   5.149   3.289
 6227TIP3   OH218621   7.628   4.912   1.115
 6227TIP3    H118622   7.649   4.827   1.077
 6227TIP3    H218623   7.712   4.950   1.137
 6228TIP3   OH218624   2.456   6.693   2.195
 6228TIP3    H118625   2.521   6.640   2.150
 6228TIP3    H218626   2.414   6.744   2.125
 6229TIP3   OH218627   6.357   1.552   5.378
 6229TIP3    H118628   6.310   1.634   5.391
 6229TIP3    H218629   6.292   1.492   5.340
 6230TIP3   OH218630   1.521   0.490   5.256
 6230TIP3    H118631   1.595   0.462   5.202
 6230TIP3    H218632   1.491   0.571   5.216
 6231TIP3   OH218633   0.898   3.261   4.572
 6231TIP3    H118634   0.849   3.313   4.636
 6231TIP3    H218635   0.990   3.274   4.596
 6232TIP3   OH218636   7.714   4.290   3.961
 6232TIP3    H118637   7.770   4.280   4.038
 6232TIP3    H218638   7.703   4.385   3.952
 6233TIP3   OH218639   4.541   0.492   6.163
 6233TIP3    H118640   4.500   0.473   6.079
 6233TIP3    H218641   4.473   0.477   6.228
 6234TIP3   OH218642   4.981   5.287   6.896
 6234TIP3    H118643   5.025   5.351   6.952
 6234TIP3    H218644   4.970   5.332   6.812
 6235TIP3   OH218645   8.110   5.266   5.335
 6235TIP3    H118646   8.135   5.341   5.388
 6235TIP3    H218647   8.026   5.238   5.372
 6236TIP3   OH218648   7.116   3.905   4.553
 6236TIP3    H118649   7.189   3.855   4.517
 6236TIP3    H218650   7.157   3.972   4.608
 6237TIP3   OH218651   4.699   5.770   0.113
 6237TIP3    H118652   4.638   5.716   0.063
 6237TIP3    H218653   4.745   5.821   0.047
 6238TIP3   OH218654   6.078   3.259   3.516
 6238TIP3    H118655   6.170   3.265   3.542
 6238TIP3    H218656   6.080   3.263   3.420
 6239TIP3   OH218657   7.265   2.191   3.831
 6239TIP3    H118658   7.172   2.180   3.852
 6239TIP3    H218659   7.266   2.243   3.751
 6240TIP3   OH218660   2.457   4.615   0.815
 6240TIP3    H118661   2.422   4.566   0.889
 6240TIP3    H218662   2.477   4.548   0.750
 6241TIP3   OH218663   6.175   3.447   6.626
 6241TIP3    H118664   6.246   3.512   6.627
 6241TIP3    H218665   6.143   3.448   6.536
 6242TIP3   OH218666   3.385   5.121   5.971
 6242TIP3    H118667   3.343   5.205   5.953
 6242TIP3    H218668   3.471   5.128   5.930
 6243TIP3   OH218669   8.080   7.312   0.558
 6243TIP3    H118670   8.071   7.407   0.557
 6243TIP3    H218671   8.048   7.285   0.644
 6244TIP3   OH218672   2.673   0.704   0.843
 6244TIP3    H118673   2.630   0.727   0.926
 6244TIP3    H218674   2.609   0.727   0.776
 6245TIP3   OH218675   3.067   5.310   2.288
 6245TIP3    H118676   3.063   5.295   2.193
 6245TIP3    H218677   3.160   5.303   2.309
 6246TIP3   OH218678   4.267   5.104   0.895
 6246TIP3    H118679   4.350   5.120   0.849
 6246TIP3    H218680   4.286   5.031   0.953
 6247TIP3   OH218681  -0.019   5.109   4.308
 6247TIP3    H118682  -0.024   5.029   4.360
 6247TIP3    H218683   0.072   5.136   4.314
 6248TIP3   OH218684   7.976   0.531   2.399
 6248TIP3    H118685   7.996   0.474   2.472
 6248TIP3    H218686   7.880   0.535   2.397
 6249TIP3   OH218687   1.086   3.454   5.456
 6249TIP3    H118688   1.064   3.514   5.385
 6249TIP3    H218689   1.097   3.511   5.533
 6250TIP3   OH218690   1.730   2.128   1.268
 6250TIP3    H118691   1.661   2.170   1.216
 6250TIP3    H218692   1.751   2.193   1.335
 6251TIP3   OH218693   4.011   2.083   0.341
 6251TIP3    H118694   3.989   2.133   0.420
 6251TIP3    H218695   4.106   2.075   0.343
 6252TIP3   OH218696   5.650   4.353   6.455
 6252TIP3    H118697   5.579   4.367   6.393
 6252TIP3    H218698   5.606   4.326   6.536
 6253TIP3   OH218699   2.181   0.827   6.554
 6253TIP3    H118700   2.171   0.768   6.479
 6253TIP3    H218701   2.269   0.862   6.545
 6254TIP3   OH218702   0.070   6.170   5.798
 6254TIP3    H118703   0.096   6.262   5.801
 6254TIP3    H218704   0.135   6.126   5.853
 6255TIP3   OH218705   6.055   0.382   0.057
 6255TIP3    H118706   6.047   0.478   0.052
 6255TIP3    H218707   6.107   0.367   0.136
 6256TIP3   OH218708   2.010   5.292   4.702
 6256TIP3    H118709   2.074   5.229   4.735
 6256TIP3    H218710   1.937   5.288   4.764
 6257TIP3   OH218711   6.971   6.744   6.599
 6257TIP3    H118712   6.937   6.658   6.572
 6257TIP3    H218713   7.056   6.724   6.638
 6258TIP3   OH218714   0.080   2.848   2.623
 6258TIP3    H118715   0.133   2.928   2.616
 6258TIP3    H218716   0.144   2.779   2.644
 6259TIP3   OH218717   6.768   5.249   3.013
 6259TIP3    H118718   6.721   5.277   2.935
 6259TIP3    H218719   6.807   5.164   2.989
 6260TIP3   OH218720   0.881   3.128   0.582
 6260TIP3    H118721   0.917   3.207   0.544
 6260TIP3    H218722   0.870   3.068   0.508
 6261TIP3   OH218723   5.932   5.468   2.120
 6261TIP3    H118724   5.899   5.427   2.041
 6261TIP3    H218725   5.924   5.562   2.103
 6262TIP3   OH218726   8.083   4.709   0.046
 6262TIP3    H118727   8.140   4.775   0.086
 6262TIP3    H218728   8.081   4.637   0.108
 6263TIP3   OH218729   3.819   6.980   3.496
 6263TIP3    H118730   3.829   6.957   3.588
 6263TIP3    H218731   3.906   7.007   3.468
 6264TIP3   OH218732   8.320   5.017   3.931
 6264TIP3    H118733   8.225   5.008   3.940
 6264TIP3    H218734   8.356   4.952   3.990
 6265TIP3   OH218735   6.014   7.097   0.642
 6265TIP3    H118736   6.068   7.043   0.585
 6265TIP3    H218737   5.948   7.136   0.585
 6266TIP3   OH218738   4.918   7.397   1.217
 6266TIP3    H118739   4.885   7.443   1.294
 6266TIP3    H218740   4.840   7.373   1.167
 6267TIP3   OH218741   1.505   1.084   0.342
 6267TIP3    H118742   1.557   1.008   0.318
 6267TIP3    H218743   1.525   1.099   0.434
 6268TIP3   OH218744   0.916   4.460   1.934
 6268TIP3    H118745   0.874   4.545   1.940
 6268TIP3    H218746   0.890   4.425   1.849
 6269TIP3   OH218747   7.507   5.077   5.157
 6269TIP3    H118748   7.544   5.023   5.227
 6269TIP3    H218749   7.531   5.166   5.181
 6270TIP3   OH218750   3.858   4.414   6.739
 6270TIP3    H118751   3.767   4.413   6.770
 6270TIP3    H218752   3.910   4.424   6.819
 6271TIP3   OH218753   5.645   6.531   2.085
 6271TIP3    H118754   5.714   6.597   2.081
 6271TIP3    H218755   5.564   6.581   2.082
 6272TIP3   OH218756   1.098   7.746   3.293
 6272TIP3    H118757   1.009   7.779   3.284
 6272TIP3    H218758   1.094   7.655   3.265
 6273TIP3   OH218759   7.188   3.284   5.493
 6273TIP3    H118760   7.105   3.300   5.538
 6273TIP3    H218761   7.219   3.201   5.529
 6274TIP3   OH218762   6.867   1.877   3.648
 6274TIP3    H118763   6.902   1.805   3.701
 6274TIP3    H218764   6.803   1.920   3.705
 6275TIP3   OH218765   1.402   1.093   4.267
 6275TIP3    H118766   1.307   1.089   4.276
 6275TIP3    H218767   1.418   1.166   4.208
 6276TIP3   OH218768   5.022   6.950   6.156
 6276TIP3    H118769   5.069   6.949   6.239
 6276TIP3    H218770   4.968   6.871   6.159
 6277TIP3   OH218771   2.539   1.696   3.173
 6277TIP3    H118772   2.532   1.607   3.208
 6277TIP3    H218773   2.503   1.690   3.085
 6278TIP3   OH218774   2.224   6.062   4.219
 6278TIP3    H118775   2.163   6.078   4.148
 6278TIP3    H218776   2.297   6.123   4.203
 6279TIP3   OH218777   5.564   1.276   4.777
 6279TIP3    H118778   5.595   1.185   4.773
 6279TIP3    H218779   5.473   1.268   4.806
 6280TIP3   OH218780   3.045   4.210   1.910
 6280TIP3    H118781   3.034   4.197   2.004
 6280TIP3    H218782   2.992   4.288   1.890
 6281TIP3   OH218783   8.116   0.592   6.562
 6281TIP3    H118784   8.175   0.652   6.608
 6281TIP3    H218785   8.154   0.506   6.574
 6282TIP3   OH218786   0.757   0.346   5.939
 6282TIP3    H118787   0.667   0.377   5.926
 6282TIP3    H218788   0.807   0.387   5.869
 6283TIP3   OH218789   3.053   2.928   1.663
 6283TIP3    H118790   3.027   2.848   1.617
 6283TIP3    H218791   3.140   2.948   1.629
 6284TIP3   OH218792   4.379   5.605   0.388
 6284TIP3    H118793   4.391   5.696   0.415
 6284TIP3    H218794   4.379   5.609   0.292
 6285TIP3   OH218795   7.606   5.605   3.487
 6285TIP3    H118796   7.602   5.520   3.533
 6285TIP3    H218797   7.700   5.622   3.478
 6286TIP3   OH218798   3.067   3.012   3.008
 6286TIP3    H118799   2.998   3.059   3.055
 6286TIP3    H218800   3.123   3.081   2.972
 6287TIP3   OH218801   6.530   5.976   1.206
 6287TIP3    H118802   6.471   6.043   1.238
 6287TIP3    H218803   6.544   5.918   1.281
 6288TIP3   OH218804   4.889   1.707   3.653
 6288TIP3    H118805   4.893   1.777   3.588
 6288TIP3    H218806   4.871   1.751   3.735
 6289TIP3   OH218807   3.726   4.194   4.267
 6289TIP3    H118808   3.803   4.244   4.242
 6289TIP3    H218809   3.750   4.103   4.251
 6290TIP3   OH218810   4.856   4.745   1.769
 6290TIP3    H118811   4.943   4.714   1.743
 6290TIP3    H218812   4.830   4.687   1.841
 6291TIP3   OH218813   6.739   0.519   1.468
 6291TIP3    H118814   6.783   0.435   1.481
 6291TIP3    H218815   6.767   0.572   1.544
 6292TIP3   OH218816   4.032   3.937   1.580
 6292TIP3    H118817   4.065   3.919   1.492
 6292TIP3    H218818   4.108   3.929   1.637
 6293TIP3   OH218819   0.268   3.610   4.027
 6293TIP3    H118820   0.272   3.700   4.057
 6293TIP3    H218821   0.338   3.604   3.962
 6294TIP3   OH218822   2.715   3.853   4.242
 6294TIP3    H118823   2.642   3.848   4.304
 6294TIP3    H218824   2.715   3.943   4.212
 6295TIP3   OH218825   4.295   7.657   1.761
 6295TIP3    H118826   4.199   7.652   1.755
 6295TIP3    H218827   4.315   7.635   1.852
 6296TIP3   OH218828   2.828   0.609   5.847
 6296TIP3    H118829   2.905   0.665   5.834
 6296TIP3    H218830   2.859   0.539   5.904
 6297TIP3   OH218831   1.108   0.499   5.967
 6297TIP3    H118832   1.076   0.578   6.010
 6297TIP3    H218833   1.110   0.522   5.874
 6298TIP3   OH218834   5.768   5.723   5.706
 6298TIP3    H118835   5.805   5.712   5.618
 6298TIP3    H218836   5.717   5.644   5.721
 6299TIP3   OH218837   7.666   4.791   1.941
 6299TIP3    H118838   7.634   4.813   1.853
 6299TIP3    H218839   7.587   4.763   1.988
 6300TIP3   OH218840   3.129   0.267   0.322
 6300TIP3    H118841   3.065   0.309   0.265
 6300TIP3    H218842   3.077   0.221   0.387
 6301TIP3   OH218843   4.531   3.741   3.721
 6301TIP3    H118844   4.553   3.672   3.784
 6301TIP3    H218845   4.447   3.714   3.684
 6302TIP3   OH218846   0.969   2.585   2.773
 6302TIP3    H118847   0.950   2.659   2.830
 6302TIP3    H218848   0.899   2.522   2.790
 6303TIP3   OH218849   3.180   3.264   0.790
 6303TIP3    H118850   3.110   3.260   0.725
 6303TIP3    H218851   3.213   3.354   0.785
 6304TIP3   OH218852   5.977   0.105   2.257
 6304TIP3    H118853   5.903   0.161   2.235
 6304TIP3    H218854   5.937   0.024   2.289
 6305TIP3   OH218855   7.054   7.909   6.341
 6305TIP3    H118856   7.132   7.908   6.285
 6305TIP3    H218857   6.990   7.959   6.290
 6306TIP3   OH218858   2.919   6.105   5.196
 6306TIP3    H118859   2.999   6.083   5.243
 6306TIP3    H218860   2.879   6.020   5.177
 6307TIP3   OH218861   6.179   1.801   0.804
 6307TIP3    H118862   6.243   1.832   0.740
 6307TIP3    H218863   6.229   1.748   0.865
 6308TIP3   OH218864   2.330   7.485   5.220
 6308TIP3    H118865   2.268   7.461   5.289
 6308TIP3    H218866   2.286   7.555   5.171
 6309TIP3   OH218867   0.994   2.680   2.153
 6309TIP3    H118868   1.014   2.762   2.198
 6309TIP3    H218869   1.072   2.627   2.163
 6310TIP3   OH218870   7.864   0.163   5.049
 6310TIP3    H118871   7.801   0.100   5.013
 6310TIP3    H218872   7.855   0.241   4.993
 6311TIP3   OH218873   3.386   6.280   6.075
 6311TIP3    H118874   3.446   6.320   6.138
 6311TIP3    H218875   3.425   6.196   6.054
 6312TIP3   OH218876   6.764   0.684   2.600
 6312TIP3    H118877   6.839   0.743   2.591
 6312TIP3    H218878   6.748   0.679   2.694
 6313TIP3   OH218879   4.436   0.198   4.481
 6313TIP3    H118880   4.361   0.141   4.496
 6313TIP3    H218881   4.504   0.141   4.446
 6314TIP3   OH218882   1.800   2.087   3.894
 6314TIP3    H118883   1.845   2.010   3.929
 6314TIP3    H218884   1.758   2.055   3.814
 6315TIP3   OH218885   3.982   3.033   1.452
 6315TIP3    H118886   3.985   2.938   1.441
 6315TIP3    H218887   3.896   3.058   1.416
 6316TIP3   OH218888   4.042   7.210   0.284
 6316TIP3    H118889   4.047   7.115   0.288
 6316TIP3    H218890   3.953   7.231   0.311
 6317TIP3   OH218891   2.369   3.209   2.721
 6317TIP3    H118892   2.406   3.293   2.747
 6317TIP3    H218893   2.360   3.160   2.802
 6318TIP3   OH218894   4.954   2.005   3.589
 6318TIP3    H118895   5.033   1.997   3.643
 6318TIP3    H218896   4.901   2.070   3.634
 6319TIP3   OH218897   5.148   2.188   3.414
 6319TIP3    H118898   5.147   2.096   3.388
 6319TIP3    H218899   5.187   2.188   3.501
 6320TIP3   OH218900   0.591   3.529   6.088
 6320TIP3    H118901   0.684   3.521   6.109
 6320TIP3    H218902   0.570   3.621   6.107
 6321TIP3   OH218903   7.349   3.196   6.368
 6321TIP3    H118904   7.296   3.118   6.350
 6321TIP3    H218905   7.361   3.238   6.283
 6322TIP3   OH218906   3.436   7.027   0.222
 6322TIP3    H118907   3.512   7.007   0.168
 6322TIP3    H218908   3.437   7.122   0.230
 6323TIP3   OH218909   5.290   5.719   3.548
 6323TIP3    H118910   5.374   5.709   3.592
 6323TIP3    H218911   5.238   5.645   3.580
 6324TIP3   OH218912   1.912   7.083   4.692
 6324TIP3    H118913   1.987   7.139   4.673
 6324TIP3    H218914   1.879   7.115   4.776
 6325TIP3   OH218915   7.025   1.788   6.901
 6325TIP3    H118916   7.030   1.702   6.860
 6325TIP3    H218917   7.053   1.850   6.834
 6326TIP3   OH218918   0.441   3.567   0.527
 6326TIP3    H118919   0.368   3.623   0.501
 6326TIP3    H218920   0.439   3.495   0.464
 6327TIP3   OH218921   7.487   1.712   4.924
 6327TIP3    H118922   7.440   1.741   5.002
 6327TIP3    H218923   7.537   1.636   4.953
 6328TIP3   OH218924   5.534   0.283   3.929
 6328TIP3    H118925   5.463   0.330   3.885
 6328TIP3    H218926   5.502   0.271   4.018
 6329TIP3   OH218927   7.997   5.763   2.344
 6329TIP3    H118928   8.039   5.713   2.414
 6329TIP3    H218929   7.906   5.773   2.373
 6330TIP3   OH218930   4.984   3.832   3.847
 6330TIP3    H118931   4.965   3.740   3.826
 6330TIP3    H218932   4.925   3.882   3.791
 6331TIP3   OH218933   2.907   4.324   1.041
 6331TIP3    H118934   2.884   4.243   0.995
 6331TIP3    H218935   2.882   4.393   0.979
 6332TIP3   OH218936   5.741   6.412   6.103
 6332TIP3    H118937   5.650   6.404   6.130
 6332TIP3    H218938   5.784   6.460   6.174
 6333TIP3   OH218939   3.706   4.125   0.751
 6333TIP3    H118940   3.794   4.109   0.717
 6333TIP3    H218941   3.651   4.138   0.674
 6334TIP3   OH218942   2.591   4.193   0.177
 6334TIP3    H118943   2.566   4.103   0.158
 6334TIP3    H218944   2.617   4.228   0.092
 6335TIP3   OH218945   8.005   1.015   2.606
 6335TIP3    H118946   8.052   1.073   2.667
 6335TIP3    H218947   8.011   0.929   2.647
 6336TIP3   OH218948   4.690   7.603   6.644
 6336TIP3    H118949   4.735   7.568   6.720
 6336TIP3    H218950   4.632   7.532   6.616
 6337TIP3   OH218951   5.895   7.171   5.365
 6337TIP3    H118952   5.868   7.224   5.440
 6337TIP3    H218953   5.839   7.094   5.368
 6338TIP3   OH218954   7.946   4.052   2.883
 6338TIP3    H118955   8.005   4.020   2.951
 6338TIP3    H218956   7.878   4.100   2.932
 6339TIP3   OH218957   7.504   7.297   1.189
 6339TIP3    H118958   7.466   7.209   1.179
 6339TIP3    H218959   7.466   7.347   1.117
 6340TIP3   OH218960   4.107   3.978   3.994
 6340TIP3    H118961   4.048   3.978   3.918
 6340TIP3    H218962   4.190   3.945   3.959
 6341TIP3   OH218963   0.613   5.346   5.387
 6341TIP3    H118964   0.596   5.363   5.294
 6341TIP3    H218965   0.705   5.369   5.400
 6342TIP3   OH218966   5.677   3.217   3.392
 6342TIP3    H118967   5.719   3.256   3.315
 6342TIP3    H218968   5.748   3.173   3.438
 6343TIP3   OH218969   7.894   1.361   4.194
 6343TIP3    H118970   7.822   1.420   4.173
 6343TIP3    H218971   7.973   1.408   4.167
 6344TIP3   OH218972   0.345   1.060   1.137
 6344TIP3    H118973   0.426   1.080   1.184
 6344TIP3    H218974   0.370   0.991   1.075
 6345TIP3   OH218975   0.230   2.455   3.676
 6345TIP3    H118976   0.189   2.533   3.714
 6345TIP3    H218977   0.156   2.399   3.651
 6346TIP3   OH218978   2.108   4.873   5.617
 6346TIP3    H118979   2.068   4.958   5.633
 6346TIP3    H218980   2.180   4.890   5.557
 6347TIP3   OH218981   7.081   4.903   3.060
 6347TIP3    H118982   7.017   4.973   3.050
 6347TIP3    H218983   7.165   4.945   3.044
 6348TIP3   OH218984   1.807   0.026   2.456
 6348TIP3    H118985   1.717   0.044   2.482
 6348TIP3    H218986   1.852   0.110   2.463
 6349TIP3   OH218987   6.049   7.753   3.262
 6349TIP3    H118988   6.055   7.833   3.210
 6349TIP3    H218989   6.137   7.739   3.296
 6350TIP3   OH218990   7.054   3.668   1.597
 6350TIP3    H118991   7.009   3.589   1.569
 6350TIP3    H218992   7.143   3.639   1.617
 6351TIP3   OH218993   4.857   0.317   3.651
 6351TIP3    H118994   4.893   0.231   3.669
 6351TIP3    H218995   4.927   0.378   3.676
 6352TIP3   OH218996   4.780   7.768   0.197
 6352TIP3    H118997   4.834   7.824   0.253
 6352TIP3    H218998   4.706   7.823   0.172
 6353TIP3   OH218999   4.691   4.823   5.638
 6353TIP3    H119000   4.746   4.901   5.645
 6353TIP3    H219001   4.686   4.806   5.544
 6354TIP3   OH219002   7.930   6.515   5.920
 6354TIP3    H119003   7.924   6.439   5.864
 6354TIP3    H219004   7.995   6.572   5.878
 6355TIP3   OH219005   2.143   6.261   2.220
 6355TIP3    H119006   2.226   6.307   2.210
 6355TIP3    H219007   2.077   6.325   2.193
 6356TIP3   OH219008   0.059   2.177   4.471
 6356TIP3    H119009   0.065   2.110   4.403
 6356TIP3    H219010   0.126   2.241   4.447
 6357TIP3   OH219011   2.841   3.835   6.162
 6357TIP3    H119012   2.758   3.849   6.208
 6357TIP3    H219013   2.829   3.752   6.116
 6358TIP3   OH219014   1.923   7.528   0.247
 6358TIP3    H119015   1.949   7.459   0.186
 6358TIP3    H219016   1.978   7.603   0.223
 6359TIP3   OH219017   6.418   2.657   6.833
 6359TIP3    H119018   6.511   2.643   6.847
 6359TIP3    H219019   6.386   2.694   6.915
 6360TIP3   OH219020   1.445   4.557   5.071
 6360TIP3    H119021   1.392   4.512   5.136
 6360TIP3    H219022   1.422   4.515   4.988
 6361TIP3   OH219023   0.795   6.123   1.518
 6361TIP3    H119024   0.860   6.075   1.466
 6361TIP3    H219025   0.812   6.096   1.609
 6362TIP3   OH219026   1.557   6.360   2.697
 6362TIP3    H119027   1.478   6.407   2.724
 6362TIP3    H219028   1.525   6.284   2.649
 6363TIP3   OH219029   7.709   2.202   0.905
 6363TIP3    H119030   7.801   2.229   0.898
 6363TIP3    H219031   7.674   2.215   0.817
 6364TIP3   OH219032   4.360   5.574   2.443
 6364TIP3    H119033   4.375   5.502   2.505
 6364TIP3    H219034   4.270   5.601   2.457
 6365TIP3   OH219035   1.338   1.746   0.476
 6365TIP3    H119036   1.309   1.801   0.403
 6365TIP3    H219037   1.322   1.657   0.446
 6366TIP3   OH219038   6.153   2.262   3.778
 6366TIP3    H119039   6.225   2.202   3.794
 6366TIP3    H219040   6.193   2.338   3.736
 6367TIP3   OH219041   7.254   0.436   5.879
 6367TIP3    H119042   7.265   0.519   5.833
 6367TIP3    H219043   7.244   0.460   5.971
 6368TIP3   OH219044   3.854   0.656   5.834
 6368TIP3    H119045   3.808   0.705   5.902
 6368TIP3    H219046   3.930   0.620   5.878
 6369TIP3   OH219047   0.924   7.892   2.266
 6369TIP3    H119048   0.829   7.898   2.282
 6369TIP3    H219049   0.934   7.820   2.205
 6370TIP3   OH219050   2.068   7.844   1.015
 6370TIP3    H119051   2.156   7.824   1.047
 6370TIP3    H219052   2.081   7.914   0.951
 6371TIP3   OH219053   3.715   0.344   6.743
 6371TIP3    H119054   3.669   0.423   6.714
 6371TIP3    H219055   3.747   0.367   6.831
 6372TIP3   OH219056   5.561   7.629   0.514
 6372TIP3    H119057   5.497   7.619   0.584
 6372TIP3    H219058   5.611   7.708   0.538
 6373TIP3   OH219059   4.313   0.252   4.177
 6373TIP3    H119060   4.402   0.252   4.143
 6373TIP3    H219061   4.291   0.344   4.188
 6374TIP3   OH219062   2.259   5.368   4.554
 6374TIP3    H119063   2.246   5.389   4.461
 6374TIP3    H219064   2.348   5.331   4.558
 6375TIP3   OH219065   7.054   0.295   6.867
 6375TIP3    H119066   7.014   0.281   6.781
 6375TIP3    H219067   7.121   0.227   6.874
 6376TIP3   OH219068   2.486   3.521   1.231
 6376TIP3    H119069   2.439   3.597   1.265
 6376TIP3    H219070   2.567   3.557   1.194
 6377TIP3   OH219071   0.086   1.959   1.922
 6377TIP3    H119072   0.010   1.988   1.871
 6377TIP3    H219073   0.070   1.991   2.010
 6378TIP3   OH219074   2.642   0.798   6.736
 6378TIP3    H119075   2.693   0.778   6.658
 6378TIP3    H219076   2.705   0.837   6.797
 6379TIP3   OH219077   0.656   2.141   5.394
 6379TIP3    H119078   0.645   2.112   5.485
 6379TIP3    H219079   0.735   2.096   5.363
 6380TIP3   OH219080   6.519   7.380   2.786
 6380TIP3    H119081   6.467   7.301   2.803
 6380TIP3    H219082   6.603   7.362   2.827
 6381TIP3   OH219083   3.471   0.475   6.341
 6381TIP3    H119084   3.497   0.467   6.250
 6381TIP3    H219085   3.517   0.553   6.372
 6382TIP3   OH219086   4.958   5.040   3.390
 6382TIP3    H119087   5.021   5.067   3.457
 6382TIP3    H219088   4.975   4.947   3.377
 6383TIP3   OH219089   1.373   7.634   6.388
 6383TIP3    H119090   1.304   7.569   6.381
 6383TIP3    H219091   1.445   7.599   6.336
 6384TIP3   OH219092   2.366   4.881   2.616
 6384TIP3    H119093   2.312   4.835   2.680
 6384TIP3    H219094   2.311   4.953   2.584
 6385TIP3   OH219095   1.578   7.218   6.380
 6385TIP3    H119096   1.631   7.296   6.362
 6385TIP3    H219097   1.622   7.175   6.453
 6386TIP3   OH219098   2.167   2.668   6.445
 6386TIP3    H119099   2.112   2.590   6.434
 6386TIP3    H219100   2.125   2.734   6.390
 6387TIP3   OH219101   7.563   4.996   6.713
 6387TIP3    H119102   7.541   4.931   6.780
 6387TIP3    H219103   7.639   5.042   6.747
 6388TIP3   OH219104   1.674   3.200   6.614
 6388TIP3    H119105   1.697   3.268   6.678
 6388TIP3    H219106   1.736   3.213   6.542
 6389TIP3   OH219107   2.136   1.719   6.333
 6389TIP3    H119108   2.120   1.717   6.427
 6389TIP3    H219109   2.060   1.675   6.294
 6390TIP3   OH219110   0.105   5.114   5.641
 6390TIP3    H119111   0.026   5.169   5.639
 6390TIP3    H219112   0.174   5.170   5.605
 6391TIP3   OH219113   5.895   1.592   2.282
 6391TIP3    H119114   5.879   1.590   2.376
 6391TIP3    H219115   5.827   1.537   2.244
 6392TIP3   OH219116   4.690   3.056   5.340
 6392TIP3    H119117   4.728   3.072   5.427
 6392TIP3    H219118   4.752   2.998   5.297
 6393TIP3   OH219119   2.558   6.925   4.566
 6393TIP3    H119120   2.553   6.999   4.506
 6393TIP3    H219121   2.481   6.872   4.544
 6394TIP3   OH219122   2.321   6.921   2.499
 6394TIP3    H119123   2.267   6.847   2.473
 6394TIP3    H219124   2.261   6.995   2.503
 6395TIP3   OH219125   5.327   3.417   0.016
 6395TIP3    H119126   5.334   3.441   0.108
 6395TIP3    H219127   5.253   3.469  -0.017
 6396TIP3   OH219128   0.865   2.807   5.724
 6396TIP3    H119129   0.814   2.762   5.656
 6396TIP3    H219130   0.952   2.819   5.685
 6397TIP3   OH219131   5.199   6.864   6.812
 6397TIP3    H119132   5.232   6.940   6.861
 6397TIP3    H219133   5.270   6.800   6.817
 6398TIP3   OH219134   6.618   2.575   3.012
 6398TIP3    H119135   6.543   2.586   3.071
 6398TIP3    H219136   6.691   2.555   3.070
 6399TIP3   OH219137   2.823   2.699   2.064
 6399TIP3    H119138   2.734   2.730   2.045
 6399TIP3    H219139   2.818   2.665   2.154
 6400TIP3   OH219140   7.577   2.065   3.597
 6400TIP3    H119141   7.640   1.995   3.614
 6400TIP3    H219142   7.600   2.135   3.658
 6401TIP3   OH219143   3.581   0.792   6.780
 6401TIP3    H119144   3.561   0.831   6.865
 6401TIP3    H219145   3.507   0.816   6.725
 6402TIP3   OH219146   0.928   7.318   0.551
 6402TIP3    H119147   0.955   7.329   0.460
 6402TIP3    H219148   1.009   7.320   0.601
 6403TIP3   OH219149   4.661   6.491   5.959
 6403TIP3    H119150   4.754   6.480   5.939
 6403TIP3    H219151   4.653   6.583   5.986
 6404TIP3   OH219152   7.454   4.026   1.557
 6404TIP3    H119153   7.522   4.090   1.576
 6404TIP3    H219154   7.375   4.062   1.598
 6405TIP3   OH219155   1.504   4.202   2.275
 6405TIP3    H119156   1.526   4.128   2.219
 6405TIP3    H219157   1.431   4.170   2.329
 6406TIP3   OH219158   7.700   1.243   6.581
 6406TIP3    H119159   7.634   1.211   6.643
 6406TIP3    H219160   7.779   1.255   6.634
 6407TIP3   OH219161   0.190   0.641   6.045
 6407TIP3    H119162   0.151   0.588   6.115
 6407TIP3    H219163   0.120   0.701   6.019
 6408TIP3   OH219164   3.003   5.001   3.305
 6408TIP3    H119165   2.979   4.908   3.300
 6408TIP3    H219166   3.026   5.024   3.214
 6409TIP3   OH219167   0.655   7.808   3.587
 6409TIP3    H119168   0.641   7.813   3.492
 6409TIP3    H219169   0.574   7.844   3.624
 6410TIP3   OH219170   3.823   7.343   6.439
 6410TIP3    H119171   3.754   7.362   6.502
 6410TIP3    H219172   3.904   7.347   6.491
 6411TIP3   OH219173   1.389   7.565   1.029
 6411TIP3    H119174   1.366   7.657   1.012
 6411TIP3    H219175   1.426   7.534   0.947
 6412TIP3   OH219176   2.688   3.949   2.692
 6412TIP3    H119177   2.625   3.937   2.621
 6412TIP3    H219178   2.773   3.950   2.649
 6413TIP3   OH219179   3.944   7.174   4.917
 6413TIP3    H119180   3.875   7.236   4.941
 6413TIP3    H219181   3.971   7.202   4.829
 6414TIP3   OH219182   0.328   7.162   4.529
 6414TIP3    H119183   0.375   7.106   4.591
 6414TIP3    H219184   0.297   7.236   4.581
 6415TIP3   OH219185   1.793   7.285   5.435
 6415TIP3    H119186   1.842   7.265   5.515
 6415TIP3    H219187   1.775   7.379   5.441
 6416TIP3   OH219188   3.313   1.750   2.150
 6416TIP3    H119189   3.383   1.687   2.133
 6416TIP3    H219190   3.355   1.818   2.203
 6417TIP3   OH219191   8.412   4.792   1.173
 6417TIP3    H119192   8.394   4.830   1.260
 6417TIP3    H219193   8.331   4.746   1.150
 6418TIP3   OH219194   5.254   3.829   2.294
 6418TIP3    H119195   5.168   3.799   2.266
 6418TIP3    H219196   5.289   3.756   2.345
 6419TIP3   OH219197   3.055   0.790   2.137
 6419TIP3    H119198   3.038   0.831   2.053
 6419TIP3    H219199   3.149   0.771   2.136
 6420TIP3   OH219200   2.864   0.983   2.676
 6420TIP3    H119201   2.893   0.951   2.590
 6420TIP3    H219202   2.925   0.943   2.738
 6421TIP3   OH219203   2.510   1.851   2.134
 6421TIP3    H119204   2.474   1.936   2.110
 6421TIP3    H219205   2.518   1.854   2.229
 6422TIP3   OH219206   1.554   5.556   0.469
 6422TIP3    H119207   1.462   5.577   0.485
 6422TIP3    H219208   1.575   5.489   0.534
 6423TIP3   OH219209   6.992   6.472   0.458
 6423TIP3    H119210   6.975   6.560   0.491
 6423TIP3    H219211   6.906   6.430   0.456
 6424TIP3   OH219212   3.761   5.168   0.621
 6424TIP3    H119213   3.689   5.198   0.678
 6424TIP3    H219214   3.733   5.080   0.593
 6425TIP3   OH219215   3.593   3.593   1.359
 6425TIP3    H119216   3.634   3.669   1.319
 6425TIP3    H219217   3.617   3.598   1.452
 6426TIP3   OH219218   6.212   1.821   5.431
 6426TIP3    H119219   6.188   1.826   5.524
 6426TIP3    H219220   6.128   1.822   5.385
 6427TIP3   OH219221   5.158   7.885   1.950
 6427TIP3    H119222   5.173   7.828   2.025
 6427TIP3    H219223   5.247   7.906   1.918
 6428TIP3   OH219224   7.009   2.628   1.511
 6428TIP3    H119225   6.979   2.638   1.421
 6428TIP3    H219226   7.013   2.533   1.525
 6429TIP3   OH219227   1.185   3.160   0.093
 6429TIP3    H119228   1.136   3.177   0.012
 6429TIP3    H219229   1.160   3.231   0.152
 6430TIP3   OH219230   1.528   0.350   3.420
 6430TIP3    H119231   1.456   0.311   3.469
 6430TIP3    H219232   1.503   0.343   3.328
 6431TIP3   OH219233   0.828   3.044   1.958
 6431TIP3    H119234   0.778   3.123   1.977
 6431TIP3    H219235   0.896   3.041   2.026
 6432TIP3   OH219236   0.427   2.197   0.220
 6432TIP3    H119237   0.496   2.196   0.155
 6432TIP3    H219238   0.468   2.232   0.299
 6433TIP3   OH219239   6.289   0.347   2.664
 6433TIP3    H119240   6.244   0.294   2.730
 6433TIP3    H219241   6.363   0.385   2.711
 6434TIP3   OH219242   2.561   6.775   3.683
 6434TIP3    H119243   2.507   6.834   3.631
 6434TIP3    H219244   2.507   6.696   3.694
 6435TIP3   OH219245   0.419   0.529   3.292
 6435TIP3    H119246   0.469   0.527   3.210
 6435TIP3    H219247   0.459   0.461   3.346
 6436TIP3   OH219248   2.383   4.959   1.178
 6436TIP3    H119249   2.338   5.041   1.160
 6436TIP3    H219250   2.338   4.894   1.124
 6437TIP3   OH219251   6.426   6.406   5.484
 6437TIP3    H119252   6.346   6.450   5.455
 6437TIP3    H219253   6.497   6.464   5.456
 6438TIP3   OH219254   3.040   6.742   5.444
 6438TIP3    H119255   2.968   6.684   5.418
 6438TIP3    H219256   3.043   6.809   5.377
 6439TIP3   OH219257   4.898   5.761   0.296
 6439TIP3    H119258   4.833   5.769   0.226
 6439TIP3    H219259   4.913   5.667   0.303
 6440TIP3   OH219260   7.566   0.360   6.621
 6440TIP3    H119261   7.565   0.285   6.562
 6440TIP3    H219262   7.636   0.341   6.683
 6441TIP3   OH219263   7.829   3.629   4.886
 6441TIP3    H119264   7.860   3.541   4.907
 6441TIP3    H219265   7.746   3.616   4.841
 6442TIP3   OH219266   6.352   1.116   4.433
 6442TIP3    H119267   6.413   1.122   4.506
 6442TIP3    H219268   6.357   1.202   4.390
 6443TIP3   OH219269   3.516   1.770   5.191
 6443TIP3    H119270   3.425   1.743   5.199
 6443TIP3    H219271   3.544   1.738   5.105
 6444TIP3   OH219272   6.839   3.839   1.635
 6444TIP3    H119273   6.781   3.808   1.566
 6444TIP3    H219274   6.910   3.776   1.638
 6445TIP3   OH219275   8.445   3.107   2.328
 6445TIP3    H119276   8.409   3.173   2.269
 6445TIP3    H219277   8.532   3.139   2.350
 6446TIP3   OH219278   3.498   6.876   5.098
 6446TIP3    H119279   3.535   6.788   5.103
 6446TIP3    H219280   3.551   6.921   5.031
 6447TIP3   OH219281   4.980   3.336   3.527
 6447TIP3    H119282   5.007   3.323   3.617
 6447TIP3    H219283   4.904   3.394   3.532
 6448TIP3   OH219284   6.933   0.841   0.937
 6448TIP3    H119285   6.995   0.802   0.875
 6448TIP3    H219286   6.976   0.835   1.022
 6449TIP3   OH219287   4.664   1.244   2.423
 6449TIP3    H119288   4.753   1.230   2.453
 6449TIP3    H219289   4.664   1.214   2.332
 6450TIP3   OH219290   7.667   4.309   2.492
 6450TIP3    H119291   7.713   4.256   2.557
 6450TIP3    H219292   7.584   4.331   2.534
 6451TIP3   OH219293   2.986   5.743   2.082
 6451TIP3    H119294   2.930   5.821   2.086
 6451TIP3    H219295   2.947   5.683   2.144
 6452TIP3   OH219296   2.702   0.483   3.055
 6452TIP3    H119297   2.692   0.454   3.145
 6452TIP3    H219298   2.639   0.553   3.044
 6453TIP3   OH219299   7.032   1.393   5.691
 6453TIP3    H119300   7.013   1.329   5.760
 6453TIP3    H219301   6.949   1.402   5.643
 6454TIP3   OH219302   2.360   7.580   2.422
 6454TIP3    H119303   2.406   7.631   2.489
 6454TIP3    H219304   2.307   7.645   2.375
 6455TIP3   OH219305   0.548   4.630   0.575
 6455TIP3    H119306   0.562   4.660   0.485
 6455TIP3    H219307   0.607   4.684   0.628
 6456TIP3   OH219308   0.399   2.952   2.237
 6456TIP3    H119309   0.488   2.989   2.240
 6456TIP3    H219310   0.352   3.008   2.175
 6457TIP3   OH219311   1.721   3.367   3.623
 6457TIP3    H119312   1.742   3.452   3.585
 6457TIP3    H219313   1.646   3.384   3.679
 6458TIP3   OH219314   5.642   4.800   1.528
 6458TIP3    H119315   5.738   4.809   1.528
 6458TIP3    H219316   5.613   4.848   1.605
 6459TIP3   OH219317   2.320   3.264   4.018
 6459TIP3    H119318   2.353   3.351   4.043
 6459TIP3    H219319   2.246   3.249   4.077
 6460TIP3   OH219320   6.436   2.041   4.263
 6460TIP3    H119321   6.513   1.999   4.226
 6460TIP3    H219322   6.455   2.048   4.357
 6461TIP3   OH219323   6.902   4.540   3.126
 6461TIP3    H119324   6.856   4.481   3.067
 6461TIP3    H219325   6.965   4.484   3.172
 6462TIP3   OH219326   3.657   4.245   5.781
 6462TIP3    H119327   3.604   4.324   5.774
 6462TIP3    H219328   3.619   4.185   5.718
 6463TIP3   OH219329   3.459   5.668   4.360
 6463TIP3    H119330   3.437   5.753   4.398
 6463TIP3    H219331   3.455   5.608   4.434
 6464TIP3   OH219332   8.334   0.741   0.169
 6464TIP3    H119333   8.328   0.705   0.258
 6464TIP3    H219334   8.418   0.787   0.168
 6465TIP3   OH219335   3.252   0.972   5.291
 6465TIP3    H119336   3.187   1.005   5.229
 6465TIP3    H219337   3.200   0.932   5.361
 6466TIP3   OH219338   5.913   0.377   5.333
 6466TIP3    H119339   5.972   0.314   5.376
 6466TIP3    H219340   5.825   0.350   5.362
 6467TIP3   OH219341   6.845   5.160   5.204
 6467TIP3    H119342   6.927   5.154   5.155
 6467TIP3    H219343   6.867   5.213   5.280
 6468TIP3   OH219344   7.538   0.646   1.532
 6468TIP3    H119345   7.603   0.577   1.520
 6468TIP3    H219346   7.477   0.636   1.460
 6469TIP3   OH219347   8.144   4.155   2.702
 6469TIP3    H119348   8.189   4.072   2.684
 6469TIP3    H219349   8.063   4.130   2.746
 6470TIP3   OH219350   8.006   1.795   5.621
 6470TIP3    H119351   7.983   1.884   5.596
 6470TIP3    H219352   8.003   1.795   5.717
 6471TIP3   OH219353   0.470   7.077   2.668
 6471TIP3    H119354   0.535   7.033   2.612
 6471TIP3    H219355   0.518   7.095   2.749
 6472TIP3   OH219356   5.151   7.030   1.552
 6472TIP3    H119357   5.073   7.071   1.514
 6472TIP3    H219358   5.213   7.102   1.563
 6473TIP3   OH219359   3.360   2.886   5.071
 6473TIP3    H119360   3.372   2.886   5.166
 6473TIP3    H219361   3.449   2.888   5.036
 6474TIP3   OH219362   4.512   7.788   4.969
 6474TIP3    H119363   4.417   7.776   4.970
 6474TIP3    H219364   4.524   7.880   4.943
 6475TIP3   OH219365   4.224   7.087   5.577
 6475TIP3    H119366   4.210   7.172   5.536
 6475TIP3    H219367   4.306   7.055   5.539
 6476TIP3   OH219368   3.130   3.722   3.610
 6476TIP3    H119369   3.046   3.676   3.619
 6476TIP3    H219370   3.142   3.767   3.694
 6477TIP3   OH219371   1.139   1.314   6.137
 6477TIP3    H119372   1.231   1.301   6.114
 6477TIP3    H219373   1.104   1.368   6.066
 6478TIP3   OH219374   7.258   4.345   4.167
 6478TIP3    H119375   7.324   4.329   4.099
 6478TIP3    H219376   7.176   4.311   4.130
 6479TIP3   OH219377   7.426   1.110   2.322
 6479TIP3    H119378   7.422   1.166   2.400
 6479TIP3    H219379   7.383   1.162   2.254
 6480TIP3   OH219380   3.945   2.881   0.343
 6480TIP3    H119381   3.888   2.821   0.391
 6480TIP3    H219382   3.948   2.846   0.254
 6481TIP3   OH219383   1.026   2.533   2.471
 6481TIP3    H119384   1.060   2.618   2.441
 6481TIP3    H219385   0.999   2.548   2.562
 6482TIP3   OH219386   4.917   3.674   2.993
 6482TIP3    H119387   4.965   3.594   2.973
 6482TIP3    H219388   4.825   3.651   2.976
 6483TIP3   OH219389   6.030   3.395   4.315
 6483TIP3    H119390   6.045   3.469   4.374
 6483TIP3    H219391   5.968   3.340   4.363
 6484TIP3   OH219392   5.416   5.590   1.997
 6484TIP3    H119393   5.346   5.649   1.970
 6484TIP3    H219394   5.474   5.644   2.050
 6485TIP3   OH219395   8.406   2.905   0.766
 6485TIP3    H119396   8.361   2.863   0.692
 6485TIP3    H219397   8.393   2.999   0.751
 6486TIP3   OH219398   3.014   4.504   6.531
 6486TIP3    H119399   2.986   4.485   6.441
 6486TIP3    H219400   3.078   4.435   6.551
 6487TIP3   OH219401   2.013   5.333   1.558
 6487TIP3    H119402   1.998   5.290   1.642
 6487TIP3    H219403   2.006   5.262   1.494
 6488TIP3   OH219404   7.589   1.081   0.740
 6488TIP3    H119405   7.590   1.078   0.836
 6488TIP3    H219406   7.680   1.098   0.716
 6489TIP3   OH219407   7.835   3.655   2.945
 6489TIP3    H119408   7.857   3.707   2.867
 6489TIP3    H219409   7.814   3.720   3.012
 6490TIP3   OH219410   2.664   1.838   1.903
 6490TIP3    H119411   2.615   1.854   1.984
 6490TIP3    H219412   2.613   1.883   1.835
 6491TIP3   OH219413   3.883   5.337   0.150
 6491TIP3    H119414   3.846   5.415   0.109
 6491TIP3    H219415   3.872   5.352   0.244
 6492TIP3   OH219416   6.365   3.439   5.021
 6492TIP3    H119417   6.428   3.412   5.088
 6492TIP3    H219418   6.288   3.469   5.070
 6493TIP3   OH219419   5.443   1.167   6.778
 6493TIP3    H119420   5.401   1.139   6.859
 6493TIP3    H219421   5.496   1.091   6.751
 6494TIP3   OH219422   1.667   2.406   3.104
 6494TIP3    H119423   1.601   2.344   3.073
 6494TIP3    H219424   1.616   2.477   3.144
 6495TIP3   OH219425   7.525   0.581   6.458
 6495TIP3    H119426   7.587   0.535   6.402
 6495TIP3    H219427   7.493   0.514   6.519
 6496TIP3   OH219428   5.039   1.203   5.706
 6496TIP3    H119429   5.087   1.162   5.634
 6496TIP3    H219430   5.082   1.288   5.718
 6497TIP3   OH219431   3.038   2.683   5.777
 6497TIP3    H119432   3.017   2.671   5.869
 6497TIP3    H219433   2.968   2.739   5.743
 6498TIP3   OH219434   6.424   7.448   6.527
 6498TIP3    H119435   6.445   7.448   6.433
 6498TIP3    H219436   6.412   7.541   6.548
 6499TIP3   OH219437   4.167   2.346   0.167
 6499TIP3    H119438   4.242   2.309   0.213
 6499TIP3    H219439   4.193   2.436   0.148
 6500TIP3   OH219440   6.447   6.712   0.643
 6500TIP3    H119441   6.467   6.751   0.728
 6500TIP3    H219442   6.377   6.649   0.660
 6501TIP3   OH219443   7.228   5.832   0.477
 6501TIP3    H119444   7.211   5.740   0.496
 6501TIP3    H219445   7.142   5.874   0.480
 6502TIP3   OH219446   4.236   4.781   6.824
 6502TIP3    H119447   4.168   4.804   6.761
 6502TIP3    H219448   4.190   4.731   6.891
 6503TIP3   OH219449   2.123   6.252   1.316
 6503TIP3    H119450   2.196   6.222   1.370
 6503TIP3    H219451   2.052   6.270   1.378
 6504TIP3   OH219452   4.432   7.928   3.194
 6504TIP3    H119453   4.424   7.835   3.174
 6504TIP3    H219454   4.409   7.972   3.112
 6505TIP3   OH219455   7.461   5.024   4.294
 6505TIP3    H119456   7.458   4.994   4.385
 6505TIP3    H219457   7.402   5.099   4.292
 6506TIP3   OH219458   6.117   6.175   3.513
 6506TIP3    H119459   6.056   6.158   3.585
 6506TIP3    H219460   6.074   6.140   3.436
 6507TIP3   OH219461   0.917   4.692   2.295
 6507TIP3    H119462   0.965   4.716   2.215
 6507TIP3    H219463   0.915   4.773   2.347
 6508TIP3   OH219464   5.488   6.200   6.847
 6508TIP3    H119465   5.540   6.195   6.927
 6508TIP3    H219466   5.511   6.120   6.799
 6509TIP3   OH219467   0.060   3.106   6.784
 6509TIP3    H119468   0.015   3.173   6.731
 6509TIP3    H219469   0.146   3.143   6.801
 6510TIP3   OH219470   5.216   5.207   0.066
 6510TIP3    H119471   5.266   5.198   0.147
 6510TIP3    H219472   5.249   5.137   0.009
 6511TIP3   OH219473   1.180   5.946   0.567
 6511TIP3    H119474   1.255   5.913   0.518
 6511TIP3    H219475   1.111   5.958   0.502
 6512TIP3   OH219476   8.237   2.425   5.626
 6512TIP3    H119477   8.249   2.330   5.624
 6512TIP3    H219478   8.241   2.452   5.534
 6513TIP3   OH219479   0.313   3.914   5.071
 6513TIP3    H119480   0.266   3.831   5.074
 6513TIP3    H219481   0.404   3.889   5.054
 6514TIP3   OH219482   0.105   7.850   1.214
 6514TIP3    H119483   0.057   7.904   1.151
 6514TIP3    H219484   0.189   7.833   1.172
 6515TIP3   OH219485   6.372   4.230   6.290
 6515TIP3    H119486   6.347   4.313   6.330
 6515TIP3    H219487   6.321   4.164   6.337
 6516TIP3   OH219488   4.646   4.149   0.664
 6516TIP3    H119489   4.615   4.120   0.579
 6516TIP3    H219490   4.626   4.077   0.724
 6517TIP3   OH219491   4.200   6.401   1.679
 6517TIP3    H119492   4.113   6.417   1.643
 6517TIP3    H219493   4.215   6.473   1.740
 6518TIP3   OH219494   3.536   4.220   6.770
 6518TIP3    H119495   3.628   4.202   6.787
 6518TIP3    H219496   3.529   4.225   6.674
 6519TIP3   OH219497   6.745   3.302   3.320
 6519TIP3    H119498   6.717   3.349   3.399
 6519TIP3    H219499   6.803   3.364   3.276
 6520TIP3   OH219500   0.961   7.749   0.844
 6520TIP3    H119501   0.877   7.730   0.802
 6520TIP3    H219502   0.941   7.818   0.907
 6521TIP3   OH219503   1.309   6.923   5.518
 6521TIP3    H119504   1.334   7.013   5.499
 6521TIP3    H219505   1.239   6.931   5.583
 6522TIP3   OH219506   2.854   2.214   0.192
 6522TIP3    H119507   2.833   2.291   0.246
 6522TIP3    H219508   2.910   2.160   0.249
 6523TIP3   OH219509   3.358   4.408   2.380
 6523TIP3    H119510   3.267   4.438   2.371
 6523TIP3    H219511   3.392   4.407   2.291
 6524TIP3   OH219512   2.472   0.702   3.281
 6524TIP3    H119513   2.402   0.767   3.294
 6524TIP3    H219514   2.540   0.750   3.233
 6525TIP3   OH219515   6.359   7.526   2.383
 6525TIP3    H119516   6.310   7.450   2.414
 6525TIP3    H219517   6.430   7.535   2.447
 6526TIP3   OH219518   3.684   1.142   1.470
 6526TIP3    H119519   3.630   1.096   1.406
 6526TIP3    H219520   3.684   1.233   1.439
 6527TIP3   OH219521   3.671   0.913   1.153
 6527TIP3    H119522   3.618   0.895   1.231
 6527TIP3    H219523   3.629   0.989   1.112
 6528TIP3   OH219524   7.475   7.642   1.102
 6528TIP3    H119525   7.547   7.627   1.163
 6528TIP3    H219526   7.448   7.554   1.075
 6529TIP3   OH219527   5.585   3.997   2.235
 6529TIP3    H119528   5.542   3.914   2.258
 6529TIP3    H219529   5.622   3.981   2.148
 6530TIP3   OH219530   3.562   0.124   2.965
 6530TIP3    H119531   3.586   0.136   2.873
 6530TIP3    H219532   3.483   0.071   2.962
 6531TIP3   OH219533   3.167   0.235   4.032
 6531TIP3    H119534   3.155   0.318   4.076
 6531TIP3    H219535   3.104   0.236   3.960
 6532TIP3   OH219536   2.144   7.572   6.576
 6532TIP3    H119537   2.156   7.543   6.667
 6532TIP3    H219538   2.086   7.506   6.538
 6533TIP3   OH219539   6.380   6.790   5.006
 6533TIP3    H119540   6.439   6.856   5.043
 6533TIP3    H219541   6.435   6.712   4.995
 6534TIP3   OH219542   4.575   0.866   4.998
 6534TIP3    H119543   4.553   0.958   5.013
 6534TIP3    H219544   4.529   0.843   4.918
 6535TIP3   OH219545   5.900   3.175   5.819
 6535TIP3    H119546   5.949   3.129   5.887
 6535TIP3    H219547   5.891   3.265   5.852
 6536TIP3   OH219548   0.959   6.585   4.657
 6536TIP3    H119549   0.956   6.549   4.569
 6536TIP3    H219550   1.049   6.617   4.667
 6537TIP3   OH219551   5.694   3.705   0.480
 6537TIP3    H119552   5.755   3.685   0.408
 6537TIP3    H219553   5.710   3.636   0.544
 6538TIP3   OH219554   2.501   3.417   0.336
 6538TIP3    H119555   2.423   3.471   0.349
 6538TIP3    H219556   2.517   3.421   0.241
 6539TIP3   OH219557   7.158   3.530   3.573
 6539TIP3    H119558   7.233   3.508   3.517
 6539TIP3    H219559   7.168   3.624   3.590
 6540TIP3   OH219560   4.987   7.395   4.630
 6540TIP3    H119561   4.993   7.485   4.662
 6540TIP3    H219562   4.935   7.402   4.550
 6541TIP3   OH219563   5.406   4.985   1.712
 6541TIP3    H119564   5.419   4.942   1.796
 6541TIP3    H219565   5.341   5.053   1.730
 6542TIP3   OH219566   3.809   4.916   4.018
 6542TIP3    H119567   3.882   4.886   4.072
 6542TIP3    H219568   3.764   4.835   3.992
 6543TIP3   OH219569   3.919   0.497   3.169
 6543TIP3    H119570   3.889   0.526   3.255
 6543TIP3    H219571   3.971   0.419   3.186
 6544TIP3   OH219572   4.932   4.336   5.374
 6544TIP3    H119573   5.005   4.319   5.314
 6544TIP3    H219574   4.876   4.397   5.327
 6545TIP3   OH219575   7.302   1.445   6.599
 6545TIP3    H119576   7.265   1.375   6.546
 6545TIP3    H219577   7.323   1.514   6.536
 6546TIP3   OH219578   2.292   3.953   5.360
 6546TIP3    H119579   2.286   3.991   5.448
 6546TIP3    H219580   2.320   4.026   5.305
 6547TIP3   OH219581   3.202   0.860   1.330
 6547TIP3    H119582   3.176   0.777   1.289
 6547TIP3    H219583   3.195   0.924   1.259
 6548TIP3   OH219584   7.759   7.165   3.920
 6548TIP3    H119585   7.756   7.218   3.841
 6548TIP3    H219586   7.776   7.076   3.890
 6549TIP3   OH219587   5.053   3.562   0.704
 6549TIP3    H119588   5.131   3.617   0.709
 6549TIP3    H219589   5.013   3.567   0.791
 6550TIP3   OH219590   0.061   6.936   2.869
 6550TIP3    H119591   0.094   6.895   2.949
 6550TIP3    H219592   0.139   6.948   2.814
 6551TIP3   OH219593   3.842   6.929   2.068
 6551TIP3    H119594   3.905   6.999   2.090
 6551TIP3    H219595   3.789   6.967   1.998
 6552TIP3   OH219596   4.882   7.821   3.842
 6552TIP3    H119597   4.953   7.883   3.822
 6552TIP3    H219598   4.835   7.863   3.914
 6553TIP3   OH219599   5.365   2.415   6.720
 6553TIP3    H119600   5.366   2.350   6.790
 6553TIP3    H219601   5.273   2.421   6.695
 6554TIP3   OH219602   7.389   3.408   5.824
 6554TIP3    H119603   7.411   3.368   5.740
 6554TIP3    H219604   7.319   3.352   5.860
 6555TIP3   OH219605   7.374   3.966   3.399
 6555TIP3    H119606   7.445   4.029   3.386
 6555TIP3    H219607   7.335   3.955   3.312
 6556TIP3   OH219608   4.567   0.416   2.254
 6556TIP3    H119609   4.582   0.490   2.313
 6556TIP3    H219610   4.561   0.340   2.312
 6557TIP3   OH219611   5.525   6.532   5.757
 6557TIP3    H119612   5.544   6.438   5.754
 6557TIP3    H219613   5.610   6.574   5.760
 6558TIP3   OH219614   0.899   0.432   0.952
 6558TIP3    H119615   0.858   0.481   0.880
 6558TIP3    H219616   0.993   0.443   0.938
 6559TIP3   OH219617   2.787   2.394   0.400
 6559TIP3    H119618   2.791   2.471   0.343
 6559TIP3    H219619   2.812   2.426   0.486
 6560TIP3   OH219620   7.405   4.664   3.062
 6560TIP3    H119621   7.408   4.721   2.985
 6560TIP3    H219622   7.392   4.723   3.136
 6561TIP3   OH219623   5.951   1.806   4.102
 6561TIP3    H119624   6.034   1.816   4.056
 6561TIP3    H219625   5.931   1.713   4.097
 6562TIP3   OH219626   2.666   6.323   4.315
 6562TIP3    H119627   2.748   6.355   4.352
 6562TIP3    H219628   2.657   6.370   4.232
 6563TIP3   OH219629   4.261   2.964   1.011
 6563TIP3    H119630   4.252   2.874   0.982
 6563TIP3    H219631   4.198   3.013   0.958
 6564TIP3   OH219632   7.968   0.214   4.651
 6564TIP3    H119633   7.975   0.128   4.692
 6564TIP3    H219634   7.883   0.213   4.607
 6565TIP3   OH219635   2.999   4.538   0.585
 6565TIP3    H119636   2.965   4.523   0.496
 6565TIP3    H219637   2.997   4.633   0.596
 6566TIP3   OH219638   0.314   5.779   3.265
 6566TIP3    H119639   0.222   5.779   3.239
 6566TIP3    H219640   0.362   5.792   3.183
 6567TIP3   OH219641   0.220   0.682   4.464
 6567TIP3    H119642   0.259   0.595   4.455
 6567TIP3    H219643   0.253   0.731   4.389
 6568TIP3   OH219644   2.754   1.092   1.289
 6568TIP3    H119645   2.706   1.168   1.258
 6568TIP3    H219646   2.715   1.072   1.374
 6569TIP3   OH219647   6.399   6.616   3.276
 6569TIP3    H119648   6.321   6.568   3.303
 6569TIP3    H219649   6.407   6.688   3.339
 6570TIP3   OH219650   8.224   0.062   4.352
 6570TIP3    H119651   8.316   0.072   4.379
 6570TIP3    H219652   8.181   0.142   4.384
 6571TIP3   OH219653   4.509   1.083   6.298
 6571TIP3    H119654   4.428   1.105   6.254
 6571TIP3    H219655   4.577   1.126   6.246
 6572TIP3   OH219656   0.723   2.087   1.384
 6572TIP3    H119657   0.760   2.013   1.335
 6572TIP3    H219658   0.749   2.164   1.334
 6573TIP3   OH219659   5.256   3.165   5.792
 6573TIP3    H119660   5.270   3.235   5.728
 6573TIP3    H219661   5.221   3.093   5.741
 6574TIP3   OH219662   3.015   2.995   0.637
 6574TIP3    H119663   3.001   3.060   0.568
 6574TIP3    H219664   3.020   2.912   0.590
 6575TIP3   OH219665   1.830   1.491   2.360
 6575TIP3    H119666   1.772   1.544   2.304
 6575TIP3    H219667   1.908   1.477   2.306
 6576TIP3   OH219668   5.093   4.804   2.353
 6576TIP3    H119669   5.119   4.712   2.362
 6576TIP3    H219670   5.175   4.850   2.333
 6577TIP3   OH219671   1.369   7.151   0.789
 6577TIP3    H119672   1.348   7.207   0.863
 6577TIP3    H219673   1.434   7.202   0.739
 6578TIP3   OH219674   4.380   2.709   3.298
 6578TIP3    H119675   4.318   2.693   3.226
 6578TIP3    H219676   4.332   2.682   3.377
 6579TIP3   OH219677   1.170   0.062   5.926
 6579TIP3    H119678   1.084   0.022   5.937
 6579TIP3    H219679   1.203   0.072   6.016
 6580TIP3   OH219680   3.744   0.890   2.757
 6580TIP3    H119681   3.696   0.963   2.796
 6580TIP3    H219682   3.835   0.905   2.781
 6581TIP3   OH219683   2.971   0.643   3.101
 6581TIP3    H119684   3.062   0.674   3.101
 6581TIP3    H219685   2.977   0.551   3.125
 6582TIP3   OH219686   1.568   0.668   5.905
 6582TIP3    H119687   1.637   0.607   5.879
 6582TIP3    H219688   1.579   0.677   6.000
 6583TIP3   OH219689   0.916   7.468   4.779
 6583TIP3    H119690   0.878   7.438   4.861
 6583TIP3    H219691   0.977   7.537   4.805
 6584TIP3   OH219692   1.351   2.103   3.601
 6584TIP3    H119693   1.300   2.146   3.533
 6584TIP3    H219694   1.313   2.016   3.609
 6585TIP3   OH219695   6.468   3.965   5.469
 6585TIP3    H119696   6.477   3.871   5.484
 6585TIP3    H219697   6.383   3.987   5.508
 6586TIP3   OH219698   0.078   7.408   5.780
 6586TIP3    H119699   0.081   7.393   5.686
 6586TIP3    H219700   0.115   7.495   5.791
 6587TIP3   OH219701   5.246   1.381   5.755
 6587TIP3    H119702   5.303   1.391   5.831
 6587TIP3    H219703   5.305   1.367   5.681
 6588TIP3   OH219704   0.913   1.524   1.188
 6588TIP3    H119705   0.961   1.454   1.143
 6588TIP3    H219706   0.945   1.605   1.147
 6589TIP3   OH219707   4.577   3.069   1.323
 6589TIP3    H119708   4.595   3.050   1.415
 6589TIP3    H219709   4.484   3.048   1.312
 6590TIP3   OH219710   2.296   1.630   5.574
 6590TIP3    H119711   2.341   1.563   5.627
 6590TIP3    H219712   2.207   1.597   5.563
 6591TIP3   OH219713   3.924   1.579   6.883
 6591TIP3    H119714   3.925   1.550   6.792
 6591TIP3    H219715   3.905   1.673   6.878
 6592TIP3   OH219716   1.854   1.494   3.758
 6592TIP3    H119717   1.826   1.576   3.717
 6592TIP3    H219718   1.928   1.519   3.813
 6593TIP3   OH219719   7.261   5.138   3.069
 6593TIP3    H119720   7.269   5.227   3.035
 6593TIP3    H219721   7.218   5.149   3.154
 6594TIP3   OH219722   0.128   0.362   5.630
 6594TIP3    H119723   0.172   0.418   5.695
 6594TIP3    H219724   0.054   0.326   5.678
 6595TIP3   OH219725   4.579   3.656   6.123
 6595TIP3    H119726   4.626   3.736   6.101
 6595TIP3    H219727   4.493   3.666   6.081
 6596TIP3   OH219728   8.051   2.800   5.578
 6596TIP3    H119729   8.021   2.753   5.500
 6596TIP3    H219730   8.142   2.822   5.559
 6597TIP3   OH219731   4.279   3.632   3.118
 6597TIP3    H119732   4.279   3.549   3.166
 6597TIP3    H219733   4.370   3.661   3.122
 6598TIP3   OH219734   5.858   6.919   0.921
 6598TIP3    H119735   5.776   6.931   0.874
 6598TIP3    H219736   5.861   6.825   0.942
 6599TIP3   OH219737   4.286   4.939   1.117
 6599TIP3    H119738   4.374   4.907   1.135
 6599TIP3    H219739   4.233   4.911   1.192
 6600TIP3   OH219740   2.198   2.059   0.274
 6600TIP3    H119741   2.160   1.989   0.327
 6600TIP3    H219742   2.229   2.014   0.195
 6601TIP3   OH219743   3.064   4.239   0.627
 6601TIP3    H119744   3.093   4.183   0.555
 6601TIP3    H219745   3.047   4.324   0.587
 6602TIP3   OH219746   0.029   5.045   3.666
 6602TIP3    H119747  -0.007   5.133   3.652
 6602TIP3    H219748  -0.003   5.020   3.753
 6603TIP3   OH219749   7.424   6.738   5.328
 6603TIP3    H119750   7.387   6.718   5.242
 6603TIP3    H219751   7.353   6.781   5.375
 6604TIP3   OH219752   5.812   6.747   0.494
 6604TIP3    H119753   5.887   6.798   0.463
 6604TIP3    H219754   5.848   6.693   0.564
 6605TIP3   OH219755   2.053   3.207   2.651
 6605TIP3    H119756   2.144   3.237   2.649
 6605TIP3    H219757   2.056   3.127   2.705
 6606TIP3   OH219758   4.403   7.744   1.538
 6606TIP3    H119759   4.369   7.718   1.624
 6606TIP3    H219760   4.327   7.775   1.490
 6607TIP3   OH219761   4.996   7.026   2.512
 6607TIP3    H119762   5.033   6.943   2.541
 6607TIP3    H219763   4.925   7.043   2.574
 6608TIP3   OH219764   3.868   3.646   6.403
 6608TIP3    H119765   3.829   3.720   6.449
 6608TIP3    H219766   3.805   3.625   6.333
 6609TIP3   OH219767   2.172   7.781   2.331
 6609TIP3    H119768   2.140   7.817   2.413
 6609TIP3    H219769   2.097   7.785   2.272
 6610TIP3   OH219770   6.924   0.392   1.227
 6610TIP3    H119771   6.914   0.343   1.145
 6610TIP3    H219772   6.858   0.461   1.222
 6611TIP3   OH219773   3.695   5.746   4.520
 6611TIP3    H119774   3.694   5.698   4.602
 6611TIP3    H219775   3.765   5.705   4.469
 6612TIP3   OH219776   3.107   7.151   3.032
 6612TIP3    H119777   3.043   7.144   2.961
 6612TIP3    H219778   3.127   7.060   3.054
 6613TIP3   OH219779   7.172   1.477   5.419
 6613TIP3    H119780   7.141   1.391   5.390
 6613TIP3    H219781   7.100   1.537   5.399
 6614TIP3   OH219782   4.649   5.067   2.408
 6614TIP3    H119783   4.588   4.996   2.427
 6614TIP3    H219784   4.724   5.024   2.367
 6615TIP3   OH219785   4.909   1.202   0.076
 6615TIP3    H119786   4.976   1.206   0.144
 6615TIP3    H219787   4.838   1.257   0.109
 6616TIP3   OH219788   4.639   6.649   0.801
 6616TIP3    H119789   4.728   6.670   0.827
 6616TIP3    H219790   4.638   6.660   0.706
 6617TIP3   OH219791   8.130   0.073   2.637
 6617TIP3    H119792   8.204   0.018   2.664
 6617TIP3    H219793   8.156   0.162   2.662
 6618TIP3   OH219794   0.317   4.822   6.188
 6618TIP3    H119795   0.374   4.821   6.111
 6618TIP3    H219796   0.349   4.751   6.242
 6619TIP3   OH219797   0.018   6.802   0.395
 6619TIP3    H119798  -0.066   6.786   0.440
 6619TIP3    H219799  -0.006   6.806   0.303
 6620TIP3   OH219800   5.982   7.409   0.676
 6620TIP3    H119801   5.999   7.437   0.586
 6620TIP3    H219802   5.979   7.489   0.727
 6621TIP3   OH219803   1.201   6.717   1.643
 6621TIP3    H119804   1.153   6.708   1.560
 6621TIP3    H219805   1.170   6.643   1.696
 6622TIP3   OH219806   2.629   5.032   1.516
 6622TIP3    H119807   2.609   4.983   1.596
 6622TIP3    H219808   2.665   4.967   1.456
 6623TIP3   OH219809   3.605   6.674   2.475
 6623TIP3    H119810   3.700   6.686   2.475
 6623TIP3    H219811   3.571   6.757   2.510
 6624TIP3   OH219812   6.313   3.487   5.557
 6624TIP3    H119813   6.223   3.514   5.541
 6624TIP3    H219814   6.306   3.414   5.618
 6625TIP3   OH219815   1.667   0.565   2.990
 6625TIP3    H119816   1.717   0.638   3.028
 6625TIP3    H219817   1.702   0.487   3.033
 6626TIP3   OH219818   5.024   7.766   5.773
 6626TIP3    H119819   4.960   7.804   5.712
 6626TIP3    H219820   5.107   7.804   5.746
 6627TIP3   OH219821   7.244   4.240   3.554
 6627TIP3    H119822   7.149   4.234   3.547
 6627TIP3    H219823   7.265   4.198   3.637
 6628TIP3   OH219824   6.403   0.559   5.111
 6628TIP3    H119825   6.335   0.611   5.068
 6628TIP3    H219826   6.418   0.486   5.052
 6629TIP3   OH219827   8.246   2.689   1.594
 6629TIP3    H119828   8.188   2.618   1.622
 6629TIP3    H219829   8.287   2.719   1.675
 6630TIP3   OH219830   0.402   5.439   0.122
 6630TIP3    H119831   0.324   5.479   0.084
 6630TIP3    H219832   0.470   5.451   0.056
 6631TIP3   OH219833   6.794   5.891   4.904
 6631TIP3    H119834   6.816   5.983   4.919
 6631TIP3    H219835   6.773   5.886   4.811
 6632TIP3   OH219836   2.144   4.408   0.498
 6632TIP3    H119837   2.127   4.358   0.578
 6632TIP3    H219838   2.123   4.499   0.522
 6633TIP3   OH219839   0.930   2.426   5.732
 6633TIP3    H119840   0.965   2.338   5.718
 6633TIP3    H219841   0.853   2.412   5.788
 6634TIP3   OH219842   4.373   1.988   2.650
 6634TIP3    H119843   4.314   1.938   2.593
 6634TIP3    H219844   4.383   2.072   2.605
 6635TIP3   OH219845   2.987   4.324   3.829
 6635TIP3    H119846   3.049   4.365   3.769
 6635TIP3    H219847   2.989   4.380   3.907
 6636TIP3   OH219848   3.197   0.517   1.424
 6636TIP3    H119849   3.267   0.472   1.472
 6636TIP3    H219850   3.238   0.546   1.343
 6637TIP3   OH219851   3.249   3.443   1.690
 6637TIP3    H119852   3.238   3.406   1.777
 6637TIP3    H219853   3.160   3.464   1.661
 6638TIP3   OH219854   0.097   2.372   5.679
 6638TIP3    H119855   0.007   2.401   5.663
 6638TIP3    H219856   0.097   2.347   5.772
 6639TIP3   OH219857   6.224   5.025   5.202
 6639TIP3    H119858   6.185   5.098   5.251
 6639TIP3    H219859   6.252   4.963   5.269
 6640TIP3   OH219860   1.794   6.516   3.833
 6640TIP3    H119861   1.879   6.559   3.831
 6640TIP3    H219862   1.732   6.583   3.803
 6641TIP3   OH219863   1.202   1.046   2.094
 6641TIP3    H119864   1.237   0.958   2.105
 6641TIP3    H219865   1.279   1.102   2.084
 6642TIP3   OH219866   8.276   4.136   6.337
 6642TIP3    H119867   8.347   4.184   6.378
 6642TIP3    H219868   8.198   4.191   6.350
 6643TIP3   OH219869   4.309   3.277   1.107
 6643TIP3    H119870   4.261   3.194   1.103
 6643TIP3    H219871   4.385   3.264   1.051
 6644TIP3   OH219872   5.252   7.399   4.574
 6644TIP3    H119873   5.231   7.402   4.481
 6644TIP3    H219874   5.169   7.380   4.617
 6645TIP3   OH219875   1.293   5.095   2.711
 6645TIP3    H119876   1.273   5.059   2.797
 6645TIP3    H219877   1.376   5.055   2.685
 6646TIP3   OH219878   0.667   4.343   4.547
 6646TIP3    H119879   0.738   4.373   4.604
 6646TIP3    H219880   0.708   4.335   4.461
 6647TIP3   OH219881   1.860   1.568   1.626
 6647TIP3    H119882   1.830   1.641   1.573
 6647TIP3    H219883   1.943   1.598   1.664
 6648TIP3   OH219884   4.167   4.759   0.207
 6648TIP3    H119885   4.085   4.753   0.158
 6648TIP3    H219886   4.142   4.793   0.292
 6649TIP3   OH219887   1.817   5.804   5.646
 6649TIP3    H119888   1.824   5.730   5.707
 6649TIP3    H219889   1.904   5.843   5.646
 6650TIP3   OH219890   5.642   3.973   0.567
 6650TIP3    H119891   5.656   3.882   0.539
 6650TIP3    H219892   5.729   4.004   0.592
 6651TIP3   OH219893   2.637   2.233   6.074
 6651TIP3    H119894   2.612   2.170   6.006
 6651TIP3    H219895   2.565   2.231   6.136
 6652TIP3   OH219896   2.590   6.117   3.372
 6652TIP3    H119897   2.635   6.033   3.363
 6652TIP3    H219898   2.520   6.115   3.307
 6653TIP3   OH219899   5.467   2.864   0.667
 6653TIP3    H119900   5.514   2.864   0.750
 6653TIP3    H219901   5.391   2.920   0.682
 6654TIP3   OH219902   1.012   0.426   6.558
 6654TIP3    H119903   0.996   0.486   6.631
 6654TIP3    H219904   1.023   0.483   6.482
 6655TIP3   OH219905   6.633   4.329   0.121
 6655TIP3    H119906   6.719   4.288   0.132
 6655TIP3    H219907   6.635   4.405   0.179
 6656TIP3   OH219908   6.653   7.207   3.473
 6656TIP3    H119909   6.563   7.197   3.503
 6656TIP3    H219910   6.690   7.276   3.529
 6657TIP3   OH219911   4.857   1.528   0.768
 6657TIP3    H119912   4.871   1.623   0.767
 6657TIP3    H219913   4.773   1.517   0.812
 6658TIP3   OH219914   0.481   0.774   1.424
 6658TIP3    H119915   0.465   0.714   1.352
 6658TIP3    H219916   0.410   0.757   1.487
 6659TIP3   OH219917   0.482   6.873   0.502
 6659TIP3    H119918   0.439   6.852   0.585
 6659TIP3    H219919   0.444   6.812   0.439
 6660TIP3   OH219920   4.578   0.710   1.478
 6660TIP3    H119921   4.544   0.717   1.567
 6660TIP3    H219922   4.655   0.653   1.487
 6661TIP3   OH219923   1.714   2.329   1.432
 6661TIP3    H119924   1.670   2.383   1.497
 6661TIP3    H219925   1.721   2.385   1.355
 6662TIP3   OH219926   0.564   2.631   6.611
 6662TIP3    H119927   0.605   2.718   6.616
 6662TIP3    H219928   0.577   2.604   6.521
 6663TIP3   OH219929   8.297   7.774   2.434
 6663TIP3    H119930   8.272   7.809   2.349
 6663TIP3    H219931   8.330   7.686   2.416
 6664TIP3   OH219932   4.613   1.636   4.591
 6664TIP3    H119933   4.530   1.645   4.545
 6664TIP3    H219934   4.679   1.644   4.522
 6665TIP3   OH219935   2.034   5.025   0.702
 6665TIP3    H119936   2.075   4.988   0.624
 6665TIP3    H219937   2.025   4.950   0.762
 6666TIP3   OH219938   7.105   1.828   2.301
 6666TIP3    H119939   7.139   1.816   2.212
 6666TIP3    H219940   7.062   1.745   2.321
 6667TIP3   OH219941   4.461   5.533   3.455
 6667TIP3    H119942   4.535   5.571   3.406
 6667TIP3    H219943   4.473   5.565   3.544
 6668TIP3   OH219944   1.993   7.797   6.070
 6668TIP3    H119945   2.052   7.870   6.051
 6668TIP3    H219946   2.007   7.736   5.998
 6669TIP3   OH219947   2.855   3.961   2.940
 6669TIP3    H119948   2.882   4.018   3.012
 6669TIP3    H219949   2.902   3.993   2.864
 6670TIP3   OH219950   7.997   3.991   0.823
 6670TIP3    H119951   8.053   4.059   0.786
 6670TIP3    H219952   8.015   3.994   0.917
 6671TIP3   OH219953   2.452   4.966   4.971
 6671TIP3    H119954   2.546   4.948   4.977
 6671TIP3    H219955   2.411   4.883   4.997
 6672TIP3   OH219956   0.595   3.149   0.639
 6672TIP3    H119957   0.583   3.092   0.716
 6672TIP3    H219958   0.687   3.138   0.615
 6673TIP3   OH219959   2.058   5.345   3.660
 6673TIP3    H119960   2.098   5.322   3.744
 6673TIP3    H219961   2.088   5.276   3.600
 6674TIP3   OH219962   3.157   5.712   6.193
 6674TIP3    H119963   3.183   5.802   6.213
 6674TIP3    H219964   3.104   5.719   6.114
 6675TIP3   OH219965   4.916   1.494   3.077
 6675TIP3    H119966   4.977   1.564   3.100
 6675TIP3    H219967   4.972   1.417   3.064
 6676TIP3   OH219968   8.438   1.816   5.214
 6676TIP3    H119969   8.378   1.887   5.238
 6676TIP3    H219970   8.383   1.752   5.168
 6677TIP3   OH219971   4.864   6.931   0.382
 6677TIP3    H119972   4.800   7.002   0.369
 6677TIP3    H219973   4.847   6.900   0.471
 6678TIP3   OH219974   4.219   0.568   1.901
 6678TIP3    H119975   4.282   0.583   1.971
 6678TIP3    H219976   4.142   0.617   1.927
 6679TIP3   OH219977   5.222   6.279   5.187
 6679TIP3    H119978   5.236   6.195   5.144
 6679TIP3    H219979   5.140   6.268   5.235
 6680TIP3   OH219980   4.370   0.144   3.531
 6680TIP3    H119981   4.320   0.208   3.480
 6680TIP3    H219982   4.459   0.179   3.534
 6681TIP3   OH219983   5.841   0.738   0.922
 6681TIP3    H119984   5.749   0.742   0.894
 6681TIP3    H219985   5.874   0.827   0.909
 6682TIP3   OH219986   5.303   5.016   2.293
 6682TIP3    H119987   5.370   5.053   2.349
 6682TIP3    H219988   5.226   5.072   2.307
 6683TIP3   OH219989   5.209   0.118   0.756
 6683TIP3    H119990   5.252   0.075   0.682
 6683TIP3    H219991   5.189   0.206   0.724
 6684TIP3   OH219992   5.311   0.677   0.654
 6684TIP3    H119993   5.217   0.671   0.675
 6684TIP3    H219994   5.355   0.633   0.727
 6685TIP3   OH219995   2.434   2.979   1.691
 6685TIP3    H119996   2.399   2.976   1.602
 6685TIP3    H219997   2.529   2.977   1.678
 6686TIP3   OH219998   5.437   3.047   6.450
 6686TIP3    H119999   5.438   3.015   6.360
 6686TIP3    H220000   5.356   3.097   6.457
 6687TIP3   OH220001   1.521   1.339   3.537
 6687TIP3    H120002   1.440   1.303   3.501
 6687TIP3    H220003   1.582   1.339   3.464
 6688TIP3   OH220004   0.585   6.974   6.605
 6688TIP3    H120005   0.600   6.998   6.697
 6688TIP3    H220006   0.497   6.936   6.604
 6689TIP3   OH220007   5.668   5.085   1.627
 6689TIP3    H120008   5.576   5.061   1.638
 6689TIP3    H220009   5.697   5.112   1.714
 6690TIP3   OH220010   7.396   0.607   1.305
 6690TIP3    H120011   7.430   0.518   1.293
 6690TIP3    H220012   7.301   0.597   1.295
 6691TIP3   OH220013   1.639   7.769   0.054
 6691TIP3    H120014   1.577   7.841   0.051
 6691TIP3    H220015   1.608   7.713   0.126
 6692TIP3   OH220016   0.226   1.437   0.343
 6692TIP3    H120017   0.301   1.495   0.328
 6692TIP3    H220018   0.154   1.480   0.297
 6693TIP3   OH220019   4.551   6.935   6.661
 6693TIP3    H120020   4.536   6.974   6.575
 6693TIP3    H220021   4.568   6.843   6.643
 6694TIP3   OH220022   2.610   1.624   2.671
 6694TIP3    H120023   2.697   1.656   2.694
 6694TIP3    H220024   2.623   1.530   2.655
 6695TIP3   OH220025   3.891   4.396   2.252
 6695TIP3    H120026   3.939   4.332   2.199
 6695TIP3    H220027   3.925   4.481   2.224
 6696TIP3   OH220028   1.811   5.615   1.703
 6696TIP3    H120029   1.742   5.671   1.737
 6696TIP3    H220030   1.764   5.541   1.664
 6697TIP3   OH220031   5.565   0.663   1.917
 6697TIP3    H120032   5.612   0.726   1.863
 6697TIP3    H220033   5.483   0.706   1.939
 6698TIP3   OH220034   5.947   6.625   0.678
 6698TIP3    H120035   5.970   6.549   0.732
 6698TIP3    H220036   5.874   6.666   0.724
 6699TIP3   OH220037   7.812   2.455   2.851
 6699TIP3    H120038   7.889   2.410   2.818
 6699TIP3    H220039   7.780   2.399   2.922
 6700TIP3   OH220040   0.313   7.011   3.811
 6700TIP3    H120041   0.293   7.085   3.754
 6700TIP3    H220042   0.316   7.049   3.899
 6701TIP3   OH220043   1.280   3.406   0.037
 6701TIP3    H120044   1.366   3.440   0.062
 6701TIP3    H220045   1.290   3.311   0.040
 6702TIP3   OH220046   2.735   3.296   2.920
 6702TIP3    H120047   2.775   3.229   2.976
 6702TIP3    H220048   2.809   3.348   2.888
 6703TIP3   OH220049   4.026   7.798   4.755
 6703TIP3    H120050   4.073   7.866   4.706
 6703TIP3    H220051   4.020   7.832   4.844
 6704TIP3   OH220052   3.358   0.275   2.638
 6704TIP3    H120053   3.309   0.204   2.680
 6704TIP3    H220054   3.417   0.307   2.707
 6705TIP3   OH220055   6.498   5.229   0.734
 6705TIP3    H120056   6.460   5.181   0.661
 6705TIP3    H220057   6.427   5.238   0.797
 6706TIP3   OH220058   8.147   6.614   0.308
 6706TIP3    H120059   8.054   6.630   0.289
 6706TIP3    H220060   8.173   6.545   0.246
 6707TIP3   OH220061   4.310   1.707   5.444
 6707TIP3    H120062   4.271   1.628   5.481
 6707TIP3    H220063   4.396   1.714   5.488
 6708TIP3   OH220064   7.004   4.102   2.698
 6708TIP3    H120065   6.909   4.097   2.690
 6708TIP3    H220066   7.035   4.018   2.664
 6709TIP3   OH220067   6.171   3.455   4.050
 6709TIP3    H120068   6.250   3.501   4.078
 6709TIP3    H220069   6.148   3.399   4.124
 6710TIP3   OH220070   2.028   5.932   6.420
 6710TIP3    H120071   1.953   5.886   6.381
 6710TIP3    H220072   2.009   6.025   6.403
 6711TIP3   OH220073   7.310   4.843   1.037
 6711TIP3    H120074   7.405   4.830   1.047
 6711TIP3    H220075   7.280   4.765   0.991
 6712TIP3   OH220076   3.881   4.791   2.676
 6712TIP3    H120077   3.823   4.750   2.740
 6712TIP3    H220078   3.827   4.806   2.599
 6713TIP3   OH220079   3.293   1.406   0.913
 6713TIP3    H120080   3.320   1.374   0.826
 6713TIP3    H220081   3.306   1.501   0.908
 6714TIP3   OH220082   2.834   7.333   4.724
 6714TIP3    H120083   2.774   7.284   4.669
 6714TIP3    H220084   2.778   7.374   4.790
 6715TIP3   OH220085   2.963   7.412   2.878
 6715TIP3    H120086   2.999   7.423   2.966
 6715TIP3    H220087   3.010   7.338   2.841
 6716TIP3   OH220088   3.628   0.282   2.381
 6716TIP3    H120089   3.544   0.325   2.401
 6716TIP3    H220090   3.689   0.317   2.445
 6717TIP3   OH220091   4.039   4.790   4.140
 6717TIP3    H120092   4.123   4.834   4.153
 6717TIP3    H220093   4.012   4.762   4.228
 6718TIP3   OH220094   5.255   5.895   4.052
 6718TIP3    H120095   5.188   5.919   3.989
 6718TIP3    H220096   5.322   5.850   4.000
 6719TIP3   OH220097   1.885   3.112   0.785
 6719TIP3    H120098   1.801   3.117   0.738
 6719TIP3    H220099   1.882   3.027   0.829
 6720TIP3   OH220100   7.572   3.958   6.125
 6720TIP3    H120101   7.538   4.035   6.171
 6720TIP3    H220102   7.495   3.920   6.082
 6721TIP3   OH220103   2.363   4.691   2.851
 6721TIP3    H120104   2.354   4.610   2.901
 6721TIP3    H220105   2.455   4.714   2.859
 6722TIP3   OH220106   4.574   3.579   1.365
 6722TIP3    H120107   4.554   3.657   1.417
 6722TIP3    H220108   4.520   3.510   1.403
 6723TIP3   OH220109   0.027   5.688   4.616
 6723TIP3    H120110  -0.013   5.646   4.540
 6723TIP3    H220111   0.036   5.780   4.591
 6724TIP3   OH220112   0.868   1.864   1.288
 6724TIP3    H120113   0.839   1.785   1.335
 6724TIP3    H220114   0.962   1.870   1.307
 6725TIP3   OH220115   6.295   7.540   2.816
 6725TIP3    H120116   6.295   7.559   2.910
 6725TIP3    H220117   6.383   7.505   2.799
 6726TIP3   OH220118   3.580   1.433   2.869
 6726TIP3    H120119   3.652   1.422   2.932
 6726TIP3    H220120   3.525   1.502   2.907
 6727TIP3   OH220121   3.921   2.175   2.528
 6727TIP3    H120122   3.988   2.232   2.488
 6727TIP3    H220123   3.876   2.231   2.591
 6728TIP3   OH220124   6.242   3.041   0.578
 6728TIP3    H120125   6.220   3.080   0.493
 6728TIP3    H220126   6.167   3.060   0.634
 6729TIP3   OH220127   4.851   5.032   1.660
 6729TIP3    H120128   4.835   4.942   1.629
 6729TIP3    H220129   4.939   5.052   1.629
 6730TIP3   OH220130   7.700   6.449   0.251
 6730TIP3    H120131   7.703   6.353   0.242
 6730TIP3    H220132   7.624   6.465   0.306
 6731TIP3   OH220133   3.428   4.038   4.906
 6731TIP3    H120134   3.371   4.079   4.971
 6731TIP3    H220135   3.423   4.096   4.830
 6732TIP3   OH220136   8.369   1.243   5.761
 6732TIP3    H120137   8.303   1.222   5.829
 6732TIP3    H220138   8.398   1.157   5.729
 6733TIP3   OH220139   6.159   5.744   1.253
 6733TIP3    H120140   6.128   5.717   1.340
 6733TIP3    H220141   6.141   5.838   1.250
 6734TIP3   OH220142   5.943   1.035   6.200
 6734TIP3    H120143   6.005   1.080   6.258
 6734TIP3    H220144   5.903   0.968   6.256
 6735TIP3   OH220145   3.640   6.049   2.353
 6735TIP3    H120146   3.673   6.138   2.359
 6735TIP3    H220147   3.632   6.033   2.259
 6736TIP3   OH220148   2.914   1.330   3.015
 6736TIP3    H120149   2.836   1.288   2.979
 6736TIP3    H220150   2.987   1.289   2.969
 6737TIP3   OH220151   3.156   4.592   0.917
 6737TIP3    H120152   3.135   4.661   0.854
 6737TIP3    H220153   3.165   4.637   1.000
 6738TIP3   OH220154   5.607   2.059   5.183
 6738TIP3    H120155   5.521   2.052   5.143
 6738TIP3    H220156   5.668   2.028   5.115
 6739TIP3   OH220157   0.802   7.038   1.500
 6739TIP3    H120158   0.709   7.023   1.483
 6739TIP3    H220159   0.837   6.950   1.518
 6740TIP3   OH220160   6.164   2.084   3.288
 6740TIP3    H120161   6.113   2.076   3.369
 6740TIP3    H220162   6.253   2.060   3.313
 6741TIP3   OH220163   4.001   2.046   3.167
 6741TIP3    H120164   3.977   2.135   3.193
 6741TIP3    H220165   4.094   2.053   3.143
 6742TIP3   OH220166   6.311   3.027   6.006
 6742TIP3    H120167   6.331   2.989   5.920
 6742TIP3    H220168   6.393   3.024   6.054
 6743TIP3   OH220169   4.818   5.778   6.388
 6743TIP3    H120170   4.882   5.735   6.331
 6743TIP3    H220171   4.760   5.825   6.327
 6744TIP3   OH220172   5.986   3.230   0.409
 6744TIP3    H120173   6.060   3.196   0.360
 6744TIP3    H220174   6.016   3.234   0.500
 6745TIP3   OH220175   5.804   1.831   4.979
 6745TIP3    H120176   5.791   1.924   4.960
 6745TIP3    H220177   5.891   1.825   5.018
 6746TIP3   OH220178   7.445   2.834   2.510
 6746TIP3    H120179   7.500   2.877   2.576
 6746TIP3    H220180   7.500   2.764   2.475
 6747TIP3   OH220181   6.417   2.061   3.012
 6747TIP3    H120182   6.407   2.062   3.107
 6747TIP3    H220183   6.440   2.151   2.989
 6748TIP3   OH220184   6.764   4.699   1.716
 6748TIP3    H120185   6.799   4.783   1.747
 6748TIP3    H220186   6.691   4.680   1.775
 6749TIP3   OH220187   7.662   4.318   1.224
 6749TIP3    H120188   7.660   4.223   1.220
 6749TIP3    H220189   7.607   4.346   1.151
 6750TIP3   OH220190   6.732   3.840   4.020
 6750TIP3    H120191   6.759   3.769   4.077
 6750TIP3    H220192   6.703   3.909   4.080
 6751TIP3   OH220193   4.245   5.249   1.178
 6751TIP3    H120194   4.274   5.331   1.137
 6751TIP3    H220195   4.325   5.197   1.186
 6752TIP3   OH220196   0.793   6.441   6.075
 6752TIP3    H120197   0.792   6.482   6.162
 6752TIP3    H220198   0.713   6.389   6.072
 6753TIP3   OH220199   3.849   7.615   3.078
 6753TIP3    H120200   3.809   7.530   3.058
 6753TIP3    H220201   3.781   7.662   3.126
 6754TIP3   OH220202   5.715   4.135   1.817
 6754TIP3    H120203   5.631   4.181   1.823
 6754TIP3    H220204   5.720   4.108   1.725
 6755TIP3   OH220205   2.445   6.409   5.940
 6755TIP3    H120206   2.530   6.443   5.969
 6755TIP3    H220207   2.442   6.321   5.976
 6756TIP3   OH220208   0.421   4.917   5.559
 6756TIP3    H120209   0.455   4.981   5.497
 6756TIP3    H220210   0.498   4.888   5.608
 6757TIP3   OH220211   7.229   5.692   3.717
 6757TIP3    H120212   7.247   5.780   3.751
 6757TIP3    H220213   7.206   5.641   3.795
 6758TIP3   OH220214   4.294   7.830   2.887
 6758TIP3    H120215   4.371   7.886   2.878
 6758TIP3    H220216   4.326   7.753   2.936
 6759TIP3   OH220217   1.047   0.430   4.786
 6759TIP3    H120218   1.063   0.337   4.801
 6759TIP3    H220219   1.029   0.437   4.692
 6760TIP3   OH220220   0.851   0.060   1.652
 6760TIP3    H120221   0.801   0.031   1.576
 6760TIP3    H220222   0.790   0.051   1.726
 6761TIP3   OH220223   0.483   2.089   6.818
 6761TIP3    H120224   0.448   2.161   6.870
 6761TIP3    H220225   0.516   2.131   6.738
 6762TIP3   OH220226   6.589   4.589   3.841
 6762TIP3    H120227   6.684   4.575   3.849
 6762TIP3    H220228   6.580   4.684   3.831
 6763TIP3   OH220229   7.972   6.868   4.320
 6763TIP3    H120230   7.945   6.960   4.318
 6763TIP3    H220231   8.062   6.870   4.353
 6764TIP3   OH220232   4.105   5.213   4.000
 6764TIP3    H120233   4.180   5.176   3.953
 6764TIP3    H220234   4.105   5.168   4.084
 6765TIP3   OH220235   6.185   3.932   0.994
 6765TIP3    H120236   6.106   3.953   0.944
 6765TIP3    H220237   6.157   3.868   1.059
 6766TIP3   OH220238   0.301   4.548   3.212
 6766TIP3    H120239   0.274   4.466   3.254
 6766TIP3    H220240   0.375   4.522   3.157
 6767TIP3   OH220241   7.471   2.020   3.969
 6767TIP3    H120242   7.407   2.077   3.926
 6767TIP3    H220243   7.556   2.055   3.943
 6768TIP3   OH220244   5.434   3.178   3.482
 6768TIP3    H120245   5.432   3.089   3.518
 6768TIP3    H220246   5.527   3.195   3.464
 6769TIP3   OH220247   2.111   3.976   6.771
 6769TIP3    H120248   2.116   3.990   6.866
 6769TIP3    H220249   2.017   3.980   6.752
 6770TIP3   OH220250   2.791   5.864   5.838
 6770TIP3    H120251   2.824   5.921   5.768
 6770TIP3    H220252   2.700   5.847   5.813
 6771TIP3   OH220253   3.040   5.892   1.082
 6771TIP3    H120254   2.969   5.853   1.031
 6771TIP3    H220255   3.118   5.843   1.057
 6772TIP3   OH220256   2.040   1.227   3.830
 6772TIP3    H120257   2.053   1.271   3.914
 6772TIP3    H220258   2.052   1.134   3.850
 6773TIP3   OH220259   0.220   5.439   2.847
 6773TIP3    H120260   0.252   5.349   2.850
 6773TIP3    H220261   0.201   5.461   2.938
 6774TIP3   OH220262   6.326   7.509   5.845
 6774TIP3    H120263   6.305   7.419   5.819
 6774TIP3    H220264   6.314   7.561   5.765
 6775TIP3   OH220265   1.501   7.308   2.328
 6775TIP3    H120266   1.552   7.235   2.364
 6775TIP3    H220267   1.414   7.297   2.368
 6776TIP3   OH220268   6.313   7.645   3.835
 6776TIP3    H120269   6.235   7.640   3.889
 6776TIP3    H220270   6.359   7.562   3.849
 6777TIP3   OH220271   7.849   7.520   4.970
 6777TIP3    H120272   7.754   7.508   4.978
 6777TIP3    H220273   7.865   7.518   4.876
 6778TIP3   OH220274   1.611   5.298   4.466
 6778TIP3    H120275   1.629   5.297   4.372
 6778TIP3    H220276   1.590   5.207   4.488
 6779TIP3   OH220277   7.047   0.659   0.743
 6779TIP3    H120278   6.982   0.591   0.725
 6779TIP3    H220279   7.131   0.612   0.742
 6780TIP3   OH220280   1.345   6.024   6.658
 6780TIP3    H120281   1.389   6.109   6.658
 6780TIP3    H220282   1.352   5.994   6.749
 6781TIP3   OH220283   5.822   5.759   6.009
 6781TIP3    H120284   5.887   5.690   6.022
 6781TIP3    H220285   5.814   5.767   5.914
 6782TIP3   OH220286   1.330   0.379   0.009
 6782TIP3    H120287   1.278   0.379   0.089
 6782TIP3    H220288   1.322   0.290  -0.025
 6783TIP3   OH220289   2.373   1.210   0.611
 6783TIP3    H120290   2.312   1.183   0.680
 6783TIP3    H220291   2.445   1.147   0.617
 6784TIP3   OH220292   4.284   2.757   3.673
 6784TIP3    H120293   4.245   2.701   3.606
 6784TIP3    H220294   4.375   2.726   3.679
 6785TIP3   OH220295   2.423   3.494   0.062
 6785TIP3    H120296   2.392   3.538  -0.017
 6785TIP3    H220297   2.364   3.420   0.074
 6786TIP3   OH220298   7.354   2.654   4.648
 6786TIP3    H120299   7.331   2.661   4.740
 6786TIP3    H220300   7.307   2.726   4.605
 6787TIP3   OH220301   1.577   3.933   6.634
 6787TIP3    H120302   1.565   3.863   6.698
 6787TIP3    H220303   1.666   3.965   6.650
 6788TIP3   OH220304   4.633   5.550   6.315
 6788TIP3    H120305   4.706   5.611   6.322
 6788TIP3    H220306   4.612   5.526   6.405
 6789TIP3   OH220307   5.513   4.235   6.683
 6789TIP3    H120308   5.438   4.262   6.736
 6789TIP3    H220309   5.510   4.139   6.686
 6790TIP3   OH220310   2.152   1.482   4.645
 6790TIP3    H120311   2.093   1.469   4.570
 6790TIP3    H220312   2.218   1.544   4.613
 6791TIP3   OH220313   7.574   7.283   4.679
 6791TIP3    H120314   7.492   7.261   4.635
 6791TIP3    H220315   7.630   7.207   4.664
 6792TIP3   OH220316   2.855   0.859   4.608
 6792TIP3    H120317   2.912   0.933   4.629
 6792TIP3    H220318   2.876   0.792   4.673
 6793TIP3   OH220319   1.933   2.499   0.526
 6793TIP3    H120320   1.869   2.473   0.461
 6793TIP3    H220321   1.881   2.537   0.597
 6794TIP3   OH220322   1.245   3.264   0.935
 6794TIP3    H120323   1.168   3.285   0.989
 6794TIP3    H220324   1.211   3.255   0.846
 6795TIP3   OH220325   7.830   2.500   5.803
 6795TIP3    H120326   7.759   2.561   5.824
 6795TIP3    H220327   7.907   2.556   5.792
 6796TIP3   OH220328   7.099   2.229   6.729
 6796TIP3    H120329   7.112   2.309   6.781
 6796TIP3    H220330   7.078   2.261   6.642
 6797TIP3   OH220331   5.228   3.653   5.079
 6797TIP3    H120332   5.195   3.702   5.155
 6797TIP3    H220333   5.163   3.585   5.065
 6798TIP3   OH220334   4.582   6.961   2.905
 6798TIP3    H120335   4.519   6.889   2.917
 6798TIP3    H220336   4.633   6.935   2.829
 6799TIP3   OH220337   0.238   0.632   3.492
 6799TIP3    H120338   0.279   0.563   3.440
 6799TIP3    H220339   0.174   0.586   3.546
 6800TIP3   OH220340   2.844   1.767   2.766
 6800TIP3    H120341   2.836   1.717   2.848
 6800TIP3    H220342   2.929   1.742   2.731
 6801TIP3   OH220343   7.783   3.127   3.365
 6801TIP3    H120344   7.846   3.188   3.405
 6801TIP3    H220345   7.759   3.067   3.435
 6802TIP3   OH220346   1.319   6.742   4.616
 6802TIP3    H120347   1.298   6.723   4.707
 6802TIP3    H220348   1.343   6.656   4.579
 6803TIP3   OH220349   0.663   2.012   0.367
 6803TIP3    H120350   0.701   2.008   0.455
 6803TIP3    H220351   0.689   1.929   0.326
 6804TIP3   OH220352   3.539   2.821   0.552
 6804TIP3    H120353   3.467   2.882   0.535
 6804TIP3    H220354   3.548   2.772   0.470
 6805TIP3   OH220355   5.216   4.506   0.118
 6805TIP3    H120356   5.133   4.469   0.089
 6805TIP3    H220357   5.241   4.566   0.048
 6806TIP3   OH220358   7.548   3.265   5.640
 6806TIP3    H120359   7.616   3.197   5.635
 6806TIP3    H220360   7.487   3.243   5.569
 6807TIP3   OH220361   5.575   0.747   5.673
 6807TIP3    H120362   5.546   0.821   5.727
 6807TIP3    H220363   5.532   0.760   5.589
 6808TIP3   OH220364   1.572   4.001   6.196
 6808TIP3    H120365   1.561   4.030   6.105
 6808TIP3    H220366   1.495   3.947   6.214
 6809TIP3   OH220367   3.898   1.105   5.899
 6809TIP3    H120368   3.846   1.114   5.979
 6809TIP3    H220369   3.852   1.159   5.835
 6810TIP3   OH220370   1.119   2.339   2.931
 6810TIP3    H120371   1.165   2.266   2.889
 6810TIP3    H220372   1.076   2.385   2.859
 6811TIP3   OH220373   3.215   5.428   4.721
 6811TIP3    H120374   3.125   5.453   4.744
 6811TIP3    H220375   3.229   5.345   4.767
 6812TIP3   OH220376   0.815   1.243   4.398
 6812TIP3    H120377   0.821   1.277   4.308
 6812TIP3    H220378   0.839   1.150   4.390
 6813TIP3   OH220379   1.602   5.482   3.853
 6813TIP3    H120380   1.560   5.507   3.936
 6813TIP3    H220381   1.695   5.481   3.872
 6814TIP3   OH220382   6.416   2.308   1.058
 6814TIP3    H120383   6.403   2.246   1.129
 6814TIP3    H220384   6.441   2.390   1.101
 6815TIP3   OH220385   5.463   5.978   2.416
 6815TIP3    H120386   5.488   6.059   2.461
 6815TIP3    H220387   5.465   5.911   2.483
 6816TIP3   OH220388   8.075   5.577   3.396
 6816TIP3    H120389   8.118   5.619   3.322
 6816TIP3    H220390   8.117   5.492   3.404
 6817TIP3   OH220391   7.316   2.983   1.903
 6817TIP3    H120392   7.302   2.922   1.976
 6817TIP3    H220393   7.356   3.060   1.943
 6818TIP3   OH220394   2.855   2.969   5.055
 6818TIP3    H120395   2.792   3.041   5.063
 6818TIP3    H220396   2.858   2.929   5.142
 6819TIP3   OH220397   3.974   1.020   4.285
 6819TIP3    H120398   3.921   0.945   4.259
 6819TIP3    H220399   3.987   1.009   4.379
 6820TIP3   OH220400   4.373   3.505   2.617
 6820TIP3    H120401   4.341   3.420   2.587
 6820TIP3    H220402   4.295   3.560   2.621
 6821TIP3   OH220403   2.684   0.715   5.122
 6821TIP3    H120404   2.767   0.747   5.085
 6821TIP3    H220405   2.664   0.778   5.192
 6822TIP3   OH220406   4.372   4.687   5.210
 6822TIP3    H120407   4.320   4.668   5.131
 6822TIP3    H220408   4.462   4.696   5.178
 6823TIP3   OH220409   8.174   6.271   0.549
 6823TIP3    H120410   8.187   6.237   0.460
 6823TIP3    H220411   8.205   6.361   0.545
 6824TIP3   OH220412   8.200   5.334   3.401
 6824TIP3    H120413   8.157   5.250   3.388
 6824TIP3    H220414   8.271   5.315   3.463
 6825TIP3   OH220415   2.287   7.113   2.896
 6825TIP3    H120416   2.365   7.150   2.937
 6825TIP3    H220417   2.213   7.156   2.941
 6826TIP3   OH220418   1.563   5.737   2.319
 6826TIP3    H120419   1.516   5.813   2.286
 6826TIP3    H220420   1.575   5.680   2.243
 6827TIP3   OH220421   4.679   3.455   4.694
 6827TIP3    H120422   4.759   3.481   4.740
 6827TIP3    H220423   4.621   3.423   4.764
 6828TIP3   OH220424   0.423   4.688   5.025
 6828TIP3    H120425   0.374   4.696   5.107
 6828TIP3    H220426   0.365   4.640   4.967
 6829TIP3   OH220427   1.268   5.413   2.527
 6829TIP3    H120428   1.282   5.482   2.463
 6829TIP3    H220429   1.213   5.349   2.482
 6830TIP3   OH220430   4.547   3.031   0.769
 6830TIP3    H120431   4.536   2.939   0.790
 6830TIP3    H220432   4.554   3.074   0.855
 6831TIP3   OH220433   4.395   3.146   3.948
 6831TIP3    H120434   4.307   3.153   3.986
 6831TIP3    H220435   4.447   3.210   3.997
 6832TIP3   OH220436   0.602   1.653   2.341
 6832TIP3    H120437   0.572   1.565   2.319
 6832TIP3    H220438   0.615   1.651   2.436
 6833TIP3   OH220439   4.725   1.382   1.479
 6833TIP3    H120440   4.816   1.410   1.491
 6833TIP3    H220441   4.731   1.293   1.444
 6834TIP3   OH220442   6.099   0.170   5.449
 6834TIP3    H120443   6.103   0.123   5.532
 6834TIP3    H220444   6.170   0.133   5.397
 6835TIP3   OH220445   4.004   7.094   0.832
 6835TIP3    H120446   3.970   7.070   0.918
 6835TIP3    H220447   4.092   7.129   0.849
 6836TIP3   OH220448   7.354   2.927   5.289
 6836TIP3    H120449   7.388   2.837   5.295
 6836TIP3    H220450   7.370   2.952   5.199
 6837TIP3   OH220451   6.468   6.811   3.553
 6837TIP3    H120452   6.460   6.746   3.622
 6837TIP3    H220453   6.437   6.892   3.593
 6838TIP3   OH220454   3.710   3.025   1.429
 6838TIP3    H120455   3.744   3.037   1.518
 6838TIP3    H220456   3.618   3.051   1.435
 6839TIP3   OH220457   1.343   5.179   3.324
 6839TIP3    H120458   1.377   5.146   3.407
 6839TIP3    H220459   1.421   5.189   3.269
 6840TIP3   OH220460   0.313   6.967   1.573
 6840TIP3    H120461   0.309   6.940   1.665
 6840TIP3    H220462   0.257   6.905   1.527
 6841TIP3   OH220463   2.505   6.551   2.444
 6841TIP3    H120464   2.576   6.615   2.448
 6841TIP3    H220465   2.465   6.566   2.358
 6842TIP3   OH220466   0.389   5.936   4.538
 6842TIP3    H120467   0.420   5.958   4.450
 6842TIP3    H220468   0.293   5.942   4.532
 6843TIP3   OH220469   3.776   0.590   6.504
 6843TIP3    H120470   3.741   0.651   6.439
 6843TIP3    H220471   3.705   0.577   6.566
 6844TIP3   OH220472   6.496   2.310   6.680
 6844TIP3    H120473   6.566   2.324   6.617
 6844TIP3    H220474   6.540   2.308   6.765
 6845TIP3   OH220475   1.686   3.866   3.947
 6845TIP3    H120476   1.738   3.785   3.945
 6845TIP3    H220477   1.722   3.916   4.020
 6846TIP3   OH220478   6.868   7.270   6.060
 6846TIP3    H120479   6.917   7.209   6.005
 6846TIP3    H220480   6.805   7.215   6.107
 6847TIP3   OH220481   4.386   0.060   3.183
 6847TIP3    H120482   4.368   0.079   3.091
 6847TIP3    H220483   4.299   0.059   3.224
 6848TIP3   OH220484   8.025   5.155   3.135
 6848TIP3    H120485   8.087   5.227   3.126
 6848TIP3    H220486   8.059   5.103   3.209
 6849TIP3   OH220487   3.673   6.148   2.851
 6849TIP3    H120488   3.732   6.079   2.880
 6849TIP3    H220489   3.651   6.125   2.761
 6850TIP3   OH220490   5.276   4.092   6.703
 6850TIP3    H120491   5.322   4.059   6.626
 6850TIP3    H220492   5.185   4.064   6.691
 6851TIP3   OH220493   7.797   3.323   4.229
 6851TIP3    H120494   7.750   3.278   4.299
 6851TIP3    H220495   7.851   3.255   4.189
 6852TIP3   OH220496   2.367   1.458   0.203
 6852TIP3    H120497   2.421   1.494   0.132
 6852TIP3    H220498   2.423   1.393   0.245
 6853TIP3   OH220499   5.867   6.637   2.467
 6853TIP3    H120500   5.876   6.543   2.487
 6853TIP3    H220501   5.925   6.652   2.393
 6854TIP3   OH220502   7.248   3.838   4.021
 6854TIP3    H120503   7.323   3.871   3.971
 6854TIP3    H220504   7.202   3.781   3.960
 6855TIP3   OH220505   8.392   4.581   2.573
 6855TIP3    H120506   8.388   4.603   2.480
 6855TIP3    H220507   8.315   4.624   2.612
 6856TIP3   OH220508   2.683   2.441   3.543
 6856TIP3    H120509   2.685   2.469   3.452
 6856TIP3    H220510   2.752   2.375   3.549
 6857TIP3   OH220511   5.015   5.194   2.986
 6857TIP3    H120512   4.974   5.111   2.964
 6857TIP3    H220513   5.106   5.185   2.958
 6858TIP3   OH220514   3.332   3.021   5.813
 6858TIP3    H120515   3.254   2.984   5.854
 6858TIP3    H220516   3.387   3.049   5.886
 6859TIP3   OH220517   3.799   6.284   2.434
 6859TIP3    H120518   3.801   6.360   2.376
 6859TIP3    H220519   3.884   6.287   2.480
 6860TIP3   OH220520   6.648   1.638   1.782
 6860TIP3    H120521   6.686   1.641   1.870
 6860TIP3    H220522   6.556   1.661   1.795
 6861TIP3   OH220523   8.040   0.372   2.600
 6861TIP3    H120524   8.032   0.381   2.695
 6861TIP3    H220525   8.131   0.344   2.586
 6862TIP3   OH220526   4.870   6.757   6.494
 6862TIP3    H120527   4.776   6.740   6.505
 6862TIP3    H220528   4.897   6.696   6.425
 6863TIP3   OH220529   0.397   5.214   2.591
 6863TIP3    H120530   0.378   5.223   2.498
 6863TIP3    H220531   0.398   5.304   2.625
 6864TIP3   OH220532   1.871   4.355   4.402
 6864TIP3    H120533   1.855   4.421   4.469
 6864TIP3    H220534   1.966   4.344   4.400
 6865TIP3   OH220535   1.014   2.458   4.847
 6865TIP3    H120536   0.974   2.397   4.908
 6865TIP3    H220537   0.950   2.529   4.838
 6866TIP3   OH220538   6.322   4.720   2.420
 6866TIP3    H120539   6.353   4.635   2.451
 6866TIP3    H220540   6.271   4.754   2.493
 6867TIP3   OH220541   4.820   7.066   4.419
 6867TIP3    H120542   4.839   7.068   4.325
 6867TIP3    H220543   4.772   7.147   4.435
 6868TIP3   OH220544   2.071   6.123   5.871
 6868TIP3    H120545   2.051   6.074   5.951
 6868TIP3    H220546   2.059   6.060   5.801
 6869TIP3   OH220547   2.585   1.419   3.055
 6869TIP3    H120548   2.594   1.339   3.004
 6869TIP3    H220549   2.595   1.390   3.146
 6870TIP3   OH220550   1.071   2.133   0.589
 6870TIP3    H120551   1.113   2.105   0.671
 6870TIP3    H220552   1.086   2.227   0.586
 6871TIP3   OH220553   7.105   7.889   5.085
 6871TIP3    H120554   7.057   7.807   5.072
 6871TIP3    H220555   7.038   7.954   5.103
 6872TIP3   OH220556   6.000   2.457   6.136
 6872TIP3    H120557   6.000   2.476   6.230
 6872TIP3    H220558   5.991   2.362   6.132
 6873TIP3   OH220559   0.593   2.985   4.331
 6873TIP3    H120560   0.537   3.060   4.354
 6873TIP3    H220561   0.682   3.014   4.352
 6874TIP3   OH220562   8.009   3.154   0.698
 6874TIP3    H120563   8.030   3.062   0.681
 6874TIP3    H220564   7.924   3.168   0.656
 6875TIP3   OH220565   3.883   4.534   3.282
 6875TIP3    H120566   3.964   4.500   3.245
 6875TIP3    H220567   3.821   4.461   3.275
 6876TIP3   OH220568   1.125   1.252   0.847
 6876TIP3    H120569   1.098   1.330   0.800
 6876TIP3    H220570   1.157   1.285   0.931
 6877TIP3   OH220571   2.965   2.275   4.542
 6877TIP3    H120572   2.944   2.217   4.469
 6877TIP3    H220573   2.880   2.305   4.575
 6878TIP3   OH220574   8.223   7.516   0.095
 6878TIP3    H120575   8.169   7.517   0.016
 6878TIP3    H220576   8.313   7.523   0.063
 6879TIP3   OH220577   2.053   1.037   1.505
 6879TIP3    H120578   1.977   1.087   1.475
 6879TIP3    H220579   2.041   1.029   1.599
 6880TIP3   OH220580   7.864   1.269   3.896
 6880TIP3    H120581   7.906   1.353   3.915
 6880TIP3    H220582   7.791   1.291   3.837
 6881TIP3   OH220583   3.932   5.713   1.032
 6881TIP3    H120584   3.869   5.774   0.993
 6881TIP3    H220585   3.886   5.675   1.107
 6882TIP3   OH220586   6.991   3.493   3.988
 6882TIP3    H120587   6.995   3.556   4.059
 6882TIP3    H220588   7.073   3.445   3.994
 6883TIP3   OH220589   0.387   0.023   3.529
 6883TIP3    H120590   0.354  -0.057   3.488
 6883TIP3    H220591   0.339   0.094   3.486
 6884TIP3   OH220592   2.691   6.257   6.206
 6884TIP3    H120593   2.677   6.336   6.259
 6884TIP3    H220594   2.783   6.261   6.180
 6885TIP3   OH220595   5.789   6.025   4.463
 6885TIP3    H120596   5.727   6.090   4.495
 6885TIP3    H220597   5.802   6.048   4.371
 6886TIP3   OH220598   2.503   1.962   0.381
 6886TIP3    H120599   2.563   2.032   0.407
 6886TIP3    H220600   2.498   1.969   0.286
 6887TIP3   OH220601   6.994   6.891   4.191
 6887TIP3    H120602   7.075   6.940   4.205
 6887TIP3    H220603   7.022   6.806   4.157
 6888TIP3   OH220604   6.346   5.074   3.492
 6888TIP3    H120605   6.300   5.026   3.423
 6888TIP3    H220606   6.282   5.081   3.563
 6889TIP3   OH220607   0.583   5.692   6.656
 6889TIP3    H120608   0.664   5.733   6.626
 6889TIP3    H220609   0.540   5.760   6.707
 6890TIP3   OH220610   7.671   6.054   2.523
 6890TIP3    H120611   7.613   6.069   2.598
 6890TIP3    H220612   7.636   6.110   2.454
 6891TIP3   OH220613   4.932   7.583   3.740
 6891TIP3    H120614   4.870   7.637   3.788
 6891TIP3    H220615   5.014   7.590   3.790
 6892TIP3   OH220616   7.212   1.290   4.669
 6892TIP3    H120617   7.159   1.366   4.693
 6892TIP3    H220618   7.249   1.312   4.584
 6893TIP3   OH220619   7.836   1.271   3.290
 6893TIP3    H120620   7.775   1.311   3.228
 6893TIP3    H220621   7.837   1.178   3.265
 6894TIP3   OH220622   0.801   5.609   4.213
 6894TIP3    H120623   0.761   5.657   4.286
 6894TIP3    H220624   0.867   5.669   4.178
 6895TIP3   OH220625   7.787   2.129   4.917
 6895TIP3    H120626   7.698   2.133   4.883
 6895TIP3    H220627   7.842   2.118   4.840
 6896TIP3   OH220628   6.312   3.493   2.455
 6896TIP3    H120629   6.394   3.469   2.499
 6896TIP3    H220630   6.307   3.433   2.380
 6897TIP3   OH220631   3.406   7.057   4.422
 6897TIP3    H120632   3.315   7.061   4.451
 6897TIP3    H220633   3.453   7.014   4.494
 6898TIP3   OH220634   2.115   6.456   5.418
 6898TIP3    H120635   2.097   6.402   5.495
 6898TIP3    H220636   2.028   6.477   5.383
 6899TIP3   OH220637   5.391   2.582   2.861
 6899TIP3    H120638   5.394   2.547   2.771
 6899TIP3    H220639   5.424   2.510   2.915
 6900TIP3   OH220640   7.185   7.263   3.987
 6900TIP3    H120641   7.231   7.340   4.022
 6900TIP3    H220642   7.098   7.296   3.964
 6901TIP3   OH220643   6.098   4.364   4.207
 6901TIP3    H120644   6.190   4.341   4.218
 6901TIP3    H220645   6.050   4.295   4.253
 6902TIP3   OH220646   6.266   4.084   1.761
 6902TIP3    H120647   6.278   4.040   1.676
 6902TIP3    H220648   6.248   4.175   1.738
 6903TIP3   OH220649   5.878   7.236   3.183
 6903TIP3    H120650   5.871   7.274   3.095
 6903TIP3    H220651   5.940   7.292   3.229
 6904TIP3   OH220652   5.371   2.045   2.342
 6904TIP3    H120653   5.306   1.995   2.390
 6904TIP3    H220654   5.332   2.132   2.331
 6905TIP3   OH220655   1.690   3.473   0.688
 6905TIP3    H120656   1.773   3.438   0.656
 6905TIP3    H220657   1.702   3.568   0.689
 6906TIP3   OH220658   5.729   1.186   1.858
 6906TIP3    H120659   5.729   1.150   1.770
 6906TIP3    H220660   5.787   1.129   1.908
 6907TIP3   OH220661   6.725   4.771   5.779
 6907TIP3    H120662   6.650   4.820   5.811
 6907TIP3    H220663   6.739   4.803   5.690
 6908TIP3   OH220664   8.391   7.597   2.852
 6908TIP3    H120665   8.409   7.529   2.786
 6908TIP3    H220666   8.298   7.618   2.839
 6909TIP3   OH220667   2.145   5.212   3.188
 6909TIP3    H120668   2.064   5.161   3.186
 6909TIP3    H220669   2.122   5.292   3.235
 6910TIP3   OH220670   8.333   3.567   0.498
 6910TIP3    H120671   8.272   3.537   0.564
 6910TIP3    H220672   8.281   3.577   0.419
 6911TIP3   OH220673   2.899   5.332   1.240
 6911TIP3    H120674   2.963   5.398   1.267
 6911TIP3    H220675   2.825   5.383   1.209
 6912TIP3   OH220676   7.737   5.808   1.151
 6912TIP3    H120677   7.761   5.876   1.087
 6912TIP3    H220678   7.819   5.788   1.196
 6913TIP3   OH220679   5.675   0.854   4.481
 6913TIP3    H120680   5.644   0.807   4.404
 6913TIP3    H220681   5.694   0.785   4.545
 6914TIP3   OH220682   4.323   2.948   0.271
 6914TIP3    H120683   4.380   2.882   0.310
 6914TIP3    H220684   4.312   2.919   0.180
 6915TIP3   OH220685   7.885   4.502   4.114
 6915TIP3    H120686   7.883   4.408   4.128
 6915TIP3    H220687   7.886   4.540   4.202
 6916TIP3   OH220688   8.271   6.000   5.414
 6916TIP3    H120689   8.356   5.991   5.371
 6916TIP3    H220690   8.217   6.048   5.352
 6917TIP3   OH220691   0.196   6.089   6.030
 6917TIP3    H120692   0.124   6.043   6.072
 6917TIP3    H220693   0.266   6.089   6.096
 6918TIP3   OH220694   5.217   4.666   5.830
 6918TIP3    H120695   5.251   4.591   5.879
 6918TIP3    H220696   5.291   4.693   5.775
 6919TIP3   OH220697   7.991   7.794   6.254
 6919TIP3    H120698   7.903   7.826   6.233
 6919TIP3    H220699   8.049   7.850   6.204
 6920TIP3   OH220700   6.224   0.857   6.345
 6920TIP3    H120701   6.198   0.918   6.414
 6920TIP3    H220702   6.265   0.913   6.278
 6921TIP3   OH220703   0.599   5.141   6.172
 6921TIP3    H120704   0.596   5.074   6.104
 6921TIP3    H220705   0.614   5.093   6.253
 6922TIP3   OH220706   7.111   4.863   5.727
 6922TIP3    H120707   7.096   4.810   5.649
 6922TIP3    H220708   7.057   4.941   5.715
 6923TIP3   OH220709   2.320   5.133   5.166
 6923TIP3    H120710   2.352   5.095   5.085
 6923TIP3    H220711   2.398   5.159   5.214
 6924TIP3   OH220712   7.800   2.736   6.027
 6924TIP3    H120713   7.849   2.740   6.109
 6924TIP3    H220714   7.866   2.744   5.959
 6925TIP3   OH220715   2.451   0.905   1.539
 6925TIP3    H120716   2.500   0.987   1.548
 6925TIP3    H220717   2.433   0.878   1.629
 6926TIP3   OH220718   7.480   7.202   6.082
 6926TIP3    H120719   7.408   7.148   6.117
 6926TIP3    H220720   7.466   7.200   5.987
 6927TIP3   OH220721   8.073   4.440   6.564
 6927TIP3    H120722   7.991   4.489   6.560
 6927TIP3    H220723   8.081   4.401   6.477
 6928TIP3   OH220724   3.824   5.544   3.813
 6928TIP3    H120725   3.869   5.505   3.889
 6928TIP3    H220726   3.745   5.492   3.803
 6929TIP3   OH220727   6.153   4.087   3.959
 6929TIP3    H120728   6.111   4.035   3.891
 6929TIP3    H220729   6.146   4.033   4.038
 6930TIP3   OH220730   1.652   5.406   1.585
 6930TIP3    H120731   1.605   5.393   1.667
 6930TIP3    H220732   1.594   5.369   1.518
 6931TIP3   OH220733   5.521   7.462   4.100
 6931TIP3    H120734   5.551   7.484   4.189
 6931TIP3    H220735   5.465   7.535   4.075
 6932TIP3   OH220736   6.656   5.387   1.671
 6932TIP3    H120737   6.600   5.429   1.737
 6932TIP3    H220738   6.603   5.386   1.592
 6933TIP3   OH220739   5.580   6.885   0.434
 6933TIP3    H120740   5.647   6.820   0.414
 6933TIP3    H220741   5.546   6.860   0.520
 6934TIP3   OH220742   7.571   4.817   3.763
 6934TIP3    H120743   7.631   4.751   3.797
 6934TIP3    H220744   7.608   4.842   3.678
 6935TIP3   OH220745   6.818   7.414   3.633
 6935TIP3    H120746   6.855   7.385   3.717
 6935TIP3    H220747   6.789   7.504   3.649
 6936TIP3   OH220748   5.268   3.829   6.089
 6936TIP3    H120749   5.202   3.764   6.065
 6936TIP3    H220750   5.221   3.912   6.091
 6937TIP3   OH220751   1.156   2.658   3.117
 6937TIP3    H120752   1.170   2.733   3.175
 6937TIP3    H220753   1.061   2.652   3.107
 6938TIP3   OH220754   5.181   2.974   3.117
 6938TIP3    H120755   5.232   2.909   3.067
 6938TIP3    H220756   5.247   3.036   3.148
 6939TIP3   OH220757   7.039   4.112   3.725
 6939TIP3    H120758   7.024   4.056   3.801
 6939TIP3    H220759   7.033   4.201   3.759
 6940TIP3   OH220760   2.096   5.294   0.286
 6940TIP3    H120761   2.172   5.352   0.278
 6940TIP3    H220762   2.091   5.275   0.380
 6941TIP3   OH220763   5.231   1.233   6.141
 6941TIP3    H120764   5.258   1.215   6.231
 6941TIP3    H220765   5.276   1.315   6.120
 6942TIP3   OH220766   6.515   1.751   6.530
 6942TIP3    H120767   6.608   1.732   6.514
 6942TIP3    H220768   6.479   1.766   6.443
 6943TIP3   OH220769   7.694   3.972   1.066
 6943TIP3    H120770   7.776   3.923   1.064
 6943TIP3    H220771   7.676   3.985   1.159
 6944TIP3   OH220772   5.018   7.303   2.224
 6944TIP3    H120773   4.951   7.363   2.256
 6944TIP3    H220774   4.968   7.233   2.180
 6945TIP3   OH220775   5.085   5.968   3.283
 6945TIP3    H120776   4.990   5.973   3.283
 6945TIP3    H220777   5.114   6.059   3.274
 6946TIP3   OH220778   3.824   4.395   1.017
 6946TIP3    H120779   3.870   4.470   1.055
 6946TIP3    H220780   3.779   4.354   1.091
 6947TIP3   OH220781   7.465   3.786   1.163
 6947TIP3    H120782   7.526   3.817   1.096
 6947TIP3    H220783   7.461   3.691   1.150
 6948TIP3   OH220784   7.482   3.454   2.202
 6948TIP3    H120785   7.462   3.485   2.114
 6948TIP3    H220786   7.398   3.450   2.246
 6949TIP3   OH220787   3.673   6.761   5.365
 6949TIP3    H120788   3.707   6.841   5.404
 6949TIP3    H220789   3.595   6.740   5.416
 6950TIP3   OH220790   5.625   5.454   1.857
 6950TIP3    H120791   5.618   5.371   1.904
 6950TIP3    H220792   5.538   5.493   1.864
 6951TIP3   OH220793   8.190   1.242   4.404
 6951TIP3    H120794   8.103   1.237   4.444
 6951TIP3    H220795   8.194   1.166   4.346
 6952TIP3   OH220796   5.961   1.842   1.129
 6952TIP3    H120797   5.911   1.770   1.167
 6952TIP3    H220798   5.941   1.917   1.185
 6953TIP3   OH220799   3.261   1.970   6.217
 6953TIP3    H120800   3.349   1.998   6.242
 6953TIP3    H220801   3.274   1.921   6.136
 6954TIP3   OH220802   8.031   1.677   1.081
 6954TIP3    H120803   8.116   1.660   1.040
 6954TIP3    H220804   7.967   1.651   1.015
 6955TIP3   OH220805   3.522   0.254   3.279
 6955TIP3    H120806   3.517   0.294   3.192
 6955TIP3    H220807   3.590   0.303   3.324
 6956TIP3   OH220808   0.368   2.541   6.254
 6956TIP3    H120809   0.319   2.617   6.285
 6956TIP3    H220810   0.358   2.543   6.159
 6957TIP3   OH220811   6.665   1.641  -0.028
 6957TIP3    H120812   6.691   1.556  -0.064
 6957TIP3    H220813   6.650   1.624   0.065
 6958TIP3   OH220814   0.566   2.122   3.035
 6958TIP3    H120815   0.581   2.215   3.020
 6958TIP3    H220816   0.474   2.116   3.059
 6959TIP3   OH220817   4.069   2.397   1.468
 6959TIP3    H120818   4.091   2.364   1.381
 6959TIP3    H220819   4.082   2.321   1.526
 6960TIP3   OH220820   2.515   2.823   3.603
 6960TIP3    H120821   2.479   2.887   3.542
 6960TIP3    H220822   2.469   2.741   3.580
 6961TIP3   OH220823   6.998   4.992   6.786
 6961TIP3    H120824   7.048   5.010   6.866
 6961TIP3    H220825   7.010   5.070   6.732
 6962TIP3   OH220826   5.135   7.516   5.822
 6962TIP3    H120827   5.101   7.483   5.905
 6962TIP3    H220828   5.078   7.590   5.800
 6963TIP3   OH220829   7.351  -0.028   3.870
 6963TIP3    H120830   7.367  -0.007   3.778
 6963TIP3    H220831   7.425   0.010   3.917
 6964TIP3   OH220832   7.018   6.612   5.121
 6964TIP3    H120833   7.111   6.610   5.098
 6964TIP3    H220834   7.015   6.662   5.202
 6965TIP3   OH220835   6.258   4.472   0.916
 6965TIP3    H120836   6.311   4.489   0.839
 6965TIP3    H220837   6.299   4.395   0.956
 6966TIP3   OH220838   5.049   7.210   3.239
 6966TIP3    H120839   5.117   7.163   3.287
 6966TIP3    H220840   5.060   7.301   3.265
 6967TIP3   OH220841   2.150   7.696   0.469
 6967TIP3    H120842   2.164   7.712   0.563
 6967TIP3    H220843   2.085   7.625   0.467
 6968TIP3   OH220844   6.144   6.252   1.569
 6968TIP3    H120845   6.198   6.182   1.532
 6968TIP3    H220846   6.142   6.319   1.501
 6969TIP3   OH220847   1.978   1.198   4.646
 6969TIP3    H120848   1.895   1.182   4.601
 6969TIP3    H220849   1.959   1.268   4.709
 6970TIP3   OH220850   6.094   2.604   6.649
 6970TIP3    H120851   6.088   2.691   6.688
 6970TIP3    H220852   6.156   2.557   6.705
 6971TIP3   OH220853   6.915   5.558   3.539
 6971TIP3    H120854   6.927   5.483   3.596
 6971TIP3    H220855   6.855   5.528   3.471
 6972TIP3   OH220856   2.565   0.770   0.334
 6972TIP3    H120857   2.483   0.758   0.284
 6972TIP3    H220858   2.634   0.755   0.269
 6973TIP3   OH220859   3.221   6.502   0.567
 6973TIP3    H120860   3.190   6.525   0.480
 6973TIP3    H220861   3.229   6.406   0.565
 6974TIP3   OH220862   2.024   1.336   4.383
 6974TIP3    H120863   2.055   1.281   4.455
 6974TIP3    H220864   2.031   1.280   4.306
 6975TIP3   OH220865   1.715   3.514   1.957
 6975TIP3    H120866   1.655   3.589   1.951
 6975TIP3    H220867   1.705   3.469   1.874
 6976TIP3   OH220868   5.056   0.659   0.728
 6976TIP3    H120869   5.014   0.668   0.813
 6976TIP3    H220870   4.985   0.637   0.668
 6977TIP3   OH220871   4.599   5.273   5.912
 6977TIP3    H120872   4.590   5.345   5.975
 6977TIP3    H220873   4.613   5.196   5.966
 6978TIP3   OH220874   6.852   5.134   4.502
 6978TIP3    H120875   6.791   5.061   4.493
 6978TIP3    H220876   6.826   5.195   4.433
 6979TIP3   OH220877   1.555   3.798   0.381
 6979TIP3    H120878   1.553   3.890   0.353
 6979TIP3    H220879   1.477   3.789   0.436
 6980TIP3   OH220880   7.224   7.168   5.121
 6980TIP3    H120881   7.200   7.089   5.072
 6980TIP3    H220882   7.269   7.135   5.199
 6981TIP3   OH220883   1.259   3.231   3.117
 6981TIP3    H120884   1.168   3.250   3.141
 6981TIP3    H220885   1.305   3.228   3.201
 6982TIP3   OH220886   7.482   7.124   0.927
 6982TIP3    H120887   7.497   7.058   0.858
 6982TIP3    H220888   7.476   7.072   1.008
 6983TIP3   OH220889   5.278   7.551   6.413
 6983TIP3    H120890   5.259   7.458   6.406
 6983TIP3    H220891   5.204   7.594   6.370
 6984TIP3   OH220892   5.316   0.098   5.559
 6984TIP3    H120893   5.353   0.125   5.643
 6984TIP3    H220894   5.392   0.086   5.502
 6985TIP3   OH220895   3.620   4.295   3.963
 6985TIP3    H120896   3.535   4.307   4.007
 6985TIP3    H220897   3.666   4.378   3.978
 6986TIP3   OH220898   6.304   0.581   3.352
 6986TIP3    H120899   6.381   0.557   3.299
 6986TIP3    H220900   6.272   0.498   3.386
 6987TIP3   OH220901   2.914   6.605   6.429
 6987TIP3    H120902   2.965   6.618   6.349
 6987TIP3    H220903   2.957   6.533   6.474
 6988TIP3   OH220904   5.269   0.305   1.888
 6988TIP3    H120905   5.182   0.292   1.926
 6988TIP3    H220906   5.307   0.377   1.938
 6989TIP3   OH220907   2.416   1.933   4.368
 6989TIP3    H120908   2.489   1.934   4.429
 6989TIP3    H220909   2.429   1.854   4.316
 6990TIP3   OH220910   2.235   3.834   3.475
 6990TIP3    H120911   2.227   3.797   3.387
 6990TIP3    H220912   2.298   3.905   3.465
 6991TIP3   OH220913   6.573   3.677   2.344
 6991TIP3    H120914   6.539   3.620   2.412
 6991TIP3    H220915   6.659   3.704   2.376
 6992TIP3   OH220916   2.789   0.154   2.036
 6992TIP3    H120917   2.849   0.179   1.965
 6992TIP3    H220918   2.728   0.228   2.043
 6993TIP3   OH220919   7.339   0.269   2.135
 6993TIP3    H120920   7.273   0.330   2.169
 6993TIP3    H220921   7.311   0.183   2.167
 6994TIP3   OH220922   0.345   6.945   1.180
 6994TIP3    H120923   0.301   6.874   1.135
 6994TIP3    H220924   0.275   7.005   1.205
 6995TIP3   OH220925   8.145   2.363   2.116
 6995TIP3    H120926   8.191   2.378   2.033
 6995TIP3    H220927   8.212   2.378   2.182
 6996TIP3   OH220928   0.316   5.280   6.727
 6996TIP3    H120929   0.326   5.352   6.790
 6996TIP3    H220930   0.278   5.209   6.778
 6997TIP3   OH220931   2.601   2.480   2.430
 6997TIP3    H120932   2.574   2.484   2.522
 6997TIP3    H220933   2.641   2.393   2.421
 6998TIP3   OH220934   7.013   4.094   1.938
 6998TIP3    H120935   7.045   4.007   1.915
 6998TIP3    H220936   6.955   4.079   2.013
 6999TIP3   OH220937   2.748   6.808   5.104
 6999TIP3    H120938   2.841   6.796   5.083
 6999TIP3    H220939   2.741   6.902   5.124
 7000TIP3   OH220940   7.250   4.563   5.888
 7000TIP3    H120941   7.197   4.563   5.808
 7000TIP3    H220942   7.340   4.573   5.856
 7001TIP3   OH220943   7.920   3.455   6.769
 7001TIP3    H120944   7.952   3.463   6.679
 7001TIP3    H220945   7.842   3.510   6.772
 7002TIP3   OH220946   4.142   5.208   5.774
 7002TIP3    H120947   4.059   5.197   5.729
 7002TIP3    H220948   4.203   5.238   5.707
 7003TIP3   OH220949   2.203   7.540   2.175
 7003TIP3    H120950   2.173   7.604   2.239
 7003TIP3    H220951   2.267   7.486   2.223
 7004TIP3   OH220952   3.165   0.126   4.423
 7004TIP3    H120953   3.093   0.144   4.482
 7004TIP3    H220954   3.200   0.212   4.399
 7005TIP3   OH220955   0.948   3.459   6.726
 7005TIP3    H120956   0.917   3.375   6.692
 7005TIP3    H220957   1.016   3.435   6.789
 7006TIP3   OH220958   4.403   3.909   6.387
 7006TIP3    H120959   4.493   3.896   6.418
 7006TIP3    H220960   4.373   3.821   6.364
 7007TIP3   OH220961   7.091   0.449   1.478
 7007TIP3    H120962   7.045   0.395   1.414
 7007TIP3    H220963   7.089   0.537   1.442
 7008TIP3   OH220964   0.689   3.706   2.945
 7008TIP3    H120965   0.675   3.712   2.850
 7008TIP3    H220966   0.746   3.781   2.965
 7009TIP3   OH220967   1.603   2.878   1.954
 7009TIP3    H120968   1.590   2.783   1.953
 7009TIP3    H220969   1.688   2.891   1.912
 7010TIP3   OH220970   5.829   5.807   0.084
 7010TIP3    H120971   5.838   5.897   0.054
 7010TIP3    H220972   5.796   5.759   0.008
 7011TIP3   OH220973   2.438   7.559   0.340
 7011TIP3    H120974   2.362   7.610   0.311
 7011TIP3    H220975   2.448   7.583   0.433
 7012TIP3   OH220976   1.506   6.507   0.381
 7012TIP3    H120977   1.433   6.447   0.400
 7012TIP3    H220978   1.581   6.449   0.368
 7013TIP3   OH220979   1.049   1.274   3.634
 7013TIP3    H120980   0.990   1.346   3.656
 7013TIP3    H220981   0.991   1.203   3.607
 7014TIP3   OH220982   1.188   2.407   6.420
 7014TIP3    H120983   1.160   2.393   6.330
 7014TIP3    H220984   1.183   2.320   6.461
 7015TIP3   OH220985   7.877   7.661   6.551
 7015TIP3    H120986   7.878   7.708   6.468
 7015TIP3    H220987   7.965   7.623   6.558
 7016TIP3   OH220988   7.351   3.726   5.059
 7016TIP3    H120989   7.419   3.793   5.054
 7016TIP3    H220990   7.272   3.774   5.088
 7017TIP3   OH220991   3.614   5.374   3.782
 7017TIP3    H120992   3.632   5.295   3.834
 7017TIP3    H220993   3.582   5.341   3.698
 7018TIP3   OH220994   1.527   3.123   5.077
 7018TIP3    H120995   1.539   3.045   5.132
 7018TIP3    H220996   1.580   3.191   5.119
 7019TIP3   OH220997   6.462   7.868   5.674
 7019TIP3    H120998   6.426   7.779   5.672
 7019TIP3    H220999   6.423   7.908   5.752
 7020TIP3   OH221000   4.351   0.512   6.727
 7020TIP3    H121001   4.368   0.572   6.655
 7020TIP3    H221002   4.256   0.502   6.728
 7021TIP3   OH221003   2.326   2.678   1.082
 7021TIP3    H121004   2.243   2.643   1.050
 7021TIP3    H221005   2.377   2.601   1.106
 7022TIP3   OH221006   6.329   5.392   1.181
 7022TIP3    H121007   6.290   5.391   1.268
 7022TIP3    H221008   6.420   5.365   1.195
 7023TIP3   OH221009   3.721   4.411   1.315
 7023TIP3    H121010   3.785   4.348   1.347
 7023TIP3    H221011   3.636   4.372   1.335
 7024TIP3   OH221012   5.029   4.283   2.158
 7024TIP3    H121013   5.044   4.212   2.220
 7024TIP3    H221014   4.934   4.290   2.151
 7025TIP3   OH221015   7.370   2.479   1.854
 7025TIP3    H121016   7.290   2.530   1.846
 7025TIP3    H221017   7.387   2.448   1.765
 7026TIP3   OH221018   2.671   4.046   0.916
 7026TIP3    H121019   2.663   4.038   0.821
 7026TIP3    H221020   2.662   4.140   0.933
 7027TIP3   OH221021   5.062   3.564   2.080
 7027TIP3    H121022   5.154   3.564   2.104
 7027TIP3    H221023   5.040   3.657   2.068
 7028TIP3   OH221024   6.702   6.356   0.443
 7028TIP3    H121025   6.661   6.347   0.357
 7028TIP3    H221026   6.638   6.403   0.495
 7029TIP3   OH221027   6.459   1.536   2.257
 7029TIP3    H121028   6.409   1.485   2.321
 7029TIP3    H221029   6.442   1.627   2.281
 7030TIP3   OH221030   2.866   3.039   3.749
 7030TIP3    H121031   2.812   2.976   3.797
 7030TIP3    H221032   2.829   3.124   3.773
 7031TIP3   OH221033   5.568   7.857   2.667
 7031TIP3    H121034   5.603   7.896   2.586
 7031TIP3    H221035   5.639   7.801   2.699
 7032TIP3   OH221036   7.608   5.317   5.354
 7032TIP3    H121037   7.646   5.345   5.271
 7032TIP3    H221038   7.514   5.336   5.344
 7033TIP3   OH221039   6.404   6.608   4.054
 7033TIP3    H121040   6.484   6.577   4.011
 7033TIP3    H221041   6.382   6.689   4.007
 7034TIP3   OH221042   6.852   5.929   5.221
 7034TIP3    H121043   6.888   5.945   5.309
 7034TIP3    H221044   6.758   5.940   5.231
 7035TIP3   OH221045   5.233   0.968   6.561
 7035TIP3    H121046   5.168   1.031   6.594
 7035TIP3    H221047   5.180   0.899   6.521
 7036TIP3   OH221048   8.181   6.369   6.362
 7036TIP3    H121049   8.102   6.410   6.326
 7036TIP3    H221050   8.244   6.373   6.290
 7037TIP3   OH221051   4.915   6.114   2.603
 7037TIP3    H121052   5.009   6.109   2.589
 7037TIP3    H221053   4.901   6.197   2.648
 7038TIP3   OH221054   5.035   4.957   3.715
 7038TIP3    H121055   5.101   4.930   3.778
 7038TIP3    H221056   5.081   5.016   3.655
 7039TIP3   OH221057   5.522   4.501   0.192
 7039TIP3    H121058   5.471   4.472   0.267
 7039TIP3    H221059   5.459   4.507   0.120
 7040TIP3   OH221060   7.431   4.341   0.242
 7040TIP3    H121061   7.367   4.410   0.221
 7040TIP3    H221062   7.507   4.363   0.189
 7041TIP3   OH221063   3.512   1.297   3.289
 7041TIP3    H121064   3.563   1.249   3.224
 7041TIP3    H221065   3.574   1.316   3.359
 7042TIP3   OH221066   1.301   3.531   3.102
 7042TIP3    H121067   1.307   3.604   3.164
 7042TIP3    H221068   1.382   3.482   3.114
 7043TIP3   OH221069   1.741   5.936   1.966
 7043TIP3    H121070   1.792   5.997   1.913
 7043TIP3    H221071   1.651   5.964   1.954
 7044TIP3   OH221072   6.539   1.096   4.023
 7044TIP3    H121073   6.566   1.038   4.094
 7044TIP3    H221074   6.574   1.055   3.944
 7045TIP3   OH221075   0.387   5.003   4.923
 7045TIP3    H121076   0.352   4.967   5.004
 7045TIP3    H221077   0.370   5.097   4.929
 7046TIP3   OH221078   6.054   3.065   6.054
 7046TIP3    H121079   6.059   2.998   6.122
 7046TIP3    H221080   6.144   3.075   6.023
 7047TIP3   OH221081   1.554   6.938   3.819
 7047TIP3    H121082   1.535   6.989   3.898
 7047TIP3    H221083   1.501   6.978   3.751
 7048TIP3   OH221084   5.213   1.623   5.009
 7048TIP3    H121085   5.295   1.658   5.044
 7048TIP3    H221086   5.222   1.528   5.019
 7049TIP3   OH221087   1.559   0.698   6.685
 7049TIP3    H121088   1.492   0.754   6.725
 7049TIP3    H221089   1.537   0.696   6.592
 7050TIP3   OH221090   7.307   5.687   3.037
 7050TIP3    H121091   7.219   5.707   3.069
 7050TIP3    H221092   7.363   5.699   3.114
 7051TIP3   OH221093   1.616   2.813   4.024
 7051TIP3    H121094   1.611   2.751   3.952
 7051TIP3    H221095   1.552   2.781   4.088
 7052TIP3   OH221096   7.498   7.612   2.210
 7052TIP3    H121097   7.417   7.616   2.161
 7052TIP3    H221098   7.471   7.586   2.298
 7053TIP3   OH221099   0.218   3.118   5.728
 7053TIP3    H121100   0.268   3.051   5.682
 7053TIP3    H221101   0.142   3.072   5.764
 7054TIP3   OH221102   8.232   0.301   4.543
 7054TIP3    H121103   8.166   0.307   4.611
 7054TIP3    H221104   8.294   0.236   4.576
 7055TIP3   OH221105   7.900   5.846   3.787
 7055TIP3    H121106   7.817   5.802   3.805
 7055TIP3    H221107   7.890   5.880   3.698
 7056TIP3   OH221108   6.638   0.415   5.381
 7056TIP3    H121109   6.676   0.355   5.445
 7056TIP3    H221110   6.708   0.431   5.318
 7057TIP3   OH221111   5.806   1.664   1.742
 7057TIP3    H121112   5.773   1.731   1.802
 7057TIP3    H221113   5.811   1.584   1.796
 7058TIP3   OH221114   7.641   3.766   2.250
 7058TIP3    H121115   7.554   3.749   2.286
 7058TIP3    H221116   7.661   3.856   2.278
 7059TIP3   OH221117   4.298   2.289   0.852
 7059TIP3    H121118   4.265   2.208   0.891
 7059TIP3    H221119   4.243   2.358   0.890
 7060TIP3   OH221120   4.621   6.673   0.530
 7060TIP3    H121121   4.529   6.692   0.507
 7060TIP3    H221122   4.658   6.638   0.449
 7061TIP3   OH221123   7.912   4.310   4.902
 7061TIP3    H121124   7.829   4.296   4.856
 7061TIP3    H221125   7.928   4.404   4.895
 7062TIP3   OH221126   4.032   2.152   5.781
 7062TIP3    H121127   4.028   2.072   5.728
 7062TIP3    H221128   3.958   2.205   5.750
 7063TIP3   OH221129  -0.021   6.742   6.808
 7063TIP3    H121130   0.063   6.705   6.783
 7063TIP3    H221131  -0.064   6.672   6.859
 7064TIP3   OH221132   7.736   0.835   1.602
 7064TIP3    H121133   7.682   0.755   1.604
 7064TIP3    H221134   7.675   0.904   1.574
 7065TIP3   OH221135   1.763   5.645   4.776
 7065TIP3    H121136   1.715   5.726   4.793
 7065TIP3    H221137   1.821   5.636   4.851
 7066TIP3   OH221138   7.860   6.997   1.803
 7066TIP3    H121139   7.825   6.949   1.878
 7066TIP3    H221140   7.784   7.043   1.767
 7067TIP3   OH221141   8.378   4.033   1.851
 7067TIP3    H121142   8.337   3.965   1.904
 7067TIP3    H221143   8.339   4.115   1.881
 7068TIP3   OH221144   7.227   6.644   1.807
 7068TIP3    H121145   7.217   6.641   1.711
 7068TIP3    H221146   7.158   6.586   1.840
 7069TIP3   OH221147   2.653   2.862   3.842
 7069TIP3    H121148   2.589   2.829   3.905
 7069TIP3    H221149   2.602   2.884   3.764
 7070TIP3   OH221150   1.502   4.406   1.613
 7070TIP3    H121151   1.550   4.469   1.560
 7070TIP3    H221152   1.530   4.321   1.580
 7071TIP3   OH221153   3.382   4.190   4.147
 7071TIP3    H121154   3.446   4.177   4.217
 7071TIP3    H221155   3.391   4.112   4.092
 7072TIP3   OH221156   0.572   2.270   4.453
 7072TIP3    H121157   0.525   2.282   4.536
 7072TIP3    H221158   0.527   2.196   4.411
 7073TIP3   OH221159   8.210   4.642   0.526
 7073TIP3    H121160   8.272   4.602   0.465
 7073TIP3    H221161   8.200   4.732   0.495
 7074TIP3   OH221162   5.005   5.264   3.249
 7074TIP3    H121163   5.004   5.262   3.153
 7074TIP3    H221164   5.001   5.172   3.275
 7075TIP3   OH221165   1.333   5.815   2.179
 7075TIP3    H121166   1.326   5.720   2.174
 7075TIP3    H221167   1.251   5.847   2.140
 7076TIP3   OH221168   3.349   1.017   4.748
 7076TIP3    H121169   3.330   1.009   4.654
 7076TIP3    H221170   3.428   0.965   4.761
 7077TIP3   OH221171   6.132   5.747   2.591
 7077TIP3    H121172   6.117   5.686   2.519
 7077TIP3    H221173   6.077   5.823   2.571
 7078TIP3   OH221174   3.305   2.451   4.778
 7078TIP3    H121175   3.368   2.409   4.836
 7078TIP3    H221176   3.359   2.494   4.711
 7079TIP3   OH221177   0.932   1.466   0.727
 7079TIP3    H121178   0.864   1.438   0.788
 7079TIP3    H221179   0.918   1.560   0.716
 7080TIP3   OH221180   7.972   0.509   2.075
 7080TIP3    H121181   7.929   0.539   2.155
 7080TIP3    H221182   7.973   0.586   2.017
 7081TIP3   OH221183   4.396   6.771   2.955
 7081TIP3    H121184   4.451   6.695   2.940
 7081TIP3    H221185   4.378   6.771   3.049
 7082TIP3   OH221186   7.373   7.516   0.442
 7082TIP3    H121187   7.406   7.468   0.366
 7082TIP3    H221188   7.446   7.574   0.466
 7083TIP3   OH221189   8.153   6.679   6.474
 7083TIP3    H121190   8.082   6.694   6.537
 7083TIP3    H221191   8.150   6.585   6.456
 7084TIP3   OH221192   3.354   6.459   1.838
 7084TIP3    H121193   3.408   6.517   1.784
 7084TIP3    H221194   3.395   6.461   1.924
 7085TIP3   OH221195   3.076   0.269   6.280
 7085TIP3    H121196   3.170   0.250   6.284
 7085TIP3    H221197   3.071   0.363   6.267
 7086TIP3   OH221198   1.761   4.820   3.914
 7086TIP3    H121199   1.689   4.834   3.975
 7086TIP3    H221200   1.838   4.809   3.969
 7087TIP3   OH221201   6.416   4.568   2.199
 7087TIP3    H121202   6.390   4.611   2.281
 7087TIP3    H221203   6.495   4.616   2.172
 7088TIP3   OH221204   1.334   5.875   3.581
 7088TIP3    H121205   1.301   5.829   3.505
 7088TIP3    H221206   1.382   5.808   3.631
 7089TIP3   OH221207   3.166   2.158   3.177
 7089TIP3    H121208   3.257   2.185   3.161
 7089TIP3    H221209   3.167   2.063   3.163
 7090TIP3   OH221210   6.224   1.750   1.616
 7090TIP3    H121211   6.133   1.778   1.605
 7090TIP3    H221212   6.223   1.657   1.594
 7091TIP3   OH221213   1.407   7.751   6.636
 7091TIP3    H121214   1.501   7.744   6.620
 7091TIP3    H221215   1.367   7.706   6.561
 7092TIP3   OH221216   3.297   2.593   2.489
 7092TIP3    H121217   3.283   2.679   2.450
 7092TIP3    H221218   3.334   2.611   2.575
 7093TIP3   OH221219   2.695   6.329   3.161
 7093TIP3    H121220   2.779   6.293   3.132
 7093TIP3    H221221   2.662   6.266   3.224
 7094TIP3   OH221222   0.292   1.482   1.788
 7094TIP3    H121223   0.317   1.566   1.751
 7094TIP3    H221224   0.325   1.417   1.726
 7095TIP3   OH221225   1.361   2.422   3.097
 7095TIP3    H121226   1.284   2.479   3.103
 7095TIP3    H221227   1.349   2.375   3.014
 7096TIP3   OH221228   3.427   4.336   6.545
 7096TIP3    H121229   3.500   4.397   6.553
 7096TIP3    H221230   3.403   4.339   6.452
 7097TIP3   OH221231   0.461   6.159   5.202
 7097TIP3    H121232   0.428   6.099   5.269
 7097TIP3    H221233   0.538   6.199   5.242
 7098TIP3   OH221234   4.804   1.981   1.970
 7098TIP3    H121235   4.764   1.959   2.054
 7098TIP3    H221236   4.751   2.052   1.935
 7099TIP3   OH221237   2.069   1.473   1.442
 7099TIP3    H121238   2.075   1.558   1.398
 7099TIP3    H221239   1.982   1.440   1.420
 7100TIP3   OH221240   3.354   4.816   3.539
 7100TIP3    H121241   3.347   4.804   3.445
 7100TIP3    H221242   3.294   4.888   3.559
 7101TIP3   OH221243   7.154   0.392   2.321
 7101TIP3    H121244   7.174   0.367   2.411
 7101TIP3    H221245   7.081   0.454   2.329
 7102TIP3   OH221246   8.360   3.106   1.650
 7102TIP3    H121247   8.402   3.053   1.582
 7102TIP3    H221248   8.277   3.133   1.611
 7103TIP3   OH221249   1.380   4.634   1.010
 7103TIP3    H121250   1.419   4.714   1.046
 7103TIP3    H221251   1.286   4.648   1.019
 7104TIP3   OH221252   4.327   3.602   4.017
 7104TIP3    H121253   4.345   3.686   3.975
 7104TIP3    H221254   4.315   3.541   3.945
 7105TIP3   OH221255   7.320   7.269   4.581
 7105TIP3    H121256   7.233   7.307   4.592
 7105TIP3    H221257   7.307   7.175   4.596
 7106TIP3   OH221258   2.562   0.751   1.335
 7106TIP3    H121259   2.502   0.802   1.389
 7106TIP3    H221260   2.510   0.726   1.258
 7107TIP3   OH221261   8.275   1.971   0.933
 7107TIP3    H121262   8.329   2.024   0.991
 7107TIP3    H221263   8.281   1.882   0.968
 7108TIP3   OH221264   7.870   2.662   1.152
 7108TIP3    H121265   7.810   2.591   1.177
 7108TIP3    H221266   7.957   2.627   1.169
 7109TIP3   OH221267   0.298   5.958   4.904
 7109TIP3    H121268   0.206   5.932   4.905
 7109TIP3    H221269   0.296   6.051   4.928
 7110TIP3   OH221270   0.775   5.433   3.938
 7110TIP3    H121271   0.843   5.452   4.002
 7110TIP3    H221272   0.752   5.518   3.901
 7111TIP3   OH221273   2.180   5.662   5.803
 7111TIP3    H121274   2.185   5.708   5.887
 7111TIP3    H221275   2.104   5.605   5.811
 7112TIP3   OH221276   4.831   0.227   1.645
 7112TIP3    H121277   4.901   0.240   1.708
 7112TIP3    H221278   4.875   0.193   1.567
 7113TIP3   OH221279   0.531   7.223   3.724
 7113TIP3    H121280   0.566   7.216   3.813
 7113TIP3    H221281   0.441   7.191   3.732
 7114TIP3   OH221282   0.299   7.875   2.504
 7114TIP3    H121283   0.230   7.936   2.476
 7114TIP3    H221284   0.257   7.789   2.500
 7115TIP3   OH221285   1.591   6.546   3.263
 7115TIP3    H121286   1.597   6.458   3.301
 7115TIP3    H221287   1.682   6.570   3.246
 7116TIP3   OH221288   7.852   4.968   0.107
 7116TIP3    H121289   7.837   4.956   0.013
 7116TIP3    H221290   7.778   5.020   0.137
 7117TIP3   OH221291   5.030   2.807   0.154
 7117TIP3    H121292   4.980   2.780   0.077
 7117TIP3    H221293   5.113   2.760   0.146
 7118TIP3   OH221294   5.842   2.711   3.732
 7118TIP3    H121295   5.760   2.758   3.747
 7118TIP3    H221296   5.891   2.765   3.670
 7119TIP3   OH221297   7.843   6.619   5.574
 7119TIP3    H121298   7.749   6.614   5.593
 7119TIP3    H221299   7.864   6.534   5.535
 7120TIP3   OH221300   0.100   2.690   3.169
 7120TIP3    H121301   0.105   2.780   3.202
 7120TIP3    H221302   0.067   2.699   3.080
 7121TIP3   OH221303   7.838   5.848   3.530
 7121TIP3    H121304   7.856   5.800   3.450
 7121TIP3    H221305   7.743   5.861   3.529
 7122TIP3   OH221306   2.979   6.701   5.003
 7122TIP3    H121307   3.019   6.648   4.935
 7122TIP3    H221308   3.052   6.745   5.047
 7123TIP3   OH221309   3.698   5.945   4.329
 7123TIP3    H121310   3.611   5.966   4.294
 7123TIP3    H221311   3.682   5.880   4.397
 7124TIP3   OH221312   7.084   2.932   0.609
 7124TIP3    H121313   7.176   2.931   0.586
 7124TIP3    H221314   7.040   2.890   0.535
 7125TIP3   OH221315   6.103   4.223   4.459
 7125TIP3    H121316   6.179   4.164   4.463
 7125TIP3    H221317   6.137   4.306   4.492
 7126TIP3   OH221318   6.539   5.035   3.683
 7126TIP3    H121319   6.480   5.059   3.611
 7126TIP3    H221320   6.572   4.948   3.658
 7127TIP3   OH221321   0.698   7.740   0.772
 7127TIP3    H121322   0.649   7.683   0.832
 7127TIP3    H221323   0.662   7.827   0.789
 7128TIP3   OH221324   3.384   4.609   2.140
 7128TIP3    H121325   3.393   4.549   2.066
 7128TIP3    H221326   3.474   4.627   2.167
 7129TIP3   OH221327   2.182   7.182   4.741
 7129TIP3    H121328   2.235   7.127   4.799
 7129TIP3    H221329   2.182   7.268   4.784
 7130TIP3   OH221330   4.328   3.384   0.127
 7130TIP3    H121331   4.339   3.458   0.187
 7130TIP3    H221332   4.363   3.309   0.176
 7131TIP3   OH221333   7.731  -0.009   3.492
 7131TIP3    H121334   7.730   0.045   3.571
 7131TIP3    H221335   7.643  -0.001   3.456
 7132TIP3   OH221336   7.933   7.352   2.008
 7132TIP3    H121337   7.951   7.430   2.061
 7132TIP3    H221338   7.854   7.314   2.047
 7133TIP3   OH221339   2.105   7.277   0.979
 7133TIP3    H121340   2.034   7.338   0.962
 7133TIP3    H221341   2.161   7.282   0.901
 7134TIP3   OH221342   4.005   5.174   1.574
 7134TIP3    H121343   4.059   5.135   1.642
 7134TIP3    H221344   3.963   5.100   1.531
 7135TIP3   OH221345   4.795   1.012   2.931
 7135TIP3    H121346   4.800   1.006   3.026
 7135TIP3    H221347   4.849   0.940   2.900
 7136TIP3   OH221348   1.528   3.552   2.412
 7136TIP3    H121349   1.451   3.608   2.404
 7136TIP3    H221350   1.603   3.610   2.400
 7137TIP3   OH221351   1.506   4.191   1.415
 7137TIP3    H121352   1.447   4.131   1.369
 7137TIP3    H221353   1.575   4.210   1.352
 7138TIP3   OH221354   4.150   5.545   0.515
 7138TIP3    H121355   4.235   5.546   0.472
 7138TIP3    H221356   4.161   5.604   0.590
 7139TIP3   OH221357   5.207   6.924   6.549
 7139TIP3    H121358   5.302   6.915   6.551
 7139TIP3    H221359   5.180   6.907   6.640
 7140TIP3   OH221360   1.688   4.417   6.156
 7140TIP3    H121361   1.616   4.411   6.092
 7140TIP3    H221362   1.665   4.354   6.224
 7141TIP3   OH221363   3.328   1.045   4.166
 7141TIP3    H121364   3.369   0.995   4.096
 7141TIP3    H221365   3.400   1.094   4.206
 7142TIP3   OH221366   6.380   4.560   0.680
 7142TIP3    H121367   6.345   4.615   0.611
 7142TIP3    H221368   6.386   4.473   0.640
 7143TIP3   OH221369   1.766   4.824   3.643
 7143TIP3    H121370   1.737   4.855   3.729
 7143TIP3    H221371   1.839   4.881   3.620
 7144TIP3   OH221372   6.857   6.445   0.818
 7144TIP3    H121373   6.776   6.447   0.767
 7144TIP3    H221374   6.843   6.377   0.884
 7145TIP3   OH221375   4.264   5.677   4.913
 7145TIP3    H121376   4.194   5.713   4.859
 7145TIP3    H221377   4.273   5.740   4.985
 7146TIP3   OH221378   7.758   7.093   6.125
 7146TIP3    H121379   7.676   7.144   6.129
 7146TIP3    H221380   7.730   7.002   6.127
 7147TIP3   OH221381   1.652   4.373   0.575
 7147TIP3    H121382   1.626   4.351   0.664
 7147TIP3    H221383   1.600   4.451   0.553
 7148TIP3   OH221384   7.400   7.212   2.983
 7148TIP3    H121385   7.488   7.200   2.948
 7148TIP3    H221386   7.367   7.289   2.937
 7149TIP3   OH221387   1.097   5.926   6.559
 7149TIP3    H121388   1.192   5.935   6.571
 7149TIP3    H221389   1.060   5.953   6.643
 7150TIP3   OH221390   6.816   0.455   4.846
 7150TIP3    H121391   6.766   0.434   4.925
 7150TIP3    H221392   6.750   0.472   4.780
 7151TIP3   OH221393   0.742   5.596   2.438
 7151TIP3    H121394   0.779   5.513   2.467
 7151TIP3    H221395   0.817   5.649   2.413
 7152TIP3   OH221396   1.975   2.287   3.762
 7152TIP3    H121397   1.901   2.227   3.770
 7152TIP3    H221398   2.042   2.249   3.819
 7153TIP3   OH221399   5.969   4.505   5.410
 7153TIP3    H121400   5.977   4.566   5.337
 7153TIP3    H221401   6.000   4.554   5.487
 7154TIP3   OH221402   6.496   6.752   5.306
 7154TIP3    H121403   6.407   6.718   5.298
 7154TIP3    H221404   6.550   6.675   5.325
 7155TIP3   OH221405   3.988   1.961   6.075
 7155TIP3    H121406   3.972   1.906   6.152
 7155TIP3    H221407   4.061   2.017   6.100
 7156TIP3   OH221408   7.106   0.488   2.930
 7156TIP3    H121409   7.201   0.490   2.917
 7156TIP3    H221410   7.070   0.515   2.845
 7157TIP3   OH221411   0.986   7.343   3.601
 7157TIP3    H121412   0.931   7.347   3.679
 7157TIP3    H221413   0.993   7.434   3.572
 7158TIP3   OH221414   7.288   5.485   3.505
 7158TIP3    H121415   7.275   5.558   3.565
 7158TIP3    H221416   7.379   5.458   3.520
 7159TIP3   OH221417   1.928   6.051   4.111
 7159TIP3    H121418   1.873   6.017   4.181
 7159TIP3    H221419   1.901   6.002   4.033
 7160TIP3   OH221420   7.906   7.004   0.850
 7160TIP3    H121421   7.873   7.092   0.864
 7160TIP3    H221422   7.875   6.980   0.762
 7161TIP3   OH221423   2.406   6.022   2.366
 7161TIP3    H121424   2.433   6.084   2.299
 7161TIP3    H221425   2.326   6.058   2.402
 7162TIP3   OH221426   3.544   0.875   5.668
 7162TIP3    H121427   3.519   0.959   5.628
 7162TIP3    H221428   3.540   0.813   5.595
 7163TIP3   OH221429   6.055   7.078   5.722
 7163TIP3    H121430   6.084   7.158   5.765
 7163TIP3    H221431   6.107   7.073   5.641
 7164TIP3   OH221432   5.750   2.677   4.709
 7164TIP3    H121433   5.714   2.732   4.778
 7164TIP3    H221434   5.824   2.632   4.751
 7165TIP3   OH221435   1.802   5.466   1.057
 7165TIP3    H121436   1.778   5.448   0.966
 7165TIP3    H221437   1.796   5.561   1.065
 7166TIP3   OH221438   1.799   2.865   3.515
 7166TIP3    H121439   1.856   2.940   3.535
 7166TIP3    H221440   1.765   2.885   3.428
 7167TIP3   OH221441   4.986   4.371   1.760
 7167TIP3    H121442   4.914   4.329   1.806
 7167TIP3    H221443   5.032   4.422   1.827
 7168TIP3   OH221444   4.974   1.718   1.425
 7168TIP3    H121445   4.931   1.800   1.452
 7168TIP3    H221446   5.032   1.696   1.497
 7169TIP3   OH221447   0.592   1.715   6.177
 7169TIP3    H121448   0.525   1.648   6.180
 7169TIP3    H221449   0.657   1.688   6.243
 7170TIP3   OH221450   6.705   1.659   2.524
 7170TIP3    H121451   6.648   1.717   2.574
 7170TIP3    H221452   6.662   1.651   2.439
 7171TIP3   OH221453   7.420   7.674   4.918
 7171TIP3    H121454   7.416   7.583   4.950
 7171TIP3    H221455   7.496   7.711   4.961
 7172TIP3   OH221456   7.999   3.370   1.334
 7172TIP3    H121457   8.095   3.365   1.337
 7172TIP3    H221458   7.977   3.359   1.242
 7173TIP3   OH221459   7.652   5.052   2.575
 7173TIP3    H121460   7.637   5.053   2.670
 7173TIP3    H221461   7.592   4.985   2.542
 7174TIP3   OH221462   4.622   2.771   2.780
 7174TIP3    H121463   4.714   2.746   2.771
 7174TIP3    H221464   4.585   2.761   2.693
 7175TIP3   OH221465   6.775   6.273   3.478
 7175TIP3    H121466   6.732   6.308   3.400
 7175TIP3    H221467   6.859   6.240   3.447
 7176TIP3   OH221468   5.643   0.729   6.214
 7176TIP3    H121469   5.595   0.766   6.139
 7176TIP3    H221470   5.675   0.806   6.262
 7177TIP3   OH221471   6.828   6.457   2.364
 7177TIP3    H121472   6.902   6.469   2.304
 7177TIP3    H221473   6.853   6.505   2.443
 7178TIP3   OH221474   0.419   2.566   4.006
 7178TIP3    H121475   0.473   2.632   4.049
 7178TIP3    H221476   0.438   2.485   4.054
 7179TIP3   OH221477   6.007   4.089   5.091
 7179TIP3    H121478   5.966   4.171   5.119
 7179TIP3    H221479   6.058   4.113   5.014
 7180TIP3   OH221480   1.584   2.002   2.384
 7180TIP3    H121481   1.567   2.077   2.327
 7180TIP3    H221482   1.538   1.929   2.343
 7181TIP3   OH221483   3.473   7.890   3.855
 7181TIP3    H121484   3.427   7.863   3.934
 7181TIP3    H221485   3.404   7.910   3.792
 7182TIP3   OH221486   4.576   4.287   0.103
 7182TIP3    H121487   4.623   4.257   0.025
 7182TIP3    H221488   4.637   4.270   0.175
 7183TIP3   OH221489   1.828   7.847   6.743
 7183TIP3    H121490   1.864   7.802   6.819
 7183TIP3    H221491   1.828   7.940   6.768
 7184TIP3   OH221492   3.177   3.885   3.827
 7184TIP3    H121493   3.260   3.865   3.870
 7184TIP3    H221494   3.143   3.961   3.875
 7185TIP3   OH221495   7.457   3.520   1.943
 7185TIP3    H121496   7.438   3.581   1.872
 7185TIP3    H221497   7.541   3.481   1.920
 7186TIP3   OH221498   7.879   2.435   2.040
 7186TIP3    H121499   7.880   2.500   1.970
 7186TIP3    H221500   7.971   2.423   2.062
 7187TIP3   OH221501   7.716   5.386   1.284
 7187TIP3    H121502   7.662   5.377   1.206
 7187TIP3    H221503   7.789   5.326   1.269
 7188TIP3   OH221504   1.918   1.586   2.931
 7188TIP3    H121505   1.929   1.640   3.009
 7188TIP3    H221506   1.892   1.648   2.862
 7189TIP3   OH221507   7.073   7.783   3.274
 7189TIP3    H121508   7.151   7.730   3.257
 7189TIP3    H221509   7.106   7.863   3.316
 7190TIP3   OH221510   1.072   0.675   0.854
 7190TIP3    H121511   1.090   0.670   0.760
 7190TIP3    H221512   1.082   0.768   0.875
 7191TIP3   OH221513   1.910   0.332   4.094
 7191TIP3    H121514   1.983   0.286   4.054
 7191TIP3    H221515   1.948   0.378   4.169
 7192TIP3   OH221516   2.165   6.619   3.396
 7192TIP3    H121517   2.216   6.699   3.383
 7192TIP3    H221518   2.074   6.649   3.402
 7193TIP3   OH221519   6.500   2.456   3.892
 7193TIP3    H121520   6.446   2.535   3.891
 7193TIP3    H221521   6.567   2.472   3.826
 7194TIP3   OH221522   7.431   1.238   5.359
 7194TIP3    H121523   7.344   1.201   5.368
 7194TIP3    H221524   7.419   1.315   5.302
 7195TIP3   OH221525   0.532   4.066   2.904
 7195TIP3    H121526   0.605   4.114   2.944
 7195TIP3    H221527   0.516   3.993   2.964
 7196TIP3   OH221528   1.544   3.734   1.934
 7196TIP3    H121529   1.535   3.829   1.924
 7196TIP3    H221530   1.482   3.697   1.872
 7197TIP3   OH221531   4.880   1.427   3.827
 7197TIP3    H121532   4.923   1.499   3.872
 7197TIP3    H221533   4.816   1.393   3.890
 7198TIP3   OH221534   6.644   1.088   5.148
 7198TIP3    H121535   6.574   1.036   5.110
 7198TIP3    H221536   6.613   1.110   5.236
 7199TIP3   OH221537   3.554   2.013   1.742
 7199TIP3    H121538   3.605   1.933   1.751
 7199TIP3    H221539   3.472   1.985   1.702
 7200TIP3   OH221540   6.800   5.382   5.761
 7200TIP3    H121541   6.890   5.363   5.789
 7200TIP3    H221542   6.747   5.363   5.839
 7201TIP3   OH221543   6.390   7.890   4.815
 7201TIP3    H121544   6.305   7.847   4.805
 7201TIP3    H221545   6.400   7.902   4.909
 7202TIP3   OH221546   0.324   2.344   1.804
 7202TIP3    H121547   0.381   2.367   1.731
 7202TIP3    H221548   0.320   2.249   1.803
 7203TIP3   OH221549   3.061   3.022   4.870
 7203TIP3    H121550   3.142   2.987   4.907
 7203TIP3    H221551   2.998   3.018   4.941
 7204TIP3   OH221552   7.740   6.876   5.053
 7204TIP3    H121553   7.748   6.781   5.043
 7204TIP3    H221554   7.687   6.904   4.978
 7205TIP3   OH221555   1.670   4.997   3.412
 7205TIP3    H121556   1.588   5.026   3.452
 7205TIP3    H221557   1.647   4.918   3.364
 7206TIP3   OH221558   3.440   3.576   3.929
 7206TIP3    H121559   3.448   3.671   3.944
 7206TIP3    H221560   3.347   3.558   3.944
 7207TIP3   OH221561   0.998   0.544   3.847
 7207TIP3    H121562   0.979   0.560   3.939
 7207TIP3    H221563   0.932   0.481   3.819
 7208TIP3   OH221564   6.057   3.341   0.643
 7208TIP3    H121565   6.015   3.387   0.716
 7208TIP3    H221566   6.115   3.407   0.604
 7209TIP3   OH221567   3.433   3.875   4.341
 7209TIP3    H121568   3.461   3.959   4.378
 7209TIP3    H221569   3.485   3.810   4.389
 7210TIP3   OH221570   2.054   3.660   0.278
 7210TIP3    H121571   1.959   3.655   0.269
 7210TIP3    H221572   2.077   3.748   0.248
 7211TIP3   OH221573   0.999   7.800   0.491
 7211TIP3    H121574   0.986   7.764   0.403
 7211TIP3    H221575   1.065   7.744   0.531
 7212TIP3   OH221576   4.027   7.272   5.737
 7212TIP3    H121577   4.057   7.202   5.794
 7212TIP3    H221578   3.965   7.322   5.790
 7213TIP3   OH221579   7.680   5.541   6.550
 7213TIP3    H121580   7.764   5.576   6.519
 7213TIP3    H221581   7.675   5.454   6.511
 7214TIP3   OH221582   1.766   2.471   6.638
 7214TIP3    H121583   1.674   2.496   6.649
 7214TIP3    H221584   1.814   2.554   6.647
 7215TIP3   OH221585   7.234   0.987   2.618
 7215TIP3    H121586   7.287   1.031   2.684
 7215TIP3    H221587   7.297   0.941   2.563
 7216TIP3   OH221588   4.788   5.377   1.523
 7216TIP3    H121589   4.774   5.446   1.458
 7216TIP3    H221590   4.814   5.301   1.471
 7217TIP3   OH221591   7.149   4.257   5.734
 7217TIP3    H121592   7.094   4.271   5.812
 7217TIP3    H221593   7.097   4.293   5.662
 7218TIP3   OH221594   2.551   1.030   0.252
 7218TIP3    H121595   2.465   1.002   0.221
 7218TIP3    H221596   2.582   0.957   0.306
 7219TIP3   OH221597   1.857   2.434   5.205
 7219TIP3    H121598   1.840   2.355   5.256
 7219TIP3    H221599   1.946   2.422   5.170
 7220TIP3   OH221600   6.091   4.803   0.707
 7220TIP3    H121601   6.139   4.884   0.724
 7220TIP3    H221602   6.034   4.794   0.783
 7221TIP3   OH221603   4.355   0.604   0.484
 7221TIP3    H121604   4.365   0.621   0.390
 7221TIP3    H221605   4.337   0.690   0.522
 7222TIP3   OH221606   1.204   6.059   3.309
 7222TIP3    H121607   1.141   6.000   3.350
 7222TIP3    H221608   1.277   6.001   3.284
 7223TIP3   OH221609   1.561   6.809   6.553
 7223TIP3    H121610   1.537   6.880   6.613
 7223TIP3    H221611   1.483   6.754   6.550
 7224TIP3   OH221612   6.038   2.611   3.926
 7224TIP3    H121613   6.021   2.533   3.978
 7224TIP3    H221614   5.957   2.627   3.878
 7225TIP3   OH221615   7.381   4.287   3.329
 7225TIP3    H121616   7.411   4.378   3.330
 7225TIP3    H221617   7.333   4.277   3.411
 7226TIP3   OH221618   8.367   0.933   2.642
 7226TIP3    H121619   8.361   1.009   2.584
 7226TIP3    H221620   8.319   0.864   2.596
 7227TIP3   OH221621   4.326   2.214   2.499
 7227TIP3    H121622   4.288   2.268   2.568
 7227TIP3    H221623   4.359   2.277   2.435
 7228TIP3   OH221624   6.281   2.611   2.009
 7228TIP3    H121625   6.336   2.653   2.075
 7228TIP3    H221626   6.238   2.684   1.964
 7229TIP3   OH221627   7.035   5.079   3.685
 7229TIP3    H121628   7.062   5.014   3.621
 7229TIP3    H221629   7.092   5.154   3.668
 7230TIP3   OH221630   1.041   5.844   4.654
 7230TIP3    H121631   1.037   5.935   4.624
 7230TIP3    H221632   1.000   5.846   4.740
 7231TIP3   OH221633   3.402   1.130   1.703
 7231TIP3    H121634   3.473   1.183   1.739
 7231TIP3    H221635   3.328   1.146   1.761
 7232TIP3   OH221636   0.070   3.121   2.816
 7232TIP3    H121637   0.118   3.174   2.752
 7232TIP3    H221638   0.005   3.181   2.854
 7233TIP3   OH221639   5.693   1.098   5.964
 7233TIP3    H121640   5.741   1.105   6.046
 7233TIP3    H221641   5.608   1.060   5.988
 7234TIP3   OH221642   7.435   4.480   1.407
 7234TIP3    H121643   7.430   4.455   1.315
 7234TIP3    H221644   7.440   4.396   1.454
 7235TIP3   OH221645   4.605   3.439   0.729
 7235TIP3    H121646   4.566   3.523   0.706
 7235TIP3    H221647   4.634   3.403   0.645
 7236TIP3   OH221648   7.824   4.178   5.297
 7236TIP3    H121649   7.911   4.214   5.280
 7236TIP3    H221650   7.769   4.255   5.310
 7237TIP3   OH221651   6.409   1.133   1.110
 7237TIP3    H121652   6.408   1.071   1.183
 7237TIP3    H221653   6.321   1.173   1.111
 7238TIP3   OH221654   5.716   1.355   5.267
 7238TIP3    H121655   5.708   1.295   5.193
 7238TIP3    H221656   5.781   1.419   5.239
 7239TIP3   OH221657   2.480   5.555   2.308
 7239TIP3    H121658   2.531   5.578   2.386
 7239TIP3    H221659   2.409   5.500   2.342
 7240TIP3   OH221660   2.006   4.772   4.084
 7240TIP3    H121661   2.002   4.861   4.119
 7240TIP3    H221662   1.979   4.716   4.157
 7241TIP3   OH221663   3.713   2.430   5.663
 7241TIP3    H121664   3.760   2.508   5.631
 7241TIP3    H221665   3.621   2.450   5.650
 7242TIP3   OH221666   1.788   5.857   1.504
 7242TIP3    H121667   1.881   5.875   1.519
 7242TIP3    H221668   1.776   5.766   1.531
 7243TIP3   OH221669   2.690   4.854   0.430
 7243TIP3    H121670   2.719   4.940   0.459
 7243TIP3    H221671   2.625   4.827   0.496
 7244TIP3   OH221672   4.702   7.604   6.036
 7244TIP3    H121673   4.692   7.592   6.131
 7244TIP3    H221674   4.747   7.688   6.028
 7245TIP3   OH221675   3.596   0.737   6.325
 7245TIP3    H121676   3.637   0.815   6.361
 7245TIP3    H221677   3.513   0.769   6.288
 7246TIP3   OH221678   3.061   6.840   4.619
 7246TIP3    H121679   3.124   6.798   4.560
 7246TIP3    H221680   2.994   6.773   4.634
 7247TIP3   OH221681   5.513   0.819   3.013
 7247TIP3    H121682   5.530   0.796   2.922
 7247TIP3    H221683   5.524   0.914   3.017
 7248TIP3   OH221684   6.806   2.210   1.820
 7248TIP3    H121685   6.875   2.270   1.849
 7248TIP3    H221686   6.750   2.263   1.764
 7249TIP3   OH221687   2.338   3.160   5.173
 7249TIP3    H121688   2.389   3.208   5.108
 7249TIP3    H221689   2.400   3.142   5.243
 7250TIP3   OH221690   2.018   6.937   5.039
 7250TIP3    H121691   2.018   6.878   5.114
 7250TIP3    H221692   2.077   7.008   5.063
 7251TIP3   OH221693   1.471   2.028   1.918
 7251TIP3    H121694   1.537   1.988   1.862
 7251TIP3    H221695   1.396   2.044   1.860
 7252TIP3   OH221696   3.731   4.360   1.855
 7252TIP3    H121697   3.691   4.282   1.816
 7252TIP3    H221698   3.661   4.400   1.906
 7253TIP3   OH221699   4.044   4.356   5.043
 7253TIP3    H121700   4.095   4.276   5.056
 7253TIP3    H221701   3.966   4.344   5.097
 7254TIP3   OH221702   7.101   4.086   1.228
 7254TIP3    H121703   7.196   4.081   1.223
 7254TIP3    H221704   7.077   4.028   1.300
 7255TIP3   OH221705   7.943   7.074   5.640
 7255TIP3    H121706   8.038   7.084   5.645
 7255TIP3    H221707   7.930   6.993   5.591
 7256TIP3   OH221708   3.244   7.430   3.902
 7256TIP3    H121709   3.338   7.416   3.916
 7256TIP3    H221710   3.225   7.380   3.822
 7257TIP3   OH221711   5.132   2.755   4.107
 7257TIP3    H121712   5.118   2.738   4.014
 7257TIP3    H221713   5.184   2.835   4.109
 7258TIP3   OH221714   0.529   4.155   2.052
 7258TIP3    H121715   0.552   4.150   2.145
 7258TIP3    H221716   0.613   4.153   2.006
 7259TIP3   OH221717   7.809   0.446   0.995
 7259TIP3    H121718   7.903   0.446   0.980
 7259TIP3    H221719   7.775   0.379   0.936
 7260TIP3   OH221720   6.976   2.042   1.645
 7260TIP3    H121721   6.921   1.998   1.711
 7260TIP3    H221722   6.960   2.135   1.659
 7261TIP3   OH221723   6.707   6.305   4.710
 7261TIP3    H121724   6.741   6.276   4.794
 7261TIP3    H221725   6.782   6.346   4.667
 7262TIP3   OH221726   7.453   1.738   6.116
 7262TIP3    H121727   7.372   1.774   6.152
 7262TIP3    H221728   7.450   1.645   6.139
 7263TIP3   OH221729   0.366  -0.012   2.367
 7263TIP3    H121730   0.447  -0.050   2.335
 7263TIP3    H221731   0.388   0.080   2.386
 7264TIP3   OH221732   4.794   5.478   5.805
 7264TIP3    H121733   4.717   5.433   5.839
 7264TIP3    H221734   4.792   5.460   5.710
 7265TIP3   OH221735   8.397   3.115   0.024
 7265TIP3    H121736   8.359   3.086   0.107
 7265TIP3    H221737   8.322   3.125  -0.035
 7266TIP3   OH221738   2.015   2.336   0.740
 7266TIP3    H121739   1.986   2.342   0.649
 7266TIP3    H221740   2.042   2.244   0.750
 7267TIP3   OH221741   7.833   7.249   2.938
 7267TIP3    H121742   7.773   7.252   3.012
 7267TIP3    H221743   7.913   7.291   2.970
 7268TIP3   OH221744   7.707   6.521   6.069
 7268TIP3    H121745   7.636   6.475   6.024
 7268TIP3    H221746   7.782   6.512   6.010
 7269TIP3   OH221747   3.935   7.584   1.585
 7269TIP3    H121748   3.985   7.515   1.543
 7269TIP3    H221749   3.949   7.571   1.679
 7270TIP3   OH221750   7.290   2.615   3.974
 7270TIP3    H121751   7.316   2.698   3.933
 7270TIP3    H221752   7.313   2.548   3.910
 7271TIP3   OH221753   4.797   1.069   3.215
 7271TIP3    H121754   4.735   1.013   3.262
 7271TIP3    H221755   4.787   1.155   3.256
 7272TIP3   OH221756   4.596   6.672   6.529
 7272TIP3    H121757   4.586   6.586   6.568
 7272TIP3    H221758   4.523   6.679   6.467
 7273TIP3   OH221759   2.326   6.677   4.271
 7273TIP3    H121760   2.283   6.732   4.337
 7273TIP3    H221761   2.416   6.669   4.301
 7274TIP3   OH221762   7.200   3.898   6.210
 7274TIP3    H121763   7.121   3.914   6.159
 7274TIP3    H221764   7.269   3.887   6.144
 7275TIP3   OH221765   6.227   6.381   1.104
 7275TIP3    H121766   6.307   6.369   1.053
 7275TIP3    H221767   6.168   6.429   1.046
 7276TIP3   OH221768   3.066   6.514   4.172
 7276TIP3    H121769   3.072   6.609   4.169
 7276TIP3    H221770   2.978   6.495   4.140
 7277TIP3   OH221771   0.215   6.198   5.535
 7277TIP3    H121772   0.230   6.287   5.567
 7277TIP3    H221773   0.140   6.167   5.584
 7278TIP3   OH221774   0.974   0.750   0.081
 7278TIP3    H121775   0.936   0.710   0.003
 7278TIP3    H221776   1.043   0.808   0.048
 7279TIP3   OH221777   0.811   5.838   3.096
 7279TIP3    H121778   0.855   5.755   3.113
 7279TIP3    H221779   0.808   5.845   3.000
 7280TIP3   OH221780   2.314   1.159   4.695
 7280TIP3    H121781   2.267   1.240   4.715
 7280TIP3    H221782   2.245   1.093   4.685
 7281TIP3   OH221783   7.858   1.149   0.680
 7281TIP3    H121784   7.919   1.124   0.749
 7281TIP3    H221785   7.841   1.242   0.696
 7282TIP3   OH221786   7.222   7.751   1.052
 7282TIP3    H121787   7.308   7.726   1.086
 7282TIP3    H221788   7.206   7.689   0.980
 7283TIP3   OH221789   4.989   0.449   4.521
 7283TIP3    H121790   5.005   0.442   4.615
 7283TIP3    H221791   4.986   0.359   4.489
 7284TIP3   OH221792   4.692   4.650   5.414
 7284TIP3    H121793   4.647   4.583   5.465
 7284TIP3    H221794   4.712   4.607   5.330
 7285TIP3   OH221795   1.935   6.121   0.300
 7285TIP3    H121796   1.997   6.062   0.344
 7285TIP3    H221797   1.983   6.153   0.223
 7286TIP3   OH221798   0.828   5.095   1.590
 7286TIP3    H121799   0.776   5.107   1.511
 7286TIP3    H221800   0.904   5.152   1.577
 7287TIP3   OH221801   5.602   3.242   6.032
 7287TIP3    H121802   5.550   3.168   5.998
 7287TIP3    H221803   5.684   3.202   6.062
 7288TIP3   OH221804   3.725   5.010   5.333
 7288TIP3    H121805   3.645   5.005   5.282
 7288TIP3    H221806   3.696   5.017   5.424
 7289TIP3   OH221807   6.191   4.570   6.670
 7289TIP3    H121808   6.241   4.556   6.750
 7289TIP3    H221809   6.186   4.666   6.661
 7290TIP3   OH221810   3.171   7.652   4.011
 7290TIP3    H121811   3.173   7.720   3.944
 7290TIP3    H221812   3.210   7.575   3.968
 7291TIP3   OH221813   6.199   6.211   0.828
 7291TIP3    H121814   6.182   6.133   0.881
 7291TIP3    H221815   6.288   6.200   0.797
 7292TIP3   OH221816   5.484   7.523   4.866
 7292TIP3    H121817   5.565   7.479   4.891
 7292TIP3    H221818   5.420   7.453   4.858
 7293TIP3   OH221819   3.752   2.038   4.319
 7293TIP3    H121820   3.695   2.102   4.276
 7293TIP3    H221821   3.698   1.959   4.325
 7294TIP3   OH221822   0.613   4.877   2.484
 7294TIP3    H121823   0.634   4.814   2.553
 7294TIP3    H221824   0.590   4.957   2.531
 7295TIP3   OH221825   5.108   2.465   5.196
 7295TIP3    H121826   5.056   2.464   5.277
 7295TIP3    H221827   5.198   2.450   5.226
 7296TIP3   OH221828   4.058   2.416   5.939
 7296TIP3    H121829   4.059   2.321   5.927
 7296TIP3    H221830   4.025   2.429   6.028
 7297TIP3   OH221831   7.924   2.369   4.502
 7297TIP3    H121832   8.014   2.336   4.508
 7297TIP3    H221833   7.913   2.424   4.580
 7298TIP3   OH221834   8.312   1.772   3.615
 7298TIP3    H121835   8.361   1.690   3.615
 7298TIP3    H221836   8.220   1.746   3.624
 7299TIP3   OH221837   4.810   4.729   3.204
 7299TIP3    H121838   4.778   4.726   3.295
 7299TIP3    H221839   4.756   4.796   3.162
 7300TIP3   OH221840   2.953   1.321   1.902
 7300TIP3    H121841   2.920   1.335   1.991
 7300TIP3    H221842   2.991   1.406   1.877
 7301TIP3   OH221843   6.886   4.068   3.062
 7301TIP3    H121844   6.858   3.977   3.075
 7301TIP3    H221845   6.808   4.114   3.034
 7302TIP3   OH221846   1.827   5.329   5.776
 7302TIP3    H121847   1.830   5.246   5.729
 7302TIP3    H221848   1.762   5.316   5.845
 7303TIP3   OH221849   5.288   7.162   3.361
 7303TIP3    H121850   5.372   7.181   3.319
 7303TIP3    H221851   5.301   7.184   3.453
 7304TIP3   OH221852   2.091   3.294   0.369
 7304TIP3    H121853   2.123   3.206   0.389
 7304TIP3    H221854   1.999   3.281   0.343
 7305TIP3   OH221855   4.235   2.391   3.040
 7305TIP3    H121856   4.310   2.375   2.983
 7305TIP3    H221857   4.159   2.361   2.989
 7306TIP3   OH221858   3.836   5.482   4.432
 7306TIP3    H121859   3.772   5.433   4.483
 7306TIP3    H221860   3.788   5.514   4.356
 7307TIP3   OH221861   0.090   2.289   6.182
 7307TIP3    H121862   0.025   2.349   6.219
 7307TIP3    H221863   0.161   2.289   6.245
 7308TIP3   OH221864   6.421   0.579   0.975
 7308TIP3    H121865   6.428   0.635   1.053
 7308TIP3    H221866   6.486   0.614   0.915
 7309TIP3   OH221867   2.196   5.097   3.555
 7309TIP3    H121868   2.277   5.067   3.596
 7309TIP3    H221869   2.127   5.072   3.616
 7310TIP3   OH221870   7.323   5.531   6.778
 7310TIP3    H121871   7.390   5.580   6.729
 7310TIP3    H221872   7.310   5.451   6.726
 7311TIP3   OH221873   5.702   7.886   0.509
 7311TIP3    H121874   5.609   7.909   0.508
 7311TIP3    H221875   5.747   7.970   0.519
 7312TIP3   OH221876   2.688   1.251   4.866
 7312TIP3    H121877   2.741   1.202   4.929
 7312TIP3    H221878   2.601   1.254   4.906
 7313TIP3   OH221879   0.471   2.262   5.223
 7313TIP3    H121880   0.513   2.286   5.140
 7313TIP3    H221881   0.540   2.221   5.274
 7314TIP3   OH221882   3.937  -0.004   1.392
 7314TIP3    H121883   3.863   0.013   1.334
 7314TIP3    H221884   4.014   0.019   1.340
 7315TIP3   OH221885   2.377   4.216   3.682
 7315TIP3    H121886   2.472   4.200   3.679
 7315TIP3    H221887   2.369   4.301   3.724
 7316TIP3   OH221888   0.879   4.183   1.362
 7316TIP3    H121889   0.875   4.111   1.299
 7316TIP3    H221890   0.948   4.240   1.329
 7317TIP3   OH221891   6.001   3.750   4.379
 7317TIP3    H121892   6.091   3.780   4.388
 7317TIP3    H221893   5.995   3.674   4.438
 7318TIP3   OH221894   3.118   5.683   5.681
 7318TIP3    H121895   3.067   5.604   5.694
 7318TIP3    H221896   3.064   5.739   5.625
 7319TIP3   OH221897   1.778   1.573   4.756
 7319TIP3    H121898   1.771   1.565   4.661
 7319TIP3    H221899   1.730   1.653   4.777
 7320TIP3   OH221900   8.126   1.836   4.621
 7320TIP3    H121901   8.198   1.898   4.611
 7320TIP3    H221902   8.115   1.827   4.716
 7321TIP3   OH221903   0.668   0.054   1.452
 7321TIP3    H121904   0.591   0.106   1.431
 7321TIP3    H221905   0.660  -0.025   1.399
 7322TIP3   OH221906   0.649   0.062   2.682
 7322TIP3    H121907   0.735   0.097   2.662
 7322TIP3    H221908   0.621   0.018   2.602
 7323TIP3   OH221909   7.586   2.618   1.726
 7323TIP3    H121910   7.567   2.711   1.713
 7323TIP3    H221911   7.530   2.592   1.800
 7324TIP3   OH221912   6.438   0.154   0.127
 7324TIP3    H121913   6.406   0.125   0.041
 7324TIP3    H221914   6.478   0.240   0.110
 7325TIP3   OH221915   0.738   6.969   1.765
 7325TIP3    H121916   0.807   6.908   1.738
 7325TIP3    H221917   0.690   6.922   1.833
 7326TIP3   OH221918   2.157   0.697   5.097
 7326TIP3    H121919   2.079   0.740   5.132
 7326TIP3    H221920   2.228   0.729   5.153
 7327TIP3   OH221921   5.622   2.531   5.041
 7327TIP3    H121922   5.652   2.528   4.950
 7327TIP3    H221923   5.591   2.621   5.053
 7328TIP3   OH221924   4.067   2.023   3.561
 7328TIP3    H121925   3.979   2.049   3.589
 7328TIP3    H221926   4.125   2.057   3.629
 7329TIP3   OH221927   3.925   2.508   2.559
 7329TIP3    H121928   3.987   2.482   2.492
 7329TIP3    H221929   3.975   2.564   2.618
 7330TIP3   OH221930   2.138   4.996   5.333
 7330TIP3    H121931   2.174   5.051   5.263
 7330TIP3    H221932   2.215   4.965   5.381
 7331TIP3   OH221933   4.794   2.041   2.592
 7331TIP3    H121934   4.818   2.035   2.500
 7331TIP3    H221935   4.861   1.989   2.637
 7332TIP3   OH221936   8.185   7.178   6.287
 7332TIP3    H121937   8.265   7.175   6.340
 7332TIP3    H221938   8.167   7.087   6.266
 7333TIP3   OH221939   0.764   6.661   2.329
 7333TIP3    H121940   0.684   6.630   2.371
 7333TIP3    H221941   0.780   6.747   2.367
 7334TIP3   OH221942   7.357   3.879   5.967
 7334TIP3    H121943   7.285   3.835   5.921
 7334TIP3    H221944   7.413   3.913   5.897
 7335TIP3   OH221945   0.542   4.453   0.844
 7335TIP3    H121946   0.636   4.443   0.858
 7335TIP3    H221947   0.516   4.522   0.905
 7336TIP3   OH221948   1.796   4.251   3.086
 7336TIP3    H121949   1.746   4.264   3.166
 7336TIP3    H221950   1.877   4.208   3.115
 7337TIP3   OH221951   1.750   5.536   6.897
 7337TIP3    H121952   1.701   5.481   6.837
 7337TIP3    H221953   1.838   5.497   6.900
 7338TIP3   OH221954   8.427   6.981   0.618
 7338TIP3    H121955   8.447   6.922   0.546
 7338TIP3    H221956   8.341   7.017   0.596
 7339TIP3   OH221957   7.766   4.361   0.504
 7339TIP3    H121958   7.845   4.348   0.558
 7339TIP3    H221959   7.753   4.456   0.503
 7340TIP3   OH221960   4.694   7.469   3.666
 7340TIP3    H121961   4.656   7.556   3.657
 7340TIP3    H221962   4.789   7.484   3.659
 7341TIP3   OH221963   4.083   1.772   1.692
 7341TIP3    H121964   4.126   1.687   1.701
 7341TIP3    H221965   4.154   1.835   1.696
 7342TIP3   OH221966   5.078   0.523   5.298
 7342TIP3    H121967   5.158   0.495   5.254
 7342TIP3    H221968   5.083   0.485   5.386
 7343TIP3   OH221969   2.805   1.043   3.667
 7343TIP3    H121970   2.841   0.980   3.605
 7343TIP3    H221971   2.858   1.032   3.746
 7344TIP3   OH221972   7.525   1.851   2.439
 7344TIP3    H121973   7.528   1.901   2.358
 7344TIP3    H221974   7.480   1.909   2.501
 7345TIP3   OH221975   3.589   2.216   3.783
 7345TIP3    H121976   3.532   2.139   3.778
 7345TIP3    H221977   3.536   2.287   3.749
 7346TIP3   OH221978   6.801   7.422   6.701
 7346TIP3    H121979   6.896   7.428   6.716
 7346TIP3    H221980   6.790   7.340   6.653
 7347TIP3   OH221981   2.519   2.493   2.682
 7347TIP3    H121982   2.552   2.490   2.772
 7347TIP3    H221983   2.429   2.461   2.689
 7348TIP3   OH221984   2.123   1.070   3.416
 7348TIP3    H121985   2.074   1.151   3.401
 7348TIP3    H221986   2.075   1.025   3.485
 7349TIP3   OH221987   3.700   7.404   1.836
 7349TIP3    H121988   3.679   7.492   1.867
 7349TIP3    H221989   3.627   7.380   1.780
 7350TIP3   OH221990   5.282   7.285   4.913
 7350TIP3    H121991   5.223   7.314   4.983
 7350TIP3    H221992   5.224   7.242   4.850
 7351TIP3   OH221993   7.735   3.391   3.062
 7351TIP3    H121994   7.660   3.403   3.121
 7351TIP3    H221995   7.757   3.480   3.034
 7352TIP3   OH221996   4.666   4.369   2.913
 7352TIP3    H121997   4.726   4.421   2.966
 7352TIP3    H221998   4.656   4.419   2.832
 7353TIP3   OH221999   8.372   1.094   5.475
 7353TIP3    H122000   8.286   1.084   5.435
 7353TIP3    H222001   8.381   1.019   5.534
 7354TIP3   OH222002   0.204   4.909   6.462
 7354TIP3    H122003   0.245   4.861   6.390
 7354TIP3    H222004   0.259   4.986   6.474
 7355TIP3   OH222005   3.758   4.027   0.347
 7355TIP3    H122006   3.806   4.091   0.400
 7355TIP3    H222007   3.820   4.001   0.278
 7356TIP3   OH222008   0.588   6.870   5.346
 7356TIP3    H122009   0.531   6.928   5.396
 7356TIP3    H222010   0.571   6.783   5.382
 7357TIP3   OH222011   1.438   4.156   3.043
 7357TIP3    H122012   1.523   4.175   3.082
 7357TIP3    H222013   1.437   4.207   2.962
 7358TIP3   OH222014   1.284   0.893   6.009
 7358TIP3    H122015   1.354   0.943   5.967
 7358TIP3    H222016   1.230   0.960   6.052
 7359TIP3   OH222017   4.712   1.657   6.345
 7359TIP3    H122018   4.761   1.596   6.400
 7359TIP3    H222019   4.665   1.713   6.406
 7360TIP3   OH222020   6.972   3.982   3.957
 7360TIP3    H122021   7.033   3.920   3.998
 7360TIP3    H222022   6.886   3.954   3.986
 7361TIP3   OH222023   2.073   2.759   3.904
 7361TIP3    H122024   2.136   2.752   3.832
 7361TIP3    H222025   1.989   2.775   3.861
 7362TIP3   OH222026   1.806   7.522   2.880
 7362TIP3    H122027   1.829   7.430   2.868
 7362TIP3    H222028   1.713   7.520   2.903
 7363TIP3   OH222029   7.570   4.564   4.306
 7363TIP3    H122030   7.569   4.472   4.281
 7363TIP3    H222031   7.522   4.567   4.389
 7364TIP3   OH222032   1.692   5.110   6.587
 7364TIP3    H122033   1.702   5.202   6.563
 7364TIP3    H222034   1.748   5.063   6.525
 7365TIP3   OH222035   1.605   2.579   3.869
 7365TIP3    H122036   1.662   2.537   3.804
 7365TIP3    H222037   1.520   2.585   3.826
 7366TIP3   OH222038   2.150   4.162   3.859
 7366TIP3    H122039   2.115   4.250   3.844
 7366TIP3    H222040   2.229   4.157   3.806
 7367TIP3   OH222041   7.705   0.837   3.628
 7367TIP3    H122042   7.713   0.890   3.549
 7367TIP3    H222043   7.673   0.898   3.695
 7368TIP3   OH222044   3.041   2.435   4.741
 7368TIP3    H122045   3.136   2.434   4.754
 7368TIP3    H222046   3.026   2.374   4.668
 7369TIP3   OH222047   2.860   6.490   1.192
 7369TIP3    H122048   2.932   6.471   1.133
 7369TIP3    H222049   2.782   6.457   1.147
 7370TIP3   OH222050   1.271   5.336   1.119
 7370TIP3    H122051   1.366   5.323   1.119
 7370TIP3    H222052   1.236   5.264   1.172
 7371TIP3   OH222053   0.457   3.695   3.801
 7371TIP3    H122054   0.478   3.774   3.751
 7371TIP3    H222055   0.407   3.641   3.740
 7372TIP3   OH222056   1.035   5.856   1.773
 7372TIP3    H122057   1.024   5.784   1.835
 7372TIP3    H222058   0.946   5.889   1.759
 7373TIP3   OH222059   2.525   4.838   0.661
 7373TIP3    H122060   2.572   4.886   0.728
 7373TIP3    H222061   2.489   4.761   0.706
 7374TIP3   OH222062   6.853   2.088   2.992
 7374TIP3    H122063   6.789   2.155   2.968
 7374TIP3    H222064   6.932   2.110   2.943
 7375TIP3   OH222065   3.450   6.463   6.391
 7375TIP3    H122066   3.465   6.390   6.452
 7375TIP3    H222067   3.506   6.443   6.316
 7376TIP3   OH222068   7.033   3.066   1.924
 7376TIP3    H122069   7.017   3.127   1.852
 7376TIP3    H222070   7.127   3.048   1.920
 7377TIP3   OH222071   4.289   7.943   3.930
 7377TIP3    H122072   4.246   7.863   3.902
 7377TIP3    H222073   4.382   7.928   3.913
 7378TIP3   OH222074   3.020   6.983   1.096
 7378TIP3    H122075   3.026   6.963   1.002
 7378TIP3    H222076   2.975   6.907   1.133
 7379TIP3   OH222077   4.537   0.964   1.245
 7379TIP3    H122078   4.578   0.884   1.213
 7379TIP3    H222079   4.461   0.934   1.295
 7380TIP3   OH222080   3.163   4.159   0.377
 7380TIP3    H122081   3.138   4.131   0.289
 7380TIP3    H222082   3.244   4.110   0.395
 7381TIP3   OH222083   1.023   4.792   2.606
 7381TIP3    H122084   1.104   4.778   2.654
 7381TIP3    H222085   0.979   4.863   2.652
 7382TIP3   OH222086   5.966   7.515   3.495
 7382TIP3    H122087   5.958   7.521   3.400
 7382TIP3    H222088   5.944   7.424   3.515
 7383TIP3   OH222089   0.201   6.509   0.074
 7383TIP3    H122090   0.194   6.566  -0.003
 7383TIP3    H222091   0.234   6.567   0.143
 7384TIP3   OH222092   4.278   4.908   4.102
 7384TIP3    H122093   4.311   4.990   4.066
 7384TIP3    H222094   4.282   4.846   4.029
 7385TIP3   OH222095   0.106   6.738   5.401
 7385TIP3    H122096   0.192   6.697   5.407
 7385TIP3    H222097   0.109   6.787   5.319
 7386TIP3   OH222098   5.344   4.174   3.319
 7386TIP3    H122099   5.287   4.153   3.245
 7386TIP3    H222100   5.333   4.100   3.379
 7387TIP3   OH222101   5.510   7.145   3.207
 7387TIP3    H122102   5.540   7.059   3.235
 7387TIP3    H222103   5.557   7.207   3.263
 7388TIP3   OH222104   3.106   0.905   6.684
 7388TIP3    H122105   3.120   0.999   6.700
 7388TIP3    H222106   3.026   0.902   6.630
 7389TIP3   OH222107   2.040   5.644   1.841
 7389TIP3    H122108   2.044   5.575   1.907
 7389TIP3    H222109   1.957   5.629   1.796
 7390TIP3   OH222110   8.022   1.687   6.636
 7390TIP3    H122111   8.005   1.625   6.566
 7390TIP3    H222112   8.103   1.657   6.677
 7391TIP3   OH222113   6.321   0.592   3.680
 7391TIP3    H122114   6.288   0.502   3.681
 7391TIP3    H222115   6.320   0.617   3.587
 7392TIP3   OH222116   7.129   4.379   4.912
 7392TIP3    H122117   7.091   4.409   4.829
 7392TIP3    H222118   7.104   4.286   4.917
 7393TIP3   OH222119   8.026   2.506   5.168
 7393TIP3    H122120   7.964   2.495   5.096
 7393TIP3    H222121   8.015   2.427   5.221
 7394TIP3   OH222122   1.455   2.908   3.119
 7394TIP3    H122123   1.483   2.995   3.091
 7394TIP3    H222124   1.430   2.864   3.038
 7395TIP3   OH222125   2.866   0.586   2.123
 7395TIP3    H122126   2.825   0.585   2.210
 7395TIP3    H222127   2.943   0.642   2.134
 7396TIP3   OH222128   6.621   6.775   4.387
 7396TIP3    H122129   6.535   6.746   4.358
 7396TIP3    H222130   6.623   6.755   4.481
 7397TIP3   OH222131   4.647   7.230   3.836
 7397TIP3    H122132   4.695   7.274   3.766
 7397TIP3    H222133   4.574   7.187   3.792
 7398TIP3   OH222134   6.209   1.429   2.098
 7398TIP3    H122135   6.299   1.423   2.068
 7398TIP3    H222136   6.190   1.341   2.132
 7399TIP3   OH222137   8.408   2.265   5.110
 7399TIP3    H122138   8.491   2.237   5.070
 7399TIP3    H222139   8.342   2.250   5.043
 7400TIP3   OH222140   5.421   3.484   4.884
 7400TIP3    H122141   5.350   3.535   4.923
 7400TIP3    H222142   5.427   3.518   4.794
 7401TIP3   OH222143   1.957   0.698   3.436
 7401TIP3    H122144   1.921   0.773   3.484
 7401TIP3    H222145   1.880   0.655   3.399
 7402TIP3   OH222146   6.320   4.011   1.241
 7402TIP3    H122147   6.284   3.993   1.154
 7402TIP3    H222148   6.312   4.106   1.251
 7403TIP3   OH222149   5.275   0.400   5.805
 7403TIP3    H122150   5.265   0.462   5.876
 7403TIP3    H222151   5.362   0.417   5.770
 7404TIP3   OH222152   6.938   0.279   0.588
 7404TIP3    H122153   6.973   0.292   0.500
 7404TIP3    H222154   6.850   0.317   0.585
 7405TIP3   OH222155   6.222   4.266   1.253
 7405TIP3    H122156   6.176   4.323   1.314
 7405TIP3    H222157   6.156   4.243   1.187
 7406TIP3   OH222158   1.134   0.317   2.701
 7406TIP3    H122159   1.133   0.225   2.729
 7406TIP3    H222160   1.158   0.314   2.608
 7407TIP3   OH222161   4.597   3.490   3.820
 7407TIP3    H122162   4.510   3.452   3.832
 7407TIP3    H222163   4.651   3.417   3.788
 7408TIP3   OH222164   3.931   6.091   4.304
 7408TIP3    H122165   3.980   6.063   4.382
 7408TIP3    H222166   3.854   6.034   4.303
 7409TIP3   OH222167   4.321   4.506   2.273
 7409TIP3    H122168   4.309   4.435   2.210
 7409TIP3    H222169   4.368   4.574   2.223
 7410TIP3   OH222170   2.547   6.117   1.124
 7410TIP3    H122171   2.636   6.102   1.094
 7410TIP3    H222172   2.492   6.089   1.051
 7411TIP3   OH222173   0.973   5.466   2.210
 7411TIP3    H122174   0.987   5.557   2.236
 7411TIP3    H222175   0.958   5.420   2.293
 7412TIP3   OH222176   1.842   7.795   5.319
 7412TIP3    H122177   1.855   7.876   5.368
 7412TIP3    H222178   1.929   7.755   5.316
 7413TIP3   OH222179   0.974   6.508   6.851
 7413TIP3    H122180   0.963   6.588   6.800
 7413TIP3    H222181   1.045   6.527   6.912
 7414TIP3   OH222182   3.372   7.203   1.199
 7414TIP3    H122183   3.438   7.183   1.266
 7414TIP3    H222184   3.420   7.205   1.117
 7415TIP3   OH222185   6.717   3.001   5.635
 7415TIP3    H122186   6.770   2.990   5.714
 7415TIP3    H222187   6.681   2.914   5.618
 7416TIP3   OH222188   5.740   0.529   3.413
 7416TIP3    H122189   5.701   0.537   3.500
 7416TIP3    H222190   5.717   0.611   3.369
 7417TIP3   OH222191   5.940   5.517   1.147
 7417TIP3    H122192   5.991   5.574   1.090
 7417TIP3    H222193   6.001   5.448   1.173
 7418TIP3   OH222194   1.832   0.843   4.177
 7418TIP3    H122195   1.883   0.800   4.109
 7418TIP3    H222196   1.745   0.801   4.173
 7419TIP3   OH222197   2.845   4.518   0.827
 7419TIP3    H122198   2.916   4.506   0.764
 7419TIP3    H222199   2.864   4.603   0.869
 7420TIP3   OH222200   5.718   6.276   5.791
 7420TIP3    H122201   5.691   6.203   5.846
 7420TIP3    H222202   5.748   6.343   5.853
 7421TIP3   OH222203   6.016   4.971   4.690
 7421TIP3    H122204   6.030   4.887   4.645
 7421TIP3    H222205   6.098   4.987   4.736
 7422TIP3   OH222206   2.731   7.750   6.500
 7422TIP3    H122207   2.747   7.683   6.566
 7422TIP3    H222208   2.779   7.719   6.423
 7423TIP3   OH222209   1.400   0.790   1.319
 7423TIP3    H122210   1.420   0.814   1.410
 7423TIP3    H222211   1.411   0.695   1.317
 7424TIP3   OH222212   5.177   6.561   6.552
 7424TIP3    H122213   5.177   6.572   6.647
 7424TIP3    H222214   5.084   6.560   6.528
 7425TIP3   OH222215   1.568   0.152   2.304
 7425TIP3    H122216   1.493   0.167   2.247
 7425TIP3    H222217   1.544   0.191   2.387
 7426TIP3   OH222218   7.736   1.771   6.378
 7426TIP3    H122219   7.750   1.698   6.318
 7426TIP3    H222220   7.728   1.729   6.464
 7427TIP3   OH222221   2.583   2.768   3.223
 7427TIP3    H122222   2.649   2.740   3.287
 7427TIP3    H222223   2.551   2.686   3.185
 7428TIP3   OH222224   2.584   2.374   4.995
 7428TIP3    H122225   2.637   2.431   4.940
 7428TIP3    H222226   2.636   2.295   5.007
 7429TIP3   OH222227   5.713   3.245   6.521
 7429TIP3    H122228   5.653   3.211   6.588
 7429TIP3    H222229   5.770   3.306   6.568
 7430TIP3   OH222230   8.246   3.952   3.298
 7430TIP3    H122231   8.198   3.951   3.381
 7430TIP3    H222232   8.301   3.874   3.301
 7431TIP3   OH222233   7.538   7.082   2.402
 7431TIP3    H122234   7.527   6.988   2.416
 7431TIP3    H222235   7.602   7.088   2.330
 7432TIP3   OH222236   5.243   2.658   0.066
 7432TIP3    H122237   5.283   2.580   0.028
 7432TIP3    H222238   5.268   2.655   0.158
 7433TIP3   OH222239   0.837   4.590   0.279
 7433TIP3    H122240   0.747   4.622   0.275
 7433TIP3    H222241   0.886   4.648   0.221
 7434TIP3   OH222242   3.932   6.734   1.822
 7434TIP3    H122243   3.877   6.667   1.783
 7434TIP3    H222244   3.875   6.811   1.830
 7435TIP3   OH222245   4.878   0.049   1.944
 7435TIP3    H122246   4.921   0.129   1.974
 7435TIP3    H222247   4.950  -0.011   1.925
 7436TIP3   OH222248   4.559   3.191   2.391
 7436TIP3    H122249   4.528   3.104   2.368
 7436TIP3    H222250   4.557   3.192   2.487
 7437TIP3   OH222251   3.319   5.109   3.901
 7437TIP3    H122252   3.348   5.018   3.909
 7437TIP3    H222253   3.372   5.145   3.830
 7438TIP3   OH222254   2.080   5.497   2.970
 7438TIP3    H122255   2.138   5.571   2.952
 7438TIP3    H222256   2.127   5.420   2.936
 7439TIP3   OH222257   4.308   3.943   3.086
 7439TIP3    H122258   4.251   3.933   3.010
 7439TIP3    H222259   4.309   4.037   3.103
 7440TIP3   OH222260   2.483   7.808   6.408
 7440TIP3    H122261   2.571   7.813   6.443
 7440TIP3    H222262   2.491   7.839   6.318
 7441TIP3   OH222263   0.484   7.586   2.094
 7441TIP3    H122264   0.436   7.538   2.027
 7441TIP3    H222265   0.425   7.657   2.120
 7442TIP3   OH222266   7.240   6.325   2.078
 7442TIP3    H122267   7.326   6.337   2.119
 7442TIP3    H222268   7.256   6.344   1.985
 7443TIP3   OH222269   1.594   0.553   4.123
 7443TIP3    H122270   1.565   0.636   4.085
 7443TIP3    H222271   1.659   0.519   4.062
 7444TIP3   OH222272   8.276   5.973   0.157
 7444TIP3    H122273   8.342   6.001   0.220
 7444TIP3    H222274   8.213   5.922   0.208
 7445TIP3   OH222275   3.463  -0.034   6.859
 7445TIP3    H122276   3.531  -0.004   6.798
 7445TIP3    H222277   3.383   0.009   6.827
 7446TIP3   OH222278   7.100   4.720   0.613
 7446TIP3    H122279   7.011   4.754   0.624
 7446TIP3    H222280   7.128   4.697   0.702
 7447TIP3   OH222281  -0.005   1.096   4.799
 7447TIP3    H122282   0.016   1.046   4.720
 7447TIP3    H222283   0.075   1.091   4.852
 7448TIP3   OH222284   6.951   3.147   6.662
 7448TIP3    H122285   7.040   3.180   6.657
 7448TIP3    H222286   6.948   3.075   6.598
 7449TIP3   OH222287   2.689   7.416   0.231
 7449TIP3    H122288   2.627   7.464   0.285
 7449TIP3    H222289   2.635   7.361   0.175
 7450TIP3   OH222290   1.751   1.575   4.077
 7450TIP3    H122291   1.805   1.518   4.022
 7450TIP3    H222292   1.668   1.583   4.029
 7451TIP3   OH222293   0.408   0.306   5.526
 7451TIP3    H122294   0.430   0.217   5.553
 7451TIP3    H222295   0.314   0.315   5.546
 7452TIP3   OH222296   4.994   7.524   4.055
 7452TIP3    H122297   4.938   7.450   4.030
 7452TIP3    H222298   4.934   7.598   4.060
 7453TIP3   OH222299   0.138   7.157   6.312
 7453TIP3    H122300   0.208   7.101   6.277
 7453TIP3    H222301   0.153   7.242   6.272
 7454TIP3   OH222302   2.033   0.711   5.883
 7454TIP3    H122303   2.107   0.737   5.828
 7454TIP3    H222304   2.027   0.616   5.873
 7455TIP3   OH222305   0.214   3.068   3.044
 7455TIP3    H122306   0.133   3.075   2.994
 7455TIP3    H222307   0.272   3.015   2.989
 7456TIP3   OH222308   3.429   7.748   4.099
 7456TIP3    H122309   3.337   7.728   4.081
 7456TIP3    H222310   3.453   7.690   4.171
 7457TIP3   OH222311   1.185   6.927   2.712
 7457TIP3    H122312   1.168   6.988   2.784
 7457TIP3    H222313   1.126   6.853   2.729
 7458TIP3   OH222314   0.064   2.074   2.877
 7458TIP3    H122315   0.012   2.058   2.798
 7458TIP3    H222316   0.110   1.992   2.893
 7459TIP3   OH222317   6.947   2.510   5.714
 7459TIP3    H122318   7.019   2.457   5.748
 7459TIP3    H222319   6.987   2.563   5.645
 7460TIP3   OH222320   1.843   6.298   5.836
 7460TIP3    H122321   1.807   6.277   5.923
 7460TIP3    H222322   1.920   6.242   5.828
 7461TIP3   OH222323   3.033   2.363   5.020
 7461TIP3    H122324   3.118   2.353   5.063
 7461TIP3    H222325   3.054   2.388   4.930
 7462TIP3   OH222326   3.946   4.730   3.854
 7462TIP3    H122327   3.934   4.815   3.810
 7462TIP3    H222328   3.995   4.751   3.933
 7463TIP3   OH222329   2.112   0.659   6.357
 7463TIP3    H122330   2.167   0.638   6.282
 7463TIP3    H222331   2.044   0.592   6.358
 7464TIP3   OH222332   1.013   5.759   4.928
 7464TIP3    H122333   0.951   5.780   4.999
 7464TIP3    H222334   1.096   5.796   4.957
 7465TIP3   OH222335   7.900   0.624   4.556
 7465TIP3    H122336   7.988   0.610   4.521
 7465TIP3    H222337   7.858   0.683   4.493
 7466TIP3   OH222338   5.131   6.413   2.182
 7466TIP3    H122339   5.042   6.395   2.152
 7466TIP3    H222340   5.122   6.487   2.242
 7467TIP3   OH222341   3.669   1.924   6.435
 7467TIP3    H122342   3.620   1.996   6.396
 7467TIP3    H222343   3.757   1.931   6.396
 7468TIP3   OH222344   4.189   6.709   1.349
 7468TIP3    H122345   4.237   6.631   1.374
 7468TIP3    H222346   4.159   6.746   1.432
 7469TIP3   OH222347   7.098   7.050   3.656
 7469TIP3    H122348   7.091   7.090   3.569
 7469TIP3    H222349   7.033   7.096   3.708
 7470TIP3   OH222350   6.689   6.092   6.186
 7470TIP3    H122351   6.756   6.073   6.252
 7470TIP3    H222352   6.644   6.169   6.220
 7471TIP3   OH222353   7.282   3.252   1.921
 7471TIP3    H122354   7.311   3.246   1.830
 7471TIP3    H222355   7.240   3.338   1.927
 7472TIP3   OH222356   7.370   2.061   4.581
 7472TIP3    H122357   7.337   2.038   4.494
 7472TIP3    H222358   7.425   1.987   4.606
 7473TIP3   OH222359   6.534   0.585   5.926
 7473TIP3    H122360   6.485   0.664   5.947
 7473TIP3    H222361   6.496   0.555   5.843
 7474TIP3   OH222362   6.508   6.894   2.075
 7474TIP3    H122363   6.507   6.890   1.980
 7474TIP3    H222364   6.425   6.935   2.099
 7475TIP3   OH222365   1.509   5.550   6.082
 7475TIP3    H122366   1.514   5.634   6.128
 7475TIP3    H222367   1.426   5.511   6.112
 7476TIP3   OH222368   7.893   6.725   1.255
 7476TIP3    H122369   7.913   6.645   1.304
 7476TIP3    H222370   7.821   6.699   1.197
 7477TIP3   OH222371   3.468   5.101   2.733
 7477TIP3    H122372   3.554   5.088   2.694
 7477TIP3    H222373   3.466   5.040   2.807
 7478TIP3   OH222374   1.138   6.568   0.714
 7478TIP3    H122375   1.148   6.500   0.781
 7478TIP3    H222376   1.112   6.646   0.763
 7479TIP3   OH222377   3.302   6.400   5.635
 7479TIP3    H122378   3.222   6.440   5.669
 7479TIP3    H222379   3.363   6.400   5.708
 7480TIP3   OH222380   6.158   4.922   1.756
 7480TIP3    H122381   6.077   4.876   1.779
 7480TIP3    H222382   6.222   4.852   1.746
 7481TIP3   OH222383   7.773   1.872   1.862
 7481TIP3    H122384   7.793   1.815   1.936
 7481TIP3    H222385   7.697   1.923   1.890
 7482TIP3   OH222386   0.220   7.217   5.005
 7482TIP3    H122387   0.132   7.233   5.038
 7482TIP3    H222388   0.222   7.259   4.919
 7483TIP3   OH222389   0.342   6.382   2.719
 7483TIP3    H122390   0.371   6.299   2.680
 7483TIP3    H222391   0.270   6.411   2.663
 7484TIP3   OH222392   7.445   3.194   4.343
 7484TIP3    H122393   7.359   3.235   4.350
 7484TIP3    H222394   7.447   3.158   4.254
 7485TIP3   OH222395   2.929   2.201   1.174
 7485TIP3    H122396   2.987   2.211   1.249
 7485TIP3    H222397   2.980   2.235   1.100
 7486TIP3   OH222398   4.417   4.736   1.544
 7486TIP3    H122399   4.386   4.818   1.507
 7486TIP3    H222400   4.344   4.675   1.531
 7487TIP3   OH222401   7.027   5.722   2.386
 7487TIP3    H122402   6.958   5.745   2.448
 7487TIP3    H222403   7.053   5.633   2.410
 7488TIP3   OH222404   5.465   3.536   1.696
 7488TIP3    H122405   5.522   3.497   1.630
 7488TIP3    H222406   5.433   3.617   1.655
 7489TIP3   OH222407   7.840   1.836   2.232
 7489TIP3    H122408   7.842   1.928   2.256
 7489TIP3    H222409   7.855   1.789   2.314
 7490TIP3   OH222410   8.206   2.964   2.457
 7490TIP3    H122411   8.290   2.995   2.422
 7490TIP3    H222412   8.140   3.015   2.410
 7491TIP3   OH222413   6.931   0.294   0.963
 7491TIP3    H122414   6.896   0.359   0.902
 7491TIP3    H222415   6.856   0.240   0.986
 7492TIP3   OH222416   6.551   4.774   4.499
 7492TIP3    H122417   6.592   4.759   4.584
 7492TIP3    H222418   6.492   4.699   4.487
 7493TIP3   OH222419   5.109   0.740   2.647
 7493TIP3    H122420   5.048   0.673   2.615
 7493TIP3    H222421   5.186   0.730   2.592
 7494TIP3   OH222422   1.120   3.006   5.463
 7494TIP3    H122423   1.103   3.063   5.538
 7494TIP3    H222424   1.112   3.063   5.387
 7495TIP3   OH222425   0.174   1.801   4.216
 7495TIP3    H122426   0.229   1.817   4.140
 7495TIP3    H222427   0.110   1.736   4.187
 7496TIP3   OH222428   5.975   0.976   0.918
 7496TIP3    H122429   6.032   0.950   0.991
 7496TIP3    H222430   5.991   1.070   0.908
 7497TIP3   OH222431   1.819   2.427   4.843
 7497TIP3    H122432   1.901   2.385   4.869
 7497TIP3    H222433   1.846   2.502   4.789
 7498TIP3   OH222434   2.686   6.685   0.362
 7498TIP3    H122435   2.660   6.640   0.443
 7498TIP3    H222436   2.623   6.654   0.297
 7499TIP3   OH222437   3.676   1.735   1.740
 7499TIP3    H122438   3.628   1.745   1.657
 7499TIP3    H222439   3.644   1.653   1.777
 7500TIP3   OH222440   4.036   5.717   0.307
 7500TIP3    H122441   4.104   5.689   0.246
 7500TIP3    H222442   4.051   5.664   0.385
 7501TIP3   OH222443   1.857   3.030   5.877
 7501TIP3    H122444   1.948   3.038   5.906
 7501TIP3    H222445   1.855   3.073   5.792
 7502TIP3   OH222446   7.564   1.871   4.718
 7502TIP3    H122447   7.645   1.824   4.700
 7502TIP3    H222448   7.524   1.824   4.791
 7503TIP3   OH222449   8.089   5.690   4.095
 7503TIP3    H122450   8.102   5.622   4.161
 7503TIP3    H222451   8.089   5.643   4.012
 7504TIP3   OH222452   7.721   2.473   0.539
 7504TIP3    H122453   7.634   2.508   0.519
 7504TIP3    H222454   7.705   2.384   0.571
 7505TIP3   OH222455   5.431   5.261   1.577
 7505TIP3    H122456   5.496   5.298   1.636
 7505TIP3    H222457   5.482   5.220   1.508
 7506TIP3   OH222458   5.542   2.609   0.535
 7506TIP3    H122459   5.482   2.635   0.605
 7506TIP3    H222460   5.538   2.680   0.471
 7507TIP3   OH222461   3.939   4.353   4.193
 7507TIP3    H122462   4.013   4.412   4.211
 7507TIP3    H222463   3.921   4.366   4.100
 7508TIP3   OH222464   6.245   4.803   4.654
 7508TIP3    H122465   6.289   4.728   4.614
 7508TIP3    H222466   6.230   4.777   4.744
 7509TIP3   OH222467   0.143   5.605   3.588
 7509TIP3    H122468   0.105   5.650   3.664
 7509TIP3    H222469   0.094   5.641   3.513
 7510TIP3   OH222470   7.685   5.245   5.601
 7510TIP3    H122471   7.606   5.229   5.652
 7510TIP3    H222472   7.653   5.278   5.517
 7511TIP3   OH222473   0.150   5.770   5.115
 7511TIP3    H122474   0.097   5.750   5.038
 7511TIP3    H222475   0.127   5.702   5.179
 7512TIP3   OH222476   2.581   5.333   5.709
 7512TIP3    H122477   2.503   5.378   5.741
 7512TIP3    H222478   2.619   5.291   5.786
 7513TIP3   OH222479   2.158   2.924   6.916
 7513TIP3    H122480   2.211   2.894   6.842
 7513TIP3    H222481   2.220   2.934   6.988
 7514TIP3   OH222482   3.297   1.677   6.478
 7514TIP3    H122483   3.327   1.682   6.569
 7514TIP3    H222484   3.203   1.694   6.484
 7515TIP3   OH222485   2.228   4.856   4.319
 7515TIP3    H122486   2.180   4.939   4.325
 7515TIP3    H222487   2.300   4.874   4.259
 7516TIP3   OH222488   0.354   3.143   5.043
 7516TIP3    H122489   0.446   3.123   5.056
 7516TIP3    H222490   0.310   3.058   5.052
 7517TIP3   OH222491   7.420   3.747   5.470
 7517TIP3    H122492   7.497   3.793   5.502
 7517TIP3    H222493   7.428   3.749   5.374
 7518TIP3   OH222494   2.941   4.985   0.846
 7518TIP3    H122495   2.848   4.974   0.828
 7518TIP3    H222496   2.947   5.068   0.893
 7519TIP3   OH222497   7.969   3.555   2.387
 7519TIP3    H122498   7.899   3.605   2.344
 7519TIP3    H222499   7.938   3.542   2.476
 7520TIP3   OH222500   8.004   3.078   5.312
 7520TIP3    H122501   7.964   3.128   5.240
 7520TIP3    H222502   8.072   3.027   5.269
 7521TIP3   OH222503   4.213   7.463   3.532
 7521TIP3    H122504   4.247   7.546   3.566
 7521TIP3    H222505   4.291   7.408   3.522
 7522TIP3   OH222506   8.117   0.995   5.354
 7522TIP3    H122507   8.032   0.994   5.310
 7522TIP3    H222508   8.132   0.903   5.378
 7523TIP3   OH222509   0.994   6.153   4.583
 7523TIP3    H122510   0.974   6.225   4.523
 7523TIP3    H222511   0.921   6.152   4.645
 7524TIP3   OH222512   2.008   0.189   0.367
 7524TIP3    H122513   2.038   0.156   0.451
 7524TIP3    H222514   1.926   0.235   0.387
 7525TIP3   OH222515   5.289   3.461   3.914
 7525TIP3    H122516   5.240   3.453   3.833
 7525TIP3    H222517   5.284   3.374   3.954
 7526TIP3   OH222518   3.680   2.069   4.710
 7526TIP3    H122519   3.649   2.157   4.688
 7526TIP3    H222520   3.767   2.063   4.671
 7527TIP3   OH222521   5.913   5.072   3.820
 7527TIP3    H122522   5.885   4.983   3.841
 7527TIP3    H222523   6.006   5.074   3.844
 7528TIP3   OH222524   1.490   0.447   1.969
 7528TIP3    H122525   1.402   0.475   1.943
 7528TIP3    H222526   1.474   0.369   2.023
 7529TIP3   OH222527   6.804   0.101   0.266
 7529TIP3    H122528   6.813   0.021   0.213
 7529TIP3    H222529   6.865   0.163   0.226
 7530TIP3   OH222530   7.939   5.219   1.839
 7530TIP3    H122531   7.846   5.242   1.836
 7530TIP3    H222532   7.943   5.141   1.894
 7531TIP3   OH222533   1.755   1.306   3.945
 7531TIP3    H122534   1.720   1.337   3.861
 7531TIP3    H222535   1.850   1.301   3.930
 7532TIP3   OH222536   5.472   4.817   3.948
 7532TIP3    H122537   5.490   4.911   3.949
 7532TIP3    H222538   5.410   4.805   3.876
 7533TIP3   OH222539   2.718   1.528   0.420
 7533TIP3    H122540   2.628   1.508   0.442
 7533TIP3    H222541   2.716   1.549   0.327
 7534TIP3   OH222542   7.470   0.966   5.784
 7534TIP3    H122543   7.519   0.998   5.709
 7534TIP3    H222544   7.525   0.988   5.860
 7535TIP3   OH222545   1.867   5.523   3.878
 7535TIP3    H122546   1.938   5.499   3.819
 7535TIP3    H222547   1.837   5.608   3.845
 7536TIP3   OH222548   6.958   0.213   4.842
 7536TIP3    H122549   6.921   0.295   4.810
 7536TIP3    H222550   7.021   0.187   4.774
 7537TIP3   OH222551   6.342   3.218   3.507
 7537TIP3    H122552   6.417   3.163   3.528
 7537TIP3    H222553   6.378   3.292   3.459
 7538TIP3   OH222554   1.114   6.187   0.273
 7538TIP3    H122555   1.047   6.254   0.261
 7538TIP3    H222556   1.069   6.115   0.316
 7539TIP3   OH222557   0.699   1.634   2.845
 7539TIP3    H122558   0.782   1.606   2.884
 7539TIP3    H222559   0.632   1.585   2.894
 7540TIP3   OH222560   5.513   3.876   2.593
 7540TIP3    H122561   5.557   3.845   2.672
 7540TIP3    H222562   5.421   3.883   2.617
 7541TIP3   OH222563   2.654   1.367   1.738
 7541TIP3    H122564   2.705   1.355   1.818
 7541TIP3    H222565   2.586   1.430   1.762
 7542TIP3   OH222566   4.224   7.250   4.213
 7542TIP3    H122567   4.196   7.301   4.289
 7542TIP3    H222568   4.311   7.283   4.192
 7543TIP3   OH222569   1.602   1.065   3.423
 7543TIP3    H122570   1.557   1.141   3.386
 7543TIP3    H222571   1.668   1.042   3.357
 7544TIP3   OH222572   1.838   6.441   4.573
 7544TIP3    H122573   1.894   6.378   4.527
 7544TIP3    H222574   1.802   6.496   4.503
 7545TIP3   OH222575   5.878   3.612   0.296
 7545TIP3    H122576   5.952   3.552   0.295
 7545TIP3    H222577   5.902   3.681   0.235
 7546TIP3   OH222578   4.825   6.848   0.637
 7546TIP3    H122579   4.742   6.809   0.610
 7546TIP3    H222580   4.801   6.918   0.698
 7547TIP3   OH222581   4.425   4.732   2.149
 7547TIP3    H122582   4.401   4.817   2.185
 7547TIP3    H222583   4.518   4.739   2.130
 7548TIP3   OH222584   7.137   3.827   5.545
 7548TIP3    H122585   7.147   3.754   5.606
 7548TIP3    H222586   7.220   3.830   5.497
 7549TIP3   OH222587   2.164   1.590   5.024
 7549TIP3    H122588   2.190   1.680   5.045
 7549TIP3    H222589   2.073   1.585   5.053
 7550TIP3   OH222590   4.571   1.416   3.794
 7550TIP3    H122591   4.583   1.321   3.795
 7550TIP3    H222592   4.534   1.434   3.707
 7551TIP3   OH222593   3.717   3.587   0.295
 7551TIP3    H122594   3.722   3.498   0.261
 7551TIP3    H222595   3.750   3.581   0.385
 7552TIP3   OH222596   2.933   6.021   3.594
 7552TIP3    H122597   2.974   6.076   3.528
 7552TIP3    H222598   2.956   5.932   3.570
 7553TIP3   OH222599   2.477   4.339   2.619
 7553TIP3    H122600   2.495   4.279   2.691
 7553TIP3    H222601   2.521   4.300   2.543
 7554TIP3   OH222602   1.168   2.329   1.483
 7554TIP3    H122603   1.184   2.245   1.526
 7554TIP3    H222604   1.155   2.391   1.555
 7555TIP3   OH222605   0.622   2.082   0.895
 7555TIP3    H122606   0.540   2.131   0.889
 7555TIP3    H222607   0.598   2.001   0.942
 7556TIP3   OH222608   6.375   0.213   0.764
 7556TIP3    H122609   6.439   0.144   0.783
 7556TIP3    H222610   6.303   0.167   0.721
 7557TIP3   OH222611   5.914   3.948   6.624
 7557TIP3    H122612   5.916   3.969   6.531
 7557TIP3    H222613   5.945   4.027   6.668
 7558TIP3   OH222614   1.750   4.376   5.427
 7558TIP3    H122615   1.787   4.415   5.506
 7558TIP3    H222616   1.778   4.434   5.356
 7559TIP3   OH222617   2.530   5.225   0.454
 7559TIP3    H122618   2.566   5.258   0.372
 7559TIP3    H222619   2.601   5.173   0.492
 7560TIP3   OH222620   1.315   6.293   4.589
 7560TIP3    H122621   1.274   6.206   4.597
 7560TIP3    H222622   1.408   6.275   4.580
 7561TIP3   OH222623   4.047   2.778   5.037
 7561TIP3    H122624   4.051   2.740   5.124
 7561TIP3    H222625   4.133   2.759   4.999
 7562TIP3   OH222626   3.010   7.158   6.717
 7562TIP3    H122627   3.079   7.113   6.766
 7562TIP3    H222628   2.931   7.108   6.734
 7563TIP3   OH222629   3.772   2.445   0.912
 7563TIP3    H122630   3.746   2.536   0.899
 7563TIP3    H222631   3.813   2.419   0.829
 7564TIP3   OH222632   3.964   3.986   1.229
 7564TIP3    H122633   3.996   3.950   1.147
 7564TIP3    H222634   4.006   4.071   1.237
 7565TIP3   OH222635   1.845   5.393   3.105
 7565TIP3    H122636   1.758   5.357   3.086
 7565TIP3    H222637   1.889   5.394   3.020
 7566TIP3   OH222638   1.703   0.186   4.226
 7566TIP3    H122639   1.705   0.261   4.167
 7566TIP3    H222640   1.660   0.117   4.174
 7567TIP3   OH222641   7.255   4.710   1.500
 7567TIP3    H122642   7.247   4.683   1.591
 7567TIP3    H222643   7.311   4.644   1.460
 7568TIP3   OH222644   1.776   1.416   5.475
 7568TIP3    H122645   1.782   1.324   5.450
 7568TIP3    H222646   1.763   1.415   5.570
 7569TIP3   OH222647   3.538   6.052   3.949
 7569TIP3    H122648   3.573   5.965   3.931
 7569TIP3    H222649   3.445   6.039   3.963
 7570TIP3   OH222650   3.515   6.354   0.636
 7570TIP3    H122651   3.533   6.443   0.667
 7570TIP3    H222652   3.566   6.346   0.556
 7571TIP3   OH222653   3.875   5.373   5.087
 7571TIP3    H122654   3.933   5.393   5.014
 7571TIP3    H222655   3.921   5.304   5.135
 7572TIP3   OH222656   8.292   1.632   5.983
 7572TIP3    H122657   8.237   1.708   5.965
 7572TIP3    H222658   8.302   1.589   5.898
 7573TIP3   OH222659   1.278   2.183   5.784
 7573TIP3    H122660   1.271   2.259   5.842
 7573TIP3    H222661   1.189   2.171   5.750
 7574TIP3   OH222662   8.270   5.314   1.173
 7574TIP3    H122663   8.257   5.309   1.078
 7574TIP3    H222664   8.365   5.312   1.184
 7575TIP3   OH222665   5.793   5.113   4.560
 7575TIP3    H122666   5.874   5.119   4.510
 7575TIP3    H222667   5.804   5.036   4.614
 7576TIP3   OH222668   2.348   7.038   5.780
 7576TIP3    H122669   2.405   6.999   5.714
 7576TIP3    H222670   2.334   6.969   5.844
 7577TIP3   OH222671   2.695   3.756   6.680
 7577TIP3    H122672   2.601   3.772   6.678
 7577TIP3    H222673   2.730   3.813   6.612
 7578TIP3   OH222674   2.681   2.914   2.264
 7578TIP3    H122675   2.646   2.973   2.331
 7578TIP3    H222676   2.709   2.837   2.313
 7579TIP3   OH222677   7.069   1.394   5.110
 7579TIP3    H122678   7.028   1.370   5.027
 7579TIP3    H222679   7.041   1.484   5.125
 7580TIP3   OH222680   0.434   3.834   6.019
 7580TIP3    H122681   0.522   3.872   6.025
 7580TIP3    H222682   0.425   3.808   5.928
 7581TIP3   OH222683   6.407   6.909   1.819
 7581TIP3    H122684   6.412   6.971   1.746
 7581TIP3    H222685   6.363   6.832   1.783
 7582TIP3   OH222686   6.673   2.087   6.468
 7582TIP3    H122687   6.722   2.165   6.492
 7582TIP3    H222688   6.696   2.022   6.535
 7583TIP3   OH222689   5.342   2.176   0.205
 7583TIP3    H122690   5.284   2.124   0.259
 7583TIP3    H222691   5.410   2.115   0.176
 7584TIP3   OH222692   1.420   3.858   1.045
 7584TIP3    H122693   1.359   3.829   1.112
 7584TIP3    H222694   1.437   3.950   1.066
 7585TIP3   OH222695   7.780   4.524   1.607
 7585TIP3    H122696   7.836   4.469   1.662
 7585TIP3    H222697   7.693   4.485   1.616
 7586TIP3   OH222698   2.619   1.621   6.213
 7586TIP3    H122699   2.662   1.547   6.172
 7586TIP3    H222700   2.533   1.588   6.239
 7587TIP3   OH222701   3.349   1.506   0.017
 7587TIP3    H122702   3.335   1.494   0.111
 7587TIP3    H222703   3.380   1.421  -0.014
 7588TIP3   OH222704   0.406   1.530   6.345
 7588TIP3    H122705   0.468   1.489   6.406
 7588TIP3    H222706   0.339   1.463   6.332
 7589TIP3   OH222707   7.493   7.429   0.207
 7589TIP3    H122708   7.586   7.408   0.213
 7589TIP3    H222709   7.482   7.462   0.118
 7590TIP3   OH222710   7.291   3.473   5.271
 7590TIP3    H122711   7.262   3.549   5.220
 7590TIP3    H222712   7.221   3.460   5.335
 7591TIP3   OH222713   5.328   6.564   2.471
 7591TIP3    H122714   5.372   6.479   2.466
 7591TIP3    H222715   5.399   6.628   2.463
 7592TIP3   OH222716   2.667   6.611   2.026
 7592TIP3    H122717   2.751   6.654   2.009
 7592TIP3    H222718   2.655   6.552   1.952
 7593TIP3   OH222719   2.651   0.076   0.365
 7593TIP3    H122720   2.726   0.118   0.324
 7593TIP3    H222721   2.616   0.017   0.298
 7594TIP3   OH222722   1.925   1.869   4.675
 7594TIP3    H122723   1.894   1.795   4.622
 7594TIP3    H222724   1.882   1.946   4.637
 7595TIP3   OH222725   5.639   4.474   4.900
 7595TIP3    H122726   5.591   4.555   4.887
 7595TIP3    H222727   5.586   4.407   4.855
 7596TIP3   OH222728   3.937   0.881   3.354
 7596TIP3    H122729   3.976   0.940   3.290
 7596TIP3    H222730   3.986   0.799   3.344
 7597TIP3   OH222731   5.068   5.407   0.583
 7597TIP3    H122732   4.976   5.424   0.564
 7597TIP3    H222733   5.111   5.411   0.497
 7598TIP3   OH222734   5.712   2.616   5.505
 7598TIP3    H122735   5.784   2.678   5.517
 7598TIP3    H222736   5.748   2.550   5.445
 7599TIP3   OH222737   4.459   2.354   5.338
 7599TIP3    H122738   4.450   2.332   5.431
 7599TIP3    H222739   4.459   2.269   5.294
 7600TIP3   OH222740   1.824   6.425   5.400
 7600TIP3    H122741   1.831   6.420   5.305
 7600TIP3    H222742   1.822   6.519   5.419
 7601TIP3   OH222743   3.944   4.042   6.191
 7601TIP3    H122744   3.860   4.069   6.228
 7601TIP3    H222745   3.950   4.091   6.109
 7602TIP3   OH222746   6.868   6.877   4.487
 7602TIP3    H122747   6.896   6.818   4.417
 7602TIP3    H222748   6.801   6.829   4.534
 7603TIP3   OH222749   0.984   0.134   0.218
 7603TIP3    H122750   0.959   0.071   0.151
 7603TIP3    H222751   0.920   0.121   0.288
 7604TIP3   OH222752   7.953   0.836   6.170
 7604TIP3    H122753   7.957   0.759   6.226
 7604TIP3    H222754   7.890   0.813   6.101
 7605TIP3   OH222755   4.555   4.636   3.685
 7605TIP3    H122756   4.538   4.573   3.614
 7605TIP3    H222757   4.648   4.624   3.705
 7606TIP3   OH222758   2.392   7.274   3.967
 7606TIP3    H122759   2.339   7.195   3.984
 7606TIP3    H222760   2.450   7.281   4.042
 7607TIP3   OH222761   7.949   2.766   6.324
 7607TIP3    H122762   8.003   2.714   6.383
 7607TIP3    H222763   8.011   2.822   6.277
 7608TIP3   OH222764   5.311   4.390   2.306
 7608TIP3    H122765   5.309   4.294   2.304
 7608TIP3    H222766   5.219   4.415   2.314
 7609TIP3   OH222767   6.357   7.368   0.271
 7609TIP3    H122768   6.345   7.391   0.363
 7609TIP3    H222769   6.276   7.396   0.228
 7610TIP3   OH222770   5.280   7.886   1.015
 7610TIP3    H122771   5.193   7.848   1.022
 7610TIP3    H222772   5.304   7.909   1.104
 7611TIP3   OH222773   1.169   5.195   4.697
 7611TIP3    H122774   1.263   5.212   4.695
 7611TIP3    H222775   1.139   5.234   4.780
 7612TIP3   OH222776   6.308   2.545   2.723
 7612TIP3    H122777   6.335   2.517   2.636
 7612TIP3    H222778   6.216   2.520   2.729
 7613TIP3   OH222779   5.277   2.977   3.698
 7613TIP3    H122780   5.254   2.970   3.606
 7613TIP3    H222781   5.195   2.962   3.745
 7614TIP3   OH222782   5.078   1.457   0.474
 7614TIP3    H122783   5.123   1.486   0.554
 7614TIP3    H222784   5.007   1.519   0.462
 7615TIP3   OH222785   5.159   1.141   2.762
 7615TIP3    H122786   5.234   1.090   2.732
 7615TIP3    H222787   5.090   1.123   2.699
 7616TIP3   OH222788   3.615   1.062   2.361
 7616TIP3    H122789   3.679   0.995   2.336
 7616TIP3    H222790   3.657   1.145   2.338
 7617TIP3   OH222791   4.516   5.945   0.900
 7617TIP3    H122792   4.533   5.939   0.994
 7617TIP3    H222793   4.430   5.906   0.889
 7618TIP3   OH222794   4.295   7.091   0.889
 7618TIP3    H122795   4.353   7.016   0.898
 7618TIP3    H222796   4.305   7.119   0.798
 7619TIP3   OH222797   1.124   0.695   1.459
 7619TIP3    H122798   1.147   0.776   1.503
 7619TIP3    H222799   1.040   0.669   1.496
 7620TIP3   OH222800   0.121   2.265   5.924
 7620TIP3    H122801   0.125   2.170   5.914
 7620TIP3    H222802   0.119   2.279   6.019
 7621TIP3   OH222803   2.249   1.048   0.160
 7621TIP3    H122804   2.204   0.992   0.097
 7621TIP3    H222805   2.299   1.110   0.106
 7622TIP3   OH222806   1.495   7.207   5.999
 7622TIP3    H122807   1.447   7.128   6.023
 7622TIP3    H222808   1.428   7.276   5.998
 7623TIP3   OH222809   1.588   4.094   5.890
 7623TIP3    H122810   1.520   4.029   5.875
 7623TIP3    H222811   1.662   4.064   5.836
 7624TIP3   OH222812   0.729   0.367   2.555
 7624TIP3    H122813   0.796   0.298   2.555
 7624TIP3    H222814   0.694   0.367   2.466
 7625TIP3   OH222815   6.916   3.372   4.475
 7625TIP3    H122816   6.888   3.463   4.471
 7625TIP3    H222817   6.854   3.325   4.420
 7626TIP3   OH222818   5.400   0.303   4.859
 7626TIP3    H122819   5.484   0.330   4.824
 7626TIP3    H222820   5.398   0.340   4.948
 7627TIP3   OH222821   5.814   1.128   0.440
 7627TIP3    H122822   5.805   1.183   0.517
 7627TIP3    H222823   5.908   1.107   0.437
 7628TIP3   OH222824   4.794   2.107   0.084
 7628TIP3    H122825   4.878   2.069   0.058
 7628TIP3    H222826   4.766   2.055   0.159
 7629TIP3   OH222827   7.749   7.218   5.120
 7629TIP3    H122828   7.706   7.298   5.088
 7629TIP3    H222829   7.842   7.232   5.100
 7630TIP3   OH222830   2.697   7.824   4.855
 7630TIP3    H122831   2.609   7.792   4.873
 7630TIP3    H222832   2.714   7.800   4.764
 7631TIP3   OH222833   7.964   7.062   4.734
 7631TIP3    H122834   8.000   6.993   4.790
 7631TIP3    H222835   8.033   7.078   4.669
 7632TIP3   OH222836   8.068   4.372   6.833
 7632TIP3    H122837   8.071   4.286   6.874
 7632TIP3    H222838   8.109   4.360   6.747
 7633TIP3   OH222839   5.745   3.121   0.951
 7633TIP3    H122840   5.801   3.152   0.880
 7633TIP3    H222841   5.726   3.030   0.929
 7634TIP3   OH222842   6.871   1.681   1.653
 7634TIP3    H122843   6.808   1.675   1.725
 7634TIP3    H222844   6.940   1.739   1.686
 7635TIP3   OH222845   1.284   0.780   2.070
 7635TIP3    H122846   1.351   0.771   2.138
 7635TIP3    H222847   1.237   0.697   2.072
 7636TIP3   OH222848   3.283   7.109   1.659
 7636TIP3    H122849   3.312   7.017   1.657
 7636TIP3    H222850   3.189   7.104   1.674
 7637TIP3   OH222851   4.859   2.547   5.729
 7637TIP3    H122852   4.908   2.467   5.709
 7637TIP3    H222853   4.926   2.613   5.745
 7638TIP3   OH222854   5.356   1.366   6.387
 7638TIP3    H122855   5.300   1.371   6.464
 7638TIP3    H222856   5.360   1.455   6.354
 7639TIP3   OH222857   1.423   2.175   6.632
 7639TIP3    H122858   1.494   2.194   6.570
 7639TIP3    H222859   1.398   2.260   6.668
 7640TIP3   OH222860   7.858   0.414   3.675
 7640TIP3    H122861   7.841   0.506   3.655
 7640TIP3    H222862   7.945   0.397   3.640
 7641TIP3   OH222863   5.137   6.505   6.837
 7641TIP3    H122864   5.045   6.494   6.861
 7641TIP3    H222865   5.164   6.420   6.802
 7642TIP3   OH222866   4.760   3.534   3.501
 7642TIP3    H122867   4.668   3.516   3.520
 7642TIP3    H222868   4.769   3.523   3.407
 7643TIP3   OH222869   5.839   0.098   0.809
 7643TIP3    H122870   5.910   0.052   0.854
 7643TIP3    H222871   5.768   0.102   0.873
 7644TIP3   OH222872   5.148   6.857   0.304
 7644TIP3    H122873   5.203   6.933   0.323
 7644TIP3    H222874   5.072   6.868   0.361
 7645TIP3   OH222875   1.290   4.332   1.787
 7645TIP3    H122876   1.372   4.355   1.742
 7645TIP3    H222877   1.239   4.285   1.721
 7646TIP3   OH222878   7.898   1.245   6.258
 7646TIP3    H122879   7.945   1.175   6.303
 7646TIP3    H222880   7.906   1.222   6.165
 7647TIP3   OH222881   7.741   2.176   4.401
 7647TIP3    H122882   7.805   2.232   4.446
 7647TIP3    H222883   7.667   2.235   4.382
 7648TIP3   OH222884   5.648   7.540   1.145
 7648TIP3    H122885   5.690   7.619   1.111
 7648TIP3    H222886   5.666   7.473   1.079
 7649TIP3   OH222887   4.017   4.978   5.868
 7649TIP3    H122888   4.084   5.044   5.850
 7649TIP3    H222889   4.067   4.899   5.889
 7650TIP3   OH222890   4.891   1.626   5.563
 7650TIP3    H122891   4.895   1.721   5.554
 7650TIP3    H222892   4.945   1.592   5.492
 7651TIP3   OH222893   0.634   3.479   1.272
 7651TIP3    H122894   0.573   3.467   1.345
 7651TIP3    H222895   0.583   3.526   1.206
 7652TIP3   OH222896   5.158   6.926   5.852
 7652TIP3    H122897   5.137   6.906   5.944
 7652TIP3    H222898   5.082   6.893   5.803
 7653TIP3   OH222899   3.109   5.471   5.488
 7653TIP3    H122900   3.136   5.389   5.447
 7653TIP3    H222901   3.113   5.454   5.582
 7654TIP3   OH222902   8.070   7.098   3.804
 7654TIP3    H122903   8.087   7.006   3.824
 7654TIP3    H222904   8.004   7.096   3.736
 7655TIP3   OH222905   8.284   5.051   2.896
 7655TIP3    H122906   8.234   5.126   2.863
 7655TIP3    H222907   8.346   5.031   2.826
 7656TIP3   OH222908   5.606   1.041   0.976
 7656TIP3    H122909   5.626   1.044   0.883
 7656TIP3    H222910   5.530   1.099   0.987
 7657TIP3   OH222911   4.795   5.818   4.734
 7657TIP3    H122912   4.801   5.859   4.820
 7657TIP3    H222913   4.754   5.884   4.678
 7658TIP3   OH222914   7.342   6.583   3.661
 7658TIP3    H122915   7.259   6.630   3.668
 7658TIP3    H222916   7.409   6.648   3.684
 7659TIP3   OH222917   3.027   4.290   2.804
 7659TIP3    H122918   3.080   4.311   2.727
 7659TIP3    H222919   2.939   4.318   2.780
 7660TIP3   OH222920   2.989   7.527   0.509
 7660TIP3    H122921   2.984   7.444   0.557
 7660TIP3    H222922   2.901   7.564   0.516
 7661TIP3   OH222923   0.774   5.380   2.850
 7661TIP3    H122924   0.835   5.323   2.897
 7661TIP3    H222925   0.694   5.377   2.904
 7662TIP3   OH222926   3.158   1.919   2.444
 7662TIP3    H122927   3.154   1.961   2.530
 7662TIP3    H222928   3.239   1.952   2.405
 7663TIP3   OH222929   1.199   4.320   3.194
 7663TIP3    H122930   1.105   4.335   3.203
 7663TIP3    H222931   1.225   4.373   3.119
 7664TIP3   OH222932   7.576   2.966   3.236
 7664TIP3    H122933   7.585   3.011   3.152
 7664TIP3    H222934   7.644   3.003   3.291
 7665TIP3   OH222935   5.953   3.975   0.861
 7665TIP3    H122936   5.942   4.052   0.804
 7665TIP3    H222937   5.872   3.926   0.851
 7666TIP3   OH222938   2.627   0.156   5.829
 7666TIP3    H122939   2.558   0.167   5.764
 7666TIP3    H222940   2.704   0.197   5.790
 7667TIP3   OH222941   4.922   4.070   6.374
 7667TIP3    H122942   4.831   4.049   6.395
 7667TIP3    H222943   4.968   3.986   6.378
 7668TIP3   OH222944   3.130   1.288   4.110
 7668TIP3    H122945   3.128   1.327   4.197
 7668TIP3    H222946   3.190   1.214   4.117
 7669TIP3   OH222947   2.941   2.275   1.437
 7669TIP3    H122948   2.960   2.286   1.530
 7669TIP3    H222949   2.886   2.349   1.414
 7670TIP3   OH222950   5.479   2.300   0.480
 7670TIP3    H122951   5.411   2.367   0.486
 7670TIP3    H222952   5.432   2.217   0.487
 7671TIP3   OH222953   4.105   0.885   3.072
 7671TIP3    H122954   4.103   0.973   3.108
 7671TIP3    H222955   4.142   0.831   3.142
 7672TIP3   OH222956   3.808   5.039   5.694
 7672TIP3    H122957   3.861   5.084   5.628
 7672TIP3    H222958   3.872   5.003   5.756
 7673TIP3   OH222959   5.396   5.604   3.072
 7673TIP3    H122960   5.402   5.682   3.128
 7673TIP3    H222961   5.367   5.534   3.130
 7674TIP3   OH222962   8.208   7.419   3.929
 7674TIP3    H122963   8.194   7.438   3.836
 7674TIP3    H222964   8.302   7.425   3.941
 7675TIP3   OH222965   2.674   4.507   6.797
 7675TIP3    H122966   2.663   4.420   6.758
 7675TIP3    H222967   2.731   4.493   6.873
 7676TIP3   OH222968   0.096   3.471   6.019
 7676TIP3    H122969   0.030   3.425   6.071
 7676TIP3    H222970   0.069   3.563   6.020
 7677TIP3   OH222971   4.879   1.803   0.756
 7677TIP3    H122972   4.908   1.865   0.823
 7677TIP3    H222973   4.906   1.842   0.673
 7678TIP3   OH222974   5.941   1.470   0.472
 7678TIP3    H122975   6.036   1.464   0.469
 7678TIP3    H222976   5.918   1.460   0.565
 7679TIP3   OH222977   0.057   5.432   0.366
 7679TIP3    H122978   0.051   5.527   0.362
 7679TIP3    H222979   0.119   5.414   0.436
 7680TIP3   OH222980   7.687   3.002   4.153
 7680TIP3    H122981   7.770   3.030   4.115
 7680TIP3    H222982   7.683   2.908   4.138
 7681TIP3   OH222983   3.365   3.395   6.420
 7681TIP3    H122984   3.432   3.461   6.437
 7681TIP3    H222985   3.379   3.370   6.329
 7682TIP3   OH222986   1.577   4.514   2.450
 7682TIP3    H122987   1.618   4.428   2.444
 7682TIP3    H222988   1.540   4.530   2.363
 7683TIP3   OH222989   8.152   4.447   0.160
 7683TIP3    H122990   8.065   4.448   0.200
 7683TIP3    H222991   8.204   4.390   0.216
 7684TIP3   OH222992   5.826   2.528   0.527
 7684TIP3    H122993   5.785   2.460   0.581
 7684TIP3    H222994   5.763   2.600   0.528
 7685TIP3   OH222995   8.125   3.397   2.029
 7685TIP3    H122996   8.155   3.429   1.944
 7685TIP3    H222997   8.045   3.348   2.010
 7686TIP3   OH222998   6.428   7.613   4.710
 7686TIP3    H122999   6.354   7.666   4.680
 7686TIP3    H223000   6.450   7.648   4.796
 7687TIP3   OH223001   4.251   1.681   3.842
 7687TIP3    H123002   4.257   1.736   3.764
 7687TIP3    H223003   4.337   1.687   3.883
 7688TIP3   OH223004   6.939   2.971   4.622
 7688TIP3    H123005   6.927   2.952   4.530
 7688TIP3    H223006   7.001   3.045   4.623
 7689TIP3   OH223007   0.739   1.791   3.135
 7689TIP3    H123008   0.662   1.815   3.186
 7689TIP3    H223009   0.728   1.697   3.118
 7690TIP3   OH223010   8.056   5.528   1.766
 7690TIP3    H123011   8.049   5.522   1.671
 7690TIP3    H223012   7.966   5.538   1.796
 7691TIP3   OH223013   1.952   0.673   1.777
 7691TIP3    H123014   1.945   0.767   1.792
 7691TIP3    H223015   1.862   0.642   1.771
 7692TIP3   OH223016   1.362   3.011   0.266
 7692TIP3    H123017   1.302   3.054   0.206
 7692TIP3    H223018   1.416   2.955   0.210
 7693TIP3   OH223019   7.229   4.227   2.477
 7693TIP3    H123020   7.212   4.208   2.385
 7693TIP3    H223021   7.273   4.149   2.511
 7694TIP3   OH223022   8.439   4.224   3.360
 7694TIP3    H123023   8.457   4.160   3.429
 7694TIP3    H223024   8.393   4.295   3.404
 7695TIP3   OH223025   5.523   2.865   0.399
 7695TIP3    H123026   5.459   2.903   0.339
 7695TIP3    H223027   5.475   2.855   0.481
 7696TIP3   OH223028   4.925   3.703   4.205
 7696TIP3    H123029   4.855   3.697   4.140
 7696TIP3    H223030   4.994   3.754   4.161
 7697TIP3   OH223031   3.037   3.277   0.518
 7697TIP3    H123032   2.998   3.359   0.545
 7697TIP3    H223033   3.055   3.288   0.425
 7698TIP3   OH223034   6.859   5.915   6.845
 7698TIP3    H123035   6.807   5.906   6.925
 7698TIP3    H223036   6.802   5.882   6.776
 7699TIP3   OH223037   3.981   1.803   5.846
 7699TIP3    H123038   4.048   1.741   5.873
 7699TIP3    H223039   3.981   1.870   5.914
 7700TIP3   OH223040   7.159   3.086   3.209
 7700TIP3    H123041   7.224   3.030   3.253
 7700TIP3    H223042   7.075   3.043   3.227
 7701TIP3   OH223043   5.201   4.958   5.852
 7701TIP3    H123044   5.182   4.866   5.871
 7701TIP3    H223045   5.232   4.994   5.935
 7702TIP3   OH223046   2.822   4.454   2.712
 7702TIP3    H123047   2.864   4.497   2.787
 7702TIP3    H223048   2.769   4.522   2.671
 7703TIP3   OH223049   6.066   2.746   3.523
 7703TIP3    H123050   6.080   2.664   3.477
 7703TIP3    H223051   6.144   2.799   3.502
 7704TIP3   OH223052   3.461   4.840   6.343
 7704TIP3    H123053   3.432   4.932   6.347
 7704TIP3    H223054   3.533   4.836   6.406
 7705TIP3   OH223055   6.887   5.485   4.038
 7705TIP3    H123056   6.888   5.580   4.051
 7705TIP3    H223057   6.885   5.448   4.126
 7706TIP3   OH223058   4.899   6.085   4.375
 7706TIP3    H123059   4.958   6.045   4.439
 7706TIP3    H223060   4.940   6.066   4.290
 7707TIP3   OH223061   4.885   3.363   0.285
 7707TIP3    H123062   4.894   3.449   0.244
 7707TIP3    H223063   4.946   3.364   0.359
 7708TIP3   OH223064   7.435   2.001   2.672
 7708TIP3    H123065   7.347   2.013   2.639
 7708TIP3    H223066   7.424   1.983   2.765
 7709TIP3   OH223067   7.455   1.526   4.036
 7709TIP3    H123068   7.477   1.592   4.102
 7709TIP3    H223069   7.404   1.460   4.084
 7710TIP3   OH223070   6.780   1.562   4.661
 7710TIP3    H123071   6.696   1.529   4.628
 7710TIP3    H223072   6.794   1.643   4.612
 7711TIP3   OH223073   1.102   4.928   5.171
 7711TIP3    H123074   1.140   5.008   5.208
 7711TIP3    H223075   1.020   4.916   5.219
 7712TIP3   OH223076   7.130   2.077   6.233
 7712TIP3    H123077   7.040   2.098   6.212
 7712TIP3    H223078   7.143   1.988   6.199
 7713TIP3   OH223079   4.781   6.259   1.942
 7713TIP3    H123080   4.845   6.329   1.925
 7713TIP3    H223081   4.708   6.280   1.883
 7714TIP3   OH223082   0.244   1.307   0.783
 7714TIP3    H123083   0.329   1.305   0.740
 7714TIP3    H223084   0.258   1.260   0.866
 7715TIP3   OH223085   3.250   7.680   2.306
 7715TIP3    H123086   3.294   7.736   2.369
 7715TIP3    H223087   3.159   7.711   2.305
 7716TIP3   OH223088   1.893   6.374   0.446
 7716TIP3    H123089   1.903   6.282   0.469
 7716TIP3    H223090   1.875   6.417   0.530
 7717TIP3   OH223091   4.036   4.211   0.953
 7717TIP3    H123092   3.972   4.146   0.982
 7717TIP3    H223093   3.990   4.295   0.959
 7718TIP3   OH223094   5.236   3.484   0.944
 7718TIP3    H123095   5.233   3.578   0.926
 7718TIP3    H223096   5.233   3.443   0.858
 7719TIP3   OH223097   0.060   4.801   6.091
 7719TIP3    H123098   0.152   4.801   6.116
 7719TIP3    H223099   0.056   4.856   6.013
 7720TIP3   OH223100   1.026   1.264   2.843
 7720TIP3    H123101   1.088   1.307   2.785
 7720TIP3    H223102   0.985   1.197   2.788
 7721TIP3   OH223103   5.836   3.218   3.635
 7721TIP3    H123104   5.928   3.233   3.614
 7721TIP3    H223105   5.798   3.305   3.643
 7722TIP3   OH223106   0.336   6.686   4.887
 7722TIP3    H123107   0.399   6.737   4.939
 7722TIP3    H223108   0.363   6.595   4.900
 7723TIP3   OH223109   4.270   5.055   3.416
 7723TIP3    H123110   4.181   5.052   3.451
 7723TIP3    H223111   4.269   5.130   3.356
 7724TIP3   OH223112   5.209   5.061   3.525
 7724TIP3    H123113   5.257   5.084   3.446
 7724TIP3    H223114   5.235   5.126   3.589
 7725TIP3   OH223115   5.665   2.936   6.566
 7725TIP3    H123116   5.576   2.943   6.532
 7725TIP3    H223117   5.721   2.943   6.489
 7726TIP3   OH223118   4.731   0.700   2.099
 7726TIP3    H123119   4.799   0.765   2.081
 7726TIP3    H223120   4.657   0.751   2.132
 7727TIP3   OH223121   6.425   3.145   2.121
 7727TIP3    H123122   6.406   3.153   2.028
 7727TIP3    H223123   6.379   3.218   2.162
 7728TIP3   OH223124   4.922   3.185   6.521
 7728TIP3    H123125   4.895   3.205   6.432
 7728TIP3    H223126   4.931   3.270   6.564
 7729TIP3   OH223127   5.486   5.042   0.951
 7729TIP3    H123128   5.573   5.010   0.975
 7729TIP3    H223129   5.479   5.022   0.857
 7730TIP3   OH223130   5.980   2.736   4.874
 7730TIP3    H123131   6.048   2.800   4.851
 7730TIP3    H223132   5.945   2.766   4.957
 7731TIP3   OH223133   3.542   0.438   1.235
 7731TIP3    H123134   3.544   0.363   1.175
 7731TIP3    H223135   3.528   0.398   1.321
 7732TIP3   OH223136   2.574   6.667   0.631
 7732TIP3    H123137   2.500   6.666   0.691
 7732TIP3    H223138   2.643   6.714   0.678
 7733TIP3   OH223139   3.283   4.672   2.627
 7733TIP3    H123140   3.366   4.626   2.632
 7733TIP3    H223141   3.237   4.631   2.554
 7734TIP3   OH223142   6.254   3.833   4.359
 7734TIP3    H123143   6.301   3.914   4.380
 7734TIP3    H223144   6.297   3.766   4.412
 7735TIP3   OH223145   8.070   1.116   0.366
 7735TIP3    H123146   8.085   1.037   0.314
 7735TIP3    H223147   8.140   1.115   0.432
 7736TIP3   OH223148   1.576   4.226   0.834
 7736TIP3    H123149   1.581   4.320   0.855
 7736TIP3    H223150   1.579   4.183   0.919
 7737TIP3   OH223151   8.317   1.598   6.449
 7737TIP3    H123152   8.296   1.661   6.518
 7737TIP3    H223153   8.327   1.515   6.495
 7738TIP3   OH223154   8.057   0.443   0.515
 7738TIP3    H123155   7.981   0.455   0.571
 7738TIP3    H223156   8.081   0.351   0.525
 7739TIP3   OH223157   3.429   4.548   4.329
 7739TIP3    H123158   3.381   4.524   4.250
 7739TIP3    H223159   3.512   4.501   4.322
 7740TIP3   OH223160   6.096   3.488   0.262
 7740TIP3    H123161   6.170   3.534   0.221
 7740TIP3    H223162   6.132   3.454   0.344
 7741TIP3   OH223163   4.790   5.460   3.797
 7741TIP3    H123164   4.773   5.366   3.792
 7741TIP3    H223165   4.736   5.491   3.870
 7742TIP3   OH223166   8.335   0.629   6.358
 7742TIP3    H123167   8.245   0.605   6.334
 7742TIP3    H223168   8.330   0.722   6.379
 7743TIP3   OH223169   2.626   4.082   4.106
 7743TIP3    H123170   2.682   4.081   4.028
 7743TIP3    H223171   2.581   4.166   4.103
 7744TIP3   OH223172   3.000   5.907   4.244
 7744TIP3    H123173   3.078   5.903   4.188
 7744TIP3    H223174   2.962   5.819   4.238
 7745TIP3   OH223175   1.900   1.769   3.133
 7745TIP3    H123176   1.809   1.792   3.118
 7745TIP3    H223177   1.917   1.795   3.224
 7746TIP3   OH223178   3.502   0.887   5.348
 7746TIP3    H123179   3.417   0.892   5.305
 7746TIP3    H223180   3.512   0.794   5.372
 7747TIP3   OH223181   5.421   5.763   3.317
 7747TIP3    H123182   5.366   5.739   3.392
 7747TIP3    H223183   5.462   5.846   3.342
 7748TIP3   OH223184   5.041   0.793   6.457
 7748TIP3    H123185   4.946   0.791   6.446
 7748TIP3    H223186   5.055   0.756   6.544
 7749TIP3   OH223187   2.042   5.184   4.159
 7749TIP3    H123188   2.095   5.202   4.237
 7749TIP3    H223189   1.966   5.136   4.192
 7750TIP3   OH223190   1.475   1.463   2.207
 7750TIP3    H123191   1.412   1.485   2.138
 7750TIP3    H223192   1.494   1.546   2.249
 7751TIP3   OH223193   5.654   7.153   6.634
 7751TIP3    H123194   5.630   7.212   6.562
 7751TIP3    H223195   5.708   7.086   6.593
 7752TIP3   OH223196   8.160   4.571   1.928
 7752TIP3    H123197   8.084   4.614   1.968
 7752TIP3    H223198   8.236   4.614   1.970
 7753TIP3   OH223199   2.082   7.082   1.491
 7753TIP3    H123200   2.135   7.040   1.423
 7753TIP3    H223201   2.008   7.119   1.443
 7754TIP3   OH223202   0.040   5.281   4.664
 7754TIP3    H123203   0.014   5.272   4.572
 7754TIP3    H223204   0.111   5.345   4.664
 7755TIP3   OH223205   4.620   0.270   3.527
 7755TIP3    H123206   4.687   0.307   3.584
 7755TIP3    H223207   4.591   0.344   3.473
 7756TIP3   OH223208   8.160   4.189   3.178
 7756TIP3    H123209   8.175   4.101   3.212
 7756TIP3    H223210   8.243   4.234   3.190
 7757TIP3   OH223211   0.755   7.152   1.265
 7757TIP3    H123212   0.787   7.085   1.326
 7757TIP3    H223213   0.760   7.109   1.179
 7758TIP3   OH223214   6.732   7.025   4.740
 7758TIP3    H123215   6.749   6.960   4.671
 7758TIP3    H223216   6.671   7.087   4.700
 7759TIP3   OH223217   0.248   7.825   0.014
 7759TIP3    H123218   0.243   7.857  -0.076
 7759TIP3    H223219   0.331   7.778   0.018
 7760TIP3   OH223220   0.389   4.486   5.674
 7760TIP3    H123221   0.366   4.528   5.757
 7760TIP3    H223222   0.484   4.492   5.670
 7761TIP3   OH223223   6.442   2.215   3.815
 7761TIP3    H123224   6.402   2.174   3.892
 7761TIP3    H223225   6.458   2.305   3.841
 7762TIP3   OH223226   7.177   5.226   0.111
 7762TIP3    H123227   7.229   5.180   0.177
 7762TIP3    H223228   7.086   5.204   0.132
 7763TIP3   OH223229   7.833   5.338   0.405
 7763TIP3    H123230   7.821   5.431   0.385
 7763TIP3    H223231   7.924   5.320   0.381
 7764TIP3   OH223232   2.785   7.333   3.781
 7764TIP3    H123233   2.783   7.417   3.827
 7764TIP3    H223234   2.816   7.355   3.693
 7765TIP3   OH223235   3.754   4.416   0.513
 7765TIP3    H123236   3.829   4.376   0.468
 7765TIP3    H223237   3.763   4.510   0.495
 7766TIP3   OH223238   1.204   4.770   0.142
 7766TIP3    H123239   1.157   4.851   0.126
 7766TIP3    H223240   1.279   4.796   0.196
 7767TIP3   OH223241   4.709   0.969   3.654
 7767TIP3    H123242   4.691   0.976   3.560
 7767TIP3    H223243   4.656   0.894   3.682
 7768TIP3   OH223244   5.629   2.887   0.888
 7768TIP3    H123245   5.691   2.818   0.910
 7768TIP3    H223246   5.561   2.881   0.956
 7769TIP3   OH223247   1.463   4.874   1.105
 7769TIP3    H123248   1.387   4.917   1.142
 7769TIP3    H223249   1.490   4.930   1.033
 7770TIP3   OH223250   6.510   6.977   1.205
 7770TIP3    H123251   6.466   6.957   1.122
 7770TIP3    H223252   6.533   7.070   1.198
 7771TIP3   OH223253   1.956   3.955   4.250
 7771TIP3    H123254   2.048   3.975   4.267
 7771TIP3    H223255   1.923   3.920   4.333
 7772TIP3   OH223256   2.481   3.129   2.157
 7772TIP3    H123257   2.520   3.043   2.173
 7772TIP3    H223258   2.396   3.126   2.202
 7773TIP3   OH223259   3.549   5.142   0.922
 7773TIP3    H123260   3.477   5.079   0.921
 7773TIP3    H223261   3.528   5.203   0.851
 7774TIP3   OH223262   3.635   6.980   4.582
 7774TIP3    H123263   3.711   7.028   4.550
 7774TIP3    H223264   3.672   6.907   4.631
 7775TIP3   OH223265   3.161   4.135   1.056
 7775TIP3    H123266   3.216   4.207   1.024
 7775TIP3    H223267   3.087   4.132   0.996
 7776TIP3   OH223268   7.043   2.849   3.561
 7776TIP3    H123269   6.949   2.838   3.575
 7776TIP3    H223270   7.072   2.902   3.635
 7777TIP3   OH223271   6.290   6.321   1.800
 7777TIP3    H123272   6.364   6.381   1.787
 7777TIP3    H223273   6.252   6.311   1.712
 7778TIP3   OH223274   3.299   5.634   1.739
 7778TIP3    H123275   3.383   5.628   1.693
 7778TIP3    H223276   3.309   5.709   1.799
 7779TIP3   OH223277   2.324   1.620   4.297
 7779TIP3    H123278   2.355   1.551   4.356
 7779TIP3    H223279   2.376   1.610   4.218
 7780TIP3   OH223280   5.955   6.080   1.656
 7780TIP3    H123281   6.013   6.146   1.617
 7780TIP3    H223282   5.921   6.033   1.580
 7781TIP3   OH223283   1.447   1.208   1.437
 7781TIP3    H123284   1.498   1.269   1.384
 7781TIP3    H223285   1.502   1.192   1.515
 7782TIP3   OH223286   3.000   4.862   4.525
 7782TIP3    H123287   3.090   4.830   4.519
 7782TIP3    H223288   3.004   4.952   4.491
 7783TIP3   OH223289   0.451   1.408   6.107
 7783TIP3    H123290   0.505   1.428   6.183
 7783TIP3    H223291   0.361   1.425   6.135
 7784TIP3   OH223292   6.388   0.606   0.444
 7784TIP3    H123293   6.321   0.609   0.513
 7784TIP3    H223294   6.455   0.668   0.473
 7785TIP3   OH223295   7.833   4.173   0.312
 7785TIP3    H123296   7.782   4.099   0.344
 7785TIP3    H223297   7.807   4.246   0.368
 7786TIP3   OH223298   3.062   2.682   1.317
 7786TIP3    H123299   3.076   2.777   1.324
 7786TIP3    H223300   2.984   2.674   1.262
 7787TIP3   OH223301   2.604   4.938   2.471
 7787TIP3    H123302   2.524   4.925   2.521
 7787TIP3    H223303   2.580   4.997   2.400
 7788TIP3   OH223304   5.302   6.334   6.399
 7788TIP3    H123305   5.304   6.416   6.448
 7788TIP3    H223306   5.215   6.330   6.360
 7789TIP3   OH223307   1.630   2.244   4.976
 7789TIP3    H123308   1.679   2.185   5.033
 7789TIP3    H223309   1.694   2.310   4.949
 7790TIP3   OH223310   4.894   0.218   5.396
 7790TIP3    H123311   4.808   0.176   5.410
 7790TIP3    H223312   4.895   0.291   5.458
 7791TIP3   OH223313   6.586   6.349   3.276
 7791TIP3    H123314   6.508   6.311   3.316
 7791TIP3    H223315   6.558   6.437   3.248
 7792TIP3   OH223316   1.389   6.953   6.051
 7792TIP3    H123317   1.325   6.910   5.994
 7792TIP3    H223318   1.433   6.880   6.095
 7793TIP3   OH223319   1.076   6.581   0.046
 7793TIP3    H123320   1.017   6.560   0.118
 7793TIP3    H223321   1.134   6.649   0.081
 7794TIP3   OH223322   2.186   2.443   5.217
 7794TIP3    H123323   2.280   2.439   5.236
 7794TIP3    H223324   2.179   2.500   5.141
 7795TIP3   OH223325   3.057   5.403   0.677
 7795TIP3    H123326   2.981   5.425   0.623
 7795TIP3    H223327   3.072   5.310   0.660
 7796TIP3   OH223328   5.811   3.877   4.219
 7796TIP3    H123329   5.828   3.970   4.234
 7796TIP3    H223330   5.889   3.833   4.252
 7797TIP3   OH223331   6.040   1.532   6.459
 7797TIP3    H123332   5.979   1.493   6.522
 7797TIP3    H223333   6.026   1.627   6.468
 7798TIP3   OH223334   0.395   4.001   5.333
 7798TIP3    H123335   0.321   3.987   5.392
 7798TIP3    H223336   0.367   3.962   5.250
 7799TIP3   OH223337   5.101   6.700   1.949
 7799TIP3    H123338   5.054   6.780   1.974
 7799TIP3    H223339   5.173   6.732   1.895
 7800TIP3   OH223340   2.387   1.764   0.584
 7800TIP3    H123341   2.434   1.787   0.504
 7800TIP3    H223342   2.418   1.676   0.606
 7801TIP3   OH223343   5.073   4.527   4.506
 7801TIP3    H123344   5.042   4.444   4.543
 7801TIP3    H223345   5.035   4.594   4.562
 7802TIP3   OH223346   1.641   5.044   6.203
 7802TIP3    H123347   1.609   4.990   6.275
 7802TIP3    H223348   1.662   4.982   6.134
 7803TIP3   OH223349   7.610   2.199   0.620
 7803TIP3    H123350   7.655   2.129   0.573
 7803TIP3    H223351   7.521   2.166   0.632
 7804TIP3   OH223352   1.665   5.818   5.126
 7804TIP3    H123353   1.760   5.805   5.130
 7804TIP3    H223354   1.639   5.837   5.216
 7805TIP3   OH223355   4.186   3.335   1.847
 7805TIP3    H123356   4.183   3.275   1.922
 7805TIP3    H223357   4.112   3.307   1.792
 7806TIP3   OH223358   4.626   4.186   1.172
 7806TIP3    H123359   4.639   4.183   1.267
 7806TIP3    H223360   4.575   4.265   1.157
 7807TIP3   OH223361   1.778   6.845   4.935
 7807TIP3    H123362   1.832   6.768   4.917
 7807TIP3    H223363   1.840   6.912   4.964
 7808TIP3   OH223364   7.716   1.581   6.599
 7808TIP3    H123365   7.791   1.597   6.657
 7808TIP3    H223366   7.661   1.520   6.647
 7809TIP3   OH223367   7.110   4.450   3.277
 7809TIP3    H123368   7.073   4.371   3.317
 7809TIP3    H223369   7.170   4.485   3.343
 7810TIP3   OH223370   1.041   0.879   2.693
 7810TIP3    H123371   1.092   0.939   2.747
 7810TIP3    H223372   1.064   0.792   2.726
 7811TIP3   OH223373   6.745   6.462   2.736
 7811TIP3    H123374   6.651   6.461   2.717
 7811TIP3    H223375   6.776   6.542   2.692
 7812TIP3   OH223376   1.536   4.578   4.626
 7812TIP3    H123377   1.598   4.506   4.621
 7812TIP3    H223378   1.478   4.556   4.699
 7813TIP3   OH223379   4.804   6.044   5.323
 7813TIP3    H123380   4.733   5.984   5.344
 7813TIP3    H223381   4.762   6.116   5.276
 7814TIP3   OH223382   5.145   3.070   4.740
 7814TIP3    H123383   5.228   3.037   4.706
 7814TIP3    H223384   5.079   3.012   4.703
 7815TIP3   OH223385   3.948   0.244   4.485
 7815TIP3    H123386   4.004   0.317   4.457
 7815TIP3    H223387   4.004   0.191   4.541
 7816TIP3   OH223388   7.032   4.870   2.065
 7816TIP3    H123389   7.108   4.833   2.021
 7816TIP3    H223390   7.069   4.916   2.141
 7817TIP3   OH223391   6.053   5.301   1.321
 7817TIP3    H123392   6.122   5.305   1.386
 7817TIP3    H223393   6.078   5.228   1.264
 7818TIP3   OH223394   3.187   7.722   4.365
 7818TIP3    H123395   3.204   7.641   4.413
 7818TIP3    H223396   3.188   7.696   4.273
 7819TIP3   OH223397   4.762   5.489   0.652
 7819TIP3    H123398   4.703   5.463   0.581
 7819TIP3    H223399   4.733   5.578   0.675
 7820TIP3   OH223400   7.650   6.023   4.311
 7820TIP3    H123401   7.591   5.961   4.266
 7820TIP3    H223402   7.718   5.967   4.349
 7821TIP3   OH223403   5.173   1.889   2.449
 7821TIP3    H123404   5.117   1.880   2.372
 7821TIP3    H223405   5.120   1.938   2.512
 7822TIP3   OH223406   6.095   3.745   1.228
 7822TIP3    H123407   6.048   3.785   1.301
 7822TIP3    H223408   6.026   3.719   1.167
 7823TIP3   OH223409   2.092   2.406   5.469
 7823TIP3    H123410   2.099   2.415   5.373
 7823TIP3    H223411   2.153   2.337   5.491
 7824TIP3   OH223412   7.046   0.462   3.306
 7824TIP3    H123413   6.985   0.485   3.376
 7824TIP3    H223414   7.132   0.485   3.341
 7825TIP3   OH223415   6.949   4.738   6.016
 7825TIP3    H123416   6.908   4.670   5.963
 7825TIP3    H223417   7.014   4.779   5.959
 7826TIP3   OH223418   5.696   1.860   1.906
 7826TIP3    H123419   5.762   1.836   1.971
 7826TIP3    H223420   5.622   1.892   1.957
 7827TIP3   OH223421   0.315   2.518   6.606
 7827TIP3    H123422   0.397   2.562   6.631
 7827TIP3    H223423   0.344   2.442   6.555
 7828TIP3   OH223424   3.332   5.334   0.281
 7828TIP3    H123425   3.366   5.265   0.338
 7828TIP3    H223426   3.283   5.287   0.213
 7829TIP3   OH223427   6.415   0.710   1.993
 7829TIP3    H123428   6.359   0.734   1.919
 7829TIP3    H223429   6.357   0.663   2.053
 7830TIP3   OH223430   4.327   6.153   1.780
 7830TIP3    H123431   4.288   6.239   1.769
 7830TIP3    H223432   4.252   6.094   1.792
 7831TIP3   OH223433   4.873   7.413   2.801
 7831TIP3    H123434   4.853   7.421   2.894
 7831TIP3    H223435   4.964   7.442   2.792
 7832TIP3   OH223436   5.862   0.888   2.827
 7832TIP3    H123437   5.863   0.866   2.920
 7832TIP3    H223438   5.854   0.803   2.783
 7833TIP3   OH223439   4.284   0.876   3.754
 7833TIP3    H123440   4.306   0.968   3.769
 7833TIP3    H223441   4.339   0.828   3.816
 7834TIP3   OH223442   6.894   7.402   5.815
 7834TIP3    H123443   6.881   7.486   5.771
 7834TIP3    H223444   6.989   7.397   5.830
 7835TIP3   OH223445   0.479   0.881   0.400
 7835TIP3    H123446   0.412   0.822   0.366
 7835TIP3    H223447   0.559   0.853   0.355
 7836TIP3   OH223448   2.687   6.905   0.733
 7836TIP3    H123449   2.656   6.937   0.648
 7836TIP3    H223450   2.650   6.966   0.797
 7837TIP3   OH223451   1.958   7.624   2.685
 7837TIP3    H123452   2.035   7.570   2.701
 7837TIP3    H223453   1.893   7.591   2.747
 7838TIP3   OH223454   4.328   6.661   3.196
 7838TIP3    H123455   4.388   6.590   3.220
 7838TIP3    H223456   4.288   6.687   3.279
 7839TIP3   OH223457   5.371   1.212   1.002
 7839TIP3    H123458   5.330   1.262   0.932
 7839TIP3    H223459   5.298   1.172   1.049
 7840TIP3   OH223460   5.188   0.982   5.092
 7840TIP3    H123461   5.234   0.984   5.009
 7840TIP3    H223462   5.107   1.032   5.076
 7841TIP3   OH223463   6.397   1.015   0.065
 7841TIP3    H123464   6.482   1.039   0.103
 7841TIP3    H223465   6.358   0.956   0.129
 7842TIP3   OH223466   3.922   5.959   3.902
 7842TIP3    H123467   3.919   6.008   3.984
 7842TIP3    H223468   3.865   5.884   3.917
 7843TIP3   OH223469   4.994   2.327   4.638
 7843TIP3    H123470   4.995   2.285   4.724
 7843TIP3    H223471   5.067   2.287   4.591
 7844TIP3   OH223472   3.264   5.183   4.816
 7844TIP3    H123473   3.246   5.127   4.892
 7844TIP3    H223474   3.328   5.134   4.765
 7845TIP3   OH223475   5.994   7.238   2.827
 7845TIP3    H123476   6.077   7.216   2.869
 7845TIP3    H223477   6.007   7.216   2.734
 7846TIP3   OH223478   4.280   4.268   2.804
 7846TIP3    H123479   4.291   4.245   2.897
 7846TIP3    H223480   4.241   4.356   2.806
 7847TIP3   OH223481   2.243   4.785   3.693
 7847TIP3    H123482   2.308   4.758   3.759
 7847TIP3    H223483   2.188   4.848   3.739
 7848TIP3   OH223484   4.898   2.641   3.733
 7848TIP3    H123485   4.803   2.637   3.738
 7848TIP3    H223486   4.919   2.619   3.642
 7849TIP3   OH223487   0.933   0.820   1.308
 7849TIP3    H123488   1.007   0.768   1.342
 7849TIP3    H223489   0.877   0.756   1.266
 7850TIP3   OH223490   1.132   2.304   6.148
 7850TIP3    H123491   1.098   2.215   6.157
 7850TIP3    H223492   1.055   2.360   6.160
 7851TIP3   OH223493   3.841   7.477   6.855
 7851TIP3    H123494   3.883   7.552   6.811
 7851TIP3    H223495   3.913   7.426   6.890
 7852TIP3   OH223496   7.901   7.892   5.860
 7852TIP3    H123497   7.951   7.818   5.826
 7852TIP3    H223498   7.810   7.861   5.863
 7853TIP3   OH223499   4.835   1.097   1.807
 7853TIP3    H123500   4.850   1.023   1.865
 7853TIP3    H223501   4.892   1.081   1.732
 7854TIP3   OH223502   4.763   0.389   2.041
 7854TIP3    H123503   4.700   0.405   2.112
 7854TIP3    H223504   4.709   0.384   1.962
 7855TIP3   OH223505   5.054   4.868   4.762
 7855TIP3    H123506   5.112   4.899   4.692
 7855TIP3    H223507   5.100   4.793   4.800
 7856TIP3   OH223508   7.364   2.946   0.560
 7856TIP3    H123509   7.386   2.936   0.652
 7856TIP3    H223510   7.421   2.884   0.515
 7857TIP3   OH223511   1.277   6.005   1.769
 7857TIP3    H123512   1.332   5.992   1.846
 7857TIP3    H223513   1.187   6.001   1.803
 7858TIP3   OH223514   2.328   4.272   4.791
 7858TIP3    H123515   2.360   4.185   4.815
 7858TIP3    H223516   2.239   4.275   4.827
 7859TIP3   OH223517   5.100   0.416   3.414
 7859TIP3    H123518   5.006   0.425   3.397
 7859TIP3    H223519   5.126   0.338   3.366
 7860TIP3   OH223520   6.177   5.793   2.846
 7860TIP3    H123521   6.208   5.706   2.870
 7860TIP3    H223522   6.192   5.799   2.752
 7861TIP3   OH223523   0.780   6.604   1.175
 7861TIP3    H123524   0.867   6.643   1.174
 7861TIP3    H223525   0.773   6.559   1.090
 7862TIP3   OH223526   5.069   1.851   4.985
 7862TIP3    H123527   5.129   1.777   5.000
 7862TIP3    H223528   4.997   1.814   4.934
 7863TIP3   OH223529   3.188   3.193   4.683
 7863TIP3    H123530   3.273   3.186   4.728
 7863TIP3    H223531   3.131   3.133   4.731
 7864TIP3   OH223532   5.122   0.446   5.555
 7864TIP3    H123533   5.050   0.482   5.606
 7864TIP3    H223534   5.184   0.412   5.620
 7865TIP3   OH223535   2.655   7.363   4.226
 7865TIP3    H123536   2.651   7.293   4.161
 7865TIP3    H223537   2.746   7.363   4.256
 7866TIP3   OH223538   0.388   7.603   2.548
 7866TIP3    H123539   0.368   7.562   2.464
 7866TIP3    H223540   0.448   7.541   2.591
 7867TIP3   OH223541   5.530   3.515   6.063
 7867TIP3    H123542   5.546   3.547   5.974
 7867TIP3    H223543   5.574   3.430   6.065
 7868TIP3   OH223544   4.534   6.043   0.628
 7868TIP3    H123545   4.464   5.982   0.651
 7868TIP3    H223546   4.549   6.027   0.535
 7869TIP3   OH223547   1.234   5.481   5.575
 7869TIP3    H123548   1.195   5.569   5.579
 7869TIP3    H223549   1.175   5.427   5.629
 7870TIP3   OH223550   3.810   7.797   1.441
 7870TIP3    H123551   3.819   7.707   1.471
 7870TIP3    H223552   3.720   7.821   1.463
 7871TIP3   OH223553   5.975   5.310   6.456
 7871TIP3    H123554   6.003   5.393   6.417
 7871TIP3    H223555   5.951   5.333   6.546
 7872TIP3   OH223556   4.794   6.012   0.740
 7872TIP3    H123557   4.804   5.929   0.693
 7872TIP3    H223558   4.700   6.030   0.737
 7873TIP3   OH223559   4.833   6.577   1.373
 7873TIP3    H123560   4.755   6.613   1.331
 7873TIP3    H223561   4.891   6.652   1.384
 7874TIP3   OH223562   0.845   7.474   4.124
 7874TIP3    H123563   0.791   7.537   4.171
 7874TIP3    H223564   0.845   7.506   4.034
 7875TIP3   OH223565   1.482   0.938   6.468
 7875TIP3    H123566   1.438   0.980   6.541
 7875TIP3    H223567   1.451   0.847   6.470
 7876TIP3   OH223568   7.318   6.016   1.188
 7876TIP3    H123569   7.269   5.954   1.242
 7876TIP3    H223570   7.377   5.961   1.137
 7877TIP3   OH223571   5.958   5.618   4.584
 7877TIP3    H123572   6.025   5.594   4.648
 7877TIP3    H223573   5.944   5.537   4.533
 7878TIP3   OH223574   0.091   6.814   2.454
 7878TIP3    H123575  -0.003   6.822   2.438
 7878TIP3    H223576   0.099   6.810   2.549
 7879TIP3   OH223577   0.289   1.815   6.176
 7879TIP3    H123578   0.265   1.756   6.105
 7879TIP3    H223579   0.219   1.804   6.241
 7880TIP3   OH223580   5.328   7.017   2.565
 7880TIP3    H123581   5.314   7.107   2.594
 7880TIP3    H223582   5.265   7.005   2.494
 7881TIP3   OH223583   1.955   7.033   0.735
 7881TIP3    H123584   2.027   7.012   0.677
 7881TIP3    H223585   1.892   6.962   0.723
 7882TIP3   OH223586   5.493   0.514   6.788
 7882TIP3    H123587   5.424   0.495   6.724
 7882TIP3    H223588   5.448   0.510   6.873
 7883TIP3   OH223589   2.347   7.475   1.008
 7883TIP3    H123590   2.365   7.565   1.038
 7883TIP3    H223591   2.268   7.450   1.056
 7884TIP3   OH223592   5.677   5.773   3.227
 7884TIP3    H123593   5.591   5.748   3.259
 7884TIP3    H223594   5.729   5.787   3.306
 7885TIP3   OH223595   5.238   4.523   3.654
 7885TIP3    H123596   5.267   4.510   3.564
 7885TIP3    H223597   5.319   4.531   3.704
 7886TIP3   OH223598   6.023   2.338  -0.020
 7886TIP3    H123599   6.000   2.372   0.066
 7886TIP3    H223600   6.117   2.323  -0.017
 7887TIP3   OH223601   1.707   4.241   2.451
 7887TIP3    H123602   1.632   4.220   2.396
 7887TIP3    H223603   1.766   4.166   2.440
 7888TIP3   OH223604   5.121   5.246   3.777
 7888TIP3    H123605   5.144   5.266   3.868
 7888TIP3    H223606   5.029   5.221   3.781
 7889TIP3   OH223607   6.620   5.791   2.235
 7889TIP3    H123608   6.619   5.875   2.281
 7889TIP3    H223609   6.585   5.810   2.148
 7890TIP3   OH223610   0.333   5.546   6.089
 7890TIP3    H123611   0.289   5.600   6.155
 7890TIP3    H223612   0.288   5.461   6.094
 7891TIP3   OH223613   5.058   7.673   3.442
 7891TIP3    H123614   4.972   7.713   3.442
 7891TIP3    H223615   5.118   7.744   3.465
 7892TIP3   OH223616   3.804   5.141   6.432
 7892TIP3    H123617   3.736   5.203   6.405
 7892TIP3    H223618   3.796   5.069   6.369
 7893TIP3   OH223619   6.747   2.311   5.666
 7893TIP3    H123620   6.672   2.369   5.676
 7893TIP3    H223621   6.822   2.363   5.697
 7894TIP3   OH223622   6.157   0.639   1.282
 7894TIP3    H123623   6.181   0.587   1.359
 7894TIP3    H223624   6.065   0.663   1.297
 7895TIP3   OH223625   0.228   4.639   5.838
 7895TIP3    H123626   0.211   4.719   5.788
 7895TIP3    H223627   0.162   4.577   5.808
 7896TIP3   OH223628   6.889   2.137   4.249
 7896TIP3    H123629   6.883   2.225   4.213
 7896TIP3    H223630   6.820   2.087   4.205
 7897TIP3   OH223631   2.307   6.866   2.043
 7897TIP3    H123632   2.258   6.943   2.071
 7897TIP3    H223633   2.321   6.878   1.950
 7898TIP3   OH223634   2.571   5.670   1.811
 7898TIP3    H123635   2.584   5.611   1.886
 7898TIP3    H223636   2.575   5.612   1.735
 7899TIP3   OH223637   5.439   3.710   3.913
 7899TIP3    H123638   5.527   3.684   3.941
 7899TIP3    H223639   5.390   3.628   3.912
 7900TIP3   OH223640   1.702   7.337   5.881
 7900TIP3    H123641   1.741   7.391   5.949
 7900TIP3    H223642   1.649   7.273   5.927
 7901TIP3   OH223643   1.367   7.729   0.759
 7901TIP3    H123644   1.367   7.803   0.821
 7901TIP3    H223645   1.276   7.721   0.731
 7902TIP3   OH223646   6.174   6.085   4.411
 7902TIP3    H123647   6.190   6.006   4.463
 7902TIP3    H223648   6.179   6.054   4.320
 7903TIP3   OH223649   7.945   6.001   6.324
 7903TIP3    H123650   7.966   5.921   6.372
 7903TIP3    H223651   7.890   6.052   6.385
 7904TIP3   OH223652   4.575   3.872   4.143
 7904TIP3    H123653   4.633   3.800   4.117
 7904TIP3    H223654   4.634   3.947   4.155
 7905TIP3   OH223655   5.074   1.654   3.306
 7905TIP3    H123656   5.134   1.716   3.265
 7905TIP3    H223657   5.126   1.574   3.317
 7906TIP3   OH223658   6.686   3.947   2.086
 7906TIP3    H123659   6.744   4.013   2.125
 7906TIP3    H223660   6.653   3.989   2.006
 7907TIP3   OH223661   4.190   6.057   2.802
 7907TIP3    H123662   4.196   6.009   2.719
 7907TIP3    H223663   4.259   6.019   2.856
 7908TIP3   OH223664   6.273   7.167   2.939
 7908TIP3    H123665   6.293   7.083   2.980
 7908TIP3    H223666   6.311   7.160   2.851
 7909TIP3   OH223667   4.840   2.227   1.139
 7909TIP3    H123668   4.810   2.313   1.168
 7909TIP3    H223669   4.764   2.170   1.150
 7910TIP3   OH223670   8.148   2.326   3.867
 7910TIP3    H123671   8.076   2.278   3.826
 7910TIP3    H223672   8.107   2.370   3.942
 7911TIP3   OH223673   4.155   4.760   0.946
 7911TIP3    H123674   4.229   4.801   0.992
 7911TIP3    H223675   4.177   4.667   0.945
 7912TIP3   OH223676   4.416   6.052   5.626
 7912TIP3    H123677   4.473   6.091   5.559
 7912TIP3    H223678   4.330   6.089   5.608
 7913TIP3   OH223679   4.032   4.311   2.478
 7913TIP3    H123680   4.042   4.395   2.523
 7913TIP3    H223681   3.978   4.332   2.401
 7914TIP3   OH223682   7.516   6.792   1.732
 7914TIP3    H123683   7.435   6.745   1.752
 7914TIP3    H223684   7.575   6.771   1.804
 7915TIP3   OH223685   2.701   2.506   3.256
 7915TIP3    H123686   2.701   2.418   3.217
 7915TIP3    H223687   2.784   2.544   3.230
 7916TIP3   OH223688   2.982   1.434   3.280
 7916TIP3    H123689   3.055   1.495   3.271
 7916TIP3    H223690   2.975   1.391   3.195
 7917TIP3   OH223691   0.107   1.262   0.515
 7917TIP3    H123692   0.130   1.314   0.593
 7917TIP3    H223693   0.176   1.283   0.452
 7918TIP3   OH223694   0.871   2.062   3.704
 7918TIP3    H123695   0.902   2.146   3.670
 7918TIP3    H223696   0.786   2.049   3.662
 7919TIP3   OH223697   7.976   4.379   3.465
 7919TIP3    H123698   7.939   4.308   3.413
 7919TIP3    H223699   8.071   4.366   3.459
 7920TIP3   OH223700   0.301   7.771   3.075
 7920TIP3    H123701   0.352   7.719   3.138
 7920TIP3    H223702   0.299   7.717   2.996
 7921TIP3   OH223703   2.567   2.744   0.198
 7921TIP3    H123704   2.566   2.655   0.232
 7921TIP3    H223705   2.619   2.739   0.118
 7922TIP3   OH223706   2.060   6.868   4.249
 7922TIP3    H123707   2.011   6.810   4.308
 7922TIP3    H223708   2.097   6.810   4.183
 7923TIP3   OH223709   8.264   1.432   3.001
 7923TIP3    H123710   8.331   1.425   3.068
 7923TIP3    H223711   8.296   1.378   2.929
 7924TIP3   OH223712   1.181   1.833   5.195
 7924TIP3    H123713   1.168   1.760   5.256
 7924TIP3    H223714   1.237   1.894   5.242
 7925TIP3   OH223715   0.984   5.607   1.859
 7925TIP3    H123716   1.061   5.554   1.878
 7925TIP3    H223717   0.920   5.582   1.926
 7926TIP3   OH223718   7.673   6.467   4.531
 7926TIP3    H123719   7.748   6.526   4.538
 7926TIP3    H223720   7.609   6.504   4.593
 7927TIP3   OH223721   3.430   4.833   5.229
 7927TIP3    H123722   3.351   4.788   5.257
 7927TIP3    H223723   3.496   4.763   5.222
 7928TIP3   OH223724   2.157   5.993   3.131
 7928TIP3    H123725   2.129   6.019   3.043
 7928TIP3    H223726   2.090   6.029   3.189
 7929TIP3   OH223727   1.035   3.002   4.674
 7929TIP3    H123728   0.965   3.059   4.642
 7929TIP3    H223729   1.016   2.992   4.768
 7930TIP3   OH223730   0.230   0.238   0.156
 7930TIP3    H123731   0.179   0.156   0.155
 7930TIP3    H223732   0.165   0.305   0.135
 7931TIP3   OH223733   4.588   1.584   2.156
 7931TIP3    H123734   4.609   1.545   2.072
 7931TIP3    H223735   4.669   1.625   2.185
 7932TIP3   OH223736   5.162   6.007   5.693
 7932TIP3    H123737   5.128   6.083   5.645
 7932TIP3    H223738   5.115   5.933   5.655
 7933TIP3   OH223739   3.845   6.785   2.509
 7933TIP3    H123740   3.849   6.870   2.552
 7933TIP3    H223741   3.931   6.774   2.470
 7934TIP3   OH223742   0.104   1.468   2.157
 7934TIP3    H123743   0.061   1.550   2.132
 7934TIP3    H223744   0.175   1.458   2.094
 7935TIP3   OH223745   7.711   4.183   2.740
 7935TIP3    H123746   7.747   4.243   2.805
 7935TIP3    H223747   7.681   4.108   2.791
 7936TIP3   OH223748   5.941   1.064   5.299
 7936TIP3    H123749   5.945   1.158   5.314
 7936TIP3    H223750   5.889   1.030   5.372
 7937TIP3   OH223751   1.072   0.571   1.738
 7937TIP3    H123752   1.034   0.624   1.808
 7937TIP3    H223753   1.166   0.571   1.756
 7938TIP3   OH223754   4.415   1.636   4.359
 7938TIP3    H123755   4.452   1.581   4.290
 7938TIP3    H223756   4.362   1.576   4.411
 7939TIP3   OH223757   3.673   1.130   2.871
 7939TIP3    H123758   3.738   1.200   2.875
 7939TIP3    H223759   3.589   1.174   2.884
 7940TIP3   OH223760   1.176   1.805   2.200
 7940TIP3    H123761   1.114   1.824   2.271
 7940TIP3    H223762   1.131   1.738   2.148
 7941TIP3   OH223763   7.307   2.836   5.986
 7941TIP3    H123764   7.238   2.776   5.957
 7941TIP3    H223765   7.303   2.832   6.081
 7942TIP3   OH223766   6.994   0.309   5.878
 7942TIP3    H123767   6.925   0.375   5.887
 7942TIP3    H223768   7.075   0.361   5.874
 7943TIP3   OH223769   4.414   0.518   3.310
 7943TIP3    H123770   4.480   0.456   3.277
 7943TIP3    H223771   4.359   0.466   3.368
 7944TIP3   OH223772   6.691   4.961   4.346
 7944TIP3    H123773   6.634   4.896   4.388
 7944TIP3    H223774   6.728   4.915   4.271
 7945TIP3   OH223775   5.168   6.318   1.425
 7945TIP3    H123776   5.236   6.372   1.384
 7945TIP3    H223777   5.202   6.298   1.512
 7946TIP3   OH223778   0.950   5.742   2.309
 7946TIP3    H123779   1.036   5.772   2.339
 7946TIP3    H223780   0.928   5.801   2.237
 7947TIP3   OH223781   0.672   2.484   2.385
 7947TIP3    H123782   0.645   2.402   2.344
 7947TIP3    H223783   0.592   2.536   2.390
 7948TIP3   OH223784   8.243   2.663   6.436
 7948TIP3    H123785   8.323   2.676   6.487
 7948TIP3    H223786   8.179   2.721   6.476
 7949TIP3   OH223787   2.427   4.111   2.319
 7949TIP3    H123788   2.500   4.167   2.347
 7949TIP3    H223789   2.351   4.169   2.318
 7950TIP3   OH223790   5.371   6.189   1.613
 7950TIP3    H123791   5.396   6.245   1.687
 7950TIP3    H223792   5.404   6.102   1.637
 7951TIP3   OH223793   2.544   7.696   5.664
 7951TIP3    H123794   2.528   7.694   5.569
 7951TIP3    H223795   2.609   7.765   5.675
 7952TIP3   OH223796   3.615   4.059   2.831
 7952TIP3    H123797   3.663   3.984   2.794
 7952TIP3    H223798   3.543   4.020   2.880
 7953TIP3   OH223799   1.662   0.124   3.661
 7953TIP3    H123800   1.686   0.214   3.684
 7953TIP3    H223801   1.746   0.079   3.652
 7954TIP3   OH223802   6.665   5.093   6.289
 7954TIP3    H123803   6.600   5.109   6.220
 7954TIP3    H223804   6.644   5.159   6.356
 7955TIP3   OH223805   0.651   6.797   2.790
 7955TIP3    H123806   0.716   6.850   2.743
 7955TIP3    H223807   0.697   6.716   2.812
 7956TIP3   OH223808   1.788   5.197   0.196
 7956TIP3    H123809   1.717   5.254   0.166
 7956TIP3    H223810   1.753   5.154   0.274
 7957TIP3   OH223811   2.673   4.359   6.102
 7957TIP3    H123812   2.711   4.416   6.035
 7957TIP3    H223813   2.602   4.411   6.140
 7958TIP3   OH223814   8.157   1.161   2.808
 7958TIP3    H123815   8.213   1.229   2.769
 7958TIP3    H223816   8.086   1.210   2.850
 7959TIP3   OH223817   1.079   5.341   6.774
 7959TIP3    H123818   0.995   5.334   6.728
 7959TIP3    H223819   1.133   5.272   6.736
 7960TIP3   OH223820   2.041   5.554   4.501
 7960TIP3    H123821   2.125   5.588   4.531
 7960TIP3    H223822   2.037   5.465   4.537
 7961TIP3   OH223823   6.552   0.269   6.750
 7961TIP3    H123824   6.618   0.226   6.805
 7961TIP3    H223825   6.529   0.203   6.685
 7962TIP3   OH223826   4.955   0.767   2.923
 7962TIP3    H123827   5.050   0.759   2.918
 7962TIP3    H223828   4.936   0.771   3.017
 7963TIP3   OH223829   5.876   4.554   3.030
 7963TIP3    H123830   5.840   4.599   3.107
 7963TIP3    H223831   5.939   4.491   3.066
 7964TIP3   OH223832   0.912   3.281   5.523
 7964TIP3    H123833   0.933   3.235   5.603
 7964TIP3    H223834   0.979   3.349   5.516
 7965TIP3   OH223835   5.477   4.686   4.816
 7965TIP3    H123836   5.409   4.650   4.760
 7965TIP3    H223837   5.430   4.723   4.890
 7966TIP3   OH223838   7.400   1.235   3.616
 7966TIP3    H123839   7.474   1.175   3.631
 7966TIP3    H223840   7.411   1.302   3.684
 7967TIP3   OH223841   0.811   7.489   6.131
 7967TIP3    H123842   0.874   7.558   6.148
 7967TIP3    H223843   0.821   7.469   6.037
 7968TIP3   OH223844   2.852   5.833   5.165
 7968TIP3    H123845   2.828   5.744   5.139
 7968TIP3    H223846   2.806   5.846   5.248
 7969TIP3   OH223847   1.712   2.952   2.960
 7969TIP3    H123848   1.689   3.045   2.968
 7969TIP3    H223849   1.629   2.908   2.941
 7970TIP3   OH223850   6.651   0.799   0.121
 7970TIP3    H123851   6.734   0.755   0.102
 7970TIP3    H223852   6.664   0.888   0.089
 7971TIP3   OH223853   2.244   0.226   6.430
 7971TIP3    H123854   2.190   0.274   6.366
 7971TIP3    H223855   2.180   0.187   6.490
 7972TIP3   OH223856   7.575   4.167   1.925
 7972TIP3    H123857   7.516   4.096   1.950
 7972TIP3    H223858   7.651   4.123   1.887
 7973TIP3   OH223859   7.734   1.267   5.803
 7973TIP3    H123860   7.808   1.319   5.834
 7973TIP3    H223861   7.728   1.286   5.710
 7974TIP3   OH223862   6.412   5.178   6.650
 7974TIP3    H123863   6.491   5.204   6.698
 7974TIP3    H223864   6.434   5.191   6.558
 7975TIP3   OH223865   3.244   0.938   0.654
 7975TIP3    H123866   3.335   0.922   0.630
 7975TIP3    H223867   3.222   0.866   0.714
 7976TIP3   OH223868   2.712   7.752   4.573
 7976TIP3    H123869   2.788   7.698   4.591
 7976TIP3    H223870   2.746   7.824   4.519
 7977TIP3   OH223871   5.709   6.942   5.341
 7977TIP3    H123872   5.695   6.890   5.420
 7977TIP3    H223873   5.724   6.876   5.272
 7978TIP3   OH223874   3.814   0.913   3.747
 7978TIP3    H123875   3.895   0.951   3.713
 7978TIP3    H223876   3.768   0.880   3.670
 7979TIP3   OH223877   1.821   1.047   0.031
 7979TIP3    H123878   1.805   0.970   0.086
 7979TIP3    H223879   1.869   1.107   0.088
 7980TIP3   OH223880   1.238   0.125   5.061
 7980TIP3    H123881   1.275   0.153   4.977
 7980TIP3    H223882   1.151   0.164   5.063
 7981TIP3   OH223883   0.581   3.546   2.273
 7981TIP3    H123884   0.486   3.556   2.280
 7981TIP3    H223885   0.615   3.584   2.353
 7982TIP3   OH223886   6.513   1.473   3.550
 7982TIP3    H123887   6.438   1.415   3.532
 7982TIP3    H223888   6.586   1.413   3.565
 7983TIP3   OH223889   4.305   6.167   1.164
 7983TIP3    H123890   4.341   6.253   1.184
 7983TIP3    H223891   4.380   6.115   1.134
 7984TIP3   OH223892   2.622   0.021   1.320
 7984TIP3    H123893   2.623  -0.053   1.259
 7984TIP3    H223894   2.632   0.098   1.265
 7985TIP3   OH223895   4.768   3.389   4.444
 7985TIP3    H123896   4.738   3.471   4.404
 7985TIP3    H223897   4.752   3.401   4.537
 7986TIP3   OH223898   6.113   2.741   1.827
 7986TIP3    H123899   6.139   2.742   1.735
 7986TIP3    H223900   6.043   2.676   1.831
 7987TIP3   OH223901   5.132   2.719   1.285
 7987TIP3    H123902   5.216   2.719   1.330
 7987TIP3    H223903   5.076   2.663   1.339
 7988TIP3   OH223904   3.657   2.817   2.956
 7988TIP3    H123905   3.732   2.851   3.005
 7988TIP3    H223906   3.682   2.728   2.931
 7989TIP3   OH223907   2.706   6.781   2.719
 7989TIP3    H123908   2.666   6.867   2.704
 7989TIP3    H223909   2.665   6.750   2.800
 7990TIP3   OH223910   0.596   0.535   3.071
 7990TIP3    H123911   0.641   0.604   3.120
 7990TIP3    H223912   0.664   0.496   3.016
 7991TIP3   OH223913   4.877   1.703   5.201
 7991TIP3    H123914   4.839   1.749   5.276
 7991TIP3    H223915   4.904   1.772   5.141
 7992TIP3   OH223916   2.054   6.152   0.606
 7992TIP3    H123917   2.129   6.133   0.663
 7992TIP3    H223918   1.990   6.194   0.663
 7993TIP3   OH223919   6.132   6.343   3.892
 7993TIP3    H123920   6.094   6.398   3.960
 7993TIP3    H223921   6.070   6.271   3.881
 7994TIP3   OH223922   5.177   2.163   0.716
 7994TIP3    H123923   5.249   2.102   0.701
 7994TIP3    H223924   5.119   2.118   0.777
 7995TIP3   OH223925   5.449   3.597   4.637
 7995TIP3    H123926   5.502   3.667   4.598
 7995TIP3    H223927   5.388   3.572   4.568
 7996TIP3   OH223928   6.242   1.471   1.566
 7996TIP3    H123929   6.308   1.405   1.587
 7996TIP3    H223930   6.161   1.437   1.604
 7997TIP3   OH223931   3.635   0.362   4.608
 7997TIP3    H123932   3.665   0.358   4.518
 7997TIP3    H223933   3.546   0.326   4.606
 7998TIP3   OH223934   7.664   1.814   5.142
 7998TIP3    H123935   7.635   1.726   5.122
 7998TIP3    H223936   7.586   1.859   5.174
 7999TIP3   OH223937   0.776   7.020   5.760
 7999TIP3    H123938   0.856   6.973   5.736
 7999TIP3    H223939   0.752   7.068   5.681
 8000TIP3   OH223940   4.010   1.003   6.491
 8000TIP3    H123941   4.095   1.021   6.530
 8000TIP3    H223942   3.955   0.976   6.565
 8001TIP3   OH223943   1.206   2.602   5.303
 8001TIP3    H123944   1.136   2.549   5.340
 8001TIP3    H223945   1.200   2.588   5.209
 8002TIP3   OH223946   0.036   4.474   6.124
 8002TIP3    H123947   0.007   4.563   6.101
 8002TIP3    H223948  -0.025   4.416   6.078
 8003TIP3   OH223949   5.257   7.862   3.593
 8003TIP3    H123950   5.243   7.932   3.530
 8003TIP3    H223951   5.230   7.900   3.677
 8004TIP3   OH223952   2.379   6.897   3.527
 8004TIP3    H123953   2.297   6.945   3.516
 8004TIP3    H223954   2.433   6.925   3.453
 8005TIP3   OH223955   5.859   7.429   4.466
 8005TIP3    H123956   5.909   7.500   4.426
 8005TIP3    H223957   5.889   7.350   4.422
 8006TIP3   OH223958   3.240   3.494   2.791
 8006TIP3    H123959   3.179   3.531   2.728
 8006TIP3    H223960   3.185   3.445   2.852
 8007TIP3   OH223961   5.970   1.272   4.123
 8007TIP3    H123962   5.956   1.228   4.039
 8007TIP3    H223963   6.019   1.210   4.176
 8008TIP3   OH223964   0.617   2.510   0.437
 8008TIP3    H123965   0.703   2.508   0.480
 8008TIP3    H223966   0.576   2.427   0.464
 8009TIP3   OH223967   3.466   3.160   1.422
 8009TIP3    H123968   3.458   3.177   1.328
 8009TIP3    H223969   3.497   3.242   1.459
 8010TIP3   OH223970   8.079   7.460   5.952
 8010TIP3    H123971   8.018   7.398   5.913
 8010TIP3    H223972   8.130   7.495   5.879
 8011TIP3   OH223973   4.326   2.887   6.829
 8011TIP3    H123974   4.277   2.811   6.798
 8011TIP3    H223975   4.410   2.851   6.858
 8012TIP3   OH223976   2.033   3.605   3.557
 8012TIP3    H123977   2.111   3.657   3.540
 8012TIP3    H223978   2.033   3.538   3.489
 8013TIP3   OH223979   2.353   4.896   5.494
 8013TIP3    H123980   2.396   4.925   5.575
 8013TIP3    H223981   2.425   4.874   5.436
 8014TIP3   OH223982   3.494   5.119   1.606
 8014TIP3    H123983   3.566   5.137   1.666
 8014TIP3    H223984   3.488   5.197   1.552
 8015TIP3   OH223985   6.238   5.547   2.892
 8015TIP3    H123986   6.208   5.500   2.970
 8015TIP3    H223987   6.329   5.519   2.881
 8016TIP3   OH223988   0.681   6.063   0.967
 8016TIP3    H123989   0.617   6.105   1.025
 8016TIP3    H223990   0.729   6.002   1.023
 8017TIP3   OH223991   8.226   4.672   1.590
 8017TIP3    H123992   8.182   4.588   1.600
 8017TIP3    H223993   8.155   4.736   1.583
 8018TIP3   OH223994   7.122   4.891   3.513
 8018TIP3    H123995   7.033   4.900   3.479
 8018TIP3    H223996   7.163   4.826   3.457
 8019TIP3   OH223997   1.002   2.653   3.747
 8019TIP3    H123998   1.027   2.686   3.661
 8019TIP3    H223999   0.943   2.720   3.782
 8020TIP3   OH224000  -0.064   7.260   4.303
 8020TIP3    H124001  -0.021   7.195   4.357
 8020TIP3    H224002  -0.021   7.254   4.218
 8021TIP3   OH224003   5.966   7.561   3.784
 8021TIP3    H124004   5.949   7.537   3.693
 8021TIP3    H224005   5.889   7.610   3.812
 8022TIP3   OH224006   1.859   0.917   5.015
 8022TIP3    H124007   1.867   0.914   5.110
 8022TIP3    H224008   1.932   0.972   4.987
 8023TIP3   OH224009   6.661   6.735   0.461
 8023TIP3    H124010   6.653   6.822   0.421
 8023TIP3    H224011   6.573   6.716   0.495
 8024TIP3   OH224012   5.534   6.356   1.455
 8024TIP3    H124013   5.511   6.443   1.489
 8024TIP3    H224014   5.466   6.298   1.489
 8025TIP3   OH224015   2.497   7.284   0.091
 8025TIP3    H124016   2.452   7.339   0.027
 8025TIP3    H224017   2.439   7.284   0.167
 8026TIP3   OH224018   4.898   2.838   4.678
 8026TIP3    H124019   4.826   2.846   4.741
 8026TIP3    H224020   4.933   2.750   4.694
 8027TIP3   OH224021   4.328   1.920   1.619
 8027TIP3    H124022   4.372   1.873   1.548
 8027TIP3    H224023   4.346   2.012   1.603
 8028TIP3   OH224024   1.200   5.869   1.108
 8028TIP3    H124025   1.243   5.788   1.083
 8028TIP3    H224026   1.199   5.922   1.028
 8029TIP3   OH224027   7.880   4.514   0.201
 8029TIP3    H124028   7.839   4.549   0.279
 8029TIP3    H224029   7.816   4.529   0.131
 8030TIP3   OH224030   0.364   1.948   5.665
 8030TIP3    H124031   0.306   2.014   5.627
 8030TIP3    H224032   0.305   1.879   5.694
 8031TIP3   OH224033   3.792   3.390   5.588
 8031TIP3    H124034   3.697   3.390   5.582
 8031TIP3    H224035   3.818   3.479   5.563
 8032TIP3   OH224036   4.205   7.745   6.243
 8032TIP3    H124037   4.283   7.767   6.192
 8032TIP3    H224038   4.143   7.816   6.224
 8033TIP3   OH224039   1.920   0.048   3.099
 8033TIP3    H124040   1.986   0.117   3.107
 8033TIP3    H224041   1.845   0.091   3.059
 8034TIP3   OH224042   7.875   7.116   4.400
 8034TIP3    H124043   7.951   7.173   4.390
 8034TIP3    H224044   7.801   7.176   4.408
 8035TIP3   OH224045   5.302   5.799   0.450
 8035TIP3    H124046   5.383   5.776   0.495
 8035TIP3    H224047   5.233   5.759   0.503
 8036TIP3   OH224048   8.241   5.007   6.844
 8036TIP3    H124049   8.174   4.988   6.910
 8036TIP3    H224050   8.195   4.998   6.761
 8037TIP3   OH224051   1.058   6.247   5.965
 8037TIP3    H124052   1.041   6.281   6.053
 8037TIP3    H224053   0.971   6.238   5.926
 8038TIP3   OH224054   4.541   5.287   4.253
 8038TIP3    H124055   4.634   5.264   4.249
 8038TIP3    H224056   4.514   5.266   4.342
 8039TIP3   OH224057   3.518   2.528  -0.012
 8039TIP3    H124058   3.447   2.581   0.022
 8039TIP3    H224059   3.585   2.531   0.057
 8040TIP3   OH224060   5.952   6.707   5.232
 8040TIP3    H124061   5.870   6.685   5.188
 8040TIP3    H224062   5.989   6.777   5.178
 8041TIP3   OH224063   1.740   2.751   0.309
 8041TIP3    H124064   1.828   2.718   0.295
 8041TIP3    H224065   1.724   2.809   0.234
 8042TIP3   OH224066   3.138   4.147   4.803
 8042TIP3    H124067   3.107   4.234   4.830
 8042TIP3    H224068   3.210   4.165   4.742
 8043TIP3   OH224069   6.527   7.452   6.781
 8043TIP3    H124070   6.496   7.468   6.692
 8043TIP3    H224071   6.623   7.449   6.773
 8044TIP3   OH224072   1.661   5.846   0.523
 8044TIP3    H124073   1.633   5.906   0.453
 8044TIP3    H224074   1.605   5.770   0.511
 8045TIP3   OH224075   6.995   0.852   2.677
 8045TIP3    H124076   7.078   0.889   2.646
 8045TIP3    H224077   6.986   0.885   2.767
 8046TIP3   OH224078   5.761   1.324   0.262
 8046TIP3    H124079   5.849   1.353   0.284
 8046TIP3    H224080   5.750   1.241   0.309
 8047TIP3   OH224081   0.867   6.847   3.496
 8047TIP3    H124082   0.779   6.884   3.491
 8047TIP3    H224083   0.923   6.921   3.521
 8048TIP3   OH224084   6.268   2.328   6.038
 8048TIP3    H124085   6.184   2.289   6.064
 8048TIP3    H224086   6.309   2.263   5.982
 8049TIP3   OH224087   1.870   5.121   3.239
 8049TIP3    H124088   1.803   5.107   3.306
 8049TIP3    H224089   1.834   5.189   3.182
 8050TIP3   OH224090   4.999   7.405   3.420
 8050TIP3    H124091   5.017   7.493   3.453
 8050TIP3    H224092   4.912   7.412   3.379
 8051TIP3   OH224093   1.776   6.063   3.078
 8051TIP3    H124094   1.732   5.987   3.116
 8051TIP3    H224095   1.705   6.125   3.062
 8052TIP3   OH224096   6.160   1.115   1.493
 8052TIP3    H124097   6.244   1.086   1.530
 8052TIP3    H224098   6.110   1.145   1.569
 8053TIP3   OH224099   0.883   6.337   0.251
 8053TIP3    H124100   0.891   6.424   0.290
 8053TIP3    H224101   0.794   6.335   0.215
 8054TIP3   OH224102   0.928   1.105   6.486
 8054TIP3    H124103   0.903   1.184   6.439
 8054TIP3    H224104   0.935   1.038   6.418
 8055TIP3   OH224105   5.480   4.762   1.089
 8055TIP3    H124106   5.427   4.824   1.040
 8055TIP3    H224107   5.455   4.775   1.180
 8056TIP3   OH224108   4.383   4.985   2.266
 8056TIP3    H124109   4.454   5.044   2.241
 8056TIP3    H224110   4.308   5.013   2.213
 8057TIP3   OH224111   5.960   2.953   0.092
 8057TIP3    H124112   5.899   2.893   0.134
 8057TIP3    H224113   5.952   3.035   0.141
 8058TIP3   OH224114   0.163   5.977   4.058
 8058TIP3    H124115   0.147   6.021   4.141
 8058TIP3    H224116   0.256   5.955   4.061
 8059TIP3   OH224117   3.095   1.341   5.944
 8059TIP3    H124118   3.084   1.352   6.039
 8059TIP3    H224119   3.094   1.431   5.910
 8060TIP3   OH224120   2.117   4.751   1.512
 8060TIP3    H124121   2.178   4.824   1.502
 8060TIP3    H224122   2.034   4.791   1.536
 8061TIP3   OH224123   0.167   1.446   2.761
 8061TIP3    H124124   0.204   1.457   2.848
 8061TIP3    H224125   0.216   1.507   2.706
 8062TIP3   OH224126   6.214   6.718   1.840
 8062TIP3    H124127   6.174   6.672   1.766
 8062TIP3    H224128   6.207   6.657   1.913
 8063TIP3   OH224129   0.491   3.329   0.396
 8063TIP3    H124130   0.438   3.258   0.432
 8063TIP3    H224131   0.578   3.316   0.433
 8064TIP3   OH224132   4.520   1.293   0.053
 8064TIP3    H124133   4.519   1.377   0.006
 8064TIP3    H224134   4.506   1.228  -0.016
 8065TIP3   OH224135   0.305   4.656   0.692
 8065TIP3    H124136   0.247   4.598   0.642
 8065TIP3    H224137   0.393   4.634   0.663
 8066TIP3   OH224138   3.398   0.930   3.959
 8066TIP3    H124139   3.329   0.927   3.894
 8066TIP3    H224140   3.445   0.847   3.949
 8067TIP3   OH224141   1.003   6.570   3.737
 8067TIP3    H124142   0.930   6.549   3.795
 8067TIP3    H224143   1.007   6.497   3.675
 8068TIP3   OH224144   0.692   1.218   6.260
 8068TIP3    H124145   0.627   1.234   6.328
 8068TIP3    H224146   0.762   1.280   6.278
 8069TIP3   OH224147   0.686   0.656   3.718
 8069TIP3    H124148   0.694   0.575   3.769
 8069TIP3    H224149   0.667   0.626   3.629
 8070TIP3   OH224150   0.223   7.674   0.277
 8070TIP3    H124151   0.134   7.671   0.314
 8070TIP3    H224152   0.214   7.730   0.199
 8071TIP3   OH224153   7.870   6.423   4.756
 8071TIP3    H124154   7.925   6.440   4.832
 8071TIP3    H224155   7.928   6.377   4.694
 8072TIP3   OH224156   0.413   1.099   2.398
 8072TIP3    H124157   0.475   1.075   2.467
 8072TIP3    H224158   0.327   1.095   2.440
 8073TIP3   OH224159   7.115   5.856   1.330
 8073TIP3    H124160   7.047   5.910   1.289
 8073TIP3    H224161   7.067   5.790   1.380
 8074TIP3   OH224162   0.758   7.432   0.062
 8074TIP3    H124163   0.847   7.401   0.045
 8074TIP3    H224164   0.751   7.432   0.158
 8075TIP3   OH224165   7.477   1.758   3.120
 8075TIP3    H124166   7.461   1.800   3.204
 8075TIP3    H224167   7.560   1.712   3.131
 8076TIP3   OH224168   1.136   0.983   0.045
 8076TIP3    H124169   1.154   1.047   0.114
 8076TIP3    H224170   1.201   1.003  -0.023
 8077TIP3   OH224171   7.285   4.679   3.907
 8077TIP3    H124172   7.308   4.592   3.875
 8077TIP3    H224173   7.303   4.676   4.001
 8078TIP3   OH224174   1.339   2.336   5.429
 8078TIP3    H124175   1.396   2.320   5.354
 8078TIP3    H224176   1.250   2.324   5.395
 8079TIP3   OH224177   6.541   7.740   3.962
 8079TIP3    H124178   6.492   7.819   3.985
 8079TIP3    H224179   6.484   7.694   3.900
 8080TIP3   OH224180   0.932   2.270   2.078
 8080TIP3    H124181   0.926   2.300   2.169
 8080TIP3    H224182   0.858   2.313   2.034
 8081TIP3   OH224183   2.174   1.338   4.886
 8081TIP3    H124184   2.136   1.388   4.958
 8081TIP3    H224185   2.147   1.386   4.807
 8082TIP3   OH224186   0.463   6.524   2.933
 8082TIP3    H124187   0.422   6.458   2.876
 8082TIP3    H224188   0.557   6.516   2.914
 8083TIP3   OH224189   6.637   4.023   5.255
 8083TIP3    H124190   6.616   3.932   5.234
 8083TIP3    H224191   6.602   4.035   5.343
 8084TIP3   OH224192   5.418   2.823   3.046
 8084TIP3    H124193   5.504   2.829   3.087
 8084TIP3    H224194   5.419   2.739   3.000
 8085TIP3   OH224195   7.845   7.325   3.344
 8085TIP3    H124196   7.789   7.322   3.422
 8085TIP3    H224197   7.850   7.233   3.315
 8086TIP3   OH224198   0.874   2.306   1.284
 8086TIP3    H124199   0.902   2.331   1.372
 8086TIP3    H224200   0.882   2.386   1.232
 8087TIP3   OH224201   1.017   0.857   2.434
 8087TIP3    H124202   1.081   0.921   2.401
 8087TIP3    H224203   1.037   0.849   2.527
 8088TIP3   OH224204   6.919   2.678   3.787
 8088TIP3    H124205   6.933   2.708   3.876
 8088TIP3    H224206   7.007   2.657   3.754
 8089TIP3   OH224207   0.499   0.445   5.956
 8089TIP3    H124208   0.427   0.464   5.896
 8089TIP3    H224209   0.478   0.494   6.035
 8090TIP3   OH224210   3.184   1.286   2.894
 8090TIP3    H124211   3.217   1.246   2.975
 8090TIP3    H224212   3.263   1.300   2.842
 8091TIP3   OH224213   7.741   6.923   2.035
 8091TIP3    H124214   7.661   6.897   2.081
 8091TIP3    H224215   7.810   6.916   2.101
 8092TIP3   OH224216   6.308   2.985   0.875
 8092TIP3    H124217   6.267   2.975   0.789
 8092TIP3    H224218   6.359   3.066   0.868
 8093TIP3   OH224219   3.607   4.471   0.062
 8093TIP3    H124220   3.517   4.500   0.044
 8093TIP3    H224221   3.598   4.404   0.129
 8094TIP3   OH224222   7.763   7.354   3.690
 8094TIP3    H124223   7.697   7.422   3.682
 8094TIP3    H224224   7.847   7.401   3.692
 8095TIP3   OH224225   0.920   3.818   0.920
 8095TIP3    H124226   0.967   3.799   0.839
 8095TIP3    H224227   0.862   3.891   0.899
 8096TIP3   OH224228   3.953   6.423   3.792
 8096TIP3    H124229   4.038   6.410   3.749
 8096TIP3    H224230   3.928   6.512   3.770
 8097TIP3   OH224231   3.524   7.304   4.401
 8097TIP3    H124232   3.488   7.218   4.379
 8097TIP3    H224233   3.530   7.304   4.497
 8098TIP3   OH224234   3.842   5.064   0.203
 8098TIP3    H124235   3.758   5.044   0.243
 8098TIP3    H224236   3.844   5.160   0.199
 8099TIP3   OH224237   1.464   0.079   0.434
 8099TIP3    H124238   1.430   0.119   0.354
 8099TIP3    H224239   1.491   0.153   0.488
 8100TIP3   OH224240   5.023   6.436   4.148
 8100TIP3    H124241   5.095   6.373   4.155
 8100TIP3    H224242   4.947   6.389   4.182
 8101TIP3   OH224243   1.359   7.890   0.087
 8101TIP3    H124244   1.315   7.815   0.128
 8101TIP3    H224245   1.288   7.942   0.050
 8102TIP3   OH224246   8.057   1.605   2.268
 8102TIP3    H124247   8.066   1.551   2.347
 8102TIP3    H224248   8.025   1.689   2.301
 8103TIP3   OH224249   8.374   3.998   4.375
 8103TIP3    H124250   8.440   4.007   4.444
 8103TIP3    H224251   8.346   4.088   4.357
 8104TIP3   OH224252   3.487   3.680   0.891
 8104TIP3    H124253   3.502   3.773   0.907
 8104TIP3    H224254   3.545   3.659   0.817
 8105TIP3   OH224255   3.164   5.561   0.370
 8105TIP3    H124256   3.071   5.573   0.352
 8105TIP3    H224257   3.182   5.471   0.345
 8106TIP3   OH224258   2.241   7.454   4.800
 8106TIP3    H124259   2.158   7.498   4.821
 8106TIP3    H224260   2.306   7.524   4.803
 8107TIP3   OH224261   5.754   1.558   4.981
 8107TIP3    H124262   5.751   1.646   5.018
 8107TIP3    H224263   5.847   1.541   4.967
 8108TIP3   OH224264   2.441   6.768   1.272
 8108TIP3    H124265   2.452   6.817   1.354
 8108TIP3    H224266   2.515   6.797   1.218
 8109TIP3   OH224267   6.345   6.748   6.762
 8109TIP3    H124268   6.374   6.661   6.736
 8109TIP3    H224269   6.338   6.797   6.679
 8110TIP3   OH224270   2.566   2.474   0.196
 8110TIP3    H124271   2.607   2.404   0.247
 8110TIP3    H224272   2.519   2.429   0.126
 8111TIP3   OH224273   5.734   7.334   5.766
 8111TIP3    H124274   5.713   7.312   5.857
 8111TIP3    H224275   5.649   7.344   5.723
 8112TIP3   OH224276   6.363   4.865   3.970
 8112TIP3    H124277   6.273   4.862   3.939
 8112TIP3    H224278   6.377   4.957   3.993
 8113TIP3   OH224279   8.128   1.134   4.679
 8113TIP3    H124280   8.092   1.216   4.713
 8113TIP3    H224281   8.216   1.129   4.716
 8114TIP3   OH224282   2.749   1.555   4.244
 8114TIP3    H124283   2.700   1.588   4.319
 8114TIP3    H224284   2.795   1.631   4.209
 8115TIP3   OH224285   7.988   2.658   2.223
 8115TIP3    H124286   7.958   2.609   2.146
 8115TIP3    H224287   7.909   2.668   2.277
 8116TIP3   OH224288   3.857   5.802   2.286
 8116TIP3    H124289   3.775   5.849   2.294
 8116TIP3    H224290   3.894   5.831   2.202
 8117TIP3   OH224291   6.548   7.853   3.611
 8117TIP3    H124292   6.461   7.831   3.646
 8117TIP3    H224293   6.536   7.853   3.516
 8118TIP3   OH224294   6.655   5.819   1.701
 8118TIP3    H124295   6.713   5.782   1.634
 8118TIP3    H224296   6.714   5.844   1.772
 8119TIP3   OH224297   6.093   1.571   0.210
 8119TIP3    H124298   6.146   1.629   0.264
 8119TIP3    H224299   6.046   1.515   0.273
 8120TIP3   OH224300   1.120   1.447   5.442
 8120TIP3    H124301   1.200   1.428   5.393
 8120TIP3    H224302   1.055   1.386   5.408
 8121TIP3   OH224303   5.709   7.377   1.898
 8121TIP3    H124304   5.718   7.380   1.803
 8121TIP3    H224305   5.728   7.286   1.922
 8122TIP3   OH224306   4.352   4.852   5.425
 8122TIP3    H124307   4.352   4.765   5.384
 8122TIP3    H224308   4.426   4.897   5.384
 8123TIP3   OH224309   3.139   1.698   3.911
 8123TIP3    H124310   3.138   1.769   3.974
 8123TIP3    H224311   3.131   1.741   3.826
 8124TIP3   OH224312   7.616   2.678   4.568
 8124TIP3    H124313   7.584   2.756   4.523
 8124TIP3    H224314   7.536   2.632   4.595
 8125TIP3   OH224315   3.173   6.053   3.732
 8125TIP3    H124316   3.176   6.033   3.825
 8125TIP3    H224317   3.085   6.027   3.704
 8126TIP3   OH224318   4.978   5.627   6.227
 8126TIP3    H124319   4.988   5.616   6.132
 8126TIP3    H224320   5.008   5.544   6.264
 8127TIP3   OH224321   8.367   0.105   0.725
 8127TIP3    H124322   8.371   0.017   0.763
 8127TIP3    H224323   8.348   0.162   0.800
 8128TIP3   OH224324   5.965   5.252   3.541
 8128TIP3    H124325   5.984   5.281   3.630
 8128TIP3    H224326   6.017   5.309   3.485
 8129TIP3   OH224327   1.883   2.042   1.658
 8129TIP3    H124328   1.971   2.050   1.621
 8129TIP3    H224329   1.871   2.122   1.710
 8130TIP3   OH224330   2.473   5.094   6.346
 8130TIP3    H124331   2.518   5.173   6.316
 8130TIP3    H224332   2.383   5.121   6.362
 8131TIP3   OH224333   5.733   4.882   3.506
 8131TIP3    H124334   5.672   4.810   3.520
 8131TIP3    H224335   5.684   4.960   3.532
 8132TIP3   OH224336   2.422   6.899   5.413
 8132TIP3    H124337   2.400   6.886   5.320
 8132TIP3    H224338   2.344   6.940   5.450
 8133TIP3   OH224339   5.696   1.765   5.721
 8133TIP3    H124340   5.631   1.749   5.790
 8133TIP3    H224341   5.711   1.860   5.724
 8134TIP3   OH224342   6.038   5.737   1.006
 8134TIP3    H124343   6.103   5.735   1.076
 8134TIP3    H224344   6.015   5.829   0.997
 8135TIP3   OH224345   1.144   7.242   5.711
 8135TIP3    H124346   1.110   7.318   5.663
 8135TIP3    H224347   1.076   7.223   5.776
 8136TIP3   OH224348   0.725   2.401   5.475
 8136TIP3    H124349   0.697   2.317   5.438
 8136TIP3    H224350   0.674   2.410   5.555
 8137TIP3   OH224351   0.257   4.359   5.982
 8137TIP3    H124352   0.218   4.280   5.944
 8137TIP3    H224353   0.193   4.387   6.047
 8138TIP3   OH224354   0.352   2.664   6.861
 8138TIP3    H124355   0.447   2.666   6.856
 8138TIP3    H224356   0.324   2.750   6.827
 8139TIP3   OH224357   2.349   1.834   3.365
 8139TIP3    H124358   2.304   1.769   3.418
 8139TIP3    H224359   2.401   1.783   3.303
 8140TIP3   OH224360   2.751   5.597   5.003
 8140TIP3    H124361   2.661   5.567   5.017
 8140TIP3    H224362   2.741   5.678   4.952
 8141TIP3   OH224363   6.009   7.544   1.655
 8141TIP3    H124364   5.919   7.576   1.646
 8141TIP3    H224365   6.049   7.560   1.570
 8142TIP3   OH224366   2.930   1.381   1.077
 8142TIP3    H124367   2.845   1.371   1.034
 8142TIP3    H224368   2.910   1.431   1.157
 8143TIP3   OH224369   6.325   0.751   3.897
 8143TIP3    H124370   6.366   0.711   3.973
 8143TIP3    H224371   6.346   0.693   3.824
 8144TIP3   OH224372   1.489   5.060   0.036
 8144TIP3    H124373   1.522   5.142   0.071
 8144TIP3    H224374   1.449   5.084  -0.048
 8145TIP3   OH224375   7.029   6.364   4.662
 8145TIP3    H124376   7.063   6.350   4.574
 8145TIP3    H224377   6.968   6.438   4.653
 8146TIP3   OH224378   8.098   3.145   2.304
 8146TIP3    H124379   8.031   3.162   2.238
 8146TIP3    H224380   8.159   3.217   2.297
 8147TIP3   OH224381   1.163   2.997   0.460
 8147TIP3    H124382   1.090   2.966   0.407
 8147TIP3    H224383   1.240   2.984   0.406
 8148TIP3   OH224384   3.793   7.217   0.401
 8148TIP3    H124385   3.726   7.222   0.470
 8148TIP3    H224386   3.752   7.258   0.325
 8149TIP3   OH224387   7.404   6.920   3.533
 8149TIP3    H124388   7.475   6.864   3.502
 8149TIP3    H224389   7.334   6.908   3.469
 8150TIP3   OH224390   6.758   1.898   2.346
 8150TIP3    H124391   6.789   1.862   2.263
 8150TIP3    H224392   6.666   1.873   2.350
 8151TIP3   OH224393   3.309   2.642   1.512
 8151TIP3    H124394   3.333   2.572   1.452
 8151TIP3    H224395   3.263   2.707   1.458
 8152TIP3   OH224396   3.608   4.114   5.543
 8152TIP3    H124397   3.613   4.020   5.560
 8152TIP3    H224398   3.540   4.122   5.476
 8153TIP3   OH224399   6.806   0.497   0.260
 8153TIP3    H124400   6.844   0.571   0.213
 8153TIP3    H224401   6.748   0.455   0.196
 8154TIP3   OH224402   2.412   3.923   1.544
 8154TIP3    H124403   2.327   3.967   1.536
 8154TIP3    H224404   2.460   3.974   1.609
 8155TIP3   OH224405   7.338   7.545   5.605
 8155TIP3    H124406   7.246   7.563   5.586
 8155TIP3    H224407   7.371   7.626   5.643
 8156TIP3   OH224408   3.811   3.109   6.045
 8156TIP3    H124409   3.873   3.113   6.117
 8156TIP3    H224410   3.817   3.019   6.013
 8157TIP3   OH224411   0.822   5.316   6.001
 8157TIP3    H124412   0.751   5.332   6.063
 8157TIP3    H224413   0.800   5.369   5.925
 8158TIP3   OH224414   7.737   1.222   2.169
 8158TIP3    H124415   7.649   1.196   2.195
 8158TIP3    H224416   7.783   1.239   2.251
 8159TIP3   OH224417   5.868   4.778   4.204
 8159TIP3    H124418   5.902   4.703   4.156
 8159TIP3    H224419   5.809   4.740   4.270
 8160TIP3   OH224420   0.545   0.699   1.840
 8160TIP3    H124421   0.573   0.790   1.830
 8160TIP3    H224422   0.477   0.703   1.907
 8161TIP3   OH224423   6.682   3.806   6.327
 8161TIP3    H124424   6.774   3.784   6.342
 8161TIP3    H224425   6.677   3.829   6.235
 8162TIP3   OH224426   7.470   0.987   4.674
 8162TIP3    H124427   7.544   0.927   4.672
 8162TIP3    H224428   7.422   0.968   4.593
 8163TIP3   OH224429   6.134   0.570   6.594
 8163TIP3    H124430   6.072   0.601   6.528
 8163TIP3    H224431   6.192   0.510   6.547
 8164TIP3   OH224432   2.925   6.281   6.920
 8164TIP3    H124433   2.855   6.336   6.885
 8164TIP3    H224434   2.894   6.254   7.006
 8165TIP3   OH224435   5.638   5.471   0.716
 8165TIP3    H124436   5.719   5.505   0.754
 8165TIP3    H224437   5.569   5.522   0.758
 8166TIP3   OH224438   1.111   5.059   3.824
 8166TIP3    H124439   1.076   5.101   3.745
 8166TIP3    H224440   1.114   5.129   3.889
 8167TIP3   OH224441   6.555   6.684   2.940
 8167TIP3    H124442   6.499   6.607   2.936
 8167TIP3    H224443   6.627   6.664   2.881
 8168TIP3   OH224444   0.486   6.532   1.680
 8168TIP3    H124445   0.397   6.548   1.712
 8168TIP3    H224446   0.504   6.605   1.621
 8169TIP3   OH224447   1.356   0.005   4.504
 8169TIP3    H124448   1.423  -0.045   4.457
 8169TIP3    H224449   1.338  -0.047   4.583
 8170TIP3   OH224450   6.335   6.983   5.911
 8170TIP3    H124451   6.376   6.897   5.913
 8170TIP3    H224452   6.245   6.967   5.883
 8171TIP3   OH224453   0.746   5.960   2.847
 8171TIP3    H124454   0.695   5.905   2.788
 8171TIP3    H224455   0.700   6.044   2.847
 8172TIP3   OH224456   7.136   4.283   4.460
 8172TIP3    H124457   7.214   4.307   4.411
 8172TIP3    H224458   7.167   4.222   4.527
 8173TIP3   OH224459   8.241   7.479   3.645
 8173TIP3    H124460   8.207   7.452   3.560
 8173TIP3    H224461   8.188   7.555   3.669
 8174TIP3   OH224462   1.300   0.151   6.141
 8174TIP3    H124463   1.319   0.189   6.055
 8174TIP3    H224464   1.270   0.225   6.194
 8175TIP3   OH224465   4.619   3.490   6.665
 8175TIP3    H124466   4.539   3.454   6.627
 8175TIP3    H224467   4.589   3.542   6.739
 8176TIP3   OH224468   4.969   4.934   4.051
 8176TIP3    H124469   4.932   4.920   4.138
 8176TIP3    H224470   5.032   4.863   4.039
 8177TIP3   OH224471   6.045   5.569   5.909
 8177TIP3    H124472   6.093   5.580   5.827
 8177TIP3    H224473   6.108   5.527   5.968
 8178TIP3   OH224474   1.086   3.376   0.279
 8178TIP3    H124475   1.179   3.388   0.301
 8178TIP3    H224476   1.040   3.428   0.345
 8179TIP3   OH224477   7.719   1.978   0.495
 8179TIP3    H124478   7.814   1.964   0.498
 8179TIP3    H224479   7.682   1.891   0.504
 8180TIP3   OH224480   0.175   1.391   6.091
 8180TIP3    H124481   0.205   1.342   6.168
 8180TIP3    H224482   0.082   1.406   6.107
 8181TIP3   OH224483   6.407   0.234   1.527
 8181TIP3    H124484   6.420   0.287   1.606
 8181TIP3    H224485   6.494   0.227   1.488
 8182TIP3   OH224486   3.548   7.229   0.599
 8182TIP3    H124487   3.469   7.278   0.575
 8182TIP3    H224488   3.597   7.289   0.656
 8183TIP3   OH224489   2.657   4.181   4.459
 8183TIP3    H124490   2.678   4.274   4.462
 8183TIP3    H224491   2.741   4.138   4.446
 8184TIP3   OH224492   3.821   3.034   3.737
 8184TIP3    H124493   3.879   2.977   3.788
 8184TIP3    H224494   3.786   2.977   3.669
 8185TIP3   OH224495   0.750   6.349   6.881
 8185TIP3    H124496   0.759   6.324   6.789
 8185TIP3    H224497   0.823   6.409   6.897
 8186TIP3   OH224498   7.355   2.029   1.052
 8186TIP3    H124499   7.394   1.989   1.130
 8186TIP3    H224500   7.291   2.091   1.087
 8187TIP3   OH224501   3.607   4.457   0.773
 8187TIP3    H124502   3.697   4.489   0.783
 8187TIP3    H224503   3.614   4.385   0.710
 8188TIP3   OH224504   3.676   2.883   3.455
 8188TIP3    H124505   3.615   2.883   3.381
 8188TIP3    H224506   3.673   2.793   3.487
 8189TIP3   OH224507   4.838   4.147   5.605
 8189TIP3    H124508   4.830   4.222   5.545
 8189TIP3    H224509   4.751   4.138   5.643
 8190TIP3   OH224510   0.782   4.333   5.447
 8190TIP3    H124511   0.814   4.253   5.489
 8190TIP3    H224512   0.719   4.302   5.381
 8191TIP3   OH224513   6.682   1.620   3.778
 8191TIP3    H124514   6.773   1.595   3.762
 8191TIP3    H224515   6.630   1.551   3.736
 8192TIP3   OH224516   0.219   6.638   6.714
 8192TIP3    H124517   0.273   6.560   6.701
 8192TIP3    H224518   0.270   6.709   6.675
 8193TIP3   OH224519   7.675   5.327   3.353
 8193TIP3    H124520   7.714   5.241   3.339
 8193TIP3    H224521   7.744   5.378   3.393
 8194TIP3   OH224522   7.295   1.250   0.497
 8194TIP3    H124523   7.332   1.304   0.566
 8194TIP3    H224524   7.369   1.198   0.465
 8195TIP3   OH224525   6.085   6.287   5.824
 8195TIP3    H124526   6.075   6.210   5.768
 8195TIP3    H224527   6.023   6.350   5.788
 8196TIP3   OH224528   3.500   3.960   0.932
 8196TIP3    H124529   3.513   4.024   1.002
 8196TIP3    H224530   3.419   3.987   0.889
 8197TIP3   OH224531   7.250   4.540   0.131
 8197TIP3    H124532   7.240   4.527   0.037
 8197TIP3    H224533   7.268   4.633   0.141
 8198TIP3   OH224534   2.298   1.157   3.772
 8198TIP3    H124535   2.381   1.111   3.779
 8198TIP3    H224536   2.242   1.117   3.838
 8199TIP3   OH224537   3.526   3.816   3.695
 8199TIP3    H124538   3.486   3.748   3.641
 8199TIP3    H224539   3.490   3.898   3.662
 8200TIP3   OH224540   1.657   5.864   5.427
 8200TIP3    H124541   1.726   5.852   5.492
 8200TIP3    H224542   1.576   5.863   5.477
 8201TIP3   OH224543   4.571   0.113   1.435
 8201TIP3    H124544   4.506   0.182   1.451
 8201TIP3    H224545   4.564   0.095   1.342
 8202TIP3   OH224546   5.698   0.699   3.904
 8202TIP3    H124547   5.605   0.713   3.885
 8202TIP3    H224548   5.720   0.768   3.967
 8203TIP3   OH224549   3.945   4.975   3.710
 8203TIP3    H124550   3.981   5.063   3.723
 8203TIP3    H224551   3.941   4.965   3.615
 8204TIP3   OH224552   6.728   1.138   5.579
 8204TIP3    H124553   6.793   1.071   5.558
 8204TIP3    H224554   6.661   1.129   5.511
 8205TIP3   OH224555   7.258   7.642   2.044
 8205TIP3    H124556   7.179   7.631   2.096
 8205TIP3    H224557   7.282   7.734   2.056
 8206TIP3   OH224558   6.856   5.363   3.787
 8206TIP3    H124559   6.859   5.402   3.875
 8206TIP3    H224560   6.853   5.269   3.803
 8207TIP3   OH224561   7.200   3.325   3.991
 8207TIP3    H124562   7.145   3.248   3.979
 8207TIP3    H224563   7.285   3.291   4.020
 8208TIP3   OH224564   7.769   5.124   4.456
 8208TIP3    H124565   7.860   5.096   4.456
 8208TIP3    H224566   7.756   5.163   4.370
 8209TIP3   OH224567   5.219   1.144   3.282
 8209TIP3    H124568   5.247   1.114   3.195
 8209TIP3    H224569   5.271   1.092   3.343
 8210TIP3   OH224570   2.196   5.995   3.883
 8210TIP3    H124571   2.138   5.925   3.851
 8210TIP3    H224572   2.145   6.075   3.873
 8211TIP3   OH224573   2.924   2.246   6.679
 8211TIP3    H124574   2.882   2.300   6.746
 8211TIP3    H224575   2.859   2.178   6.661
 8212TIP3   OH224576   1.707   3.708   5.851
 8212TIP3    H124577   1.753   3.686   5.932
 8212TIP3    H224578   1.734   3.640   5.790
 8213TIP3   OH224579   6.983   1.200   6.653
 8213TIP3    H124580   6.944   1.226   6.570
 8213TIP3    H224581   7.077   1.210   6.639
 8214TIP3   OH224582   6.867   1.350   6.448
 8214TIP3    H124583   6.839   1.419   6.387
 8214TIP3    H224584   6.785   1.315   6.484
 8215TIP3   OH224585   3.790   0.825   0.821
 8215TIP3    H124586   3.777   0.778   0.739
 8215TIP3    H224587   3.777   0.917   0.798
 8216TIP3   OH224588   6.311   6.870   6.513
 8216TIP3    H124589   6.304   6.945   6.453
 8216TIP3    H224590   6.294   6.794   6.457
 8217TIP3   OH224591   1.591   6.274   4.672
 8217TIP3    H124592   1.589   6.292   4.766
 8217TIP3    H224593   1.679   6.299   4.645
 8218TIP3   OH224594   1.452   1.669   4.226
 8218TIP3    H124595   1.357   1.659   4.217
 8218TIP3    H224596   1.486   1.658   4.138
 8219TIP3   OH224597   5.057   4.998   4.364
 8219TIP3    H124598   5.101   5.064   4.311
 8219TIP3    H224599   5.122   4.973   4.430
 8220TIP3   OH224600   7.003   0.633   4.933
 8220TIP3    H124601   6.947   0.690   4.986
 8220TIP3    H224602   6.943   0.593   4.870
 8221TIP3   OH224603   4.304   0.216   0.136
 8221TIP3    H124604   4.262   0.263   0.208
 8221TIP3    H224605   4.269   0.127   0.141
 8222TIP3   OH224606   0.823   3.126   5.173
 8222TIP3    H124607   0.916   3.112   5.190
 8222TIP3    H224608   0.786   3.147   5.259
 8223TIP3   OH224609   5.638   2.265   0.693
 8223TIP3    H124610   5.571   2.262   0.624
 8223TIP3    H224611   5.672   2.175   0.697
 8224TIP3   OH224612   6.006   2.451   2.134
 8224TIP3    H124613   5.997   2.546   2.130
 8224TIP3    H224614   6.063   2.436   2.209
 8225TIP3   OH224615   0.746   6.461   5.023
 8225TIP3    H124616   0.827   6.485   4.978
 8225TIP3    H224617   0.755   6.367   5.038
 8226TIP3   OH224618   7.470   4.551   3.333
 8226TIP3    H124619   7.543   4.538   3.394
 8226TIP3    H224620   7.484   4.640   3.298
 8227TIP3   OH224621   6.793   2.923   1.320
 8227TIP3    H124622   6.884   2.943   1.340
 8227TIP3    H224623   6.798   2.858   1.249
 8228TIP3   OH224624   4.358   7.133   5.867
 8228TIP3    H124625   4.439   7.182   5.851
 8228TIP3    H224626   4.313   7.133   5.783
 8229TIP3   OH224627   5.254   2.373   4.493
 8229TIP3    H124628   5.293   2.357   4.407
 8229TIP3    H224629   5.217   2.461   4.487
 8230TIP3   OH224630   5.901   2.862   5.095
 8230TIP3    H124631   5.838   2.894   5.160
 8230TIP3    H224632   5.977   2.835   5.147
 8231TIP3   OH224633   7.639   6.957   5.749
 8231TIP3    H124634   7.631   6.891   5.681
 8231TIP3    H224635   7.732   6.980   5.750
 8232TIP3   OH224636   8.357   2.552   4.078
 8232TIP3    H124637   8.407   2.631   4.097
 8232TIP3    H224638   8.290   2.580   4.015
 8233TIP3   OH224639   6.387   2.228   2.711
 8233TIP3    H124640   6.398   2.321   2.693
 8233TIP3    H224641   6.339   2.194   2.636
 8234TIP3   OH224642   5.502   6.519   4.809
 8234TIP3    H124643   5.528   6.442   4.759
 8234TIP3    H224644   5.582   6.545   4.856
 8235TIP3   OH224645   2.890   3.950   1.453
 8235TIP3    H124646   2.898   4.029   1.399
 8235TIP3    H224647   2.847   3.886   1.397
 8236TIP3   OH224648   6.341   3.730   0.450
 8236TIP3    H124649   6.307   3.699   0.366
 8236TIP3    H224650   6.366   3.821   0.433
 8237TIP3   OH224651   4.424   0.636   1.704
 8237TIP3    H124652   4.371   0.591   1.769
 8237TIP3    H224653   4.360   0.680   1.647
 8238TIP3   OH224654   0.576   0.758   6.645
 8238TIP3    H124655   0.657   0.740   6.597
 8238TIP3    H224656   0.555   0.675   6.689
 8239TIP3   OH224657   6.725   6.851   3.476
 8239TIP3    H124658   6.783   6.801   3.534
 8239TIP3    H224659   6.638   6.842   3.515
 8240TIP3   OH224660   4.870   1.592   4.466
 8240TIP3    H124661   4.899   1.648   4.395
 8240TIP3    H224662   4.895   1.504   4.439
 8241TIP3   OH224663   5.991   4.591   6.342
 8241TIP3    H124664   5.914   4.628   6.298
 8241TIP3    H224665   5.980   4.497   6.333
 8242TIP3   OH224666   4.184   3.709   2.655
 8242TIP3    H124667   4.095   3.741   2.641
 8242TIP3    H224668   4.230   3.781   2.697
 8243TIP3   OH224669   5.686   7.749   4.361
 8243TIP3    H124670   5.686   7.691   4.437
 8243TIP3    H224671   5.717   7.833   4.395
 8244TIP3   OH224672   5.340   7.486   1.053
 8244TIP3    H124673   5.359   7.429   0.979
 8244TIP3    H224674   5.280   7.435   1.108
 8245TIP3   OH224675   0.435   5.957   3.950
 8245TIP3    H124676   0.410   5.896   3.881
 8245TIP3    H224677   0.516   5.919   3.986
 8246TIP3   OH224678   3.390   4.908   2.283
 8246TIP3    H124679   3.436   4.824   2.285
 8246TIP3    H224680   3.332   4.905   2.359
 8247TIP3   OH224681   7.002   2.256   0.710
 8247TIP3    H124682   6.972   2.227   0.796
 8247TIP3    H224683   6.982   2.350   0.710
 8248TIP3   OH224684   4.031   1.699   4.032
 8248TIP3    H124685   4.105   1.662   3.984
 8248TIP3    H224686   4.063   1.706   4.122
 8249TIP3   OH224687   2.187   0.413   5.519
 8249TIP3    H124688   2.129   0.425   5.444
 8249TIP3    H224689   2.142   0.350   5.575
 8250TIP3   OH224690   3.508   3.142   6.355
 8250TIP3    H124691   3.437   3.084   6.330
 8250TIP3    H224692   3.473   3.194   6.427
 8251TIP3   OH224693   7.896   4.208   5.893
 8251TIP3    H124694   7.926   4.170   5.811
 8251TIP3    H224695   7.806   4.236   5.875
 8252TIP3   OH224696   4.611   2.086   1.161
 8252TIP3    H124697   4.580   2.013   1.107
 8252TIP3    H224698   4.537   2.107   1.218
 8253TIP3   OH224699   0.229   1.440   5.700
 8253TIP3    H124700   0.240   1.397   5.785
 8253TIP3    H224701   0.209   1.369   5.639
 8254TIP3   OH224702   1.369   5.799   6.413
 8254TIP3    H124703   1.303   5.758   6.468
 8254TIP3    H224704   1.387   5.883   6.455
 8255TIP3   OH224705   5.379   0.979   2.249
 8255TIP3    H124706   5.347   1.046   2.310
 8255TIP3    H224707   5.469   0.962   2.278
 8256TIP3   OH224708   6.459   1.473   2.698
 8256TIP3    H124709   6.546   1.447   2.667
 8256TIP3    H224710   6.469   1.477   2.793
 8257TIP3   OH224711   0.307   3.198   1.398
 8257TIP3    H124712   0.383   3.211   1.342
 8257TIP3    H224713   0.327   3.247   1.478
 8258TIP3   OH224714   5.243   1.227   1.418
 8258TIP3    H124715   5.233   1.320   1.396
 8258TIP3    H224716   5.268   1.227   1.510
 8259TIP3   OH224717   4.861   3.074   0.408
 8259TIP3    H124718   4.787   3.054   0.350
 8259TIP3    H224719   4.938   3.060   0.353
 8260TIP3   OH224720   5.223   1.337   5.097
 8260TIP3    H124721   5.275   1.330   5.176
 8260TIP3    H224722   5.134   1.316   5.124
 8261TIP3   OH224723   0.173   3.370   4.999
 8261TIP3    H124724   0.225   3.291   4.984
 8261TIP3    H224725   0.166   3.377   5.094
 8262TIP3   OH224726   6.137   7.074   5.410
 8262TIP3    H124727   6.213   7.133   5.408
 8262TIP3    H224728   6.064   7.127   5.380
 8263TIP3   OH224729   7.550   1.735   0.563
 8263TIP3    H124730   7.472   1.759   0.513
 8263TIP3    H224731   7.518   1.684   0.637
 8264TIP3   OH224732   0.482   7.122   4.991
 8264TIP3    H124733   0.497   7.102   4.898
 8264TIP3    H224734   0.390   7.146   4.996
 8265TIP3   OH224735   1.661   7.500   3.237
 8265TIP3    H124736   1.704   7.556   3.172
 8265TIP3    H224737   1.659   7.413   3.196
 8266TIP3   OH224738   6.042   2.453   2.691
 8266TIP3    H124739   5.973   2.427   2.752
 8266TIP3    H224740   6.004   2.438   2.604
 8267TIP3   OH224741   1.818   6.868   2.497
 8267TIP3    H124742   1.889   6.917   2.539
 8267TIP3    H224743   1.765   6.934   2.454
 8268TIP3   OH224744   3.469   5.003   3.200
 8268TIP3    H124745   3.376   4.985   3.189
 8268TIP3    H224746   3.477   5.036   3.290
 8269TIP3   OH224747   3.668   3.338   6.187
 8269TIP3    H124748   3.701   3.297   6.107
 8269TIP3    H224749   3.652   3.264   6.247
 8270TIP3   OH224750   0.904   0.591   2.638
 8270TIP3    H124751   0.854   0.520   2.597
 8270TIP3    H224752   0.990   0.552   2.655
 8271TIP3   OH224753   4.144   4.461   0.191
 8271TIP3    H124754   4.224   4.513   0.180
 8271TIP3    H224755   4.122   4.432   0.103
 8272TIP3   OH224756   8.435   5.810   6.481
 8272TIP3    H124757   8.429   5.883   6.543
 8272TIP3    H224758   8.346   5.774   6.477
 8273TIP3   OH224759   5.711   2.225   1.932
 8273TIP3    H124760   5.758   2.214   2.014
 8273TIP3    H224761   5.756   2.166   1.870
 8274TIP3   OH224762   5.440   7.657   3.385
 8274TIP3    H124763   5.500   7.582   3.385
 8274TIP3    H224764   5.380   7.639   3.457
 8275TIP3   OH224765   8.388   7.378   0.329
 8275TIP3    H124766   8.385   7.467   0.291
 8275TIP3    H224767   8.479   7.365   0.352
 8276TIP3   OH224768   0.539   3.373   5.218
 8276TIP3    H124769   0.562   3.317   5.292
 8276TIP3    H224770   0.444   3.372   5.216
 8277TIP3   OH224771   2.603   6.475   1.808
 8277TIP3    H124772   2.508   6.463   1.814
 8277TIP3    H224773   2.614   6.545   1.744
 8278TIP3   OH224774   1.099   3.077   5.149
 8278TIP3    H124775   1.166   3.138   5.118
 8278TIP3    H224776   1.088   3.015   5.077
 8279TIP3   OH224777   3.662   4.641   2.247
 8279TIP3    H124778   3.706   4.709   2.196
 8279TIP3    H224779   3.672   4.561   2.196
 8280TIP3   OH224780   7.705   7.152   0.141
 8280TIP3    H124781   7.772   7.093   0.174
 8280TIP3    H224782   7.652   7.097   0.083
 8281TIP3   OH224783   4.909   2.495   6.050
 8281TIP3    H124784   4.819   2.482   6.022
 8281TIP3    H224785   4.902   2.532   6.138
 8282TIP3   OH224786   3.634   4.924   0.613
 8282TIP3    H124787   3.608   4.864   0.683
 8282TIP3    H224788   3.607   4.879   0.532
 8283TIP3   OH224789   2.373   2.901   4.699
 8283TIP3    H124790   2.444   2.907   4.762
 8283TIP3    H224791   2.416   2.900   4.614
 8284TIP3   OH224792   5.721   0.133   5.506
 8284TIP3    H124793   5.670   0.205   5.469
 8284TIP3    H224794   5.741   0.162   5.595
 8285TIP3   OH224795   1.817   2.692   0.731
 8285TIP3    H124796   1.866   2.687   0.813
 8285TIP3    H224797   1.732   2.652   0.751
 8286TIP3   OH224798   8.263   0.641   5.991
 8286TIP3    H124799   8.195   0.684   5.939
 8286TIP3    H224800   8.215   0.577   6.044
 8287TIP3   OH224801   3.286   7.169   0.719
 8287TIP3    H124802   3.266   7.167   0.625
 8287TIP3    H224803   3.235   7.098   0.756
 8288TIP3   OH224804   4.184   5.685   4.156
 8288TIP3    H124805   4.214   5.768   4.120
 8288TIP3    H224806   4.263   5.641   4.186
 8289TIP3   OH224807   0.399   0.490   1.226
 8289TIP3    H124808   0.414   0.416   1.285
 8289TIP3    H224809   0.323   0.464   1.173
 8290TIP3   OH224810   5.680   5.838   6.255
 8290TIP3    H124811   5.748   5.771   6.265
 8290TIP3    H224812   5.656   5.833   6.162
 8291TIP3   OH224813   5.365   5.459   3.898
 8291TIP3    H124814   5.355   5.552   3.879
 8291TIP3    H224815   5.442   5.432   3.847
 8292TIP3   OH224816   7.198   1.758   3.094
 8292TIP3    H124817   7.177   1.778   3.185
 8292TIP3    H224818   7.290   1.733   3.095
 8293TIP3   OH224819   7.035   2.706   1.984
 8293TIP3    H124820   6.982   2.777   2.020
 8293TIP3    H224821   7.078   2.667   2.060
 8294TIP3   OH224822   6.448   6.385   0.968
 8294TIP3    H124823   6.526   6.387   1.023
 8294TIP3    H224824   6.462   6.311   0.909
 8295TIP3   OH224825   6.464   6.003   4.325
 8295TIP3    H124826   6.502   5.924   4.287
 8295TIP3    H224827   6.370   5.984   4.331
 8296TIP3   OH224828   5.110   4.121   4.328
 8296TIP3    H124829   5.145   4.033   4.316
 8296TIP3    H224830   5.186   4.179   4.315
 8297TIP3   OH224831   6.414   0.951   1.335
 8297TIP3    H124832   6.380   0.861   1.339
 8297TIP3    H224833   6.422   0.978   1.426
 8298TIP3   OH224834   7.368   0.376   6.235
 8298TIP3    H124835   7.275   0.352   6.244
 8298TIP3    H224836   7.368   0.471   6.227
 8299TIP3   OH224837   6.558   7.674   3.368
 8299TIP3    H124838   6.528   7.586   3.345
 8299TIP3    H224839   6.635   7.660   3.422
 8300TIP3   OH224840   7.511   5.607   1.123
 8300TIP3    H124841   7.480   5.687   1.081
 8300TIP3    H224842   7.601   5.626   1.147
 8301TIP3   OH224843   8.155   6.972   3.533
 8301TIP3    H124844   8.231   7.007   3.578
 8301TIP3    H224845   8.091   7.044   3.533
 8302TIP3   OH224846   0.325   2.628   3.425
 8302TIP3    H124847   0.258   2.635   3.493
 8302TIP3    H224848   0.282   2.660   3.346
 8303TIP3   OH224849   2.631   2.729   0.728
 8303TIP3    H124850   2.718   2.700   0.700
 8303TIP3    H224851   2.617   2.810   0.679
 8304TIP3   OH224852   3.188   1.025   4.998
 8304TIP3    H124853   3.175   1.119   4.985
 8304TIP3    H224854   3.221   0.993   4.914
 8305TIP3   OH224855   5.102   3.483   0.444
 8305TIP3    H124856   5.113   3.570   0.406
 8305TIP3    H224857   5.092   3.498   0.537
 8306TIP3   OH224858   7.649   7.796   2.452
 8306TIP3    H124859   7.571   7.850   2.449
 8306TIP3    H224860   7.684   7.799   2.363
 8307TIP3   OH224861   4.495   2.624   5.358
 8307TIP3    H124862   4.483   2.531   5.337
 8307TIP3    H224863   4.549   2.624   5.438
 8308TIP3   OH224864   2.908   6.368   3.395
 8308TIP3    H124865   2.911   6.389   3.488
 8308TIP3    H224866   2.824   6.403   3.365
 8309TIP3   OH224867   2.657   6.245   5.728
 8309TIP3    H124868   2.613   6.229   5.645
 8309TIP3    H224869   2.592   6.223   5.795
 8310TIP3   OH224870   3.888   4.111   4.888
 8310TIP3    H124871   3.842   4.027   4.891
 8310TIP3    H224872   3.821   4.176   4.910
 8311TIP3   OH224873   0.366   6.525   0.461
 8311TIP3    H124874   0.453   6.504   0.494
 8311TIP3    H224875   0.307   6.495   0.530
 8312TIP3   OH224876   1.899   0.896   0.999
 8312TIP3    H124877   1.933   0.970   1.049
 8312TIP3    H224878   1.955   0.822   1.023
 8313TIP3   OH224879   0.089   6.763   3.376
 8313TIP3    H124880   0.021   6.698   3.354
 8313TIP3    H224881   0.062   6.798   3.460
 8314TIP3   OH224882   7.158   3.010   3.744
 8314TIP3    H124883   7.120   3.030   3.830
 8314TIP3    H224884   7.180   3.096   3.707
 8315TIP3   OH224885   7.062   1.190   2.095
 8315TIP3    H124886   7.074   1.096   2.084
 8315TIP3    H224887   7.125   1.215   2.162
 8316TIP3   OH224888   4.078   6.153   2.446
 8316TIP3    H124889   4.050   6.132   2.357
 8316TIP3    H224890   4.172   6.164   2.440
 8317TIP3   OH224891   2.046   6.414   3.590
 8317TIP3    H124892   2.119   6.383   3.537
 8317TIP3    H224893   1.972   6.419   3.529
 8318TIP3   OH224894   5.578   5.434   5.291
 8318TIP3    H124895   5.572   5.528   5.304
 8318TIP3    H224896   5.635   5.423   5.215
 8319TIP3   OH224897   3.047   1.179   3.432
 8319TIP3    H124898   2.993   1.253   3.403
 8319TIP3    H224899   3.038   1.178   3.527
 8320TIP3   OH224900   3.589   3.690   4.471
 8320TIP3    H124901   3.617   3.634   4.398
 8320TIP3    H224902   3.670   3.713   4.516
 8321TIP3   OH224903   1.105   7.316   6.280
 8321TIP3    H124904   1.192   7.280   6.264
 8321TIP3    H224905   1.111   7.407   6.252
 8322TIP3   OH224906   1.724   1.388   5.118
 8322TIP3    H124907   1.801   1.353   5.161
 8322TIP3    H224908   1.723   1.481   5.142
 8323TIP3   OH224909   7.062   3.127   1.181
 8323TIP3    H124910   7.112   3.209   1.182
 8323TIP3    H224911   7.037   3.116   1.089
 8324TIP3   OH224912   4.983   2.429   2.766
 8324TIP3    H124913   4.960   2.499   2.705
 8324TIP3    H224914   5.022   2.361   2.711
 8325TIP3   OH224915   2.953   0.638   5.479
 8325TIP3    H124916   2.928   0.560   5.528
 8325TIP3    H224917   2.960   0.608   5.389
 8326TIP3   OH224918   7.115   4.573   6.449
 8326TIP3    H124919   7.080   4.628   6.379
 8326TIP3    H224920   7.042   4.518   6.476
 8327TIP3   OH224921   8.186   5.646   3.174
 8327TIP3    H124922   8.206   5.573   3.114
 8327TIP3    H224923   8.196   5.724   3.120
 8328TIP3   OH224924   3.054   4.505   5.572
 8328TIP3    H124925   3.137   4.473   5.538
 8328TIP3    H224926   2.987   4.461   5.519
 8329TIP3   OH224927   4.276   0.413   0.656
 8329TIP3    H124928   4.302   0.478   0.591
 8329TIP3    H224929   4.348   0.350   0.657
 8330TIP3   OH224930   5.921   6.559   1.783
 8330TIP3    H124931   5.981   6.537   1.712
 8330TIP3    H224932   5.898   6.650   1.767
 8331TIP3   OH224933   2.252   0.221   0.010
 8331TIP3    H124934   2.235   0.243  -0.081
 8331TIP3    H224935   2.260   0.125   0.011
 8332TIP3   OH224936   6.740   1.072   4.429
 8332TIP3    H124937   6.708   1.036   4.347
 8332TIP3    H224938   6.763   0.995   4.481
 8333TIP3   OH224939   5.505   2.193   3.850
 8333TIP3    H124940   5.533   2.225   3.765
 8333TIP3    H224941   5.586   2.179   3.898
 8334TIP3   OH224942   2.806   3.334   2.120
 8334TIP3    H124943   2.750   3.338   2.197
 8334TIP3    H224944   2.837   3.424   2.109
 8335TIP3   OH224945   6.264   3.681   3.174
 8335TIP3    H124946   6.262   3.655   3.081
 8335TIP3    H224947   6.233   3.603   3.221
 8336TIP3   OH224948   0.898   4.735   5.848
 8336TIP3    H124949   0.952   4.695   5.916
 8336TIP3    H224950   0.823   4.770   5.895
 8337TIP3   OH224951   8.378   7.876   6.243
 8337TIP3    H124952   8.433   7.806   6.277
 8337TIP3    H224953   8.301   7.832   6.208
 8338TIP3   OH224954   3.311   2.272   1.414
 8338TIP3    H124955   3.314   2.199   1.353
 8338TIP3    H224956   3.287   2.348   1.360
 8339TIP3   OH224957   2.425   0.483   1.968
 8339TIP3    H124958   2.476   0.446   1.896
 8339TIP3    H224959   2.335   0.456   1.948
 8340TIP3   OH224960   5.525   6.977   1.751
 8340TIP3    H124961   5.485   7.025   1.824
 8340TIP3    H224962   5.619   6.987   1.764
 8341TIP3   OH224963   8.133   7.694   2.790
 8341TIP3    H124964   8.081   7.737   2.723
 8341TIP3    H224965   8.156   7.764   2.851
 8342TIP3   OH224966   3.506   3.364   3.751
 8342TIP3    H124967   3.487   3.418   3.828
 8342TIP3    H224968   3.599   3.346   3.757
 8343TIP3   OH224969   5.361   7.309   2.582
 8343TIP3    H124970   5.353   7.371   2.510
 8343TIP3    H224971   5.283   7.323   2.635
 8344TIP3   OH224972   8.378   4.600   4.206
 8344TIP3    H124973   8.445   4.533   4.222
 8344TIP3    H224974   8.320   4.561   4.141
 8345TIP3   OH224975   5.587   3.710   1.148
 8345TIP3    H124976   5.595   3.669   1.063
 8345TIP3    H224977   5.531   3.786   1.134
 8346TIP3   OH224978   4.903   2.620   1.421
 8346TIP3    H124979   4.819   2.656   1.451
 8346TIP3    H224980   4.910   2.536   1.465
 8347TIP3   OH224981   0.678   6.341   1.717
 8347TIP3    H124982   0.653   6.300   1.634
 8347TIP3    H224983   0.618   6.416   1.725
 8348TIP3   OH224984   5.917   4.518   2.375
 8348TIP3    H124985   5.909   4.569   2.456
 8348TIP3    H224986   5.889   4.430   2.400
 8349TIP3   OH224987   7.515   5.640   5.166
 8349TIP3    H124988   7.489   5.572   5.104
 8349TIP3    H224989   7.501   5.722   5.119
 8350TIP3   OH224990   0.950   4.061   3.588
 8350TIP3    H124991   0.920   4.149   3.611
 8350TIP3    H224992   1.045   4.066   3.589
 8351TIP3   OH224993   5.530   5.420   4.129
 8351TIP3    H124994   5.468   5.424   4.056
 8351TIP3    H224995   5.594   5.488   4.110
 8352TIP3   OH224996   8.231   3.560   0.977
 8352TIP3    H124997   8.204   3.614   0.903
 8352TIP3    H224998   8.178   3.481   0.970
 8353TIP3   OH224999   3.466   4.592   6.271
 8353TIP3    H125000   3.451   4.686   6.285
 8353TIP3    H225001   3.380   4.556   6.252
 8354TIP3   OH225002   4.208   6.827   0.199
 8354TIP3    H125003   4.291   6.781   0.186
 8354TIP3    H225004   4.217   6.907   0.147
 8355TIP3   OH225005   3.923   4.685   1.043
 8355TIP3    H125006   3.992   4.752   1.046
 8355TIP3    H225007   3.900   4.679   0.950
 8356TIP3   OH225008   3.757   7.866   4.608
 8356TIP3    H125009   3.782   7.887   4.517
 8356TIP3    H225010   3.838   7.836   4.648
 8357TIP3   OH225011   2.606   1.239   5.840
 8357TIP3    H125012   2.636   1.209   5.754
 8357TIP3    H225013   2.675   1.213   5.900
 8358TIP3   OH225014   7.109   0.729   1.781
 8358TIP3    H125015   7.046   0.692   1.842
 8358TIP3    H225016   7.180   0.761   1.836
 8359TIP3   OH225017   2.624   7.092   4.864
 8359TIP3    H125018   2.641   7.150   4.790
 8359TIP3    H225019   2.708   7.048   4.879
 8360TIP3   OH225020   5.375   4.520   1.190
 8360TIP3    H125021   5.416   4.573   1.122
 8360TIP3    H225022   5.393   4.567   1.271
 8361TIP3   OH225023   1.884   3.178   6.438
 8361TIP3    H125024   1.847   3.135   6.361
 8361TIP3    H225025   1.955   3.233   6.403
 8362TIP3   OH225026   4.609   7.544   5.026
 8362TIP3    H125027   4.588   7.633   4.998
 8362TIP3    H225028   4.526   7.497   5.018
 8363TIP3   OH225029   5.912   5.407   4.434
 8363TIP3    H125030   5.817   5.416   4.430
 8363TIP3    H225031   5.930   5.320   4.398
 8364TIP3   OH225032   4.894   3.232   2.875
 8364TIP3    H125033   4.930   3.194   2.795
 8364TIP3    H225034   4.960   3.296   2.902
 8365TIP3   OH225035   7.862   5.205   6.676
 8365TIP3    H125036   7.920   5.278   6.695
 8365TIP3    H225037   7.810   5.194   6.757
 8366TIP3   OH225038   0.704   4.919   2.864
 8366TIP3    H125039   0.625   4.897   2.914
 8366TIP3    H225040   0.775   4.876   2.911
 8367TIP3   OH225041   7.339   0.280   5.169
 8367TIP3    H125042   7.379   0.280   5.256
 8367TIP3    H225043   7.282   0.357   5.169
 8368TIP3   OH225044   4.590   7.756   2.252
 8368TIP3    H125045   4.645   7.722   2.323
 8368TIP3    H225046   4.651   7.777   2.182
 8369TIP3   OH225047   2.062   1.249   5.617
 8369TIP3    H125048   2.126   1.258   5.546
 8369TIP3    H225049   2.114   1.223   5.693
 8370TIP3   OH225050   2.650   4.357   1.978
 8370TIP3    H125051   2.626   4.265   1.977
 8370TIP3    H225052   2.722   4.364   1.915
 8371TIP3   OH225053   1.137   5.286   4.006
 8371TIP3    H125054   1.151   5.357   4.068
 8371TIP3    H225055   1.044   5.265   4.014
 8372TIP3   OH225056   4.232   3.280   0.693
 8372TIP3    H125057   4.214   3.190   0.721
 8372TIP3    H225058   4.180   3.292   0.614
 8373TIP3   OH225059   1.876   7.372   1.130
 8373TIP3    H125060   1.901   7.455   1.172
 8373TIP3    H225061   1.781   7.379   1.118
 8374TIP3   OH225062   0.427   2.399   2.619
 8374TIP3    H125063   0.516   2.399   2.653
 8374TIP3    H225064   0.372   2.392   2.696
 8375TIP3   OH225065   5.760   0.143   5.990
 8375TIP3    H125066   5.800   0.165   5.906
 8375TIP3    H225067   5.806   0.063   6.018
 8376TIP3   OH225068   0.153   1.992   1.527
 8376TIP3    H125069   0.115   1.934   1.461
 8376TIP3    H225070   0.190   2.064   1.478
 8377TIP3   OH225071   2.578   6.404   1.137
 8377TIP3    H125072   2.559   6.400   1.231
 8377TIP3    H225073   2.602   6.314   1.113
 8378TIP3   OH225074   6.896   1.891   2.107
 8378TIP3    H125075   6.877   1.978   2.140
 8378TIP3    H225076   6.992   1.887   2.102
 8379TIP3   OH225077   1.714   0.916   0.295
 8379TIP3    H125078   1.679   0.827   0.307
 8379TIP3    H225079   1.809   0.905   0.300
 8380TIP3   OH225080   7.693   4.421   3.457
 8380TIP3    H125081   7.787   4.422   3.477
 8380TIP3    H225082   7.650   4.437   3.540
 8381TIP3   OH225083   4.248   3.519   1.191
 8381TIP3    H125084   4.262   3.434   1.150
 8381TIP3    H225085   4.166   3.551   1.155
 8382TIP3   OH225086   6.626   0.924   6.139
 8382TIP3    H125087   6.663   0.887   6.059
 8382TIP3    H225088   6.668   1.009   6.149
 8383TIP3   OH225089   3.216   4.671   1.834
 8383TIP3    H125090   3.281   4.717   1.780
 8383TIP3    H225091   3.222   4.579   1.807
 8384TIP3   OH225092   6.107   2.647   0.395
 8384TIP3    H125093   6.028   2.666   0.345
 8384TIP3    H225094   6.075   2.604   0.475
 8385TIP3   OH225095   6.336   4.629   1.352
 8385TIP3    H125096   6.254   4.674   1.375
 8385TIP3    H225097   6.328   4.609   1.259
 8386TIP3   OH225098   4.116   4.506   5.775
 8386TIP3    H125099   4.137   4.455   5.697
 8386TIP3    H225100   4.069   4.582   5.741
 8387TIP3   OH225101   0.630   2.226   0.008
 8387TIP3    H125102   0.682   2.145   0.003
 8387TIP3    H225103   0.673   2.285  -0.054
 8388TIP3   OH225104   7.716   7.332   5.559
 8388TIP3    H125105   7.745   7.248   5.524
 8388TIP3    H225106   7.661   7.369   5.490
 8389TIP3   OH225107   8.367   7.140   3.653
 8389TIP3    H125108   8.281   7.164   3.688
 8389TIP3    H225109   8.366   7.170   3.563
 8390TIP3   OH225110   2.072   3.727   3.259
 8390TIP3    H125111   2.093   3.640   3.224
 8390TIP3    H225112   1.990   3.750   3.215
 8391TIP3   OH225113   5.392   0.421   2.359
 8391TIP3    H125114   5.357   0.496   2.408
 8391TIP3    H225115   5.428   0.459   2.280
 8392TIP3   OH225116   3.509   2.844   6.500
 8392TIP3    H125117   3.578   2.801   6.449
 8392TIP3    H225118   3.554   2.917   6.542
 8393TIP3   OH225119   1.342   2.563   0.142
 8393TIP3    H125120   1.257   2.549   0.184
 8393TIP3    H225121   1.403   2.509   0.193
 8394TIP3   OH225122   4.422   3.358   4.561
 8394TIP3    H125123   4.500   3.390   4.608
 8394TIP3    H225124   4.457   3.297   4.496
 8395TIP3   OH225125   5.356   0.530   0.871
 8395TIP3    H125126   5.318   0.526   0.959
 8395TIP3    H225127   5.419   0.458   0.868
 8396TIP3   OH225128   3.400   1.024   2.879
 8396TIP3    H125129   3.434   1.051   2.794
 8396TIP3    H225130   3.358   0.939   2.863
 8397TIP3   OH225131   0.242   2.867   5.027
 8397TIP3    H125132   0.321   2.821   5.054
 8397TIP3    H225133   0.172   2.801   5.033
 8398TIP3   OH225134   5.722   3.845   3.771
 8398TIP3    H125135   5.632   3.860   3.740
 8398TIP3    H225136   5.715   3.773   3.833
 8399TIP3   OH225137   6.650   5.247   6.760
 8399TIP3    H125138   6.670   5.176   6.821
 8399TIP3    H225139   6.726   5.251   6.703
 8400TIP3   OH225140   5.736   2.009   0.705
 8400TIP3    H125141   5.810   1.985   0.761
 8400TIP3    H225142   5.747   1.956   0.626
 8401TIP3   OH225143   6.671   2.610   3.739
 8401TIP3    H125144   6.764   2.623   3.758
 8401TIP3    H225145   6.638   2.697   3.719
 8402TIP3   OH225146   4.833   1.358   2.735
 8402TIP3    H125147   4.912   1.350   2.790
 8402TIP3    H225148   4.804   1.448   2.748
 8403TIP3   OH225149   2.251   7.442   4.517
 8403TIP3    H125150   2.168   7.395   4.509
 8403TIP3    H225151   2.273   7.434   4.610
 8404TIP3   OH225152   1.528   3.898   3.395
 8404TIP3    H125153   1.591   3.857   3.336
 8404TIP3    H225154   1.471   3.949   3.337
 8405TIP3   OH225155   6.992   4.210   3.326
 8405TIP3    H125156   6.989   4.141   3.259
 8405TIP3    H225157   6.913   4.197   3.378
 8406TIP3   OH225158   6.606   3.236   5.691
 8406TIP3    H125159   6.675   3.270   5.748
 8406TIP3    H225160   6.638   3.150   5.663
 8407TIP3   OH225161   2.942   0.713   4.802
 8407TIP3    H125162   3.031   0.686   4.825
 8407TIP3    H225163   2.902   0.737   4.885
 8408TIP3   OH225164   6.858   1.397   0.637
 8408TIP3    H125165   6.909   1.319   0.612
 8408TIP3    H225166   6.911   1.471   0.608
 8409TIP3   OH225167   2.443   6.053   3.164
 8409TIP3    H125168   2.393   6.114   3.110
 8409TIP3    H225169   2.377   5.992   3.198
 8410TIP3   OH225170   4.948   0.974   0.288
 8410TIP3    H125171   4.981   0.930   0.367
 8410TIP3    H225172   5.009   1.046   0.274
 8411TIP3   OH225173   6.272   2.994   2.924
 8411TIP3    H125174   6.238   3.040   2.847
 8411TIP3    H225175   6.329   2.926   2.888
 8412TIP3   OH225176   6.854   4.153   2.209
 8412TIP3    H125177   6.900   4.129   2.290
 8412TIP3    H225178   6.778   4.203   2.239
 8413TIP3   OH225179   0.578   7.609   1.405
 8413TIP3    H125180   0.535   7.525   1.419
 8413TIP3    H225181   0.573   7.653   1.490
 8414TIP3   OH225182   3.897   6.252   1.198
 8414TIP3    H125183   3.817   6.201   1.181
 8414TIP3    H225184   3.924   6.283   1.112
 8415TIP3   OH225185   1.698   4.472   5.080
 8415TIP3    H125186   1.711   4.396   5.025
 8415TIP3    H225187   1.603   4.487   5.078
 8416TIP3   OH225188   3.367   1.366   6.675
 8416TIP3    H125189   3.351   1.352   6.768
 8416TIP3    H225190   3.456   1.334   6.660
 8417TIP3   OH225191   7.634   7.530   2.786
 8417TIP3    H125192   7.586   7.592   2.841
 8417TIP3    H225193   7.678   7.472   2.848
 8418TIP3   OH225194   3.349   4.790   0.607
 8418TIP3    H125195   3.416   4.792   0.675
 8418TIP3    H225196   3.266   4.782   0.654
 8419TIP3   OH225197   5.424   5.302   6.777
 8419TIP3    H125198   5.481   5.239   6.822
 8419TIP3    H225199   5.435   5.383   6.827
 8420TIP3   OH225200   3.798   4.064   3.577
 8420TIP3    H125201   3.771   3.973   3.564
 8420TIP3    H225202   3.718   4.109   3.603
 8421TIP3   OH225203   2.484   5.989   0.567
 8421TIP3    H125204   2.472   5.968   0.660
 8421TIP3    H225205   2.442   5.917   0.520
 8422TIP3   OH225206   3.306   5.769   0.995
 8422TIP3    H125207   3.331   5.855   0.962
 8422TIP3    H225208   3.279   5.721   0.917
 8423TIP3   OH225209   1.272   0.586   3.139
 8423TIP3    H125210   1.208   0.540   3.084
 8423TIP3    H225211   1.225   0.664   3.170
 8424TIP3   OH225212   4.142   0.349   0.947
 8424TIP3    H125213   4.052   0.379   0.935
 8424TIP3    H225214   4.184   0.418   0.998
 8425TIP3   OH225215   4.238   5.479   2.165
 8425TIP3    H125216   4.331   5.499   2.154
 8425TIP3    H225217   4.206   5.547   2.224
 8426TIP3   OH225218   5.451   7.437   1.821
 8426TIP3    H125219   5.544   7.431   1.842
 8426TIP3    H225220   5.448   7.441   1.725
 8427TIP3   OH225221   1.860   1.734   2.120
 8427TIP3    H125222   1.868   1.770   2.031
 8427TIP3    H225223   1.950   1.709   2.142
 8428TIP3   OH225224   2.665   0.449   0.207
 8428TIP3    H125225   2.623   0.451   0.293
 8428TIP3    H225226   2.694   0.539   0.192
 8429TIP3   OH225227   4.790   7.157   3.112
 8429TIP3    H125228   4.829   7.075   3.081
 8429TIP3    H225229   4.846   7.184   3.185
 8430TIP3   OH225230   1.686   5.711   3.425
 8430TIP3    H125231   1.744   5.641   3.455
 8430TIP3    H225232   1.635   5.735   3.503
 8431TIP3   OH225233   7.372   3.455   4.953
 8431TIP3    H125234   7.310   3.402   5.001
 8431TIP3    H225235   7.353   3.545   4.979
 8432TIP3   OH225236   5.992   4.541   4.954
 8432TIP3    H125237   5.961   4.514   4.867
 8432TIP3    H225238   5.938   4.490   5.015
 8433TIP3   OH225239   8.146   2.877   2.166
 8433TIP3    H125240   8.097   2.806   2.208
 8433TIP3    H225241   8.080   2.925   2.116
 8434TIP3   OH225242   0.952   2.815   2.914
 8434TIP3    H125243   1.018   2.874   2.951
 8434TIP3    H225244   0.876   2.871   2.897
 8435TIP3   OH225245   6.953   6.970   0.168
 8435TIP3    H125246   6.863   6.999   0.149
 8435TIP3    H225247   6.980   6.925   0.088
 8436TIP3   OH225248   3.436   4.539   4.993
 8436TIP3    H125249   3.493   4.556   4.918
 8436TIP3    H225250   3.493   4.498   5.058
 8437TIP3   OH225251   6.714   0.106   3.147
 8437TIP3    H125252   6.759   0.185   3.176
 8437TIP3    H225253   6.657   0.135   3.076
 8438TIP3   OH225254   1.954   0.672   1.133
 8438TIP3    H125255   2.048   0.674   1.155
 8438TIP3    H225256   1.945   0.593   1.079
 8439TIP3   OH225257   6.087   5.042   1.161
 8439TIP3    H125258   6.167   5.064   1.113
 8439TIP3    H225259   6.064   4.954   1.130
 8440TIP3   OH225260   6.150   5.372   0.564
 8440TIP3    H125261   6.143   5.398   0.656
 8440TIP3    H225262   6.068   5.400   0.524
 8441TIP3   OH225263   5.865   4.274   2.512
 8441TIP3    H125264   5.790   4.237   2.559
 8441TIP3    H225265   5.920   4.198   2.491
 8442TIP3   OH225266   6.976   5.345   6.354
 8442TIP3    H125267   6.971   5.401   6.277
 8442TIP3    H225268   6.885   5.322   6.372
 8443TIP3   OH225269   0.620   6.411   0.174
 8443TIP3    H125270   0.546   6.350   0.170
 8443TIP3    H225271   0.583   6.495   0.149
 8444TIP3   OH225272   1.148   5.270   4.358
 8444TIP3    H125273   1.118   5.179   4.348
 8444TIP3    H225274   1.241   5.266   4.338
 8445TIP3   OH225275   4.928   1.011   5.119
 8445TIP3    H125276   4.871   0.990   5.193
 8445TIP3    H225277   4.920   0.936   5.060
 8446TIP3   OH225278   1.013   7.195   1.587
 8446TIP3    H125279   1.034   7.215   1.678
 8446TIP3    H225280   0.930   7.146   1.592
 8447TIP3   OH225281   1.503   3.440   5.616
 8447TIP3    H125282   1.439   3.511   5.607
 8447TIP3    H225283   1.586   3.480   5.591
 8448TIP3   OH225284   5.392   4.371   1.573
 8448TIP3    H125285   5.386   4.467   1.576
 8448TIP3    H225286   5.303   4.341   1.592
 8449TIP3   OH225287   1.357   3.337   2.495
 8449TIP3    H125288   1.418   3.409   2.481
 8449TIP3    H225289   1.286   3.375   2.547
 8450TIP3   OH225290   2.678   4.889   2.785
 8450TIP3    H125291   2.650   4.816   2.729
 8450TIP3    H225292   2.633   4.965   2.749
 8451TIP3   OH225293   4.973   7.008   1.110
 8451TIP3    H125294   5.004   7.040   1.025
 8451TIP3    H225295   4.929   6.925   1.089
 8452TIP3   OH225296   6.930   1.308   3.787
 8452TIP3    H125297   6.880   1.240   3.832
 8452TIP3    H225298   6.932   1.382   3.848
 8453TIP3   OH225299   4.547   4.129   0.422
 8453TIP3    H125300   4.483   4.102   0.356
 8453TIP3    H225301   4.619   4.166   0.371
 8454TIP3   OH225302   5.740   5.164   1.881
 8454TIP3    H125303   5.685   5.198   1.952
 8454TIP3    H225304   5.829   5.179   1.910
 8455TIP3   OH225305   2.981   3.545   6.197
 8455TIP3    H125306   2.936   3.566   6.115
 8455TIP3    H225307   2.991   3.450   6.196
 8456TIP3   OH225308   8.271   0.097   6.451
 8456TIP3    H125309   8.366   0.094   6.436
 8456TIP3    H225310   8.233   0.095   6.364
 8457TIP3   OH225311   5.861   3.367   2.369
 8457TIP3    H125312   5.956   3.376   2.359
 8457TIP3    H225313   5.843   3.392   2.460
 8458TIP3   OH225314   6.153   6.740   3.545
 8458TIP3    H125315   6.082   6.694   3.589
 8458TIP3    H225316   6.198   6.672   3.496
 8459TIP3   OH225317   6.857   2.581   1.840
 8459TIP3    H125318   6.927   2.605   1.902
 8459TIP3    H225319   6.778   2.577   1.894
 8460TIP3   OH225320   4.392   1.883   0.549
 8460TIP3    H125321   4.324   1.831   0.591
 8460TIP3    H225322   4.464   1.883   0.613
 8461TIP3   OH225323   2.404   0.555   5.860
 8461TIP3    H125324   2.350   0.477   5.850
 8461TIP3    H225325   2.470   0.549   5.791
 8462TIP3   OH225326   7.839   3.415   0.753
 8462TIP3    H125327   7.813   3.340   0.699
 8462TIP3    H225328   7.889   3.470   0.694
 8463TIP3   OH225329   4.446   5.216   1.913
 8463TIP3    H125330   4.359   5.254   1.903
 8463TIP3    H225331   4.504   5.276   1.868
 8464TIP3   OH225332   3.269   6.604   5.267
 8464TIP3    H125333   3.228   6.677   5.221
 8464TIP3    H225334   3.202   6.535   5.266
 8465TIP3   OH225335   8.033   6.356   5.198
 8465TIP3    H125336   7.979   6.335   5.123
 8465TIP3    H225337   8.014   6.448   5.217
 8466TIP3   OH225338   2.947   1.027   3.908
 8466TIP3    H125339   3.032   1.058   3.940
 8466TIP3    H225340   2.951   0.932   3.917
 8467TIP3   OH225341   4.755   0.584   2.981
 8467TIP3    H125342   4.739   0.531   2.903
 8467TIP3    H225343   4.837   0.630   2.963
 8468TIP3   OH225344   7.450   6.366   1.209
 8468TIP3    H125345   7.448   6.395   1.117
 8468TIP3    H225346   7.442   6.271   1.204
 8469TIP3   OH225347   5.080   5.774   4.313
 8469TIP3    H125348   5.042   5.756   4.227
 8469TIP3    H225349   5.005   5.772   4.373
 8470TIP3   OH225350   4.280   7.518   2.937
 8470TIP3    H125351   4.275   7.447   3.001
 8470TIP3    H225352   4.229   7.486   2.862
 8471TIP3   OH225353   6.017   2.196   6.083
 8471TIP3    H125354   6.041   2.150   6.002
 8471TIP3    H225355   5.938   2.151   6.114
 8472TIP3   OH225356   4.873  -0.026   4.756
 8472TIP3    H125357   4.799   0.019   4.716
 8472TIP3    H225358   4.895   0.027   4.832
 8473TIP3   OH225359   5.732   4.721   0.948
 8473TIP3    H125360   5.706   4.777   0.874
 8473TIP3    H225361   5.662   4.732   1.012
 8474TIP3   OH225362   0.756   0.392   2.845
 8474TIP3    H125363   0.710   0.357   2.769
 8474TIP3    H225364   0.809   0.464   2.811
 8475TIP3   OH225365   2.217   2.159   0.804
 8475TIP3    H125366   2.242   2.115   0.722
 8475TIP3    H225367   2.194   2.087   0.863
 8476TIP3   OH225368   7.042   7.568   5.548
 8476TIP3    H125369   7.047   7.548   5.455
 8476TIP3    H225370   7.030   7.663   5.551
 8477TIP3   OH225371   6.029   7.068   4.458
 8477TIP3    H125372   6.100   7.116   4.415
 8477TIP3    H225373   5.999   7.006   4.391
 8478TIP3   OH225374   0.818   7.141   0.364
 8478TIP3    H125375   0.749   7.135   0.430
 8478TIP3    H225376   0.810   7.230   0.330
 8479TIP3   OH225377   6.816   5.434   2.201
 8479TIP3    H125378   6.797   5.479   2.283
 8479TIP3    H225379   6.774   5.488   2.134
 8480TIP3   OH225380   1.552   5.623   1.310
 8480TIP3    H125381   1.519   5.635   1.399
 8480TIP3    H225382   1.607   5.700   1.294
 8481TIP3   OH225383   8.086   4.570   4.646
 8481TIP3    H125384   8.014   4.624   4.678
 8481TIP3    H225385   8.154   4.578   4.713
 8482TIP3   OH225386   7.386   5.422   2.912
 8482TIP3    H125387   7.445   5.396   2.983
 8482TIP3    H225388   7.360   5.511   2.933
 8483TIP3   OH225389   7.242   6.728   2.068
 8483TIP3    H125390   7.152   6.732   2.101
 8483TIP3    H225391   7.232   6.737   1.973
 8484TIP3   OH225392   2.794   5.834   4.862
 8484TIP3    H125393   2.816   5.821   4.770
 8484TIP3    H225394   2.862   5.894   4.895
 8485TIP3   OH225395   5.471   3.004   5.127
 8485TIP3    H125396   5.485   2.910   5.118
 8485TIP3    H225397   5.380   3.012   5.156
 8486TIP3   OH225398   1.739   1.417   3.359
 8486TIP3    H125399   1.698   1.446   3.277
 8486TIP3    H225400   1.789   1.493   3.389
 8487TIP3   OH225401   6.439   3.225   2.499
 8487TIP3    H125402   6.493   3.199   2.574
 8487TIP3    H225403   6.502   3.250   2.431
 8488TIP3   OH225404   4.481   6.597   4.099
 8488TIP3    H125405   4.453   6.508   4.117
 8488TIP3    H225406   4.526   6.624   4.179
 8489TIP3   OH225407   2.538   0.342   4.288
 8489TIP3    H125408   2.501   0.409   4.346
 8489TIP3    H225409   2.530   0.261   4.338
 8490TIP3   OH225410   7.727   1.623   3.207
 8490TIP3    H125411   7.797   1.652   3.149
 8490TIP3    H225412   7.723   1.528   3.194
 8491TIP3   OH225413   1.153   7.179   1.823
 8491TIP3    H125414   1.075   7.172   1.878
 8491TIP3    H225415   1.199   7.256   1.858
 8492TIP3   OH225416   3.892   3.651   4.371
 8492TIP3    H125417   3.981   3.670   4.400
 8492TIP3    H225418   3.836   3.681   4.442
 8493TIP3   OH225419   5.919   0.259   4.608
 8493TIP3    H125420   6.004   0.220   4.626
 8493TIP3    H225421   5.939   0.339   4.560
 8494TIP3   OH225422   7.795   6.940   3.701
 8494TIP3    H125423   7.702   6.939   3.724
 8494TIP3    H225424   7.799   6.991   3.620
 8495TIP3   OH225425   7.612   7.126   2.813
 8495TIP3    H125426   7.643   7.043   2.778
 8495TIP3    H225427   7.689   7.164   2.856
 8496TIP3   OH225428   2.695   1.074   6.217
 8496TIP3    H125429   2.749   1.010   6.170
 8496TIP3    H225430   2.683   1.036   6.304
 8497TIP3   OH225431   1.941   1.967   0.028
 8497TIP3    H125432   1.861   1.925  -0.007
 8497TIP3    H225433   2.010   1.940  -0.033
 8498TIP3   OH225434   2.207   0.959   6.162
 8498TIP3    H125435   2.134   0.905   6.193
 8498TIP3    H225436   2.269   0.897   6.123
 8499TIP3   OH225437   7.541   1.316   2.784
 8499TIP3    H125438   7.496   1.322   2.699
 8499TIP3    H225439   7.510   1.234   2.821
 8500TIP3   OH225440   7.062   6.613   4.376
 8500TIP3    H125441   6.978   6.589   4.338
 8500TIP3    H225442   7.127   6.587   4.310
 8501TIP3   OH225443   1.613   7.516   4.933
 8501TIP3    H125444   1.695   7.547   4.894
 8501TIP3    H225445   1.609   7.423   4.909
 8502TIP3   OH225446   1.177   2.971   5.877
 8502TIP3    H125447   1.210   3.043   5.931
 8502TIP3    H225448   1.174   2.896   5.937
 8503TIP3   OH225449   6.306   0.615   4.509
 8503TIP3    H125450   6.346   0.696   4.477
 8503TIP3    H225451   6.291   0.563   4.430
 8504TIP3   OH225452   0.390   2.088   6.247
 8504TIP3    H125453   0.336   2.009   6.257
 8504TIP3    H225454   0.444   2.070   6.170
 8505TIP3   OH225455   4.343   6.667   2.599
 8505TIP3    H125456   4.429   6.641   2.631
 8505TIP3    H225457   4.338   6.761   2.615
 8506TIP3   OH225458   4.291   7.349   6.135
 8506TIP3    H125459   4.207   7.358   6.090
 8506TIP3    H225460   4.286   7.411   6.208
 8507TIP3   OH225461   0.007   0.529   4.711
 8507TIP3    H125462   0.079   0.485   4.665
 8507TIP3    H225463   0.050   0.597   4.763
 8508TIP3   OH225464   6.672   3.595   6.822
 8508TIP3    H125465   6.636   3.655   6.756
 8508TIP3    H225466   6.753   3.562   6.783
 8509TIP3   OH225467   0.908   3.959   3.327
 8509TIP3    H125468   0.899   3.866   3.311
 8509TIP3    H225469   0.902   3.968   3.422
 8510TIP3   OH225470   6.507   0.699   4.714
 8510TIP3    H125471   6.459   0.708   4.631
 8510TIP3    H225472   6.481   0.613   4.747
 8511TIP3   OH225473   5.854   5.306   0.170
 8511TIP3    H125474   5.790   5.243   0.137
 8511TIP3    H225475   5.938   5.278   0.133
 8512TIP3   OH225476   0.446   1.176   0.390
 8512TIP3    H125477   0.384   1.201   0.321
 8512TIP3    H225478   0.445   1.080   0.389
 8513TIP3   OH225479   6.283   6.953   1.057
 8513TIP3    H125480   6.276   6.910   0.971
 8513TIP3    H225481   6.194   6.948   1.093
 8514TIP3   OH225482   5.405   1.536   3.635
 8514TIP3    H125483   5.447   1.516   3.719
 8514TIP3    H225484   5.312   1.539   3.654
 8515TIP3   OH225485   4.989   4.296   4.909
 8515TIP3    H125486   4.932   4.221   4.927
 8515TIP3    H225487   5.019   4.282   4.819
 8516TIP3   OH225488   6.508   7.023   6.708
 8516TIP3    H125489   6.501   6.950   6.646
 8516TIP3    H225490   6.428   7.074   6.694
 8517TIP3   OH225491   4.114   4.929   1.683
 8517TIP3    H125492   4.201   4.935   1.722
 8517TIP3    H225493   4.083   4.842   1.710
 8518TIP3   OH225494   8.239   5.994   2.464
 8518TIP3    H125495   8.260   5.993   2.370
 8518TIP3    H225496   8.148   6.024   2.467
 8519TIP3   OH225497   3.372   1.345   2.693
 8519TIP3    H125498   3.422   1.424   2.712
 8519TIP3    H225499   3.426   1.296   2.631
 8520TIP3   OH225500   6.953   4.201   6.407
 8520TIP3    H125501   6.858   4.198   6.393
 8520TIP3    H225502   6.966   4.270   6.471
 8521TIP3   OH225503   3.067   6.552   5.679
 8521TIP3    H125504   3.068   6.646   5.663
 8521TIP3    H225505   2.978   6.525   5.656
 8522TIP3   OH225506   2.652   0.540   1.639
 8522TIP3    H125507   2.714   0.553   1.711
 8522TIP3    H225508   2.582   0.487   1.676
 8523TIP3   OH225509   1.788   1.316   5.982
 8523TIP3    H125510   1.766   1.407   6.002
 8523TIP3    H225511   1.825   1.283   6.064
 8524TIP3   OH225512   2.327   1.687   6.873
 8524TIP3    H125513   2.336   1.639   6.790
 8524TIP3    H225514   2.397   1.752   6.871
 8525TIP3   OH225515   7.756   6.385   2.402
 8525TIP3    H125516   7.836   6.393   2.454
 8525TIP3    H225517   7.745   6.470   2.361
 8526TIP3   OH225518   6.382   3.452   5.990
 8526TIP3    H125519   6.424   3.504   5.922
 8526TIP3    H225520   6.415   3.488   6.072
 8527TIP3   OH225521   3.179   7.912   6.018
 8527TIP3    H125522   3.270   7.889   6.040
 8527TIP3    H225523   3.154   7.850   5.950
 8528TIP3   OH225524   6.477   1.042   5.829
 8528TIP3    H125525   6.480   1.102   5.755
 8528TIP3    H225526   6.542   0.975   5.807
 8529TIP3   OH225527   4.391   2.113   4.010
 8529TIP3    H125528   4.354   2.031   4.043
 8529TIP3    H225529   4.476   2.088   3.975
 8530TIP3   OH225530   7.368   2.129   5.052
 8530TIP3    H125531   7.356   2.169   4.965
 8530TIP3    H225532   7.451   2.165   5.083
 8531TIP3   OH225533   5.490   3.411   1.033
 8531TIP3    H125534   5.509   3.362   0.952
 8531TIP3    H225535   5.403   3.447   1.019
 8532TIP3   OH225536   2.959   3.584   6.869
 8532TIP3    H125537   2.944   3.534   6.949
 8532TIP3    H225538   2.887   3.558   6.811
 8533TIP3   OH225539   6.479   0.120   3.941
 8533TIP3    H125540   6.435   0.123   4.026
 8533TIP3    H225541   6.423   0.066   3.886
 8534TIP3   OH225542   3.037   7.036   5.582
 8534TIP3    H125543   3.043   6.954   5.631
 8534TIP3    H225544   2.964   7.023   5.522
 8535TIP3   OH225545   3.062   0.628   0.228
 8535TIP3    H125546   3.138   0.664   0.181
 8535TIP3    H225547   3.081   0.645   0.320
 8536TIP3   OH225548   4.671   1.888   2.815
 8536TIP3    H125549   4.744   1.826   2.810
 8536TIP3    H225550   4.670   1.931   2.729
 8537TIP3   OH225551   0.941   7.167   2.102
 8537TIP3    H125552   0.860   7.206   2.071
 8537TIP3    H225553   0.992   7.241   2.137
 8538TIP3   OH225554   2.563   2.228   0.830
 8538TIP3    H125555   2.493   2.259   0.887
 8538TIP3    H225556   2.601   2.307   0.792
 8539TIP3   OH225557   1.561   4.661   3.779
 8539TIP3    H125558   1.471   4.684   3.756
 8539TIP3    H225559   1.555   4.628   3.869
 8540TIP3   OH225560   1.440   7.796   2.156
 8540TIP3    H125561   1.510   7.831   2.101
 8540TIP3    H225562   1.380   7.870   2.167
 8541TIP3   OH225563   0.418   6.013   2.194
 8541TIP3    H125564   0.408   6.078   2.264
 8541TIP3    H225565   0.433   5.931   2.240
 8542TIP3   OH225566   3.837   2.347   1.916
 8542TIP3    H125567   3.764   2.352   1.978
 8542TIP3    H225568   3.796   2.350   1.830
 8543TIP3   OH225569   4.788   3.365   5.405
 8543TIP3    H125570   4.701   3.390   5.375
 8543TIP3    H225571   4.843   3.442   5.387
 8544TIP3   OH225572   1.212   7.200   5.418
 8544TIP3    H125573   1.300   7.205   5.382
 8544TIP3    H225574   1.215   7.251   5.498
 8545TIP3   OH225575   7.857   2.173   2.890
 8545TIP3    H125576   7.950   2.167   2.868
 8545TIP3    H225577   7.812   2.134   2.815
 8546TIP3   OH225578   4.269   6.195   3.343
 8546TIP3    H125579   4.328   6.185   3.417
 8546TIP3    H225580   4.193   6.140   3.365
 8547TIP3   OH225581   7.133   7.685   1.421
 8547TIP3    H125582   7.125   7.775   1.453
 8547TIP3    H225583   7.126   7.631   1.500
 8548TIP3   OH225584   3.975   3.593   2.452
 8548TIP3    H125585   3.899   3.556   2.406
 8548TIP3    H225586   4.011   3.519   2.502
 8549TIP3   OH225587   2.236   2.718   0.681
 8549TIP3    H125588   2.268   2.630   0.699
 8549TIP3    H225589   2.272   2.739   0.595
 8550TIP3   OH225590   2.729   0.090   6.470
 8550TIP3    H125591   2.779   0.030   6.414
 8550TIP3    H225592   2.637   0.072   6.449
 8551TIP3   OH225593   2.979   5.571   1.355
 8551TIP3    H125594   3.021   5.563   1.441
 8551TIP3    H225595   2.896   5.616   1.374
 8552TIP3   OH225596   4.241   1.270   3.601
 8552TIP3    H125597   4.263   1.233   3.686
 8552TIP3    H225598   4.145   1.275   3.601
 8553TIP3   OH225599   8.283   2.825   0.309
 8553TIP3    H125600   8.252   2.857   0.224
 8553TIP3    H225601   8.312   2.904   0.355
 8554TIP3   OH225602   5.795   7.109   1.933
 8554TIP3    H125603   5.791   7.059   2.015
 8554TIP3    H225604   5.875   7.078   1.890
 8555TIP3   OH225605   5.040   2.336   0.957
 8555TIP3    H125606   4.981   2.406   0.931
 8555TIP3    H225607   5.001   2.301   1.037
 8556TIP3   OH225608   3.654  -0.017   3.199
 8556TIP3    H125609   3.641   0.011   3.109
 8556TIP3    H225610   3.643   0.062   3.251
 8557TIP3   OH225611   1.067   4.785   3.895
 8557TIP3    H125612   1.020   4.769   3.977
 8557TIP3    H225613   1.057   4.879   3.879
 8558TIP3   OH225614   5.148   6.793   4.591
 8558TIP3    H125615   5.055   6.772   4.593
 8558TIP3    H225616   5.189   6.728   4.648
 8559TIP3   OH225617   5.602   2.087   4.526
 8559TIP3    H125618   5.656   2.015   4.559
 8559TIP3    H225619   5.579   2.060   4.437
 8560TIP3   OH225620   8.327   0.985   1.714
 8560TIP3    H125621   8.383   1.054   1.678
 8560TIP3    H225622   8.261   1.031   1.765
 8561TIP3   OH225623   4.637   1.154   3.852
 8561TIP3    H125624   4.694   1.148   3.929
 8561TIP3    H225625   4.673   1.090   3.791
 8562TIP3   OH225626   2.654   2.555   3.806
 8562TIP3    H125627   2.657   2.649   3.821
 8562TIP3    H225628   2.674   2.544   3.713
 8563TIP3   OH225629   7.863   1.558   0.883
 8563TIP3    H125630   7.862   1.638   0.830
 8563TIP3    H225631   7.781   1.560   0.932
 8564TIP3   OH225632   4.747   1.659   0.125
 8564TIP3    H125633   4.722   1.641   0.035
 8564TIP3    H225634   4.729   1.578   0.173
 8565TIP3   OH225635   1.924   0.212   4.365
 8565TIP3    H125636   1.936   0.120   4.384
 8565TIP3    H225637   1.847   0.216   4.308
 8566TIP3   OH225638   7.133   4.124   2.951
 8566TIP3    H125639   7.099   4.095   2.866
 8566TIP3    H225640   7.058   4.117   3.010
 8567TIP3   OH225641   2.213   1.294   5.869
 8567TIP3    H125642   2.179   1.384   5.872
 8567TIP3    H225643   2.144   1.240   5.907
 8568TIP3   OH225644   8.215   1.466   5.361
 8568TIP3    H125645   8.157   1.398   5.395
 8568TIP3    H225646   8.210   1.537   5.426
 8569TIP3   OH225647   2.319   7.308   0.302
 8569TIP3    H125648   2.384   7.371   0.332
 8569TIP3    H225649   2.239   7.333   0.347
 8570TIP3   OH225650   2.335   1.845   3.771
 8570TIP3    H125651   2.276   1.891   3.711
 8570TIP3    H225652   2.282   1.830   3.849
 8571TIP3   OH225653   2.934   6.610   4.692
 8571TIP3    H125654   3.028   6.610   4.712
 8571TIP3    H225655   2.899   6.540   4.748
 8572TIP3   OH225656   4.026   0.191   1.794
 8572TIP3    H125657   3.956   0.209   1.858
 8572TIP3    H225658   4.011   0.101   1.768
 8573TIP3   OH225659   4.231   6.133   6.356
 8573TIP3    H125660   4.245   6.224   6.330
 8573TIP3    H225661   4.313   6.108   6.400
 8574TIP3   OH225662   7.558   1.613   5.740
 8574TIP3    H125663   7.625   1.622   5.807
 8574TIP3    H225664   7.476   1.607   5.788
 8575TIP3   OH225665   6.460   5.827   1.928
 8575TIP3    H125666   6.454   5.922   1.915
 8575TIP3    H225667   6.537   5.800   1.878
 8576TIP3   OH225668   4.477   6.851   0.958
 8576TIP3    H125669   4.536   6.788   0.916
 8576TIP3    H225670   4.528   6.886   1.031
 8577TIP3   OH225671   2.739   1.820   1.591
 8577TIP3    H125672   2.744   1.794   1.500
 8577TIP3    H225673   2.652   1.858   1.601
 8578TIP3   OH225674   8.147   2.910   6.191
 8578TIP3    H125675   8.158   2.825   6.150
 8578TIP3    H225676   8.235   2.949   6.190
 8579TIP3   OH225677   5.645   3.700   2.368
 8579TIP3    H125678   5.628   3.742   2.453
 8579TIP3    H225679   5.732   3.731   2.343
 8580TIP3   OH225680   1.271   4.677   3.711
 8580TIP3    H125681   1.232   4.719   3.634
 8580TIP3    H225682   1.240   4.730   3.785
 8581TIP3   OH225683   6.300   7.275   2.478
 8581TIP3    H125684   6.207   7.284   2.496
 8581TIP3    H225685   6.341   7.261   2.563
 8582TIP3   OH225686   2.501   6.212   2.203
 8582TIP3    H125687   2.586   6.256   2.210
 8582TIP3    H225688   2.443   6.278   2.164
 8583TIP3   OH225689   0.721   6.768   4.022
 8583TIP3    H125690   0.642   6.739   3.976
 8583TIP3    H225691   0.715   6.864   4.021
 8584TIP3   OH225692   7.192   0.087   1.675
 8584TIP3    H125693   7.190   0.162   1.616
 8584TIP3    H225694   7.282   0.053   1.667
 8585TIP3   OH225695   6.867   2.458   4.803
 8585TIP3    H125696   6.828   2.380   4.765
 8585TIP3    H225697   6.944   2.426   4.851
 8586TIP3   OH225698   4.356   3.375   1.428
 8586TIP3    H125699   4.361   3.300   1.370
 8586TIP3    H225700   4.309   3.442   1.377
 8587TIP3   OH225701   5.183   6.024   4.305
 8587TIP3    H125702   5.145   5.941   4.335
 8587TIP3    H225703   5.250   5.998   4.242
 8588TIP3   OH225704   3.032   1.968   5.116
 8588TIP3    H125705   3.059   2.000   5.031
 8588TIP3    H225706   3.071   2.028   5.179
 8589TIP3   OH225707   8.323   2.401   1.267
 8589TIP3    H125708   8.393   2.466   1.265
 8589TIP3    H225709   8.365   2.319   1.238
 8590TIP3   OH225710   3.645   1.532   0.413
 8590TIP3    H125711   3.723   1.522   0.468
 8590TIP3    H225712   3.617   1.443   0.393
 8591TIP3   OH225713   6.246   6.686   2.689
 8591TIP3    H125714   6.324   6.694   2.634
 8591TIP3    H225715   6.202   6.607   2.658
 8592TIP3   OH225716   1.145   2.565   0.951
 8592TIP3    H125717   1.122   2.478   0.919
 8592TIP3    H225718   1.125   2.563   1.044
 8593TIP3   OH225719   2.580   1.383   6.703
 8593TIP3    H125720   2.534   1.319   6.757
 8593TIP3    H225721   2.662   1.399   6.749
 8594TIP3   OH225722   6.523   1.437   3.267
 8594TIP3    H125723   6.457   1.489   3.313
 8594TIP3    H225724   6.605   1.460   3.310
 8595TIP3   OH225725   1.119   4.892   6.252
 8595TIP3    H125726   1.037   4.900   6.299
 8595TIP3    H225727   1.163   4.977   6.265
 8596TIP3   OH225728   1.364   0.045   4.222
 8596TIP3    H125729   1.377   0.114   4.157
 8596TIP3    H225730   1.339   0.092   4.302
 8597TIP3   OH225731   0.154   7.655   2.179
 8597TIP3    H125732   0.111   7.622   2.258
 8597TIP3    H225733   0.222   7.714   2.211
 8598TIP3   OH225734   5.299   4.116   5.170
 8598TIP3    H125735   5.344   4.127   5.254
 8598TIP3    H225736   5.369   4.091   5.109
 8599TIP3   OH225737   1.058   6.737   6.469
 8599TIP3    H125738   1.093   6.826   6.469
 8599TIP3    H225739   0.964   6.748   6.484
 8600TIP3   OH225740   2.859   2.353   5.632
 8600TIP3    H125741   2.884   2.356   5.724
 8600TIP3    H225742   2.838   2.261   5.616
 8601TIP3   OH225743   7.956   3.011   3.795
 8601TIP3    H125744   8.041   3.028   3.755
 8601TIP3    H225745   7.969   2.932   3.847
 8602TIP3   OH225746   5.849   0.233   2.643
 8602TIP3    H125747   5.844   0.200   2.733
 8602TIP3    H225748   5.913   0.175   2.601
 8603TIP3   OH225749   4.273   6.615   6.764
 8603TIP3    H125750   4.217   6.601   6.840
 8603TIP3    H225751   4.357   6.578   6.789
 8604TIP3   OH225752   7.653   2.182   1.455
 8604TIP3    H125753   7.600   2.192   1.375
 8604TIP3    H225754   7.728   2.130   1.428
 8605TIP3   OH225755   1.886   2.972   4.619
 8605TIP3    H125756   1.942   2.981   4.541
 8605TIP3    H225757   1.948   2.958   4.691
 8606TIP3   OH225758   4.062   0.903   0.665
 8606TIP3    H125759   4.067   0.998   0.650
 8606TIP3    H225760   3.992   0.874   0.606
 8607TIP3   OH225761   3.537   3.217   2.380
 8607TIP3    H125762   3.497   3.302   2.400
 8607TIP3    H225763   3.598   3.202   2.452
 8608TIP3   OH225764   6.998   5.005   0.368
 8608TIP3    H125765   6.984   5.100   0.363
 8608TIP3    H225766   6.911   4.967   0.354
 8609TIP3   OH225767   0.398   3.521   2.555
 8609TIP3    H125768   0.392   3.578   2.632
 8609TIP3    H225769   0.485   3.539   2.520
 8610TIP3   OH225770   3.962   1.321   3.637
 8610TIP3    H125771   3.919   1.284   3.714
 8610TIP3    H225772   3.918   1.404   3.622
 8611TIP3   OH225773   4.092  -0.057   6.223
 8611TIP3    H125774   4.117  -0.128   6.282
 8611TIP3    H225775   4.013  -0.019   6.263
 8612TIP3   OH225776   3.007   1.429   5.637
 8612TIP3    H125777   3.056   1.483   5.699
 8612TIP3    H225778   3.017   1.340   5.670
 8613TIP3   OH225779   6.441   2.420   5.197
 8613TIP3    H125780   6.448   2.360   5.272
 8613TIP3    H225781   6.463   2.506   5.233
 8614TIP3   OH225782   0.766   7.948   5.307
 8614TIP3    H125783   0.732   8.030   5.270
 8614TIP3    H225784   0.740   7.881   5.243
 8615TIP3   OH225785   6.500   7.165   3.912
 8615TIP3    H125786   6.515   7.240   3.855
 8615TIP3    H225787   6.504   7.201   4.000
 8616TIP3   OH225788   0.730   3.293   1.526
 8616TIP3    H125789   0.769   3.361   1.470
 8616TIP3    H225790   0.691   3.342   1.599
 8617TIP3   OH225791   3.564   5.347   4.496
 8617TIP3    H125792   3.513   5.410   4.548
 8617TIP3    H225793   3.515   5.339   4.414
 8618TIP3   OH225794   2.224   6.212   1.596
 8618TIP3    H125795   2.280   6.181   1.666
 8618TIP3    H225796   2.277   6.278   1.550
 8619TIP3   OH225797   4.062   0.806   3.869
 8619TIP3    H125798   4.018   0.890   3.883
 8619TIP3    H225799   4.144   0.829   3.826
 8620TIP3   OH225800   1.299   6.340   1.477
 8620TIP3    H125801   1.234   6.357   1.408
 8620TIP3    H225802   1.361   6.413   1.470
 8621TIP3   OH225803   6.960   4.159   0.837
 8621TIP3    H125804   7.006   4.188   0.758
 8621TIP3    H225805   7.015   4.089   0.872
 8622TIP3   OH225806   2.837   2.531   1.832
 8622TIP3    H125807   2.849   2.569   1.919
 8622TIP3    H225808   2.912   2.473   1.820
 8623TIP3   OH225809   6.532   2.024   4.532
 8623TIP3    H125810   6.603   1.985   4.584
 8623TIP3    H225811   6.456   2.020   4.590
 8624TIP3   OH225812   3.197   1.210   3.687
 8624TIP3    H125813   3.177   1.282   3.747
 8624TIP3    H225814   3.229   1.253   3.607
 8625TIP3   OH225815   5.777   5.449   5.131
 8625TIP3    H125816   5.814   5.537   5.117
 8625TIP3    H225817   5.831   5.392   5.076
 8626TIP3   OH225818   5.759   7.398   5.169
 8626TIP3    H125819   5.704   7.409   5.247
 8626TIP3    H225820   5.760   7.304   5.154
 8627TIP3   OH225821   0.544   7.128   0.470
 8627TIP3    H125822   0.484   7.200   0.490
 8627TIP3    H225823   0.503   7.052   0.510
 8628TIP3   OH225824   0.714   0.350   0.701
 8628TIP3    H125825   0.748   0.395   0.624
 8628TIP3    H225826   0.752   0.262   0.696
 8629TIP3   OH225827   6.220   3.718   0.177
 8629TIP3    H125828   6.129   3.749   0.184
 8629TIP3    H225829   6.258   3.772   0.108
 8630TIP3   OH225830   7.305   0.900   5.352
 8630TIP3    H125831   7.247   0.896   5.276
 8630TIP3    H225832   7.381   0.846   5.328
 8631TIP3   OH225833   3.081   5.946   3.245
 8631TIP3    H125834   3.085   6.021   3.304
 8631TIP3    H225835   3.003   5.961   3.191
 8632TIP3   OH225836   5.509   7.101   2.310
 8632TIP3    H125837   5.517   7.164   2.239
 8632TIP3    H225838   5.493   7.154   2.388
 8633TIP3   OH225839   3.280   7.439   1.308
 8633TIP3    H125840   3.302   7.518   1.259
 8633TIP3    H225841   3.321   7.368   1.258
 8634TIP3   OH225842   3.543   2.388   4.916
 8634TIP3    H125843   3.625   2.390   4.965
 8634TIP3    H225844   3.541   2.472   4.869
 8635TIP3   OH225845   7.360   2.306   0.382
 8635TIP3    H125846   7.288   2.306   0.446
 8635TIP3    H225847   7.343   2.230   0.326
 8636TIP3   OH225848   5.327   0.967   0.766
 8636TIP3    H125849   5.251   1.022   0.748
 8636TIP3    H225850   5.300   0.879   0.741
 8637TIP3   OH225851   6.162   2.065   6.424
 8637TIP3    H125852   6.093   2.113   6.471
 8637TIP3    H225853   6.234   2.061   6.487
 8638TIP3   OH225854   0.593   1.520   1.682
 8638TIP3    H125855   0.524   1.582   1.704
 8638TIP3    H225856   0.601   1.464   1.759
 8639TIP3   OH225857   0.467   4.726   5.945
 8639TIP3    H125858   0.515   4.660   5.995
 8639TIP3    H225859   0.385   4.683   5.922
 8640TIP3   OH225860   2.632   0.052   1.795
 8640TIP3    H125861   2.646  -0.027   1.742
 8640TIP3    H225862   2.693   0.043   1.868
 8641TIP3   OH225863   0.836   3.785   2.077
 8641TIP3    H125864   0.837   3.854   2.010
 8641TIP3    H225865   0.750   3.791   2.117
 8642TIP3   OH225866   2.089   3.589   6.684
 8642TIP3    H125867   2.066   3.569   6.593
 8642TIP3    H225868   2.155   3.657   6.678
 8643TIP3   OH225869   4.397   2.982   2.476
 8643TIP3    H125870   4.337   3.008   2.546
 8643TIP3    H225871   4.346   2.924   2.420
 8644TIP3   OH225872   1.951   1.118   2.928
 8644TIP3    H125873   1.986   1.091   3.013
 8644TIP3    H225874   1.998   1.199   2.908
 8645TIP3   OH225875   5.201   3.762   1.803
 8645TIP3    H125876   5.248   3.837   1.838
 8645TIP3    H225877   5.144   3.800   1.735
 8646TIP3   OH225878   5.578   4.579   1.772
 8646TIP3    H125879   5.662   4.569   1.817
 8646TIP3    H225880   5.600   4.573   1.679
 8647TIP3   OH225881   5.873   4.381   5.135
 8647TIP3    H125882   5.779   4.388   5.118
 8647TIP3    H225883   5.883   4.411   5.226
 8648TIP3   OH225884   4.979   5.205   5.766
 8648TIP3    H125885   5.074   5.201   5.762
 8648TIP3    H225886   4.956   5.287   5.721
 8649TIP3   OH225887   3.021   2.031   5.634
 8649TIP3    H125888   3.036   1.953   5.688
 8649TIP3    H225889   3.063   2.102   5.683
 8650TIP3   OH225890   6.106   6.504   4.125
 8650TIP3    H125891   6.093   6.432   4.186
 8650TIP3    H225892   6.198   6.527   4.134
 8651TIP3   OH225893   1.961   3.424   0.909
 8651TIP3    H125894   1.935   3.460   0.825
 8651TIP3    H225895   1.885   3.374   0.939
 8652TIP3   OH225896   7.970   1.627   6.101
 8652TIP3    H125897   8.016   1.704   6.134
 8652TIP3    H225898   7.992   1.557   6.162
 8653TIP3   OH225899   6.978   3.897   4.899
 8653TIP3    H125900   7.025   3.881   4.817
 8653TIP3    H225901   6.932   3.816   4.918
 8654TIP3   OH225902   7.092   2.307   0.454
 8654TIP3    H125903   7.073   2.398   0.476
 8654TIP3    H225904   7.066   2.258   0.533
 8655TIP3   OH225905   6.516   3.176   4.651
 8655TIP3    H125906   6.484   3.120   4.580
 8655TIP3    H225907   6.440   3.185   4.709
 8656TIP3   OH225908   5.013   0.857   0.537
 8656TIP3    H125909   4.943   0.899   0.587
 8656TIP3    H225910   5.023   0.771   0.577
 8657TIP3   OH225911   4.054   3.947   2.945
 8657TIP3    H125912   3.984   4.012   2.949
 8657TIP3    H225913   4.055   3.907   3.032
 8658TIP3   OH225914   7.402   2.280   4.086
 8658TIP3    H125915   7.367   2.313   4.003
 8658TIP3    H225916   7.357   2.197   4.100
 8659TIP3   OH225917   4.627   3.158   3.013
 8659TIP3    H125918   4.708   3.183   2.967
 8659TIP3    H225919   4.564   3.227   2.990
 8660TIP3   OH225920   0.014   3.146   5.433
 8660TIP3    H125921   0.093   3.139   5.487
 8660TIP3    H225922   0.037   3.103   5.351
 8661TIP3   OH225923   4.424   3.244   6.570
 8661TIP3    H125924   4.356   3.208   6.513
 8661TIP3    H225925   4.500   3.189   6.553
 8662TIP3   OH225926   7.697   1.931   3.029
 8662TIP3    H125927   7.768   1.868   3.042
 8662TIP3    H225928   7.669   1.917   2.939
 8663TIP3   OH225929   6.106   2.354   2.373
 8663TIP3    H125930   6.187   2.307   2.390
 8663TIP3    H225931   6.039   2.307   2.424
 8664TIP3   OH225932   3.819   3.448   5.975
 8664TIP3    H125933   3.862   3.364   5.962
 8664TIP3    H225934   3.822   3.462   6.070
 8665TIP3   OH225935   3.386   5.193   2.057
 8665TIP3    H125936   3.376   5.160   2.146
 8665TIP3    H225937   3.429   5.278   2.067
 8666TIP3   OH225938   4.873   3.167   5.935
 8666TIP3    H125939   4.968   3.175   5.944
 8666TIP3    H225940   4.843   3.256   5.915
 8667TIP3   OH225941   1.231   0.137   5.664
 8667TIP3    H125942   1.323   0.158   5.647
 8667TIP3    H225943   1.223   0.136   5.759
 8668TIP3   OH225944   7.362   3.782   1.410
 8668TIP3    H125945   7.402   3.787   1.324
 8668TIP3    H225946   7.425   3.823   1.469
 8669TIP3   OH225947   7.063   4.849   1.406
 8669TIP3    H125948   7.134   4.797   1.442
 8669TIP3    H225949   7.028   4.897   1.481
 8670TIP3   OH225950   5.998   3.892   1.461
 8670TIP3    H125951   5.928   3.929   1.406
 8670TIP3    H225952   5.953   3.836   1.524
 8671TIP3   OH225953   2.760   7.894   2.409
 8671TIP3    H125954   2.744   7.828   2.476
 8671TIP3    H225955   2.749   7.978   2.454
 8672TIP3   OH225956   4.272   2.657   0.932
 8672TIP3    H125957   4.196   2.607   0.961
 8672TIP3    H225958   4.265   2.657   0.836
 8673TIP3   OH225959   0.973   2.232   3.173
 8673TIP3    H125960   1.011   2.264   3.091
 8673TIP3    H225961   0.879   2.224   3.155
 8674TIP3   OH225962   0.244   6.614   5.190
 8674TIP3    H125963   0.235   6.583   5.101
 8674TIP3    H225964   0.170   6.575   5.237
 8675TIP3   OH225965   4.546   7.674   3.069
 8675TIP3    H125966   4.532   7.651   2.977
 8675TIP3    H225967   4.631   7.717   3.070
 8676TIP3   OH225968   3.284   1.977   6.517
 8676TIP3    H125969   3.321   1.890   6.501
 8676TIP3    H225970   3.243   2.001   6.434
 8677TIP3   OH225971   2.254   2.536   0.354
 8677TIP3    H125972   2.244   2.482   0.433
 8677TIP3    H225973   2.260   2.473   0.282
 8678TIP3   OH225974   1.915   7.317   5.713
 8678TIP3    H125975   1.953   7.404   5.727
 8678TIP3    H225976   1.826   7.323   5.747
 8679TIP3   OH225977   4.827   5.861   3.468
 8679TIP3    H125978   4.811   5.767   3.481
 8679TIP3    H225979   4.918   5.873   3.495
 8680TIP3   OH225980   6.273   0.748   1.753
 8680TIP3    H125981   6.277   0.745   1.657
 8680TIP3    H225982   6.183   0.724   1.775
 8681TIP3   OH225983   1.769   7.855   1.203
 8681TIP3    H125984   1.850   7.855   1.151
 8681TIP3    H225985   1.738   7.765   1.199
 8682TIP3   OH225986   6.302   5.751   2.237
 8682TIP3    H125987   6.339   5.771   2.151
 8682TIP3    H225988   6.235   5.818   2.251
 8683TIP3   OH225989   6.112   5.969   2.218
 8683TIP3    H125990   6.053   5.980   2.144
 8683TIP3    H225991   6.154   6.054   2.229
 8684TIP3   OH225992   7.210   1.844   2.592
 8684TIP3    H125993   7.202   1.836   2.497
 8684TIP3    H225994   7.127   1.885   2.619
 8685TIP3   OH225995   2.114   5.099   4.460
 8685TIP3    H125996   2.146   5.061   4.541
 8685TIP3    H225997   2.166   5.179   4.449
 8686TIP3   OH225998   5.737   5.275   0.560
 8686TIP3    H125999   5.687   5.323   0.626
 8686TIP3    H226000   5.777   5.202   0.609
 8687TIP3   OH226001   4.399   5.322   2.558
 8687TIP3    H126002   4.364   5.267   2.628
 8687TIP3    H226003   4.352   5.294   2.480
 8688TIP3   OH226004   4.874   7.550   4.373
 8688TIP3    H126005   4.813   7.591   4.434
 8688TIP3    H226006   4.818   7.509   4.307
 8689TIP3   OH226007   0.535   6.109   5.690
 8689TIP3    H126008   0.597   6.053   5.644
 8689TIP3    H226009   0.528   6.188   5.637
 8690TIP3   OH226010   2.349   7.766   1.074
 8690TIP3    H126011   2.341   7.757   1.169
 8690TIP3    H226012   2.409   7.839   1.062
 8691TIP3   OH226013   1.999   4.020   3.533
 8691TIP3    H126014   1.975   4.005   3.624
 8691TIP3    H226015   2.038   3.937   3.504
 8692TIP3   OH226016   6.616   6.711   6.099
 8692TIP3    H126017   6.591   6.731   6.189
 8692TIP3    H226018   6.711   6.705   6.100
 8693TIP3   OH226019  -0.002   2.016   0.692
 8693TIP3    H126020   0.068   1.958   0.722
 8693TIP3    H226021  -0.073   2.002   0.754
 8694TIP3   OH226022   5.212   1.815   0.864
 8694TIP3    H126023   5.151   1.888   0.850
 8694TIP3    H226024   5.291   1.842   0.817
 8695TIP3   OH226025   7.171   1.153   3.742
 8695TIP3    H126026   7.102   1.219   3.752
 8695TIP3    H226027   7.238   1.196   3.689
 8696TIP3   OH226028   4.191   5.677   1.141
 8696TIP3    H126029   4.207   5.658   1.233
 8696TIP3    H226030   4.131   5.752   1.142
 8697TIP3   OH226031   1.993   7.482   0.815
 8697TIP3    H126032   1.923   7.546   0.826
 8697TIP3    H226033   1.966   7.429   0.741
 8698TIP3   OH226034   2.505   0.256   5.591
 8698TIP3    H126035   2.569   0.327   5.590
 8698TIP3    H226036   2.457   0.265   5.509
 8699TIP3   OH226037   0.961   6.376   3.560
 8699TIP3    H126038   1.046   6.379   3.515
 8699TIP3    H226039   0.907   6.321   3.504
 8700TIP3   OH226040   6.555   5.300   6.449
 8700TIP3    H126041   6.602   5.353   6.385
 8700TIP3    H226042   6.485   5.357   6.480
 8701TIP3   OH226043   7.176   4.265   2.052
 8701TIP3    H126044   7.223   4.321   1.990
 8701TIP3    H226045   7.120   4.210   1.997
 8702TIP3   OH226046   0.668   1.292   3.912
 8702TIP3    H126047   0.670   1.240   3.832
 8702TIP3    H226048   0.680   1.228   3.982
 8703TIP3   OH226049   3.593   7.921   5.801
 8703TIP3    H126050   3.673   7.917   5.748
 8703TIP3    H226051   3.611   7.866   5.877
 8704TIP3   OH226052   4.833   5.255   0.761
 8704TIP3    H126053   4.902   5.263   0.827
 8704TIP3    H226054   4.807   5.345   0.742
 8705TIP3   OH226055   8.097   3.803   1.413
 8705TIP3    H126056   8.153   3.863   1.364
 8705TIP3    H226057   8.132   3.716   1.392
 8706TIP3   OH226058   1.599   5.353   0.898
 8706TIP3    H126059   1.635   5.289   0.837
 8706TIP3    H226060   1.539   5.405   0.846
 8707TIP3   OH226061   6.202   4.223   2.968
 8707TIP3    H126062   6.135   4.242   2.902
 8707TIP3    H226063   6.166   4.258   3.050
 8708TIP3   OH226064   0.540   1.026   2.623
 8708TIP3    H126065   0.575   0.937   2.617
 8708TIP3    H226066   0.546   1.048   2.716
 8709TIP3   OH226067   3.779   0.786   4.417
 8709TIP3    H126068   3.808   0.870   4.452
 8709TIP3    H226069   3.753   0.806   4.326
 8710TIP3   OH226070   2.361   2.079   2.322
 8710TIP3    H126071   2.426   2.048   2.385
 8710TIP3    H226072   2.277   2.064   2.365
 8711TIP3   OH226073   0.430   3.622   1.737
 8711TIP3    H126074   0.472   3.564   1.802
 8711TIP3    H226075   0.470   3.707   1.752
 8712TIP3   OH226076   7.632   4.033   1.308
 8712TIP3    H126077   7.559   4.031   1.370
 8712TIP3    H226078   7.700   3.980   1.349
 8713TIP3   OH226079   6.798   4.562   4.012
 8713TIP3    H126080   6.875   4.619   4.010
 8713TIP3    H226081   6.725   4.621   4.033
 8714TIP3   OH226082   0.736   3.112   6.338
 8714TIP3    H126083   0.664   3.151   6.289
 8714TIP3    H226084   0.729   3.018   6.323
 8715TIP3   OH226085   2.358   6.735   6.606
 8715TIP3    H126086   2.444   6.768   6.633
 8715TIP3    H226087   2.376   6.647   6.573
 8716TIP3   OH226088   3.626   0.395   5.447
 8716TIP3    H126089   3.558   0.329   5.459
 8716TIP3    H226090   3.668   0.370   5.364
 8717TIP3   OH226091   0.171   4.678   5.171
 8717TIP3    H126092   0.168   4.631   5.254
 8717TIP3    H226093   0.096   4.644   5.122
 8718TIP3   OH226094   5.359   5.387   2.199
 8718TIP3    H126095   5.382   5.435   2.279
 8718TIP3    H226096   5.374   5.451   2.129
 8719TIP3   OH226097   6.043   0.427   0.345
 8719TIP3    H126098   5.961   0.391   0.378
 8719TIP3    H226099   6.104   0.353   0.347
 8720TIP3   OH226100   4.409   4.120   1.940
 8720TIP3    H126101   4.495   4.080   1.953
 8720TIP3    H226102   4.349   4.064   1.990
 8721TIP3   OH226103   0.063   4.374   6.366
 8721TIP3    H126104   0.030   4.395   6.278
 8721TIP3    H226105   0.090   4.459   6.402
 8722TIP3   OH226106   1.665   4.404   3.667
 8722TIP3    H126107   1.719   4.342   3.715
 8722TIP3    H226108   1.575   4.379   3.688
 8723TIP3   OH226109   1.285   3.347   6.367
 8723TIP3    H126110   1.254   3.261   6.396
 8723TIP3    H226111   1.208   3.403   6.375
 8724TIP3   OH226112   0.076   0.045   3.824
 8724TIP3    H126113   0.054   0.092   3.743
 8724TIP3    H226114   0.053   0.105   3.894
 8725TIP3   OH226115   4.973   2.079   1.345
 8725TIP3    H126116   4.943   2.115   1.262
 8725TIP3    H226117   4.896   2.032   1.379
 8726TIP3   OH226118   2.472   1.528   5.764
 8726TIP3    H126119   2.412   1.536   5.839
 8726TIP3    H226120   2.531   1.457   5.789
 8727TIP3   OH226121   6.133   7.555   6.428
 8727TIP3    H126122   6.041   7.571   6.407
 8727TIP3    H226123   6.132   7.521   6.518
 8728TIP3   OH226124   4.353   3.179   1.664
 8728TIP3    H126125   4.344   3.187   1.570
 8728TIP3    H226126   4.303   3.253   1.700
 8729TIP3   OH226127   4.428   1.192   4.077
 8729TIP3    H126128   4.524   1.189   4.077
 8729TIP3    H226129   4.403   1.175   4.167
 8730TIP3   OH226130   5.660   5.444   2.761
 8730TIP3    H126131   5.565   5.438   2.767
 8730TIP3    H226132   5.680   5.416   2.672
 8731TIP3   OH226133   6.342   6.161   5.646
 8731TIP3    H126134   6.396   6.178   5.722
 8731TIP3    H226135   6.356   6.237   5.589
 8732TIP3   OH226136   8.191   5.375   0.865
 8732TIP3    H126137   8.141   5.445   0.905
 8732TIP3    H226138   8.125   5.315   0.830
 8733TIP3   OH226139   6.228   1.751   6.620
 8733TIP3    H126140   6.185   1.760   6.535
 8733TIP3    H226141   6.322   1.750   6.599
 8734TIP3   OH226142   7.917   4.156   3.323
 8734TIP3    H126143   7.998   4.143   3.274
 8734TIP3    H226144   7.861   4.083   3.297
 8735TIP3   OH226145   8.352   3.786   5.945
 8735TIP3    H126146   8.446   3.779   5.959
 8735TIP3    H226147   8.321   3.840   6.018
 8736TIP3   OH226148   2.677   7.178   4.603
 8736TIP3    H126149   2.716   7.105   4.555
 8736TIP3    H226150   2.587   7.182   4.570
 8737TIP3   OH226151   2.822   5.410   5.168
 8737TIP3    H126152   2.817   5.458   5.251
 8737TIP3    H226153   2.814   5.478   5.101
 8738TIP3   OH226154   6.928   3.429   2.453
 8738TIP3    H126155   6.909   3.516   2.488
 8738TIP3    H226156   6.913   3.438   2.359
 8739TIP3   OH226157   5.076   2.981   1.245
 8739TIP3    H126158   4.988   2.996   1.211
 8739TIP3    H226159   5.083   2.886   1.253
 8740TIP3   OH226160   7.514   3.987   4.663
 8740TIP3    H126161   7.590   3.933   4.681
 8740TIP3    H226162   7.533   4.029   4.579
 8741TIP3   OH226163   5.895   4.485   0.768
 8741TIP3    H126164   5.840   4.520   0.698
 8741TIP3    H226165   5.914   4.395   0.741
 8742TIP3   OH226166   4.394   5.664   0.713
 8742TIP3    H126167   4.348   5.706   0.785
 8742TIP3    H226168   4.451   5.600   0.756
 8743TIP3   OH226169   7.567   0.695   2.754
 8743TIP3    H126170   7.546   0.787   2.733
 8743TIP3    H226171   7.635   0.671   2.691
 8744TIP3   OH226172   2.640   0.100   3.811
 8744TIP3    H126173   2.690   0.038   3.864
 8744TIP3    H226174   2.577   0.046   3.764
 8745TIP3   OH226175   1.099   5.781   6.146
 8745TIP3    H126176   1.093   5.686   6.154
 8745TIP3    H226177   1.044   5.802   6.070
 8746TIP3   OH226178   2.370   5.002   6.782
 8746TIP3    H126179   2.325   5.011   6.865
 8746TIP3    H226180   2.462   4.986   6.806
 8747TIP3   OH226181   2.747   5.014   4.241
 8747TIP3    H126182   2.738   5.037   4.148
 8747TIP3    H226183   2.755   4.919   4.242
 8748TIP3   OH226184   7.420   5.315   2.467
 8748TIP3    H126185   7.377   5.295   2.551
 8748TIP3    H226186   7.349   5.351   2.413
 8749TIP3   OH226187   6.585   6.631   2.254
 8749TIP3    H126188   6.665   6.597   2.294
 8749TIP3    H226189   6.615   6.702   2.198
 8750TIP3   OH226190   3.495   7.574   0.208
 8750TIP3    H126191   3.413   7.625   0.213
 8750TIP3    H226192   3.527   7.588   0.119
 8751TIP3   OH226193   4.096   1.126   4.076
 8751TIP3    H126194   4.081   1.076   4.156
 8751TIP3    H226195   4.157   1.195   4.102
 8752TIP3   OH226196   7.016   4.063   6.085
 8752TIP3    H126197   6.987   4.128   6.022
 8752TIP3    H226198   6.949   3.994   6.081
 8753TIP3   OH226199   0.228   6.440   6.089
 8753TIP3    H126200   0.145   6.454   6.135
 8753TIP3    H226201   0.215   6.360   6.039
 8754TIP3   OH226202   8.224   5.433   5.130
 8754TIP3    H126203   8.279   5.386   5.066
 8754TIP3    H226204   8.167   5.366   5.166
 8755TIP3   OH226205   8.032   0.198   0.859
 8755TIP3    H126206   8.071   0.118   0.894
 8755TIP3    H226207   8.104   0.261   0.855
 8756TIP3   OH226208   1.669   3.991   2.176
 8756TIP3    H126209   1.738   4.010   2.239
 8756TIP3    H226210   1.707   4.013   2.091
 8757TIP3   OH226211   5.779   6.748   1.997
 8757TIP3    H126212   5.723   6.750   1.920
 8757TIP3    H226213   5.866   6.773   1.964
 8758TIP3   OH226214   7.753   0.778   5.410
 8758TIP3    H126215   7.730   0.687   5.390
 8758TIP3    H226216   7.849   0.780   5.409
 8759TIP3   OH226217   8.229   3.959   1.219
 8759TIP3    H126218   8.276   3.877   1.201
 8759TIP3    H226219   8.272   4.024   1.165
 8760TIP3   OH226220   6.652   6.540   5.403
 8760TIP3    H126221   6.710   6.465   5.390
 8760TIP3    H226222   6.677   6.575   5.488
 8761TIP3   OH226223   3.788   1.827   4.021
 8761TIP3    H126224   3.703   1.783   4.024
 8761TIP3    H226225   3.851   1.755   4.020
 8762TIP3   OH226226   7.744   5.233   2.396
 8762TIP3    H126227   7.725   5.166   2.461
 8762TIP3    H226228   7.681   5.303   2.413
 8763TIP3   OH226229   5.546   2.739   3.360
 8763TIP3    H126230   5.618   2.688   3.397
 8763TIP3    H226231   5.578   2.764   3.273
 8764TIP3   OH226232   0.539   3.667   6.581
 8764TIP3    H126233   0.578   3.725   6.646
 8764TIP3    H226234   0.445   3.672   6.599
 8765TIP3   OH226235   0.100   4.304   0.244
 8765TIP3    H126236   0.078   4.270   0.157
 8765TIP3    H226237   0.065   4.238   0.304
 8766TIP3   OH226238   7.718   2.591   6.359
 8766TIP3    H126239   7.693   2.602   6.451
 8766TIP3    H226240   7.787   2.655   6.345
 8767TIP3   OH226241   0.424   1.128   1.949
 8767TIP3    H126242   0.333   1.101   1.963
 8767TIP3    H226243   0.428   1.218   1.979
 8768TIP3   OH226244   7.694   6.823   4.453
 8768TIP3    H126245   7.775   6.832   4.402
 8768TIP3    H226246   7.724   6.799   4.541
 8769TIP3   OH226247   6.738   4.829   0.967
 8769TIP3    H126248   6.776   4.822   0.880
 8769TIP3    H226249   6.661   4.772   0.965
 8770TIP3   OH226250   5.079   1.104   5.424
 8770TIP3    H126251   5.174   1.098   5.417
 8770TIP3    H226252   5.050   1.013   5.434
 8771TIP3   OH226253   7.578   5.793   4.864
 8771TIP3    H126254   7.545   5.751   4.785
 8771TIP3    H226255   7.654   5.740   4.890
 8772TIP3   OH226256   6.062   6.672   4.883
 8772TIP3    H126257   6.091   6.741   4.943
 8772TIP3    H226258   6.142   6.624   4.862
 8773TIP3   OH226259   8.069   6.759   2.065
 8773TIP3    H126260   8.016   6.722   1.994
 8773TIP3    H226261   8.094   6.845   2.033
 8774TIP3   OH226262   1.286   7.447   4.566
 8774TIP3    H126263   1.298   7.368   4.619
 8774TIP3    H226264   1.284   7.414   4.476
 8775TIP3   OH226265   8.180   0.943   6.053
 8775TIP3    H126266   8.141   0.963   5.968
 8775TIP3    H226267   8.110   0.900   6.102
 8776TIP3   OH226268   6.908   3.634   2.906
 8776TIP3    H126269   6.841   3.702   2.909
 8776TIP3    H226270   6.869   3.559   2.949
 8777TIP3   OH226271   2.053   1.405   3.137
 8777TIP3    H126272   2.002   1.453   3.071
 8777TIP3    H226273   2.134   1.382   3.091
 8778TIP3   OH226274   2.054   5.125   5.622
 8778TIP3    H126275   1.972   5.144   5.575
 8778TIP3    H226276   2.123   5.159   5.564
 8779TIP3   OH226277   1.093   1.071   5.847
 8779TIP3    H126278   1.087   1.076   5.943
 8779TIP3    H226279   1.037   0.997   5.823
 8780TIP3   OH226280   3.000   6.358   0.285
 8780TIP3    H126281   2.992   6.446   0.249
 8780TIP3    H226282   2.934   6.354   0.354
 8781TIP3   OH226283   5.041   1.292   1.914
 8781TIP3    H126284   5.017   1.316   2.004
 8781TIP3    H226285   4.963   1.249   1.879
 8782TIP3   OH226286   1.596   0.308   1.409
 8782TIP3    H126287   1.573   0.392   1.369
 8782TIP3    H226288   1.685   0.291   1.377
 8783TIP3   OH226289   4.209   5.861   5.094
 8783TIP3    H126290   4.184   5.943   5.137
 8783TIP3    H226291   4.142   5.798   5.122
 8784TIP3   OH226292   3.091   1.631   4.197
 8784TIP3    H126293   3.081   1.661   4.107
 8784TIP3    H226294   3.041   1.694   4.249
 8785TIP3   OH226295   0.347   0.942   6.069
 8785TIP3    H126296   0.279   0.875   6.058
 8785TIP3    H226297   0.298   1.024   6.078
 8786TIP3   OH226298   0.776   1.838   4.055
 8786TIP3    H126299   0.764   1.753   4.097
 8786TIP3    H226300   0.769   1.819   3.961
 8787TIP3   OH226301   2.104   5.317   5.134
 8787TIP3    H126302   2.119   5.370   5.056
 8787TIP3    H226303   2.184   5.264   5.142
 8788TIP3   OH226304   5.772   1.867   4.624
 8788TIP3    H126305   5.832   1.852   4.551
 8788TIP3    H226306   5.828   1.900   4.694
 8789TIP3   OH226307   3.217   7.597   1.527
 8789TIP3    H126308   3.194   7.552   1.609
 8789TIP3    H226309   3.225   7.526   1.463
 8790TIP3   OH226310   3.279   1.330   3.453
 8790TIP3    H126311   3.226   1.273   3.396
 8790TIP3    H226312   3.367   1.328   3.413
 8791TIP3   OH226313   7.267   2.239   5.588
 8791TIP3    H126314   7.186   2.229   5.538
 8791TIP3    H226315   7.278   2.334   5.597
 8792TIP3   OH226316   3.603   4.710   1.947
 8792TIP3    H126317   3.565   4.640   1.893
 8792TIP3    H226318   3.544   4.785   1.934
 8793TIP3   OH226319   4.117   7.475   2.681
 8793TIP3    H126320   4.205   7.461   2.648
 8793TIP3    H226321   4.088   7.556   2.639
 8794TIP3   OH226322   7.113   0.940   6.445
 8794TIP3    H126323   7.035   0.886   6.433
 8794TIP3    H226324   7.186   0.879   6.432
 8795TIP3   OH226325   2.007   0.852   5.263
 8795TIP3    H126326   1.975   0.788   5.326
 8795TIP3    H226327   1.993   0.936   5.305
 8796TIP3   OH226328   4.557   1.247   4.936
 8796TIP3    H126329   4.533   1.264   5.027
 8796TIP3    H226330   4.648   1.220   4.939
 8797TIP3   OH226331   2.159   3.680   2.735
 8797TIP3    H126332   2.178   3.605   2.679
 8797TIP3    H226333   2.245   3.719   2.753
 8798TIP3   OH226334   4.729   0.108   5.778
 8798TIP3    H126335   4.651   0.054   5.765
 8798TIP3    H226336   4.788   0.053   5.831
 8799TIP3   OH226337   0.705   7.053   4.023
 8799TIP3    H126338   0.632   7.064   4.084
 8799TIP3    H226339   0.761   7.129   4.039
 8800TIP3   OH226340   0.660   6.553   3.429
 8800TIP3    H126341   0.643   6.606   3.507
 8800TIP3    H226342   0.753   6.566   3.411
 8801TIP3   OH226343   4.786   6.032   3.245
 8801TIP3    H126344   4.795   5.969   3.174
 8801TIP3    H226345   4.790   5.979   3.325
 8802TIP3   OH226346   6.330   2.641   0.203
 8802TIP3    H126347   6.281   2.701   0.146
 8802TIP3    H226348   6.268   2.619   0.273
 8803TIP3   OH226349   2.683   3.117   2.728
 8803TIP3    H126350   2.707   3.042   2.781
 8803TIP3    H226351   2.690   3.192   2.787
 8804TIP3   OH226352   2.705   2.201   3.264
 8804TIP3    H126353   2.776   2.202   3.201
 8804TIP3    H226354   2.748   2.204   3.350
 8805TIP3   OH226355   6.543   0.036   0.612
 8805TIP3    H126356   6.636   0.035   0.632
 8805TIP3    H226357   6.533   0.104   0.546
 8806TIP3   OH226358   0.655   4.615   6.121
 8806TIP3    H126359   0.671   4.596   6.214
 8806TIP3    H226360   0.630   4.531   6.084
 8807TIP3   OH226361   1.680   0.634   2.605
 8807TIP3    H126362   1.643   0.622   2.518
 8807TIP3    H226363   1.668   0.727   2.624
 8808TIP3   OH226364   7.582   7.938   5.177
 8808TIP3    H126365   7.510   7.875   5.180
 8808TIP3    H226366   7.619   7.935   5.265
 8809TIP3   OH226367  -0.036   2.253   1.670
 8809TIP3    H126368   0.030   2.247   1.601
 8809TIP3    H226369  -0.045   2.163   1.702
 8810TIP3   OH226370   7.232   3.565   5.575
 8810TIP3    H126371   7.305   3.600   5.524
 8810TIP3    H226372   7.231   3.471   5.554
 8811TIP3   OH226373   6.528   6.468   4.780
 8811TIP3    H126374   6.565   6.476   4.868
 8811TIP3    H226375   6.589   6.412   4.733
 8812TIP3   OH226376   4.567   6.587   0.251
 8812TIP3    H126377   4.561   6.493   0.269
 8812TIP3    H226378   4.652   6.598   0.209
 8813TIP3   OH226379   3.274   6.525   3.452
 8813TIP3    H126380   3.367   6.542   3.469
 8813TIP3    H226381   3.250   6.457   3.514
 8814TIP3   OH226382   0.254   5.229   2.124
 8814TIP3    H126383   0.227   5.271   2.042
 8814TIP3    H226384   0.260   5.136   2.102
 8815TIP3   OH226385   3.836   0.257   3.432
 8815TIP3    H126386   3.909   0.258   3.494
 8815TIP3    H226387   3.764   0.217   3.481
 8816TIP3   OH226388   7.289   0.272   6.628
 8816TIP3    H126389   7.246   0.198   6.671
 8816TIP3    H226390   7.357   0.232   6.573
 8817TIP3   OH226391   2.420   0.447   0.005
 8817TIP3    H126392   2.495   0.458   0.063
 8817TIP3    H226393   2.383   0.362   0.027
 8818TIP3   OH226394   1.118   6.995   4.487
 8818TIP3    H126395   1.117   6.974   4.580
 8818TIP3    H226396   1.066   7.075   4.479
 8819TIP3   OH226397   3.315   6.562   0.831
 8819TIP3    H126398   3.356   6.488   0.875
 8819TIP3    H226399   3.303   6.533   0.740
 8820TIP3   OH226400   6.057   4.778   4.470
 8820TIP3    H126401   6.099   4.808   4.390
 8820TIP3    H226402   6.129   4.750   4.527
 8821TIP3   OH226403   3.645   3.856   5.615
 8821TIP3    H126404   3.710   3.912   5.656
 8821TIP3    H226405   3.625   3.789   5.681
 8822TIP3   OH226406   6.587   2.957   2.218
 8822TIP3    H126407   6.553   2.967   2.307
 8822TIP3    H226408   6.548   3.030   2.169
 8823TIP3   OH226409   7.643   0.452   1.870
 8823TIP3    H126410   7.721   0.397   1.877
 8823TIP3    H226411   7.570   0.389   1.872
 8824TIP3   OH226412   0.278   2.059   5.225
 8824TIP3    H126413   0.329   2.140   5.239
 8824TIP3    H226414   0.326   1.992   5.274
 8825TIP3   OH226415   1.005   3.125   5.730
 8825TIP3    H126416   1.055   3.048   5.755
 8825TIP3    H226417   1.021   3.188   5.801
 8826TIP3   OH226418   3.530   6.359   3.607
 8826TIP3    H126419   3.447   6.328   3.642
 8826TIP3    H226420   3.555   6.293   3.542
 8827TIP3   OH226421   5.003   2.316   5.637
 8827TIP3    H126422   4.992   2.262   5.715
 8827TIP3    H226423   5.037   2.256   5.571
 8828TIP3   OH226424   4.326   5.317   3.059
 8828TIP3    H126425   4.408   5.267   3.068
 8828TIP3    H226426   4.260   5.261   3.099
 8829TIP3   OH226427   6.016   7.554   5.232
 8829TIP3    H126428   5.929   7.519   5.214
 8829TIP3    H226429   6.074   7.478   5.229
 8830TIP3   OH226430   6.874   1.191   2.620
 8830TIP3    H126431   6.895   1.138   2.697
 8830TIP3    H226432   6.857   1.278   2.654
 8831TIP3   OH226433   8.179   4.481   4.045
 8831TIP3    H126434   8.118   4.553   4.032
 8831TIP3    H226435   8.126   4.402   4.036
 8832TIP3   OH226436   2.152   5.988   2.829
 8832TIP3    H126437   2.145   6.079   2.801
 8832TIP3    H226438   2.094   5.940   2.769
 8833TIP3   OH226439   7.607   2.726   4.868
 8833TIP3    H126440   7.585   2.633   4.856
 8833TIP3    H226441   7.665   2.746   4.795
 8834TIP3   OH226442   3.287   4.673   5.971
 8834TIP3    H126443   3.252   4.592   5.934
 8834TIP3    H226444   3.256   4.673   6.062
 8835TIP3   OH226445   3.538   5.297   0.704
 8835TIP3    H126446   3.522   5.387   0.732
 8835TIP3    H226447   3.509   5.294   0.613
 8836TIP3   OH226448   6.375   3.342   0.237
 8836TIP3    H126449   6.408   3.337   0.147
 8836TIP3    H226450   6.452   3.364   0.289
 8837TIP3   OH226451   0.329   2.694   2.632
 8837TIP3    H126452   0.270   2.619   2.645
 8837TIP3    H226453   0.379   2.672   2.554
 8838TIP3   OH226454   4.850   0.311   5.634
 8838TIP3    H126455   4.919   0.282   5.695
 8838TIP3    H226456   4.781   0.245   5.644
 8839TIP3   OH226457   4.943   2.184   5.889
 8839TIP3    H126458   5.003   2.252   5.920
 8839TIP3    H226459   4.867   2.192   5.945
 8840TIP3   OH226460   2.569   6.312   0.455
 8840TIP3    H126461   2.574   6.292   0.362
 8840TIP3    H226462   2.481   6.284   0.481
 8841TIP3   OH226463   3.241   7.441   0.835
 8841TIP3    H126464   3.302   7.509   0.804
 8841TIP3    H226465   3.268   7.362   0.789
 8842TIP3   OH226466   1.612   6.320   3.434
 8842TIP3    H126467   1.627   6.336   3.527
 8842TIP3    H226468   1.551   6.246   3.433
 8843TIP3   OH226469   0.564   4.308   6.661
 8843TIP3    H126470   0.481   4.350   6.637
 8843TIP3    H226471   0.560   4.302   6.756
 8844TIP3   OH226472   1.460   1.558   5.559
 8844TIP3    H126473   1.432   1.510   5.481
 8844TIP3    H226474   1.549   1.586   5.539
 8845TIP3   OH226475   7.543   0.280   0.363
 8845TIP3    H126476   7.537   0.240   0.449
 8845TIP3    H226477   7.632   0.316   0.359
 8846TIP3   OH226478   0.725   5.434   1.097
 8846TIP3    H126479   0.668   5.358   1.090
 8846TIP3    H226480   0.746   5.457   1.006
 8847TIP3   OH226481   4.509   1.965   4.925
 8847TIP3    H126482   4.591   2.010   4.944
 8847TIP3    H226483   4.508   1.890   4.986
 8848TIP3   OH226484   4.325   4.325   3.740
 8848TIP3    H126485   4.249   4.361   3.787
 8848TIP3    H226486   4.354   4.396   3.684
 8849TIP3   OH226487   0.357   7.435   2.308
 8849TIP3    H126488   0.385   7.482   2.229
 8849TIP3    H226489   0.271   7.400   2.286
 8850TIP3   OH226490   1.495   4.404   6.551
 8850TIP3    H126491   1.549   4.340   6.504
 8850TIP3    H226492   1.558   4.454   6.604
 8851TIP3   OH226493   4.091   1.928   5.603
 8851TIP3    H126494   4.022   1.885   5.653
 8851TIP3    H226495   4.073   1.906   5.512
 8852TIP3   OH226496   4.173   2.667   1.227
 8852TIP3    H126497   4.080   2.646   1.232
 8852TIP3    H226498   4.176   2.763   1.230
 8853TIP3   OH226499   3.185   5.229   0.088
 8853TIP3    H126500   3.143   5.308   0.055
 8853TIP3    H226501   3.114   5.178   0.127
 8854TIP3   OH226502   7.595   5.049   0.873
 8854TIP3    H126503   7.571   4.964   0.836
 8854TIP3    H226504   7.565   5.044   0.964
 8855TIP3   OH226505   2.669   3.881   5.743
 8855TIP3    H126506   2.658   3.969   5.779
 8855TIP3    H226507   2.747   3.887   5.688
 8856TIP3   OH226508   7.136   6.234   1.150
 8856TIP3    H126509   7.209   6.173   1.163
 8856TIP3    H226510   7.061   6.178   1.128
 8857TIP3   OH226511   4.337   7.334   6.649
 8857TIP3    H126512   4.428   7.307   6.634
 8857TIP3    H226513   4.302   7.267   6.708
 8858TIP3   OH226514   5.530   5.713   2.188
 8858TIP3    H126515   5.503   5.684   2.275
 8858TIP3    H226516   5.618   5.748   2.201
 8859TIP3   OH226517   8.076   0.768   2.008
 8859TIP3    H126518   8.113   0.742   1.923
 8859TIP3    H226519   8.004   0.828   1.985
 8860TIP3   OH226520   5.220   6.065   0.737
 8860TIP3    H126521   5.174   6.027   0.662
 8860TIP3    H226522   5.261   5.990   0.781
 8861TIP3   OH226523   3.119   5.017   3.552
 8861TIP3    H126524   3.155   5.106   3.547
 8861TIP3    H226525   3.080   5.002   3.466
 8862TIP3   OH226526   4.445   3.505   1.899
 8862TIP3    H126527   4.495   3.470   1.825
 8862TIP3    H226528   4.495   3.476   1.976
 8863TIP3   OH226529   3.430   6.007   6.028
 8863TIP3    H126530   3.376   5.943   5.982
 8863TIP3    H226531   3.517   5.968   6.029
 8864TIP3   OH226532   0.739   7.469   5.233
 8864TIP3    H126533   0.760   7.418   5.155
 8864TIP3    H226534   0.670   7.418   5.276
 8865TIP3   OH226535   0.641   7.332   4.463
 8865TIP3    H126536   0.722   7.375   4.491
 8865TIP3    H226537   0.608   7.386   4.392
 8866TIP3   OH226538   1.319   1.724   5.741
 8866TIP3    H126539   1.390   1.754   5.798
 8866TIP3    H226540   1.363   1.666   5.678
 8867TIP3   OH226541   3.031   2.397   3.975
 8867TIP3    H126542   3.011   2.483   4.013
 8867TIP3    H226543   2.952   2.374   3.926
 8868TIP3   OH226544   7.753   4.093   5.595
 8868TIP3    H126545   7.831   4.120   5.547
 8868TIP3    H226546   7.711   4.175   5.621
 8869TIP3   OH226547   0.800   3.957   3.080
 8869TIP3    H126548   0.849   3.955   3.163
 8869TIP3    H226549   0.778   4.049   3.067
 8870TIP3   OH226550   7.531   0.504   5.079
 8870TIP3    H126551   7.514   0.415   5.108
 8870TIP3    H226552   7.601   0.496   5.014
 8871TIP3   OH226553   6.187   1.340   0.063
 8871TIP3    H126554   6.175   1.426   0.103
 8871TIP3    H226555   6.225   1.286   0.133
 8872TIP3   OH226556   3.288   5.803   5.883
 8872TIP3    H126557   3.227   5.765   5.819
 8872TIP3    H226558   3.357   5.737   5.892
 8873TIP3   OH226559   2.350   1.378   2.157
 8873TIP3    H126560   2.347   1.330   2.240
 8873TIP3    H226561   2.441   1.375   2.130
 8874TIP3   OH226562   6.967   3.926   0.042
 8874TIP3    H126563   6.971   3.859  -0.026
 8874TIP3    H226564   7.057   3.932   0.075
 8875TIP3   OH226565   2.756   0.125   2.948
 8875TIP3    H126566   2.814   0.062   2.906
 8875TIP3    H226567   2.803   0.153   3.026
 8876TIP3   OH226568   7.330   2.685   3.015
 8876TIP3    H126569   7.252   2.630   3.012
 8876TIP3    H226570   7.296   2.775   3.010
 8877TIP3   OH226571   8.087   7.273   4.347
 8877TIP3    H126572   8.182   7.276   4.352
 8877TIP3    H226573   8.067   7.271   4.254
 8878TIP3   OH226574   0.496   3.842   3.074
 8878TIP3    H126575   0.419   3.787   3.089
 8878TIP3    H226576   0.565   3.781   3.047
 8879TIP3   OH226577   7.118   5.198   3.297
 8879TIP3    H126578   7.051   5.181   3.362
 8879TIP3    H226579   7.127   5.293   3.294
 8880TIP3   OH226580   3.666   5.911   4.835
 8880TIP3    H126581   3.616   5.830   4.824
 8880TIP3    H226582   3.669   5.925   4.930
 8881TIP3   OH226583   4.702   0.213   0.231
 8881TIP3    H126584   4.666   0.253   0.152
 8881TIP3    H226585   4.639   0.145   0.255
 8882TIP3   OH226586   8.132   3.400   3.683
 8882TIP3    H126587   8.094   3.440   3.761
 8882TIP3    H226588   8.200   3.461   3.655
 8883TIP3   OH226589   4.744   2.815   3.466
 8883TIP3    H126590   4.651   2.834   3.452
 8883TIP3    H226591   4.769   2.760   3.391
 8884TIP3   OH226592   2.721   3.916   5.077
 8884TIP3    H126593   2.745   3.990   5.133
 8884TIP3    H226594   2.710   3.954   4.990
 8885TIP3   OH226595   5.137   4.354   5.150
 8885TIP3    H126596   5.186   4.273   5.163
 8885TIP3    H226597   5.081   4.337   5.075
 8886TIP3   OH226598   8.261   2.969   3.153
 8886TIP3    H126599   8.268   3.016   3.236
 8886TIP3    H226600   8.178   2.922   3.158
 8887TIP3   OH226601   4.343   7.556   0.221
 8887TIP3    H126602   4.307   7.468   0.213
 8887TIP3    H226603   4.286   7.600   0.284
 8888TIP3   OH226604   4.429   7.846   1.021
 8888TIP3    H126605   4.385   7.874   0.941
 8888TIP3    H226606   4.446   7.927   1.069
 8889TIP3   OH226607   7.468   3.232   2.513
 8889TIP3    H126608   7.511   3.316   2.497
 8889TIP3    H226609   7.509   3.198   2.593
 8890TIP3   OH226610   6.444   6.265   0.544
 8890TIP3    H126611   6.491   6.230   0.620
 8890TIP3    H226612   6.434   6.190   0.486
 8891TIP3   OH226613   6.946   7.892   3.699
 8891TIP3    H126614   7.041   7.880   3.704
 8891TIP3    H226615   6.920   7.912   3.789
 8892TIP3   OH226616   6.325   2.843   6.377
 8892TIP3    H126617   6.331   2.858   6.471
 8892TIP3    H226618   6.360   2.755   6.364
 8893TIP3   OH226619   4.454   1.522   3.571
 8893TIP3    H126620   4.476   1.489   3.484
 8893TIP3    H226621   4.363   1.552   3.562
 8894TIP3   OH226622   6.566   5.465   3.165
 8894TIP3    H126623   6.661   5.456   3.173
 8894TIP3    H226624   6.553   5.520   3.088
 8895TIP3   OH226625   5.599   0.947   0.374
 8895TIP3    H126626   5.607   0.898   0.456
 8895TIP3    H226627   5.684   0.991   0.365
 8896TIP3   OH226628   5.290   7.650   6.011
 8896TIP3    H126629   5.263   7.587   5.943
 8896TIP3    H226630   5.378   7.623   6.034
 8897TIP3   OH226631   7.211   7.053   2.020
 8897TIP3    H126632   7.178   7.033   2.108
 8897TIP3    H226633   7.137   7.032   1.962
 8898TIP3   OH226634   0.931   7.686   2.094
 8898TIP3    H126635   1.002   7.672   2.031
 8898TIP3    H226636   0.891   7.599   2.105
 8899TIP3   OH226637   0.950   4.589   3.717
 8899TIP3    H126638   0.999   4.652   3.770
 8899TIP3    H226639   0.863   4.589   3.755
 8900TIP3   OH226640   4.659   7.220   5.015
 8900TIP3    H126641   4.683   7.129   5.030
 8900TIP3    H226642   4.739   7.260   4.981
 8901TIP3   OH226643   5.795   3.161   6.280
 8901TIP3    H126644   5.759   3.075   6.257
 8901TIP3    H226645   5.753   3.182   6.363
 8902TIP3   OH226646   5.699   1.645   2.873
 8902TIP3    H126647   5.703   1.683   2.786
 8902TIP3    H226648   5.781   1.596   2.881
 8903TIP3   OH226649   0.643   4.874   0.743
 8903TIP3    H126650   0.692   4.937   0.795
 8903TIP3    H226651   0.658   4.901   0.652
 8904TIP3   OH226652   3.280   1.125   3.141
 8904TIP3    H126653   3.326   1.063   3.084
 8904TIP3    H226654   3.347   1.160   3.198
 8905TIP3   OH226655   5.639   7.308   3.367
 8905TIP3    H126656   5.668   7.380   3.311
 8905TIP3    H226657   5.717   7.284   3.416
 8906TIP3   OH226658   6.361   5.547   6.264
 8906TIP3    H126659   6.273   5.534   6.300
 8906TIP3    H226660   6.410   5.588   6.335
 8907TIP3   OH226661   2.363   0.568   3.540
 8907TIP3    H126662   2.383   0.598   3.451
 8907TIP3    H226663   2.323   0.645   3.582
 8908TIP3   OH226664   4.890   7.072   5.908
 8908TIP3    H126665   4.969   7.036   5.948
 8908TIP3    H226666   4.821   7.057   5.972
 8909TIP3   OH226667   0.582   3.626   1.997
 8909TIP3    H126668   0.583   3.605   2.090
 8909TIP3    H226669   0.541   3.712   1.992
 8910TIP3   OH226670   3.359   0.783   6.633
 8910TIP3    H126671   3.347   0.753   6.543
 8910TIP3    H226672   3.299   0.856   6.643
 8911TIP3   OH226673   4.663   4.305   4.971
 8911TIP3    H126674   4.668   4.251   4.893
 8911TIP3    H226675   4.675   4.244   5.044
 8912TIP3   OH226676   2.881   6.681   0.143
 8912TIP3    H126677   2.852   6.720   0.225
 8912TIP3    H226678   2.805   6.633   0.110
 8913TIP3   OH226679   5.469   1.276   1.880
 8913TIP3    H126680   5.448   1.344   1.816
 8913TIP3    H226681   5.557   1.247   1.858
 8914TIP3   OH226682   2.063   1.485   6.096
 8914TIP3    H126683   2.054   1.491   6.000
 8914TIP3    H226684   2.015   1.561   6.129
 8915TIP3   OH226685   1.949   6.350   6.784
 8915TIP3    H126686   2.018   6.332   6.721
 8915TIP3    H226687   1.911   6.433   6.755
 8916TIP3   OH226688   1.249   1.974   3.267
 8916TIP3    H126689   1.343   1.956   3.271
 8916TIP3    H226690   1.208   1.901   3.314
 8917TIP3   OH226691   4.236   2.834   4.233
 8917TIP3    H126692   4.213   2.904   4.173
 8917TIP3    H226693   4.281   2.769   4.179
 8918TIP3   OH226694   5.795   7.671   2.353
 8918TIP3    H126695   5.848   7.670   2.433
 8918TIP3    H226696   5.832   7.741   2.299
 8919TIP3   OH226697   7.603   2.249   6.649
 8919TIP3    H126698   7.699   2.247   6.643
 8919TIP3    H226699   7.583   2.334   6.688
 8920TIP3   OH226700   8.061   2.299   6.231
 8920TIP3    H126701   8.027   2.216   6.265
 8920TIP3    H226702   8.000   2.322   6.161
 8921TIP3   OH226703   5.231   4.754   2.076
 8921TIP3    H126704   5.168   4.684   2.094
 8921TIP3    H226705   5.177   4.830   2.054
 8922TIP3   OH226706   6.355   4.797   5.954
 8922TIP3    H126707   6.266   4.778   5.984
 8922TIP3    H226708   6.411   4.756   6.020
 8923TIP3   OH226709   7.163   5.926   3.253
 8923TIP3    H126710   7.100   5.868   3.211
 8923TIP3    H226711   7.176   5.997   3.190
 8924TIP3   OH226712   5.074   2.837   1.596
 8924TIP3    H126713   4.986   2.839   1.634
 8924TIP3    H226714   5.116   2.916   1.628
 8925TIP3   OH226715   0.056   0.244   3.252
 8925TIP3    H126716   0.009   0.323   3.226
 8925TIP3    H226717   0.147   0.274   3.264
 8926TIP3   OH226718   1.842   6.760   1.997
 8926TIP3    H126719   1.784   6.820   1.951
 8926TIP3    H226720   1.874   6.810   2.072
 8927TIP3   OH226721   5.572   5.702   0.867
 8927TIP3    H126722   5.528   5.779   0.903
 8927TIP3    H226723   5.588   5.646   0.943
 8928TIP3   OH226724   7.102   2.721   2.731
 8928TIP3    H126725   7.079   2.717   2.824
 8928TIP3    H226726   7.081   2.810   2.704
 8929TIP3   OH226727   2.893   2.871   5.623
 8929TIP3    H126728   2.854   2.943   5.672
 8929TIP3    H226729   2.967   2.910   5.577
 8930TIP3   OH226730   1.271   5.132   6.304
 8930TIP3    H126731   1.213   5.169   6.237
 8930TIP3    H226732   1.359   5.163   6.279
 8931TIP3   OH226733   4.283   6.757   0.796
 8931TIP3    H126734   4.334   6.793   0.869
 8931TIP3    H226735   4.307   6.664   0.794
 8932TIP3   OH226736   6.087   6.818   5.854
 8932TIP3    H126737   6.118   6.745   5.801
 8932TIP3    H226738   6.068   6.887   5.791
 8933TIP3   OH226739   4.920   0.177   6.756
 8933TIP3    H126740   4.977   0.209   6.826
 8933TIP3    H226741   4.835   0.215   6.775
 8934TIP3   OH226742   2.822   3.937   4.683
 8934TIP3    H126743   2.883   3.953   4.755
 8934TIP3    H226744   2.825   3.842   4.670
 8935TIP3   OH226745   0.702   2.836   1.823
 8935TIP3    H126746   0.634   2.806   1.883
 8935TIP3    H226747   0.745   2.908   1.868
 8936TIP3   OH226748   1.216   0.409   6.262
 8936TIP3    H126749   1.245   0.488   6.216
 8936TIP3    H226750   1.122   0.405   6.247
 8937TIP3   OH226751   6.481   1.811   2.421
 8937TIP3    H126752   6.475   1.827   2.516
 8937TIP3    H226753   6.446   1.891   2.382
 8938TIP3   OH226754   3.702   0.434   5.702
 8938TIP3    H126755   3.679   0.438   5.609
 8938TIP3    H226756   3.763   0.507   5.714
 8939TIP3   OH226757   0.962   2.369   3.772
 8939TIP3    H126758   1.033   2.356   3.834
 8939TIP3    H226759   0.944   2.463   3.775
 8940TIP3   OH226760   3.819   6.842   4.741
 8940TIP3    H126761   3.880   6.907   4.706
 8940TIP3    H226762   3.872   6.788   4.799
 8941TIP3   OH226763   0.641   5.619   5.657
 8941TIP3    H126764   0.620   5.616   5.563
 8941TIP3    H226765   0.561   5.650   5.698
 8942TIP3   OH226766   6.004   4.954   3.556
 8942TIP3    H126767   5.912   4.931   3.561
 8942TIP3    H226768   6.004   5.049   3.541
 8943TIP3   OH226769   3.146   7.660   2.662
 8943TIP3    H126770   3.085   7.603   2.614
 8943TIP3    H226771   3.089   7.717   2.714
 8944TIP3   OH226772   0.842   7.698   1.114
 8944TIP3    H126773   0.831   7.766   1.180
 8944TIP3    H226774   0.770   7.712   1.052
 8945TIP3   OH226775   8.273   3.256   4.466
 8945TIP3    H126776   8.196   3.289   4.421
 8945TIP3    H226777   8.239   3.196   4.533
 8946TIP3   OH226778   7.086   7.480   2.800
 8946TIP3    H126779   7.071   7.399   2.849
 8946TIP3    H226780   7.056   7.550   2.859
 8947TIP3   OH226781   2.487   5.731   6.439
 8947TIP3    H126782   2.436   5.707   6.361
 8947TIP3    H226783   2.525   5.816   6.418
 8948TIP3   OH226784   0.408   3.528   5.629
 8948TIP3    H126785   0.360   3.565   5.555
 8948TIP3    H226786   0.347   3.466   5.669
 8949TIP3   OH226787   3.498   2.500   2.298
 8949TIP3    H126788   3.441   2.544   2.361
 8949TIP3    H226789   3.553   2.443   2.351
 8950TIP3   OH226790   7.511   3.942   5.074
 8950TIP3    H126791   7.600   3.961   5.101
 8950TIP3    H226792   7.456   3.987   5.139
 8951TIP3   OH226793   4.595   0.660   3.465
 8951TIP3    H126794   4.531   0.608   3.415
 8951TIP3    H226795   4.671   0.666   3.408
 8952TIP3   OH226796   6.283   6.842   6.184
 8952TIP3    H126797   6.213   6.900   6.155
 8952TIP3    H226798   6.262   6.758   6.145
 8953TIP3   OH226799   4.407   6.462   3.422
 8953TIP3    H126800   4.486   6.510   3.447
 8953TIP3    H226801   4.430   6.420   3.339
 8954TIP3   OH226802   4.077   5.298   2.544
 8954TIP3    H126803   4.133   5.270   2.472
 8954TIP3    H226804   4.059   5.390   2.526
 8955TIP3   OH226805   1.785   0.543   0.180
 8955TIP3    H126806   1.723   0.608   0.213
 8955TIP3    H226807   1.731   0.481   0.130
 8956TIP3   OH226808   3.009   0.180   2.205
 8956TIP3    H126809   2.979   0.145   2.121
 8956TIP3    H226810   2.936   0.166   2.264
 8957TIP3   OH226811   2.170   4.963   6.174
 8957TIP3    H126812   2.161   5.036   6.111
 8957TIP3    H226813   2.204   5.004   6.253
 8958TIP3   OH226814   2.318   2.985   2.565
 8958TIP3    H126815   2.328   3.057   2.627
 8958TIP3    H226816   2.360   2.910   2.608
 8959TIP3   OH226817   7.131   0.809   1.134
 8959TIP3    H126818   7.150   0.890   1.180
 8959TIP3    H226819   7.191   0.809   1.059
 8960TIP3   OH226820   3.961   5.656   3.602
 8960TIP3    H126821   3.908   5.604   3.663
 8960TIP3    H226822   3.896   5.708   3.553
 8961TIP3   OH226823   0.140   6.339   3.617
 8961TIP3    H126824   0.062   6.286   3.636
 8961TIP3    H226825   0.200   6.279   3.575
 8962TIP3   OH226826   6.525   1.306   1.412
 8962TIP3    H126827   6.519   1.384   1.357
 8962TIP3    H226828   6.463   1.322   1.483
 8963TIP3   OH226829   6.387   6.917   3.319
 8963TIP3    H126830   6.458   6.902   3.257
 8963TIP3    H226831   6.424   6.893   3.404
 8964TIP3   OH226832   6.203   3.211   2.354
 8964TIP3    H126833   6.278   3.229   2.411
 8964TIP3    H226834   6.189   3.116   2.363
 8965TIP3   OH226835   6.982   2.590   6.650
 8965TIP3    H126836   7.065   2.547   6.627
 8965TIP3    H226837   6.933   2.523   6.698
 8966TIP3   OH226838   1.120   4.531   2.506
 8966TIP3    H126839   1.077   4.615   2.526
 8966TIP3    H226840   1.088   4.471   2.573
 8967TIP3   OH226841   7.254   4.544   6.165
 8967TIP3    H126842   7.241   4.552   6.071
 8967TIP3    H226843   7.233   4.453   6.185
 8968TIP3   OH226844   0.818   3.477   2.005
 8968TIP3    H126845   0.792   3.411   2.070
 8968TIP3    H226846   0.749   3.543   2.011
 8969TIP3   OH226847   2.209   2.828   1.333
 8969TIP3    H126848   2.251   2.833   1.246
 8969TIP3    H226849   2.230   2.740   1.364
 8970TIP3   OH226850   6.185   2.973   3.690
 8970TIP3    H126851   6.139   2.953   3.771
 8970TIP3    H226852   6.206   3.066   3.696
 8971TIP3   OH226853   5.415   1.991   0.673
 8971TIP3    H126854   5.429   1.961   0.583
 8971TIP3    H226855   5.496   1.967   0.719
 8972TIP3   OH226856   4.689   7.458   5.668
 8972TIP3    H126857   4.642   7.450   5.585
 8972TIP3    H226858   4.718   7.549   5.671
 8973TIP3   OH226859   1.112   3.027   2.958
 8973TIP3    H126860   1.167   3.102   2.939
 8973TIP3    H226861   1.086   3.038   3.050
 8974TIP3   OH226862   1.072   5.132   5.554
 8974TIP3    H126863   0.986   5.099   5.529
 8974TIP3    H226864   1.063   5.155   5.647
 8975TIP3   OH226865   4.867   4.519   6.035
 8975TIP3    H126866   4.890   4.603   5.996
 8975TIP3    H226867   4.951   4.472   6.042
 8976TIP3   OH226868   0.925   0.855   1.639
 8976TIP3    H126869   0.966   0.849   1.726
 8976TIP3    H226870   0.994   0.890   1.583
 8977TIP3   OH226871   6.966   7.029   6.534
 8977TIP3    H126872   7.000   7.032   6.445
 8977TIP3    H226873   6.965   6.936   6.556
 8978TIP3   OH226874   2.172   4.061   1.461
 8978TIP3    H126875   2.218   4.062   1.377
 8978TIP3    H226876   2.105   4.128   1.452
 8979TIP3   OH226877   5.793   4.804   3.850
 8979TIP3    H126878   5.763   4.788   3.939
 8979TIP3    H226879   5.745   4.740   3.797
 8980TIP3   OH226880   0.213   4.581   5.472
 8980TIP3    H126881   0.262   4.526   5.533
 8980TIP3    H226882   0.189   4.658   5.523
 8981TIP3   OH226883   0.435   2.300   1.530
 8981TIP3    H126884   0.451   2.206   1.527
 8981TIP3    H226885   0.519   2.340   1.509
 8982TIP3   OH226886   5.599   7.009   5.701
 8982TIP3    H126887   5.527   7.047   5.751
 8982TIP3    H226888   5.608   7.066   5.625
 8983TIP3   OH226889   5.982   4.900   2.823
 8983TIP3    H126890   6.004   4.988   2.854
 8983TIP3    H226891   5.971   4.849   2.903
 8984TIP3   OH226892   7.119   6.225   2.337
 8984TIP3    H126893   7.145   6.315   2.357
 8984TIP3    H226894   7.147   6.212   2.246
 8985TIP3   OH226895   8.431   5.875   4.837
 8985TIP3    H126896   8.389   5.794   4.865
 8985TIP3    H226897   8.400   5.889   4.748
 8986TIP3   OH226898   1.842   3.972   6.139
 8986TIP3    H126899   1.765   4.005   6.093
 8986TIP3    H226900   1.807   3.929   6.217
 8987TIP3   OH226901   5.802   0.557   2.280
 8987TIP3    H126902   5.783   0.553   2.374
 8987TIP3    H226903   5.883   0.606   2.273
 8988TIP3   OH226904   2.843   1.425   2.134
 8988TIP3    H126905   2.815   1.507   2.094
 8988TIP3    H226906   2.847   1.444   2.228
 8989TIP3   OH226907   3.317   1.550   6.117
 8989TIP3    H126908   3.240   1.599   6.145
 8989TIP3    H226909   3.333   1.580   6.028
 8990TIP3   OH226910   4.566   4.401   6.085
 8990TIP3    H126911   4.649   4.411   6.131
 8990TIP3    H226912   4.567   4.311   6.052
 8991TIP3   OH226913   1.300   3.725   4.991
 8991TIP3    H126914   1.389   3.690   4.991
 8991TIP3    H226915   1.302   3.796   4.927
 8992TIP3   OH226916   6.844   0.753   5.401
 8992TIP3    H126917   6.768   0.711   5.440
 8992TIP3    H226918   6.871   0.819   5.466
 8993TIP3   OH226919   7.333   3.423   2.749
 8993TIP3    H126920   7.279   3.457   2.820
 8993TIP3    H226921   7.421   3.457   2.768
 8994TIP3   OH226922   6.399   2.568   3.161
 8994TIP3    H126923   6.359   2.484   3.182
 8994TIP3    H226924   6.407   2.613   3.245
 8995TIP3   OH226925   0.446   7.196   0.158
 8995TIP3    H126926   0.440   7.188   0.253
 8995TIP3    H226927   0.406   7.280   0.138
 8996TIP3   OH226928   4.682   6.735   3.257
 8996TIP3    H126929   4.639   6.794   3.195
 8996TIP3    H226930   4.774   6.737   3.233
 8997TIP3   OH226931   6.856   2.744   5.418
 8997TIP3    H126932   6.773   2.733   5.464
 8997TIP3    H226933   6.831   2.770   5.329
 8998TIP3   OH226934   7.830   3.643   1.162
 8998TIP3    H126935   7.757   3.640   1.101
 8998TIP3    H226936   7.888   3.572   1.134
 8999TIP3   OH226937   1.484   4.369   5.940
 8999TIP3    H126938   1.527   4.284   5.928
 8999TIP3    H226939   1.405   4.365   5.886
 9000TIP3   OH226940   3.700   5.110   1.785
 9000TIP3    H126941   3.728   5.044   1.722
 9000TIP3    H226942   3.779   5.160   1.805
 9001TIP3   OH226943   5.737   5.903   4.922
 9001TIP3    H126944   5.674   5.975   4.917
 9001TIP3    H226945   5.820   5.942   4.898
 9002TIP3   OH226946   1.375   7.092   0.320
 9002TIP3    H126947   1.281   7.081   0.302
 9002TIP3    H226948   1.412   7.122   0.237
 9003TIP3   OH226949   2.812   1.815   3.203
 9003TIP3    H126950   2.842   1.727   3.181
 9003TIP3    H226951   2.717   1.812   3.188
 9004TIP3   OH226952   6.511   3.026   6.308
 9004TIP3    H126953   6.450   2.952   6.311
 9004TIP3    H226954   6.582   2.996   6.251
 9005TIP3   OH226955   7.641   0.508   5.351
 9005TIP3    H126956   7.592   0.578   5.307
 9005TIP3    H226957   7.699   0.473   5.283
 9006TIP3   OH226958   3.561   6.636   3.556
 9006TIP3    H126959   3.574   6.603   3.467
 9006TIP3    H226960   3.557   6.558   3.610
 9007TIP3   OH226961   5.048   7.307   1.906
 9007TIP3    H126962   5.104   7.260   1.844
 9007TIP3    H226963   5.084   7.284   1.992
 9008TIP3   OH226964   4.712   4.786   2.152
 9008TIP3    H126965   4.769   4.863   2.158
 9008TIP3    H226966   4.711   4.750   2.241
 9009TIP3   OH226967   7.190   0.433   1.741
 9009TIP3    H126968   7.154   0.453   1.655
 9009TIP3    H226969   7.189   0.516   1.788
 9010TIP3   OH226970   3.807   0.094   5.118
 9010TIP3    H126971   3.790   0.001   5.129
 9010TIP3    H226972   3.859   0.100   5.038
 9011TIP3   OH226973   7.490   0.775   3.024
 9011TIP3    H126974   7.495   0.867   2.999
 9011TIP3    H226975   7.518   0.727   2.946
 9012TIP3   OH226976   8.193   7.196   5.669
 9012TIP3    H126977   8.287   7.211   5.671
 9012TIP3    H226978   8.169   7.178   5.760
 9013TIP3   OH226979   1.662   6.191   1.424
 9013TIP3    H126980   1.614   6.189   1.507
 9013TIP3    H226981   1.750   6.162   1.447
 9014TIP3   OH226982   1.786   3.434   4.892
 9014TIP3    H126983   1.784   3.498   4.964
 9014TIP3    H226984   1.843   3.364   4.923
 9015TIP3   OH226985   4.924   2.987   3.589
 9015TIP3    H126986   4.997   2.980   3.528
 9015TIP3    H226987   4.858   2.925   3.557
 9016TIP3   OH226988   2.607   6.387   1.452
 9016TIP3    H126989   2.583   6.469   1.495
 9016TIP3    H226990   2.702   6.381   1.461
 9017TIP3   OH226991   6.463   4.168   1.552
 9017TIP3    H126992   6.411   4.228   1.605
 9017TIP3    H226993   6.401   4.100   1.525
 9018TIP3   OH226994   4.868   2.569   0.879
 9018TIP3    H126995   4.857   2.535   0.790
 9018TIP3    H226996   4.859   2.664   0.869
 9019TIP3   OH226997   0.315   6.163   3.460
 9019TIP3    H126998   0.380   6.209   3.407
 9019TIP3    H226999   0.354   6.076   3.475
 9020TIP3   OH227000   4.219   0.521   2.561
 9020TIP3    H127001   4.247   0.567   2.641
 9020TIP3    H227002   4.155   0.457   2.591
 9021TIP3   OH227003   2.784   4.529   2.372
 9021TIP3    H127004   2.855   4.575   2.418
 9021TIP3    H227005   2.713   4.593   2.368
 9022TIP3   OH227006   0.152   3.336   0.125
 9022TIP3    H127007   0.090   3.409   0.121
 9022TIP3    H227008   0.102   3.261   0.094
 9023TIP3   OH227009   3.269   1.074   5.934
 9023TIP3    H127010   3.240   1.148   5.987
 9023TIP3    H227011   3.199   1.009   5.944
 9024TIP3   OH227012   6.652   6.534   6.376
 9024TIP3    H127013   6.740   6.540   6.337
 9024TIP3    H227014   6.607   6.467   6.324
 9025TIP3   OH227015   5.133   0.377   0.668
 9025TIP3    H127016   5.148   0.463   0.629
 9025TIP3    H227017   5.145   0.391   0.762
 9026TIP3   OH227018   1.821   7.513   4.363
 9026TIP3    H127019   1.792   7.588   4.414
 9026TIP3    H227020   1.817   7.542   4.272
 9027TIP3   OH227021   5.888   1.903   2.418
 9027TIP3    H127022   5.939   1.972   2.375
 9027TIP3    H227023   5.799   1.938   2.423
 9028TIP3   OH227024   6.565   2.109   0.864
 9028TIP3    H127025   6.653   2.147   0.861
 9028TIP3    H227026   6.508   2.182   0.887
 9029TIP3   OH227027   0.778   2.200   4.864
 9029TIP3    H127028   0.716   2.127   4.860
 9029TIP3    H227029   0.862   2.161   4.842
 9030TIP3   OH227030   5.262   5.459   6.037
 9030TIP3    H127031   5.296   5.525   6.097
 9030TIP3    H227032   5.203   5.507   5.979
 9031TIP3   OH227033   5.201   7.208   0.596
 9031TIP3    H127034   5.200   7.116   0.570
 9031TIP3    H227035   5.288   7.239   0.574
 9032TIP3   OH227036   4.012   7.912   1.925
 9032TIP3    H127037   4.083   7.874   1.976
 9032TIP3    H227038   4.044   7.913   1.835
 9033TIP3   OH227039   7.086   3.757   3.121
 9033TIP3    H127040   7.107   3.779   3.212
 9033TIP3    H227041   6.991   3.759   3.117
 9034TIP3   OH227042   3.576   1.610   2.124
 9034TIP3    H127043   3.607   1.557   2.051
 9034TIP3    H227044   3.554   1.546   2.192
 9035TIP3   OH227045   7.057   2.127   2.304
 9035TIP3    H127046   6.975   2.173   2.325
 9035TIP3    H227047   7.040   2.036   2.328
 9036TIP3   OH227048   6.603   0.207   2.392
 9036TIP3    H127049   6.630   0.196   2.301
 9036TIP3    H227050   6.674   0.257   2.432
 9037TIP3   OH227051   1.178   1.135   2.374
 9037TIP3    H127052   1.247   1.196   2.398
 9037TIP3    H227053   1.146   1.167   2.290
 9038TIP3   OH227054   2.681   0.786   2.895
 9038TIP3    H127055   2.687   0.803   2.801
 9038TIP3    H227056   2.591   0.807   2.918
 9039TIP3   OH227057   4.664   7.450   4.216
 9039TIP3    H127058   4.570   7.451   4.198
 9039TIP3    H227059   4.702   7.405   4.142
 9040TIP3   OH227060   0.237   2.901   0.322
 9040TIP3    H127061   0.272   2.966   0.382
 9040TIP3    H227062   0.217   2.826   0.377
 9041TIP3   OH227063   4.328   4.510   2.914
 9041TIP3    H127064   4.396   4.494   2.980
 9041TIP3    H227065   4.351   4.594   2.875
 9042TIP3   OH227066   1.582   1.665   2.972
 9042TIP3    H127067   1.615   1.612   2.899
 9042TIP3    H227068   1.528   1.732   2.930
 9043TIP3   OH227069   6.258   3.953   6.356
 9043TIP3    H127070   6.255   3.863   6.389
 9043TIP3    H227071   6.261   3.944   6.261
 9044TIP3   OH227072   0.746   0.133   3.742
 9044TIP3    H127073   0.704   0.064   3.690
 9044TIP3    H227074   0.811   0.087   3.795
 9045TIP3   OH227075   7.647   5.428   2.797
 9045TIP3    H127076   7.557   5.420   2.830
 9045TIP3    H227077   7.637   5.459   2.707
 9046TIP3   OH227078   0.801   0.078   0.447
 9046TIP3    H127079   0.877   0.066   0.504
 9046TIP3    H227080   0.755  -0.006   0.449
 9047TIP3   OH227081   2.982   2.677   5.138
 9047TIP3    H127082   3.018   2.592   5.158
 9047TIP3    H227083   3.023   2.701   5.054
 9048TIP3   OH227084   4.296   7.674   4.801
 9048TIP3    H127085   4.263   7.625   4.877
 9048TIP3    H227086   4.217   7.696   4.751
 9049TIP3   OH227087   7.149   7.756   0.604
 9049TIP3    H127088   7.156   7.683   0.543
 9049TIP3    H227089   7.162   7.834   0.550
 9050TIP3   OH227090   2.967   4.717   3.252
 9050TIP3    H127091   2.874   4.703   3.231
 9050TIP3    H227092   2.995   4.633   3.289
 9051TIP3   OH227093   7.276   7.170   6.763
 9051TIP3    H127094   7.312   7.229   6.830
 9051TIP3    H227095   7.285   7.219   6.681
 9052TIP3   OH227096   0.161   5.469   6.580
 9052TIP3    H127097   0.223   5.400   6.601
 9052TIP3    H227098   0.145   5.515   6.663
 9053TIP3   OH227099   3.917   6.307   6.837
 9053TIP3    H127100   3.973   6.233   6.815
 9053TIP3    H227101   3.941   6.329   6.927
 9054TIP3   OH227102   3.475   1.483   2.359
 9054TIP3    H127103   3.445   1.554   2.415
 9054TIP3    H227104   3.395   1.443   2.325
 9055TIP3   OH227105   7.250   7.615   6.775
 9055TIP3    H127106   7.235   7.697   6.822
 9055TIP3    H227107   7.170   7.602   6.724
 9056TIP3   OH227108   7.305   3.428   3.315
 9056TIP3    H127109   7.220   3.455   3.280
 9056TIP3    H227110   7.294   3.335   3.335
 9057TIP3   OH227111   3.357   6.600   2.354
 9057TIP3    H127112   3.304   6.550   2.416
 9057TIP3    H227113   3.428   6.635   2.407
 9058TIP3   OH227114   4.131   3.885   0.765
 9058TIP3    H127115   4.222   3.869   0.792
 9058TIP3    H227116   4.129   3.979   0.744
 9059TIP3   OH227117   5.578   7.398   6.474
 9059TIP3    H127118   5.662   7.420   6.433
 9059TIP3    H227119   5.527   7.358   6.404
 9060TIP3   OH227120   6.919   6.030   4.455
 9060TIP3    H127121   6.918   6.027   4.551
 9060TIP3    H227122   6.956   6.116   4.435
 9061TIP3   OH227123   7.775   5.512   4.251
 9061TIP3    H127124   7.732   5.428   4.268
 9061TIP3    H227125   7.711   5.577   4.279
 9062TIP3   OH227126   7.849   3.110   4.423
 9062TIP3    H127127   7.932   3.078   4.460
 9062TIP3    H227128   7.849   3.076   4.334
 9063TIP3   OH227129   6.861   5.773   1.527
 9063TIP3    H127130   6.913   5.843   1.486
 9063TIP3    H227131   6.909   5.693   1.507
 9064TIP3   OH227132   7.850   5.256   2.803
 9064TIP3    H127133   7.823   5.185   2.861
 9064TIP3    H227134   7.777   5.318   2.805
 9065TIP3   OH227135   7.101   4.985   0.875
 9065TIP3    H127136   7.163   4.914   0.893
 9065TIP3    H227137   7.154   5.064   0.871
 9066TIP3   OH227138   2.237   0.780   0.521
 9066TIP3    H127139   2.320   0.789   0.568
 9066TIP3    H227140   2.208   0.691   0.541
 9067TIP3   OH227141   5.469   6.232   2.008
 9067TIP3    H127142   5.430   6.154   2.046
 9067TIP3    H227143   5.548   6.247   2.060
 9068TIP3   OH227144   3.768   6.680   4.233
 9068TIP3    H127145   3.690   6.699   4.181
 9068TIP3    H227146   3.841   6.714   4.181
 9069TIP3   OH227147   4.993   3.738   6.593
 9069TIP3    H127148   5.011   3.775   6.507
 9069TIP3    H227149   4.954   3.653   6.576
 9070TIP3   OH227150   0.472   2.001   1.480
 9070TIP3    H127151   0.559   1.994   1.439
 9070TIP3    H227152   0.438   1.912   1.479
 9071TIP3   OH227153   3.416   7.506   4.254
 9071TIP3    H127154   3.471   7.443   4.302
 9071TIP3    H227155   3.416   7.475   4.164
 9072TIP3   OH227156   4.461   1.138   1.970
 9072TIP3    H127157   4.414   1.143   2.052
 9072TIP3    H227158   4.442   1.051   1.936
 9073TIP3   OH227159   5.971   7.906   0.216
 9073TIP3    H127160   6.020   7.950   0.146
 9073TIP3    H227161   6.038   7.860   0.266
 9074TIP3   OH227162   4.932   2.575   4.711
 9074TIP3    H127163   4.838   2.556   4.709
 9074TIP3    H227164   4.974   2.495   4.680
 9075TIP3   OH227165   4.814   6.031   1.623
 9075TIP3    H127166   4.794   6.023   1.716
 9075TIP3    H227167   4.840   6.122   1.611
 9076TIP3   OH227168   8.058   0.974   6.776
 9076TIP3    H127169   7.999   1.049   6.773
 9076TIP3    H227170   8.003   0.899   6.757
 9077TIP3   OH227171   0.816   1.733   6.364
 9077TIP3    H127172   0.899   1.730   6.411
 9077TIP3    H227173   0.772   1.811   6.397
 9078TIP3   OH227174   6.562   3.672   5.928
 9078TIP3    H127175   6.503   3.705   5.860
 9078TIP3    H227176   6.539   3.723   6.006
 9079TIP3   OH227177   3.608   2.772   2.334
 9079TIP3    H127178   3.514   2.790   2.338
 9079TIP3    H227179   3.624   2.750   2.242
 9080TIP3   OH227180   3.491   3.592   0.055
 9080TIP3    H127181   3.524   3.682   0.063
 9080TIP3    H227182   3.565   3.543   0.021
 9081TIP3   OH227183   0.164   4.384   2.420
 9081TIP3    H127184   0.135   4.432   2.498
 9081TIP3    H227185   0.171   4.293   2.449
 9082TIP3   OH227186   8.360   2.912   6.417
 9082TIP3    H127187   8.284   2.911   6.476
 9082TIP3    H227188   8.432   2.879   6.471
 9083TIP3   OH227189   2.645   5.464   3.387
 9083TIP3    H127190   2.626   5.510   3.468
 9083TIP3    H227191   2.587   5.504   3.322
 9084TIP3   OH227192   5.486   6.566   0.514
 9084TIP3    H127193   5.532   6.537   0.435
 9084TIP3    H227194   5.543   6.538   0.585
 9085TIP3   OH227195   0.682   6.848   4.570
 9085TIP3    H127196   0.767   6.886   4.549
 9085TIP3    H227197   0.701   6.775   4.628
 9086TIP3   OH227198   2.984   0.949   6.403
 9086TIP3    H127199   3.036   1.013   6.450
 9086TIP3    H227200   2.970   0.988   6.316
 9087TIP3   OH227201   0.863   6.077   5.233
 9087TIP3    H127202   0.869   6.039   5.321
 9087TIP3    H227203   0.796   6.146   5.242
 9088TIP3   OH227204   7.494   6.604   1.947
 9088TIP3    H127205   7.436   6.544   1.902
 9088TIP3    H227206   7.439   6.648   2.012
 9089TIP3   OH227207   6.129   5.860   6.764
 9089TIP3    H127208   6.053   5.916   6.777
 9089TIP3    H227209   6.166   5.888   6.680
 9090TIP3   OH227210   5.057   4.007   5.083
 9090TIP3    H127211   5.144   4.039   5.110
 9090TIP3    H227212   5.034   3.942   5.150
 9091TIP3   OH227213   1.218   6.569   3.280
 9091TIP3    H127214   1.222   6.596   3.372
 9091TIP3    H227215   1.272   6.490   3.276
 9092TIP3   OH227216   1.157   0.061   2.747
 9092TIP3    H127217   1.195   0.048   2.834
 9092TIP3    H227218   1.204  -0.001   2.691
 9093TIP3   OH227219   4.576   3.626   0.308
 9093TIP3    H127220   4.590   3.551   0.367
 9093TIP3    H227221   4.481   3.638   0.309
 9094TIP3   OH227222   6.703   6.468   3.685
 9094TIP3    H127223   6.720   6.401   3.619
 9094TIP3    H227224   6.758   6.443   3.759
 9095TIP3   OH227225   4.875   1.108   2.667
 9095TIP3    H127226   4.893   1.201   2.681
 9095TIP3    H227227   4.808   1.086   2.732
 9096TIP3   OH227228   4.842   3.016   0.701
 9096TIP3    H127229   4.846   3.027   0.606
 9096TIP3    H227230   4.750   3.032   0.723
 9097TIP3   OH227231   5.785   4.290   3.677
 9097TIP3    H127232   5.793   4.195   3.681
 9097TIP3    H227233   5.829   4.321   3.756
 9098TIP3   OH227234   6.607   4.011   2.903
 9098TIP3    H127235   6.514   4.025   2.888
 9098TIP3    H227236   6.650   4.084   2.858
 9099TIP3   OH227237   2.909   6.407   3.653
 9099TIP3    H127238   2.831   6.424   3.705
 9099TIP3    H227239   2.982   6.430   3.711
 9100TIP3   OH227240   6.215   7.148   4.289
 9100TIP3    H127241   6.293   7.098   4.310
 9100TIP3    H227242   6.243   7.210   4.221
 9101TIP3   OH227243   1.658   5.319   4.169
 9101TIP3    H127244   1.686   5.263   4.096
 9101TIP3    H227245   1.735   5.373   4.189
 9102TIP3   OH227246   0.836   4.171   0.789
 9102TIP3    H127247   0.809   4.260   0.814
 9102TIP3    H227248   0.785   4.152   0.710
 9103TIP3   OH227249   6.001   4.167   1.406
 9103TIP3    H127250   6.072   4.113   1.371
 9103TIP3    H227251   5.971   4.219   1.331
 9104TIP3   OH227252   1.471   0.363   3.134
 9104TIP3    H127253   1.415   0.331   3.062
 9104TIP3    H227254   1.426   0.440   3.167
 9105TIP3   OH227255   2.927   3.966   5.927
 9105TIP3    H127256   2.984   3.914   5.870
 9105TIP3    H227257   2.932   3.922   6.013
 9106TIP3   OH227258   1.003   4.948   3.517
 9106TIP3    H127259   0.928   4.951   3.576
 9106TIP3    H227260   1.038   5.037   3.519
 9107TIP3   OH227261   1.277   3.876   3.490
 9107TIP3    H127262   1.252   3.920   3.409
 9107TIP3    H227263   1.372   3.863   3.483
 9108TIP3   OH227264   7.167   7.517   6.353
 9108TIP3    H127265   7.146   7.553   6.266
 9108TIP3    H227266   7.121   7.433   6.356
 9109TIP3   OH227267   1.119   1.706   1.058
 9109TIP3    H127268   1.181   1.662   1.000
 9109TIP3    H227269   1.071   1.767   1.001
 9110TIP3   OH227270  -0.055   0.095   3.055
 9110TIP3    H127271  -0.030   0.005   3.074
 9110TIP3    H227272   0.001   0.148   3.112
 9111TIP3   OH227273   3.652   7.356   6.638
 9111TIP3    H127274   3.637   7.267   6.670
 9111TIP3    H227275   3.717   7.393   6.698
 9112TIP3   OH227276   1.187   7.395   5.042
 9112TIP3    H127277   1.145   7.317   5.005
 9112TIP3    H227278   1.273   7.365   5.070
 9113TIP3   OH227279   5.391   1.347   2.156
 9113TIP3    H127280   5.315   1.293   2.178
 9113TIP3    H227281   5.393   1.347   2.060
 9114TIP3   OH227282   6.923   3.274   5.582
 9114TIP3    H127283   6.884   3.190   5.561
 9114TIP3    H227284   6.923   3.277   5.678
 9115TIP3   OH227285   3.982   6.799   6.655
 9115TIP3    H127286   4.021   6.838   6.577
 9115TIP3    H227287   4.055   6.787   6.716
 9116TIP3   OH227288   5.122   3.199   1.406
 9116TIP3    H127289   5.120   3.231   1.316
 9116TIP3    H227290   5.098   3.107   1.399
 9117TIP3   OH227291   0.838   1.021   3.219
 9117TIP3    H127292   0.812   1.102   3.176
 9117TIP3    H227293   0.868   1.048   3.305
 9118TIP3   OH227294   3.855   0.318   1.116
 9118TIP3    H127295   3.870   0.371   1.037
 9118TIP3    H227296   3.932   0.336   1.171
 9119TIP3   OH227297   1.197   5.515   3.521
 9119TIP3    H127298   1.233   5.584   3.464
 9119TIP3    H227299   1.162   5.562   3.596
 9120TIP3   OH227300   1.319   2.391   2.589
 9120TIP3    H127301   1.256   2.364   2.521
 9120TIP3    H227302   1.400   2.407   2.541
 9121TIP3   OH227303   7.721   1.348   3.673
 9121TIP3    H127304   7.785   1.292   3.628
 9121TIP3    H227305   7.667   1.383   3.603
 9122TIP3   OH227306   0.503   5.431   6.380
 9122TIP3    H127307   0.481   5.501   6.318
 9122TIP3    H227308   0.458   5.456   6.461
 9123TIP3   OH227309   4.091   4.486   3.795
 9123TIP3    H127310   4.034   4.562   3.804
 9123TIP3    H227311   4.055   4.437   3.721
 9124TIP3   OH227312   6.329   2.131   2.452
 9124TIP3    H127313   6.415   2.141   2.412
 9124TIP3    H227314   6.295   2.049   2.416
 9125TIP3   OH227315   2.988   4.786   1.172
 9125TIP3    H127316   2.983   4.873   1.133
 9125TIP3    H227317   3.079   4.777   1.199
 9126TIP3   OH227318   7.357   3.792   4.497
 9126TIP3    H127319   7.381   3.827   4.582
 9126TIP3    H227320   7.384   3.700   4.500
 9127TIP3   OH227321   3.723   1.987   2.536
 9127TIP3    H127322   3.802   2.039   2.522
 9127TIP3    H227323   3.697   1.959   2.448
 9128TIP3   OH227324   8.174   6.930   0.142
 9128TIP3    H127325   8.219   7.007   0.176
 9128TIP3    H227326   8.243   6.866   0.128
 9129TIP3   OH227327   1.811   2.393   0.918
 9129TIP3    H127328   1.752   2.438   0.857
 9129TIP3    H227329   1.897   2.402   0.878
 9130TIP3   OH227330   1.893   2.740   1.914
 9130TIP3    H127331   1.865   2.794   1.840
 9130TIP3    H227332   1.970   2.783   1.948
 9131TIP3   OH227333   2.628   5.565   3.669
 9131TIP3    H127334   2.610   5.659   3.665
 9131TIP3    H227335   2.553   5.529   3.717
 9132TIP3   OH227336   1.853   6.085   4.854
 9132TIP3    H127337   1.866   6.084   4.949
 9132TIP3    H227338   1.870   6.176   4.829
 9133TIP3   OH227339   7.989   5.714   0.625
 9133TIP3    H127340   8.026   5.738   0.540
 9133TIP3    H227341   8.058   5.733   0.688
 9134TIP3   OH227342   3.510   2.389   0.796
 9134TIP3    H127343   3.480   2.303   0.765
 9134TIP3    H227344   3.565   2.368   0.871
 9135TIP3   OH227345   4.557   6.035   2.625
 9135TIP3    H127346   4.609   5.960   2.651
 9135TIP3    H227347   4.479   5.997   2.583
 9136TIP3   OH227348   8.051   0.340   0.148
 9136TIP3    H127349   8.122   0.403   0.161
 9136TIP3    H227350   8.096   0.256   0.141
 9137TIP3   OH227351   3.792   0.462   3.765
 9137TIP3    H127352   3.741   0.450   3.685
 9137TIP3    H227353   3.865   0.517   3.738
 9138TIP3   OH227354   8.227   7.626   5.761
 9138TIP3    H127355   8.293   7.691   5.788
 9138TIP3    H227356   8.244   7.611   5.668
 9139TIP3   OH227357   3.069   2.658   6.103
 9139TIP3    H127358   3.107   2.571   6.113
 9139TIP3    H227359   2.998   2.661   6.167
 9140TIP3   OH227360   8.342   4.857   5.287
 9140TIP3    H127361   8.425   4.811   5.279
 9140TIP3    H227362   8.364   4.949   5.273
 9141TIP3   OH227363   7.354   5.170   3.933
 9141TIP3    H127364   7.442   5.202   3.952
 9141TIP3    H227365   7.322   5.228   3.864
 9142TIP3   OH227366   7.779   0.980   0.481
 9142TIP3    H127367   7.762   1.022   0.565
 9142TIP3    H227368   7.867   1.007   0.458
 9143TIP3   OH227369   5.580   5.959   1.619
 9143TIP3    H127370   5.534   5.910   1.688
 9143TIP3    H227371   5.639   6.017   1.666
 9144TIP3   OH227372   1.626   3.430   6.071
 9144TIP3    H127373   1.614   3.384   6.154
 9144TIP3    H227374   1.692   3.497   6.091
 9145TIP3   OH227375   1.870   1.606   6.257
 9145TIP3    H127376   1.851   1.527   6.306
 9145TIP3    H227377   1.801   1.667   6.281
 9146TIP3   OH227378   3.055   4.860   6.853
 9146TIP3    H127379   2.977   4.916   6.852
 9146TIP3    H227380   3.031   4.785   6.799
 9147TIP3   OH227381   0.480   3.223   2.147
 9147TIP3    H127382   0.545   3.189   2.209
 9147TIP3    H227383   0.529   3.235   2.066
 9148TIP3   OH227384   1.110   5.187   3.519
 9148TIP3    H127385   1.048   5.254   3.487
 9148TIP3    H227386   1.192   5.208   3.475
 9149TIP3   OH227387   4.529   0.512   3.979
 9149TIP3    H127388   4.508   0.423   3.950
 9149TIP3    H227389   4.621   0.524   3.957
 9150TIP3   OH227390   6.494   7.605   4.971
 9150TIP3    H127391   6.460   7.655   5.045
 9150TIP3    H227392   6.504   7.516   5.005
 9151TIP3   OH227393   1.962   3.601   2.914
 9151TIP3    H127394   1.938   3.512   2.890
 9151TIP3    H227395   2.003   3.638   2.836
 9152TIP3   OH227396   4.578   5.555   5.483
 9152TIP3    H127397   4.547   5.522   5.567
 9152TIP3    H227398   4.600   5.477   5.432
 9153TIP3   OH227399   0.087   0.915   3.886
 9153TIP3    H127400   0.158   0.976   3.905
 9153TIP3    H227401   0.077   0.920   3.791
 9154TIP3   OH227402   2.834   5.495   1.629
 9154TIP3    H127403   2.832   5.582   1.669
 9154TIP3    H227404   2.780   5.503   1.550
 9155TIP3   OH227405   3.050   0.524   6.579
 9155TIP3    H127406   3.134   0.526   6.624
 9155TIP3    H227407   2.998   0.461   6.628
 9156TIP3   OH227408   6.061   3.345   2.868
 9156TIP3    H127409   6.070   3.255   2.837
 9156TIP3    H227410   6.130   3.354   2.934
 9157TIP3   OH227411   2.262   2.326   1.342
 9157TIP3    H127412   2.309   2.246   1.367
 9157TIP3    H227413   2.172   2.296   1.329
 9158TIP3   OH227414   8.018   2.081   3.666
 9158TIP3    H127415   7.932   2.040   3.677
 9158TIP3    H227416   8.077   2.009   3.646
 9159TIP3   OH227417   1.965   4.820   4.760
 9159TIP3    H127418   1.870   4.830   4.764
 9159TIP3    H227419   1.978   4.728   4.736
 9160TIP3   OH227420   2.497   7.398   5.651
 9160TIP3    H127421   2.419   7.381   5.702
 9160TIP3    H227422   2.505   7.493   5.647
 9161TIP3   OH227423   0.253   2.354   2.861
 9161TIP3    H127424   0.164   2.388   2.854
 9161TIP3    H227425   0.281   2.380   2.949
 9162TIP3   OH227426   2.454   1.510   0.544
 9162TIP3    H127427   2.407   1.484   0.465
 9162TIP3    H227428   2.466   1.428   0.592
 9163TIP3   OH227429   3.500   3.142   3.497
 9163TIP3    H127430   3.582   3.162   3.541
 9163TIP3    H227431   3.488   3.212   3.433
 9164TIP3   OH227432   5.317   1.275   0.584
 9164TIP3    H127433   5.319   1.328   0.664
 9164TIP3    H227434   5.262   1.200   0.606
 9165TIP3   OH227435   0.252   4.211   5.688
 9165TIP3    H127436   0.213   4.255   5.612
 9165TIP3    H227437   0.276   4.283   5.747
 9166TIP3   OH227438   2.370   1.645   4.611
 9166TIP3    H127439   2.374   1.616   4.703
 9166TIP3    H227440   2.423   1.724   4.608
 9167TIP3   OH227441   2.134   0.673   4.254
 9167TIP3    H127442   2.175   0.589   4.234
 9167TIP3    H227443   2.044   0.651   4.281
 9168TIP3   OH227444   5.286   1.795   6.025
 9168TIP3    H127445   5.207   1.769   5.977
 9168TIP3    H227446   5.258   1.800   6.116
 9169TIP3   OH227447   4.215   0.718   5.733
 9169TIP3    H127448   4.212   0.737   5.639
 9169TIP3    H227449   4.214   0.805   5.774
 9170TIP3   OH227450   7.762   5.231   4.231
 9170TIP3    H127451   7.723   5.250   4.145
 9170TIP3    H227452   7.856   5.230   4.214
 9171TIP3   OH227453   4.365   3.615   4.726
 9171TIP3    H127454   4.362   3.521   4.744
 9171TIP3    H227455   4.382   3.655   4.811
 9172TIP3   OH227456   2.888   1.448   4.790
 9172TIP3    H127457   2.802   1.406   4.799
 9172TIP3    H227458   2.894   1.508   4.865
 9173TIP3   OH227459   0.392   1.287   1.572
 9173TIP3    H127460   0.401   1.322   1.483
 9173TIP3    H227461   0.470   1.233   1.584
 9174TIP3   OH227462   6.178   5.711   4.030
 9174TIP3    H127463   6.106   5.660   4.069
 9174TIP3    H227464   6.221   5.650   3.970
 9175TIP3   OH227465   1.003   5.822   1.332
 9175TIP3    H127466   0.941   5.792   1.398
 9175TIP3    H227467   1.023   5.744   1.280
 9176TIP3   OH227468   0.563   3.064   5.638
 9176TIP3    H127469   0.523   3.064   5.725
 9176TIP3    H227470   0.632   2.998   5.642
 9177TIP3   OH227471   3.614   2.879   4.990
 9177TIP3    H127472   3.663   2.958   5.013
 9177TIP3    H227473   3.613   2.878   4.894
 9178TIP3   OH227474   5.516   4.225   4.762
 9178TIP3    H127475   5.536   4.207   4.670
 9178TIP3    H227476   5.430   4.187   4.776
 9179TIP3   OH227477   6.028   3.680   6.606
 9179TIP3    H127478   6.003   3.768   6.632
 9179TIP3    H227479   6.072   3.691   6.522
 9180TIP3   OH227480   3.721   1.417   4.794
 9180TIP3    H127481   3.644   1.363   4.813
 9180TIP3    H227482   3.796   1.362   4.819
 9181TIP3   OH227483   7.149   4.734   3.280
 9181TIP3    H127484   7.095   4.786   3.221
 9181TIP3    H227485   7.129   4.643   3.258
 9182TIP3   OH227486   0.725   6.119   4.509
 9182TIP3    H127487   0.712   6.051   4.575
 9182TIP3    H227488   0.771   6.074   4.438
 9183TIP3   OH227489   7.256   1.422   6.313
 9183TIP3    H127490   7.328   1.474   6.348
 9183TIP3    H227491   7.298   1.358   6.256
 9184TIP3   OH227492   0.752   0.660   0.753
 9184TIP3    H127493   0.832   0.667   0.700
 9184TIP3    H227494   0.684   0.634   0.691
 9185TIP3   OH227495   1.298   7.464   3.307
 9185TIP3    H127496   1.328   7.551   3.281
 9185TIP3    H227497   1.203   7.470   3.310
 9186TIP3   OH227498   5.734   2.872   0.203
 9186TIP3    H127499   5.687   2.872   0.286
 9186TIP3    H227500   5.666   2.868   0.136
 9187TIP3   OH227501   6.727   7.856   0.012
 9187TIP3    H127502   6.757   7.784  -0.044
 9187TIP3    H227503   6.720   7.817   0.099
 9188TIP3   OH227504   8.148   1.824  -0.027
 9188TIP3    H127505   8.200   1.884   0.026
 9188TIP3    H227506   8.079   1.794   0.032
 9189TIP3   OH227507   5.155   5.318   1.523
 9189TIP3    H127508   5.245   5.336   1.551
 9189TIP3    H227509   5.100   5.363   1.587
 9190TIP3   OH227510   0.172   3.399   0.451
 9190TIP3    H127511   0.209   3.364   0.370
 9190TIP3    H227512   0.099   3.454   0.423
 9191TIP3   OH227513   6.884   2.829   4.022
 9191TIP3    H127514   6.804   2.812   4.072
 9191TIP3    H227515   6.884   2.923   4.009
 9192TIP3   OH227516   4.679   1.791   5.395
 9192TIP3    H127517   4.720   1.877   5.405
 9192TIP3    H227518   4.618   1.784   5.468
 9193TIP3   OH227519   4.333   7.523   2.040
 9193TIP3    H127520   4.239   7.503   2.034
 9193TIP3    H227521   4.376   7.440   2.019
 9194TIP3   OH227522   6.039   2.350   5.260
 9194TIP3    H127523   6.063   2.306   5.342
 9194TIP3    H227524   5.945   2.364   5.267
 9195TIP3   OH227525   6.538   1.194   4.668
 9195TIP3    H127526   6.634   1.189   4.670
 9195TIP3    H227527   6.509   1.126   4.728
 9196TIP3   OH227528   2.570   7.471   3.293
 9196TIP3    H127529   2.604   7.487   3.381
 9196TIP3    H227530   2.503   7.403   3.306
 9197TIP3   OH227531   3.349   6.681   1.424
 9197TIP3    H127532   3.309   6.729   1.352
 9197TIP3    H227533   3.275   6.655   1.479
 9198TIP3   OH227534   7.490   3.919   3.908
 9198TIP3    H127535   7.491   3.917   3.812
 9198TIP3    H227536   7.577   3.889   3.933
 9199TIP3   OH227537   2.656   0.546   3.712
 9199TIP3    H127538   2.670   0.576   3.622
 9199TIP3    H227539   2.561   0.546   3.723
 9200TIP3   OH227540   2.734   5.064   6.253
 9200TIP3    H127541   2.723   5.048   6.160
 9200TIP3    H227542   2.644   5.062   6.288
 9201TIP3   OH227543   0.317   5.399   4.607
 9201TIP3    H127544   0.323   5.429   4.516
 9201TIP3    H227545   0.285   5.475   4.655
 9202TIP3   OH227546   4.299   2.313   3.540
 9202TIP3    H127547   4.311   2.230   3.494
 9202TIP3    H227548   4.375   2.320   3.597
 9203TIP3   OH227549   8.022   5.122   6.319
 9203TIP3    H127550   8.105   5.148   6.277
 9203TIP3    H227551   7.992   5.048   6.268
 9204TIP3   OH227552   6.099   2.855   6.753
 9204TIP3    H127553   6.108   2.885   6.843
 9204TIP3    H227554   6.019   2.897   6.721
 9205TIP3   OH227555   1.810   0.411   0.421
 9205TIP3    H127556   1.801   0.468   0.344
 9205TIP3    H227557   1.826   0.470   0.494
 9206TIP3   OH227558   0.954   4.730   6.438
 9206TIP3    H127559   0.960   4.758   6.530
 9206TIP3    H227560   1.032   4.676   6.424
 9207TIP3   OH227561   4.320   1.887   6.718
 9207TIP3    H127562   4.388   1.821   6.706
 9207TIP3    H227563   4.309   1.894   6.813
 9208TIP3   OH227564   0.461   5.999   0.276
 9208TIP3    H127565   0.428   6.080   0.313
 9208TIP3    H227566   0.398   5.976   0.207
 9209TIP3   OH227567   0.431   4.260   1.132
 9209TIP3    H127568   0.426   4.249   1.037
 9209TIP3    H227569   0.519   4.230   1.155
 9210TIP3   OH227570   5.117   5.585   5.224
 9210TIP3    H127571   5.163   5.669   5.230
 9210TIP3    H227572   5.164   5.528   5.286
 9211TIP3   OH227573   7.949   4.848   3.148
 9211TIP3    H127574   8.044   4.850   3.158
 9211TIP3    H227575   7.924   4.758   3.170
 9212TIP3   OH227576   1.144   6.309   3.770
 9212TIP3    H127577   1.165   6.308   3.676
 9212TIP3    H227578   1.133   6.402   3.791
 9213TIP3   OH227579   1.480   7.448   1.794
 9213TIP3    H127580   1.478   7.401   1.710
 9213TIP3    H227581   1.389   7.475   1.808
 9214TIP3   OH227582   7.660   3.227   0.331
 9214TIP3    H127583   7.698   3.206   0.245
 9214TIP3    H227584   7.591   3.162   0.344
 9215TIP3   OH227585   0.164   7.797   6.647
 9215TIP3    H127586   0.242   7.803   6.704
 9215TIP3    H227587   0.115   7.877   6.667
 9216TIP3   OH227588   0.792   6.763   0.869
 9216TIP3    H127589   0.781   6.718   0.786
 9216TIP3    H227590   0.704   6.767   0.907
 9217TIP3   OH227591   4.841   3.724   2.594
 9217TIP3    H127592   4.877   3.777   2.665
 9217TIP3    H227593   4.916   3.707   2.536
 9218TIP3   OH227594   1.494   1.949   4.409
 9218TIP3    H127595   1.487   1.877   4.471
 9218TIP3    H227596   1.416   1.941   4.353
 9219TIP3   OH227597   4.120   2.439   5.179
 9219TIP3    H127598   4.127   2.344   5.182
 9219TIP3    H227599   4.116   2.466   5.271
 9220TIP3   OH227600   4.650   2.673   5.603
 9220TIP3    H127601   4.728   2.636   5.643
 9220TIP3    H227602   4.677   2.759   5.572
 9221TIP3   OH227603   3.508   0.475   5.074
 9221TIP3    H127604   3.486   0.384   5.094
 9221TIP3    H227605   3.499   0.482   4.979
 9222TIP3   OH227606   7.337   7.278   5.599
 9222TIP3    H127607   7.244   7.261   5.614
 9222TIP3    H227608   7.345   7.373   5.604
 9223TIP3   OH227609   5.724   0.850   6.598
 9223TIP3    H127610   5.637   0.840   6.637
 9223TIP3    H227611   5.707   0.888   6.512
 9224TIP3   OH227612   0.796   5.800   3.863
 9224TIP3    H127613   0.721   5.763   3.909
 9224TIP3    H227614   0.868   5.740   3.881
 9225TIP3   OH227615   1.976   5.878   2.637
 9225TIP3    H127616   1.911   5.913   2.698
 9225TIP3    H227617   1.970   5.934   2.560
 9226TIP3   OH227618   7.132   0.296   3.100
 9226TIP3    H127619   7.123   0.374   3.046
 9226TIP3    H227620   7.110   0.325   3.189
 9227TIP3   OH227621   1.632   7.013   0.782
 9227TIP3    H127622   1.667   6.941   0.728
 9227TIP3    H227623   1.539   7.018   0.757
 9228TIP3   OH227624   2.565   5.692   0.990
 9228TIP3    H127625   2.527   5.611   0.955
 9228TIP3    H227626   2.608   5.732   0.915
 9229TIP3   OH227627   7.991   1.478   0.562
 9229TIP3    H127628   7.906   1.462   0.602
 9229TIP3    H227629   8.007   1.400   0.510
 9230TIP3   OH227630   6.578   6.862   3.137
 9230TIP3    H127631   6.646   6.910   3.091
 9230TIP3    H227632   6.539   6.805   3.071
 9231TIP3   OH227633   0.406   4.023   3.921
 9231TIP3    H127634   0.430   4.115   3.921
 9231TIP3    H227635   0.455   3.984   3.848
 9232TIP3   OH227636   0.163   2.473   4.560
 9232TIP3    H127637   0.236   2.520   4.601
 9232TIP3    H227638   0.131   2.414   4.629
 9233TIP3   OH227639   2.613   6.150   2.551
 9233TIP3    H127640   2.571   6.110   2.475
 9233TIP3    H227641   2.706   6.153   2.529
 9234TIP3   OH227642   8.133   5.176   4.780
 9234TIP3    H127643   8.181   5.258   4.787
 9234TIP3    H227644   8.184   5.114   4.832
 9235TIP3   OH227645   2.974   3.718   5.097
 9235TIP3    H127646   3.005   3.661   5.027
 9235TIP3    H227647   2.991   3.807   5.066
 9236TIP3   OH227648   4.296   0.428   5.242
 9236TIP3    H127649   4.216   0.376   5.246
 9236TIP3    H227650   4.358   0.372   5.196
 9237TIP3   OH227651   8.411   5.717   3.354
 9237TIP3    H127652   8.416   5.771   3.275
 9237TIP3    H227653   8.396   5.629   3.322
 9238TIP3   OH227654   0.464   7.547   4.477
 9238TIP3    H127655   0.507   7.631   4.464
 9238TIP3    H227656   0.504   7.511   4.557
 9239TIP3   OH227657   7.695   7.833   2.172
 9239TIP3    H127658   7.614   7.787   2.196
 9239TIP3    H227659   7.719   7.797   2.087
 9240TIP3   OH227660   5.293   6.993   6.262
 9240TIP3    H127661   5.306   6.954   6.348
 9240TIP3    H227662   5.327   6.928   6.200
 9241TIP3   OH227663   5.098   6.781   3.720
 9241TIP3    H127664   5.067   6.774   3.629
 9241TIP3    H227665   5.065   6.702   3.762
 9242TIP3   OH227666   3.752   5.571   0.845
 9242TIP3    H127667   3.819   5.622   0.800
 9242TIP3    H227668   3.791   5.484   0.854
 9243TIP3   OH227669   2.132   3.393   5.898
 9243TIP3    H127670   2.200   3.440   5.945
 9243TIP3    H227671   2.121   3.312   5.948
 9244TIP3   OH227672   5.829   1.267   2.656
 9244TIP3    H127673   5.906   1.254   2.712
 9244TIP3    H227674   5.847   1.214   2.578
 9245TIP3   OH227675   7.920   5.119   5.479
 9245TIP3    H127676   7.885   5.072   5.403
 9245TIP3    H227677   7.844   5.163   5.517
 9246TIP3   OH227678   2.245   0.316   3.658
 9246TIP3    H127679   2.297   0.393   3.633
 9246TIP3    H227680   2.299   0.270   3.721
 9247TIP3   OH227681   2.471   0.491   4.532
 9247TIP3    H127682   2.391   0.512   4.580
 9247TIP3    H227683   2.538   0.483   4.600
 9248TIP3   OH227684   5.010   0.970   1.621
 9248TIP3    H127685   5.017   0.897   1.682
 9248TIP3    H227686   4.968   0.932   1.543
 9249TIP3   OH227687   1.381   6.834   2.119
 9249TIP3    H127688   1.400   6.884   2.199
 9249TIP3    H227689   1.455   6.774   2.110
 9250TIP3   OH227690   4.513   4.467   6.389
 9250TIP3    H127691   4.516   4.372   6.387
 9250TIP3    H227692   4.600   4.495   6.362
 9251TIP3   OH227693   6.312   3.571   0.767
 9251TIP3    H127694   6.257   3.645   0.741
 9251TIP3    H227695   6.292   3.503   0.703
 9252TIP3   OH227696   3.045   5.225   5.110
 9252TIP3    H127697   3.092   5.291   5.058
 9252TIP3    H227698   2.977   5.275   5.155
 9253TIP3   OH227699   1.178   6.340   4.889
 9253TIP3    H127700   1.236   6.307   4.821
 9253TIP3    H227701   1.149   6.262   4.937
 9254TIP3   OH227702   0.568   6.792   1.032
 9254TIP3    H127703   0.517   6.871   1.048
 9254TIP3    H227704   0.505   6.731   0.992
 9255TIP3   OH227705   8.340   2.023   4.766
 9255TIP3    H127706   8.333   2.114   4.739
 9255TIP3    H227707   8.277   2.014   4.838
 9256TIP3   OH227708   2.550   3.100   4.378
 9256TIP3    H127709   2.574   3.112   4.286
 9256TIP3    H227710   2.623   3.139   4.427
 9257TIP3   OH227711   3.962   3.624   1.177
 9257TIP3    H127712   3.925   3.608   1.264
 9257TIP3    H227713   3.978   3.718   1.175
 9258TIP3   OH227714   6.557   7.355   4.744
 9258TIP3    H127715   6.478   7.315   4.705
 9258TIP3    H227716   6.526   7.437   4.783
 9259TIP3   OH227717   0.903   0.446   5.234
 9259TIP3    H127718   0.861   0.531   5.249
 9259TIP3    H227719   0.914   0.409   5.321
 9260TIP3   OH227720   5.285   0.447   6.613
 9260TIP3    H127721   5.253   0.357   6.604
 9260TIP3    H227722   5.314   0.471   6.525
 9261TIP3   OH227723   5.321   6.924   2.957
 9261TIP3    H127724   5.330   6.868   3.033
 9261TIP3    H227725   5.358   7.008   2.985
 9262TIP3   OH227726   2.814   0.685   1.254
 9262TIP3    H127727   2.733   0.729   1.278
 9262TIP3    H227728   2.832   0.626   1.328
 9263TIP3   OH227729   2.704   4.955   2.157
 9263TIP3    H127730   2.781   4.965   2.213
 9263TIP3    H227731   2.739   4.958   2.068
 9264TIP3   OH227732   4.753   4.559   4.903
 9264TIP3    H127733   4.829   4.546   4.959
 9264TIP3    H227734   4.708   4.475   4.903
 9265TIP3   OH227735   5.214   6.925   4.904
 9265TIP3    H127736   5.142   6.862   4.906
 9265TIP3    H227737   5.176   7.004   4.864
 9266TIP3   OH227738   7.799   3.252   2.443
 9266TIP3    H127739   7.780   3.345   2.457
 9266TIP3    H227740   7.794   3.241   2.348
 9267TIP3   OH227741   0.389   1.428   1.313
 9267TIP3    H127742   0.343   1.490   1.257
 9267TIP3    H227743   0.471   1.410   1.268
 9268TIP3   OH227744   4.624   0.973   5.607
 9268TIP3    H127745   4.547   0.997   5.555
 9268TIP3    H227746   4.602   1.000   5.696
 9269TIP3   OH227747   3.369   6.422   3.999
 9269TIP3    H127748   3.371   6.393   4.091
 9269TIP3    H227749   3.458   6.408   3.968
 9270TIP3   OH227750   7.656   0.646   0.854
 9270TIP3    H127751   7.714   0.597   0.912
 9270TIP3    H227752   7.578   0.663   0.906
 9271TIP3   OH227753   5.552   4.432   2.920
 9271TIP3    H127754   5.638   4.468   2.900
 9271TIP3    H227755   5.558   4.403   3.011
 9272TIP3   OH227756   5.248   0.516   4.125
 9272TIP3    H127757   5.156   0.500   4.143
 9272TIP3    H227758   5.268   0.596   4.175
 9273TIP3   OH227759   3.387   1.526   4.947
 9273TIP3    H127760   3.472   1.568   4.962
 9273TIP3    H227761   3.328   1.597   4.923
 9274TIP3   OH227762   7.771   5.558   1.837
 9274TIP3    H127763   7.707   5.520   1.897
 9274TIP3    H227764   7.757   5.511   1.755
 9275TIP3   OH227765   5.502   0.503   5.092
 9275TIP3    H127766   5.568   0.568   5.115
 9275TIP3    H227767   5.435   0.553   5.045
 9276TIP3   OH227768   1.172   4.393   2.932
 9276TIP3    H127769   1.107   4.410   2.863
 9276TIP3    H227770   1.176   4.297   2.938
 9277TIP3   OH227771   3.783   3.200   3.521
 9277TIP3    H127772   3.792   3.165   3.610
 9277TIP3    H227773   3.802   3.125   3.464
 9278TIP3   OH227774   1.350   0.960   1.823
 9278TIP3    H127775   1.440   0.970   1.855
 9278TIP3    H227776   1.308   0.902   1.887
 9279TIP3   OH227777   4.841   0.058   3.650
 9279TIP3    H127778   4.763   0.095   3.692
 9279TIP3    H227779   4.809  -0.018   3.602
 9280TIP3   OH227780   5.731   0.199   4.275
 9280TIP3    H127781   5.650   0.177   4.322
 9280TIP3    H227782   5.724   0.152   4.192
 9281TIP3   OH227783   5.992   0.632   1.818
 9281TIP3    H127784   5.972   0.569   1.887
 9281TIP3    H227785   5.930   0.612   1.748
 9282TIP3   OH227786   6.174   4.672   6.135
 9282TIP3    H127787   6.143   4.610   6.201
 9282TIP3    H227788   6.202   4.748   6.186
 9283TIP3   OH227789   8.063   5.632   6.122
 9283TIP3    H127790   8.158   5.619   6.114
 9283TIP3    H227791   8.027   5.606   6.038
 9284TIP3   OH227792   1.902   5.560   2.116
 9284TIP3    H127793   1.996   5.581   2.119
 9284TIP3    H227794   1.890   5.494   2.183
 9285TIP3   OH227795   5.511   3.315   4.529
 9285TIP3    H127796   5.462   3.378   4.581
 9285TIP3    H227797   5.443   3.264   4.484
 9286TIP3   OH227798   2.568   5.164   5.290
 9286TIP3    H127799   2.634   5.226   5.321
 9286TIP3    H227800   2.584   5.085   5.341
 9287TIP3   OH227801   0.641   6.423   1.411
 9287TIP3    H127802   0.556   6.462   1.433
 9287TIP3    H227803   0.682   6.486   1.351
 9288TIP3   OH227804   5.894   1.458   2.992
 9288TIP3    H127805   5.835   1.440   3.066
 9288TIP3    H227806   5.975   1.489   3.033
 9289TIP3   OH227807   1.055   5.282   2.013
 9289TIP3    H127808   1.112   5.231   2.070
 9289TIP3    H227809   1.021   5.352   2.068
 9290TIP3   OH227810   1.181   6.491   1.815
 9290TIP3    H127811   1.096   6.449   1.804
 9290TIP3    H227812   1.242   6.432   1.769
 9291TIP3   OH227813   2.515   0.560   6.694
 9291TIP3    H127814   2.555   0.644   6.715
 9291TIP3    H227815   2.421   0.573   6.710
 9292TIP3   OH227816   1.555   7.727   2.722
 9292TIP3    H127817   1.561   7.632   2.729
 9292TIP3    H227818   1.502   7.753   2.798
 9293TIP3   OH227819   2.113   0.127   4.095
 9293TIP3    H127820   2.168   0.112   4.018
 9293TIP3    H227821   2.161   0.191   4.147
 9294TIP3   OH227822   0.726   0.574   4.045
 9294TIP3    H127823   0.702   0.488   4.011
 9294TIP3    H227824   0.649   0.628   4.029
 9295TIP3   OH227825   8.142   7.072   3.234
 9295TIP3    H127826   8.168   6.995   3.185
 9295TIP3    H227827   8.050   7.086   3.212
 9296TIP3   OH227828   4.748   6.121   2.375
 9296TIP3    H127829   4.779   6.087   2.459
 9296TIP3    H227830   4.726   6.044   2.324
 9297TIP3   OH227831   1.990   7.290   0.127
 9297TIP3    H127832   1.937   7.217   0.161
 9297TIP3    H227833   2.056   7.249   0.073
 9298TIP3   OH227834   5.930   6.727   4.083
 9298TIP3    H127835   5.869   6.714   4.011
 9298TIP3    H227836   5.957   6.638   4.108
 9299TIP3   OH227837   1.672   2.196   6.448
 9299TIP3    H127838   1.736   2.182   6.518
 9299TIP3    H227839   1.686   2.286   6.420
 9300TIP3   OH227840   4.138   0.552   1.129
 9300TIP3    H127841   4.197   0.586   1.196
 9300TIP3    H227842   4.080   0.626   1.109
 9301TIP3   OH227843   0.680   1.511   3.115
 9301TIP3    H127844   0.756   1.452   3.119
 9301TIP3    H227845   0.605   1.452   3.114
 9302TIP3   OH227846   7.361   5.130   2.293
 9302TIP3    H127847   7.401   5.188   2.358
 9302TIP3    H227848   7.425   5.061   2.279
 9303TIP3   OH227849   0.078   3.906   6.618
 9303TIP3    H127850  -0.014   3.904   6.592
 9303TIP3    H227851   0.104   3.997   6.607
 9304TIP3   OH227852   2.778   6.069   3.805
 9304TIP3    H127853   2.836   6.078   3.729
 9304TIP3    H227854   2.770   6.158   3.840
 9305TIP3   OH227855   5.867   1.109   4.804
 9305TIP3    H127856   5.939   1.051   4.779
 9305TIP3    H227857   5.897   1.196   4.777
 9306TIP3   OH227858   0.159   7.571   5.443
 9306TIP3    H127859   0.071   7.582   5.478
 9306TIP3    H227860   0.148   7.577   5.348
 9307TIP3   OH227861   1.233   6.789   1.276
 9307TIP3    H127862   1.277   6.704   1.281
 9307TIP3    H227863   1.280   6.837   1.209
 9308TIP3   OH227864   0.443   2.827   6.051
 9308TIP3    H127865   0.376   2.852   5.987
 9308TIP3    H227866   0.431   2.888   6.123
 9309TIP3   OH227867   0.430   5.545   1.169
 9309TIP3    H127868   0.463   5.586   1.089
 9309TIP3    H227869   0.428   5.451   1.149
 9310TIP3   OH227870   3.488   5.989   1.846
 9310TIP3    H127871   3.456   5.924   1.908
 9310TIP3    H227872   3.546   6.045   1.898
 9311TIP3   OH227873   7.985   3.111   4.179
 9311TIP3    H127874   8.030   3.031   4.207
 9311TIP3    H227875   8.050   3.157   4.125
 9312TIP3   OH227876   3.936   6.144   3.153
 9312TIP3    H127877   3.878   6.097   3.213
 9312TIP3    H227878   3.927   6.097   3.070
 9313TIP3   OH227879   7.219   6.227   6.645
 9313TIP3    H127880   7.251   6.264   6.727
 9313TIP3    H227881   7.218   6.132   6.659
 9314TIP3   OH227882   7.492   4.918   0.485
 9314TIP3    H127883   7.478   4.910   0.579
 9314TIP3    H227884   7.409   4.892   0.446
 9315TIP3   OH227885   2.978   2.369  -0.022
 9315TIP3    H127886   3.052   2.407   0.025
 9315TIP3    H227887   2.922   2.332   0.046
 9316TIP3   OH227888   4.145   4.692   2.436
 9316TIP3    H127889   4.107   4.624   2.492
 9316TIP3    H227890   4.214   4.646   2.387
 9317TIP3   OH227891   0.704   0.384   3.852
 9317TIP3    H127892   0.737   0.315   3.794
 9317TIP3    H227893   0.611   0.364   3.863
 9318TIP3   OH227894   0.478   4.746   3.748
 9318TIP3    H127895   0.533   4.805   3.697
 9318TIP3    H227896   0.478   4.664   3.698
 9319TIP3   OH227897   1.706   7.253   4.295
 9319TIP3    H127898   1.714   7.336   4.341
 9319TIP3    H227899   1.779   7.252   4.233
 9320TIP3   OH227900   1.664   1.562   2.735
 9320TIP3    H127901   1.649   1.468   2.742
 9320TIP3    H227902   1.623   1.587   2.652
 9321TIP3   OH227903   6.307   1.740   5.718
 9321TIP3    H127904   6.384   1.707   5.765
 9321TIP3    H227905   6.293   1.677   5.647
 9322TIP3   OH227906   1.949   0.651   5.476
 9322TIP3    H127907   1.924   0.571   5.521
 9322TIP3    H227908   2.013   0.692   5.534
 9323TIP3   OH227909   1.319   5.374   0.308
 9323TIP3    H127910   1.312   5.461   0.346
 9323TIP3    H227911   1.231   5.337   0.316
 9324TIP3   OH227912   3.921   1.878   0.216
 9324TIP3    H127913   3.954   1.956   0.260
 9324TIP3    H227914   3.826   1.884   0.224
 9325TIP3   OH227915   4.482   2.705   0.323
 9325TIP3    H127916   4.527   2.678   0.403
 9325TIP3    H227917   4.550   2.743   0.269
 9326TIP3   OH227918   5.333   7.056   5.481
 9326TIP3    H127919   5.375   6.971   5.470
 9326TIP3    H227920   5.399   7.110   5.525
 9327TIP3   OH227921   5.611   7.761   5.503
 9327TIP3    H127922   5.663   7.812   5.566
 9327TIP3    H227923   5.603   7.818   5.427
 9328TIP3   OH227924   1.348   2.862   1.474
 9328TIP3    H127925   1.398   2.888   1.552
 9328TIP3    H227926   1.273   2.814   1.509
 9329TIP3   OH227927   7.829   6.170   2.065
 9329TIP3    H127928   7.901   6.121   2.102
 9329TIP3    H227929   7.862   6.260   2.057
 9330TIP3   OH227930   1.316   7.465   5.896
 9330TIP3    H127931   1.276   7.551   5.908
 9330TIP3    H227932   1.332   7.459   5.802
 9331TIP3   OH227933   1.978   5.211   1.944
 9331TIP3    H127934   1.992   5.124   1.980
 9331TIP3    H227935   2.041   5.266   1.990
 9332TIP3   OH227936   4.253   3.988   2.389
 9332TIP3    H127937   4.216   4.032   2.466
 9332TIP3    H227938   4.257   3.896   2.414
 9333TIP3   OH227939   2.724   0.763   3.172
 9333TIP3    H127940   2.700   0.785   3.082
 9333TIP3    H227941   2.812   0.726   3.166
 9334TIP3   OH227942   2.249   2.393   1.900
 9334TIP3    H127943   2.239   2.439   1.984
 9334TIP3    H227944   2.185   2.323   1.904
 9335TIP3   OH227945   0.355   5.119   1.285
 9335TIP3    H127946   0.356   5.036   1.333
 9335TIP3    H227947   0.409   5.102   1.207
 9336TIP3   OH227948   6.586   1.831   0.968
 9336TIP3    H127949   6.588   1.903   0.906
 9336TIP3    H227950   6.639   1.763   0.928
 9337TIP3   OH227951   4.563   4.695   6.004
 9337TIP3    H127952   4.538   4.610   6.040
 9337TIP3    H227953   4.559   4.683   5.909
 9338TIP3   OH227954   2.644   1.296   2.423
 9338TIP3    H127955   2.714   1.361   2.431
 9338TIP3    H227956   2.688   1.218   2.388
 9339TIP3   OH227957   3.367   3.347   6.146
 9339TIP3    H127958   3.378   3.256   6.121
 9339TIP3    H227959   3.417   3.396   6.080
 9340TIP3   OH227960   4.725   3.502   3.241
 9340TIP3    H127961   4.701   3.526   3.152
 9340TIP3    H227962   4.760   3.414   3.233
 9341TIP3   OH227963   0.973   4.451   5.020
 9341TIP3    H127964   0.941   4.391   4.953
 9341TIP3    H227965   1.027   4.514   4.972
 9342TIP3   OH227966   1.164   5.555   5.903
 9342TIP3    H127967   1.074   5.583   5.917
 9342TIP3    H227968   1.198   5.538   5.991
 9343TIP3   OH227969   3.723   6.682   3.830
 9343TIP3    H127970   3.710   6.596   3.871
 9343TIP3    H227971   3.707   6.668   3.737
 9344TIP3   OH227972   5.958   4.108   4.678
 9344TIP3    H127973   6.002   4.138   4.758
 9344TIP3    H227974   5.999   4.158   4.608
 9345TIP3   OH227975   7.573   4.319   4.591
 9345TIP3    H127976   7.506   4.329   4.523
 9345TIP3    H227977   7.653   4.354   4.551
 9346TIP3   OH227978   5.122   7.678   5.185
 9346TIP3    H127979   5.036   7.651   5.154
 9346TIP3    H227980   5.142   7.618   5.257
 9347TIP3   OH227981   7.298   2.421   2.818
 9347TIP3    H127982   7.328   2.510   2.838
 9347TIP3    H227983   7.346   2.365   2.879
 9348TIP3   OH227984   8.055  -0.008   6.556
 9348TIP3    H127985   8.142   0.019   6.526
 9348TIP3    H227986   8.060  -0.001   6.652
 9349TIP3   OH227987   2.382   4.441   1.882
 9349TIP3    H127988   2.334   4.491   1.948
 9349TIP3    H227989   2.466   4.421   1.922
 9350TIP3   OH227990   6.986   5.571   1.792
 9350TIP3    H127991   7.013   5.645   1.738
 9350TIP3    H227992   6.967   5.501   1.730
 9351TIP3   OH227993   5.977   1.346   6.041
 9351TIP3    H127994   5.959   1.435   6.073
 9351TIP3    H227995   5.973   1.292   6.120
 9352TIP3   OH227996   3.152   6.611   0.300
 9352TIP3    H127997   3.136   6.610   0.205
 9352TIP3    H227998   3.192   6.697   0.316
 9353TIP3   OH227999   1.187   6.780   4.044
 9353TIP3    H128000   1.153   6.851   4.099
 9353TIP3    H228001   1.282   6.784   4.057
 9354TIP3   OH228002   5.705   7.263   4.623
 9354TIP3    H128003   5.726   7.306   4.706
 9354TIP3    H228004   5.738   7.323   4.556
 9355TIP3   OH228005   1.727   5.043   2.370
 9355TIP3    H128006   1.650   5.016   2.321
 9355TIP3    H228007   1.705   5.027   2.462
 9356TIP3   OH228008   3.493   0.891   0.577
 9356TIP3    H128009   3.573   0.939   0.557
 9356TIP3    H228010   3.516   0.799   0.563
 9357TIP3   OH228011   3.243   6.389   4.957
 9357TIP3    H128012   3.297   6.349   4.889
 9357TIP3    H228013   3.268   6.344   5.038
 9358TIP3   OH228014   1.453   5.013   0.872
 9358TIP3    H128015   1.405   5.095   0.864
 9358TIP3    H228016   1.446   4.972   0.786
 9359TIP3   OH228017   6.204   1.086   4.746
 9359TIP3    H128018   6.287   1.051   4.779
 9359TIP3    H228019   6.144   1.012   4.749
 9360TIP3   OH228020   2.992   4.756   2.339
 9360TIP3    H128021   2.984   4.851   2.339
 9360TIP3    H228022   2.980   4.730   2.430
 9361TIP3   OH228023   7.248   7.106   0.492
 9361TIP3    H128024   7.177   7.165   0.464
 9361TIP3    H228025   7.312   7.110   0.421
 9362TIP3   OH228026   1.967   5.627   2.573
 9362TIP3    H128027   1.965   5.710   2.622
 9362TIP3    H228028   1.875   5.604   2.561
 9363TIP3   OH228029   7.392   4.546   0.472
 9363TIP3    H128030   7.432   4.584   0.393
 9363TIP3    H228031   7.465   4.510   0.521
 9364TIP3   OH228032   6.097   2.256   0.579
 9364TIP3    H128033   6.053   2.252   0.664
 9364TIP3    H228034   6.145   2.339   0.581
 9365TIP3   OH228035   7.289   0.639   3.162
 9365TIP3    H128036   7.342   0.706   3.120
 9365TIP3    H228037   7.202   0.649   3.124
 9366TIP3   OH228038   6.020   7.488   3.176
 9366TIP3    H128039   6.109   7.452   3.182
 9366TIP3    H228040   6.030   7.581   3.194
 9367TIP3   OH228041   5.168   4.885   1.039
 9367TIP3    H128042   5.202   4.867   0.952
 9367TIP3    H228043   5.112   4.962   1.028
 9368TIP3   OH228044   1.994   4.043   5.909
 9368TIP3    H128045   1.964   3.994   5.986
 9368TIP3    H228046   1.999   4.134   5.939
 9369TIP3   OH228047   1.572   3.415   3.039
 9369TIP3    H128048   1.589   3.501   2.999
 9369TIP3    H228049   1.652   3.396   3.088
 9370TIP3   OH228050   4.198   4.464   4.275
 9370TIP3    H128051   4.293   4.460   4.260
 9370TIP3    H228052   4.189   4.503   4.361
 9371TIP3   OH228053   4.556   2.183   1.845
 9371TIP3    H128054   4.521   2.190   1.756
 9371TIP3    H228055   4.519   2.102   1.879
 9372TIP3   OH228056   1.449   6.968   4.686
 9372TIP3    H128057   1.496   7.007   4.613
 9372TIP3    H228058   1.400   6.896   4.647
 9373TIP3   OH228059   8.287   2.755   3.623
 9373TIP3    H128060   8.218   2.748   3.557
 9373TIP3    H228061   8.347   2.822   3.589
 9374TIP3   OH228062   5.714   4.434   0.967
 9374TIP3    H128063   5.714   4.528   0.952
 9374TIP3    H228064   5.782   4.400   0.909
 9375TIP3   OH228065   6.358   3.006   1.591
 9375TIP3    H128066   6.432   3.049   1.549
 9375TIP3    H228067   6.385   2.996   1.683
 9376TIP3   OH228068   7.751   7.627   5.294
 9376TIP3    H128069   7.782   7.711   5.261
 9376TIP3    H228070   7.830   7.573   5.300
 9377TIP3   OH228071   4.490   6.258   4.380
 9377TIP3    H128072   4.420   6.252   4.314
 9377TIP3    H228073   4.471   6.186   4.440
 9378TIP3   OH228074   3.782   5.747   5.884
 9378TIP3    H128075   3.791   5.823   5.942
 9378TIP3    H228076   3.747   5.783   5.802
 9379TIP3   OH228077   0.409   3.698   5.408
 9379TIP3    H128078   0.432   3.791   5.417
 9379TIP3    H228079   0.493   3.652   5.403
 9380TIP3   OH228080   0.513   2.705   2.830
 9380TIP3    H128081   0.450   2.667   2.768
 9380TIP3    H228082   0.529   2.793   2.797
 9381TIP3   OH228083   2.032   1.837   5.858
 9381TIP3    H128084   1.995   1.926   5.853
 9381TIP3    H228085   2.105   1.845   5.919
 9382TIP3   OH228086   4.773   7.648   2.427
 9382TIP3    H128087   4.855   7.698   2.420
 9382TIP3    H228088   4.749   7.655   2.520
 9383TIP3   OH228089   5.091   7.049   4.469
 9383TIP3    H128090   4.996   7.043   4.458
 9383TIP3    H228091   5.116   6.966   4.510
 9384TIP3   OH228092   7.397   6.816   5.656
 9384TIP3    H128093   7.369   6.751   5.592
 9384TIP3    H228094   7.483   6.844   5.626
 9385TIP3   OH228095   2.940   6.262   3.058
 9385TIP3    H128096   2.896   6.177   3.060
 9385TIP3    H228097   3.021   6.246   3.010
 9386TIP3   OH228098   7.303   3.146   2.773
 9386TIP3    H128099   7.284   3.117   2.683
 9386TIP3    H228100   7.316   3.241   2.765
 9387TIP3   OH228101   5.388   1.080   5.372
 9387TIP3    H128102   5.402   1.056   5.281
 9387TIP3    H228103   5.470   1.057   5.416
 9388TIP3   OH228104   1.136   4.675   4.884
 9388TIP3    H128105   1.189   4.720   4.818
 9388TIP3    H228106   1.060   4.731   4.896
 9389TIP3   OH228107   3.309   1.451   1.976
 9389TIP3    H128108   3.277   1.373   1.931
 9389TIP3    H228109   3.318   1.424   2.068
 9390TIP3   OH228110   0.340   0.563   0.018
 9390TIP3    H128111   0.402   0.534   0.085
 9390TIP3    H228112   0.363   0.511  -0.060
 9391TIP3   OH228113   2.434   7.146   6.830
 9391TIP3    H128114   2.420   7.213   6.897
 9391TIP3    H228115   2.507   7.180   6.778
 9392TIP3   OH228116   0.928   0.441   3.540
 9392TIP3    H128117   1.011   0.447   3.494
 9392TIP3    H228118   0.869   0.398   3.477
 9393TIP3   OH228119   3.814   7.106   6.735
 9393TIP3    H128120   3.842   7.049   6.663
 9393TIP3    H228121   3.742   7.058   6.777
 9394TIP3   OH228122   7.457   4.759   5.163
 9394TIP3    H128123   7.418   4.719   5.241
 9394TIP3    H228124   7.549   4.734   5.167
 9395TIP3   OH228125   6.685  -0.022   5.861
 9395TIP3    H128126   6.770   0.017   5.840
 9395TIP3    H228127   6.706  -0.108   5.896
 9396TIP3   OH228128   1.632   5.568   4.550
 9396TIP3    H128129   1.676   5.591   4.632
 9396TIP3    H228130   1.648   5.474   4.540
 9397TIP3   OH228131   5.666   6.344   3.783
 9397TIP3    H128132   5.732   6.380   3.842
 9397TIP3    H228133   5.582   6.376   3.817
 9398TIP3   OH228134   4.061   5.021   0.572
 9398TIP3    H128135   4.054   5.116   0.576
 9398TIP3    H228136   4.065   5.001   0.479
 9399TIP3   OH228137   0.850   0.358   5.584
 9399TIP3    H128138   0.927   0.350   5.527
 9399TIP3    H228139   0.877   0.418   5.653
 9400TIP3   OH228140   1.750   1.243   2.451
 9400TIP3    H128141   1.673   1.233   2.395
 9400TIP3    H228142   1.761   1.337   2.460
 9401TIP3   OH228143   5.265   5.400   6.541
 9401TIP3    H128144   5.343   5.381   6.593
 9401TIP3    H228145   5.269   5.494   6.526
 9402TIP3   OH228146   3.948   5.268   3.729
 9402TIP3    H128147   3.984   5.320   3.801
 9402TIP3    H228148   3.996   5.296   3.651
 9403TIP3   OH228149   3.272   3.929   1.178
 9403TIP3    H128150   3.238   4.008   1.135
 9403TIP3    H228151   3.241   3.857   1.124
 9404TIP3   OH228152   0.712   1.319   0.582
 9404TIP3    H128153   0.801   1.349   0.599
 9404TIP3    H228154   0.710   1.230   0.616
 9405TIP3   OH228155   1.247   4.164   4.521
 9405TIP3    H128156   1.174   4.113   4.487
 9405TIP3    H228157   1.278   4.215   4.446
 9406TIP3   OH228158   7.893   4.690   2.195
 9406TIP3    H128159   7.898   4.697   2.100
 9406TIP3    H228160   7.937   4.769   2.227
 9407TIP3   OH228161   6.017   6.312   4.310
 9407TIP3    H128162   6.007   6.383   4.373
 9407TIP3    H228163   6.027   6.234   4.364
 9408TIP3   OH228164   6.127   4.344   3.879
 9408TIP3    H128165   6.146   4.250   3.875
 9408TIP3    H228166   6.133   4.366   3.972
 9409TIP3   OH228167   7.586   1.590   2.509
 9409TIP3    H128168   7.594   1.577   2.414
 9409TIP3    H228169   7.587   1.685   2.520
 9410TIP3   OH228170   4.001   7.893   1.242
 9410TIP3    H128171   3.934   7.861   1.302
 9410TIP3    H228172   3.965   7.974   1.206
 9411TIP3   OH228173   4.918   6.401   5.053
 9411TIP3    H128174   4.879   6.403   4.966
 9411TIP3    H228175   5.012   6.414   5.038
 9412TIP3   OH228176   5.003   4.749   0.213
 9412TIP3    H128177   5.003   4.835   0.253
 9412TIP3    H228178   4.984   4.689   0.285
 9413TIP3   OH228179   1.056   0.033   4.765
 9413TIP3    H128180   0.969  -0.004   4.777
 9413TIP3    H228181   1.044   0.104   4.701
 9414TIP3   OH228182   5.040   7.285   3.661
 9414TIP3    H128183   5.047   7.370   3.704
 9414TIP3    H228184   5.044   7.305   3.568
 9415TIP3   OH228185   0.251   1.608   1.164
 9415TIP3    H128186   0.223   1.577   1.078
 9415TIP3    H228187   0.299   1.688   1.146
 9416TIP3   OH228188   6.265   3.483   0.499
 9416TIP3    H128189   6.309   3.564   0.475
 9416TIP3    H228190   6.332   3.416   0.490
 9417TIP3   OH228191   3.788   7.897   6.551
 9417TIP3    H128192   3.827   7.843   6.619
 9417TIP3    H228193   3.862   7.939   6.508
 9418TIP3   OH228194   1.177   1.320   3.157
 9418TIP3    H128195   1.213   1.235   3.182
 9418TIP3    H228196   1.241   1.356   3.096
 9419TIP3   OH228197   6.381   3.186   4.882
 9419TIP3    H128198   6.372   3.273   4.921
 9419TIP3    H228199   6.335   3.128   4.943
 9420TIP3   OH228200   8.083   7.735   6.823
 9420TIP3    H128201   8.114   7.654   6.781
 9420TIP3    H228202   8.145   7.751   6.894
 9421TIP3   OH228203   5.005   7.790   1.123
 9421TIP3    H128204   4.912   7.809   1.111
 9421TIP3    H228205   5.007   7.720   1.188
 9422TIP3   OH228206   1.492   6.065   5.545
 9422TIP3    H128207   1.523   6.150   5.514
 9422TIP3    H228208   1.412   6.050   5.496
 9423TIP3   OH228209   7.410   5.067   5.501
 9423TIP3    H128210   7.406   5.026   5.587
 9423TIP3    H228211   7.496   5.044   5.466
 9424TIP3   OH228212   0.108   4.836   2.868
 9424TIP3    H128213   0.160   4.766   2.829
 9424TIP3    H228214   0.061   4.875   2.794
 9425TIP3   OH228215   5.632   7.653   6.577
 9425TIP3    H128216   5.651   7.614   6.662
 9425TIP3    H228217   5.605   7.580   6.522
 9426TIP3   OH228218   1.092   6.691   4.357
 9426TIP3    H128219   1.011   6.677   4.309
 9426TIP3    H228220   1.083   6.779   4.394
 9427TIP3   OH228221   8.265   3.794   4.756
 9427TIP3    H128222   8.204   3.824   4.824
 9427TIP3    H228223   8.225   3.715   4.722
 9428TIP3   OH228224   4.375   7.021   0.360
 9428TIP3    H128225   4.297   7.021   0.303
 9428TIP3    H228226   4.433   6.957   0.320
 9429TIP3   OH228227   5.553   0.232   2.473
 9429TIP3    H128228   5.636   0.280   2.474
 9429TIP3    H228229   5.490   0.293   2.435
 9430TIP3   OH228230   0.371   6.027   6.251
 9430TIP3    H128231   0.317   6.052   6.326
 9430TIP3    H228232   0.418   5.948   6.280
 9431TIP3   OH228233   6.078   6.441   2.641
 9431TIP3    H128234   5.998   6.411   2.598
 9431TIP3    H228235   6.076   6.400   2.727
 9432TIP3   OH228236   3.735   2.267   6.395
 9432TIP3    H128237   3.771   2.216   6.323
 9432TIP3    H228238   3.676   2.330   6.354
 9433TIP3   OH228239   4.289   6.324   6.153
 9433TIP3    H128240   4.256   6.414   6.157
 9433TIP3    H228241   4.370   6.331   6.104
 9434TIP3   OH228242   7.111   5.084   4.473
 9434TIP3    H128243   7.138   5.014   4.415
 9434TIP3    H228244   7.018   5.098   4.453
 9435TIP3   OH228245   2.352   0.783   5.254
 9435TIP3    H128246   2.336   0.874   5.278
 9435TIP3    H228247   2.331   0.733   5.332
 9436TIP3   OH228248   0.263   3.478   3.671
 9436TIP3    H128249   0.207   3.419   3.721
 9436TIP3    H228250   0.332   3.422   3.636
 9437TIP3   OH228251   4.421   3.104   2.085
 9437TIP3    H128252   4.474   3.038   2.129
 9437TIP3    H228253   4.482   3.147   2.025
 9438TIP3   OH228254   5.555   4.148   5.834
 9438TIP3    H128255   5.526   4.091   5.763
 9438TIP3    H228256   5.618   4.207   5.792
 9439TIP3   OH228257   7.424   0.512   3.896
 9439TIP3    H128258   7.458   0.436   3.944
 9439TIP3    H228259   7.482   0.519   3.820
 9440TIP3   OH228260   1.711   3.692   4.671
 9440TIP3    H128261   1.676   3.622   4.726
 9440TIP3    H228262   1.761   3.747   4.731
 9441TIP3   OH228263   8.359   5.890   4.302
 9441TIP3    H128264   8.366   5.795   4.292
 9441TIP3    H228265   8.298   5.916   4.233
 9442TIP3   OH228266   0.807   4.945   3.729
 9442TIP3    H128267   0.795   4.858   3.767
 9442TIP3    H228268   0.791   5.005   3.802
 9443TIP3   OH228269   3.132   7.512   4.891
 9443TIP3    H128270   3.102   7.579   4.952
 9443TIP3    H228271   3.212   7.548   4.853
 9444TIP3   OH228272   6.182   0.639   2.605
 9444TIP3    H128273   6.268   0.671   2.578
 9444TIP3    H228274   6.195   0.546   2.620
 9445TIP3   OH228275   8.110   1.920   2.102
 9445TIP3    H128276   8.020   1.888   2.113
 9445TIP3    H228277   8.101   2.015   2.095
 9446TIP3   OH228278   4.557   7.919   1.366
 9446TIP3    H128279   4.514   7.994   1.406
 9446TIP3    H228280   4.527   7.844   1.417
 9447TIP3   OH228281   5.020   7.431   6.651
 9447TIP3    H128282   4.964   7.447   6.728
 9447TIP3    H228283   5.079   7.506   6.648
 9448TIP3   OH228284   4.550   5.868   3.395
 9448TIP3    H128285   4.646   5.869   3.390
 9448TIP3    H228286   4.527   5.957   3.423
 9449TIP3   OH228287   3.399   5.496   3.927
 9449TIP3    H128288   3.468   5.464   3.869
 9449TIP3    H228289   3.328   5.520   3.869
 9450TIP3   OH228290   0.356   0.857   3.584
 9450TIP3    H128291   0.283   0.808   3.546
 9450TIP3    H228292   0.392   0.799   3.651
 9451TIP3   OH228293   3.197   6.874   3.123
 9451TIP3    H128294   3.280   6.826   3.125
 9451TIP3    H228295   3.155   6.852   3.206
 9452TIP3   OH228296   7.179   1.461   2.784
 9452TIP3    H128297   7.253   1.515   2.756
 9452TIP3    H228298   7.145   1.423   2.703
 9453TIP3   OH228299   3.419   6.802   0.985
 9453TIP3    H128300   3.439   6.714   0.953
 9453TIP3    H228301   3.374   6.787   1.068
 9454TIP3   OH228302   2.610   6.703   4.354
 9454TIP3    H128303   2.695   6.661   4.365
 9454TIP3    H228304   2.589   6.739   4.440
 9455TIP3   OH228305   1.204   4.985   6.738
 9455TIP3    H128306   1.297   4.975   6.759
 9455TIP3    H228307   1.201   5.061   6.680
 9456TIP3   OH228308   3.001   0.258   4.624
 9456TIP3    H128309   3.012   0.193   4.693
 9456TIP3    H228310   2.909   0.250   4.597
 9457TIP3   OH228311   6.873   3.467   6.663
 9457TIP3    H128312   6.896   3.494   6.574
 9457TIP3    H228313   6.882   3.372   6.663
 9458TIP3   OH228314   6.448   3.215   0.813
 9458TIP3    H128315   6.433   3.308   0.800
 9458TIP3    H228316   6.509   3.190   0.743
 9459TIP3   OH228317   7.089   2.363   5.898
 9459TIP3    H128318   7.160   2.298   5.899
 9459TIP3    H228319   7.049   2.355   5.985
 9460TIP3   OH228320   0.422   3.305   4.781
 9460TIP3    H128321   0.370   3.226   4.796
 9460TIP3    H228322   0.364   3.362   4.731
 9461TIP3   OH228323   1.500   5.716   6.695
 9461TIP3    H128324   1.565   5.784   6.708
 9461TIP3    H228325   1.488   5.712   6.600
 9462TIP3   OH228326   2.128   6.293   1.899
 9462TIP3    H128327   2.115   6.202   1.926
 9462TIP3    H228328   2.091   6.344   1.970
 9463TIP3   OH228329   3.897   3.124   0.483
 9463TIP3    H128330   3.909   3.047   0.428
 9463TIP3    H228331   3.842   3.094   0.556
 9464TIP3   OH228332   4.399   0.618   1.310
 9464TIP3    H128333   4.462   0.665   1.364
 9464TIP3    H228334   4.448   0.544   1.274
 9465TIP3   OH228335   4.412   6.512   0.899
 9465TIP3    H128336   4.449   6.475   0.979
 9465TIP3    H228337   4.487   6.545   0.850
 9466TIP3   OH228338   3.397   1.600   0.616
 9466TIP3    H128339   3.436   1.644   0.691
 9466TIP3    H228340   3.465   1.539   0.586
 9467TIP3   OH228341   4.677   2.465   0.315
 9467TIP3    H128342   4.670   2.502   0.227
 9467TIP3    H228343   4.701   2.539   0.370
 9468TIP3   OH228344   2.869   7.795   1.183
 9468TIP3    H128345   2.903   7.723   1.129
 9468TIP3    H228346   2.777   7.772   1.197
 9469TIP3   OH228347   4.244   1.269   1.647
 9469TIP3    H128348   4.258   1.177   1.625
 9469TIP3    H228349   4.329   1.310   1.633
 9470TIP3   OH228350   3.443   1.583   5.542
 9470TIP3    H128351   3.424   1.526   5.617
 9470TIP3    H228352   3.536   1.571   5.525
 9471TIP3   OH228353   3.209   2.754   0.465
 9471TIP3    H128354   3.123   2.759   0.424
 9471TIP3    H228355   3.235   2.846   0.477
 9472TIP3   OH228356   3.479   0.615   0.514
 9472TIP3    H128357   3.509   0.525   0.503
 9472TIP3    H228358   3.394   0.618   0.471
 9473TIP3   OH228359   5.367   6.759   3.761
 9473TIP3    H128360   5.275   6.761   3.736
 9473TIP3    H228361   5.404   6.688   3.710
 9474TIP3   OH228362   5.179   1.662   2.141
 9474TIP3    H128363   5.106   1.638   2.198
 9474TIP3    H228364   5.141   1.725   2.080
 9475TIP3   OH228365   3.185   1.921   1.035
 9475TIP3    H128366   3.124   1.880   1.096
 9475TIP3    H228367   3.131   1.947   0.961
 9476TIP3   OH228368   7.364   4.113   1.220
 9476TIP3    H128369   7.375   4.209   1.218
 9476TIP3    H228370   7.451   4.079   1.200
 9477TIP3   OH228371   0.933   0.629   4.931
 9477TIP3    H128372   0.909   0.584   5.012
 9477TIP3    H228373   0.975   0.561   4.878
 9478TIP3   OH228374   5.317   7.157   6.895
 9478TIP3    H128375   5.273   7.206   6.965
 9478TIP3    H228376   5.347   7.225   6.834
 9479TIP3   OH228377   2.181   6.368   3.285
 9479TIP3    H128378   2.121   6.358   3.211
 9479TIP3    H228379   2.180   6.461   3.304
 9480TIP3   OH228380   5.798   3.951   1.274
 9480TIP3    H128381   5.711   3.913   1.260
 9480TIP3    H228382   5.803   4.023   1.212
 9481TIP3   OH228383   0.246   6.645   1.715
 9481TIP3    H128384   0.158   6.616   1.741
 9481TIP3    H228385   0.262   6.723   1.768
 9482TIP3   OH228386   6.616   7.712   2.845
 9482TIP3    H128387   6.665   7.780   2.890
 9482TIP3    H228388   6.681   7.671   2.786
 9483TIP3   OH228389   7.909   5.907   2.879
 9483TIP3    H128390   7.979   5.940   2.822
 9483TIP3    H228391   7.912   5.812   2.869
 9484TIP3   OH228392   2.267   1.911   5.979
 9484TIP3    H128393   2.303   1.901   6.067
 9484TIP3    H228394   2.324   1.858   5.923
 9485TIP3   OH228395   7.034   7.310   4.542
 9485TIP3    H128396   7.035   7.388   4.487
 9485TIP3    H228397   6.963   7.325   4.604
 9486TIP3   OH228398   5.754   3.570   4.659
 9486TIP3    H128399   5.774   3.609   4.744
 9486TIP3    H228400   5.658   3.568   4.657
 9487TIP3   OH228401   3.209   3.283   1.908
 9487TIP3    H128402   3.261   3.216   1.865
 9487TIP3    H228403   3.172   3.239   1.985
 9488TIP3   OH228404   1.277   7.213   4.727
 9488TIP3    H128405   1.345   7.151   4.754
 9488TIP3    H228406   1.195   7.170   4.752
 9489TIP3   OH228407   2.797   6.819   4.080
 9489TIP3    H128408   2.878   6.847   4.122
 9489TIP3    H228409   2.728   6.869   4.123
 9490TIP3   OH228410   0.963   7.137   0.808
 9490TIP3    H128411   0.991   7.059   0.856
 9490TIP3    H228412   1.004   7.128   0.722
 9491TIP3   OH228413   3.567   6.616   1.707
 9491TIP3    H128414   3.589   6.682   1.641
 9491TIP3    H228415   3.553   6.667   1.787
 9492TIP3   OH228416   6.012   6.107   2.873
 9492TIP3    H128417   6.061   6.098   2.791
 9492TIP3    H228418   6.025   6.198   2.899
 9493TIP3   OH228419   5.860   7.823   2.083
 9493TIP3    H128420   5.882   7.734   2.056
 9493TIP3    H228421   5.938   7.853   2.130
 9494TIP3   OH228422   5.653   5.594   3.004
 9494TIP3    H128423   5.679   5.652   3.076
 9494TIP3    H228424   5.558   5.604   2.998
 9495TIP3   OH228425   4.089   6.095   6.083
 9495TIP3    H128426   4.159   6.142   6.127
 9495TIP3    H228427   4.009   6.142   6.106
 9496TIP3   OH228428   4.163   2.675   5.560
 9496TIP3    H128429   4.167   2.583   5.534
 9496TIP3    H228430   4.243   2.689   5.610
 9497TIP3   OH228431   7.829   0.152   2.414
 9497TIP3    H128432   7.829   0.239   2.373
 9497TIP3    H228433   7.922   0.129   2.420
 9498TIP3   OH228434   5.375   6.667   6.792
 9498TIP3    H128435   5.299   6.615   6.817
 9498TIP3    H228436   5.440   6.601   6.765
 9499TIP3   OH228437   6.207   7.813   6.540
 9499TIP3    H128438   6.164   7.729   6.521
 9499TIP3    H228439   6.299   7.790   6.552
 9500TIP3   OH228440   3.190   1.997   4.618
 9500TIP3    H128441   3.158   2.051   4.546
 9500TIP3    H228442   3.268   1.954   4.584
 9501TIP3   OH228443   1.231   6.095   2.348
 9501TIP3    H128444   1.258   6.111   2.258
 9501TIP3    H228445   1.276   6.014   2.373
 9502TIP3   OH228446   5.733   4.651   5.750
 9502TIP3    H128447   5.660   4.588   5.749
 9502TIP3    H228448   5.694   4.732   5.785
 9503TIP3   OH228449   2.858   3.158   3.117
 9503TIP3    H128450   2.852   3.245   3.156
 9503TIP3    H228451   2.851   3.098   3.191
 9504TIP3   OH228452   2.438   2.569   3.498
 9504TIP3    H128453   2.369   2.508   3.472
 9504TIP3    H228454   2.514   2.513   3.517
 9505TIP3   OH228455   7.926   1.153   5.986
 9505TIP3    H128456   7.918   1.230   5.929
 9505TIP3    H228457   7.911   1.079   5.927
 9506TIP3   OH228458   5.995   2.370   0.257
 9506TIP3    H128459   5.956   2.450   0.293
 9506TIP3    H228460   5.976   2.303   0.322
 9507TIP3   OH228461   3.062   4.530   4.336
 9507TIP3    H128462   2.990   4.509   4.396
 9507TIP3    H228463   3.037   4.487   4.254
 9508TIP3   OH228464   4.758   7.403   0.359
 9508TIP3    H128465   4.703   7.482   0.361
 9508TIP3    H228466   4.818   7.414   0.433
 9509TIP3   OH228467   4.688   7.063   5.414
 9509TIP3    H128468   4.772   7.080   5.456
 9509TIP3    H228469   4.703   6.984   5.362
 9510TIP3   OH228470   1.797   3.187   3.443
 9510TIP3    H128471   1.749   3.250   3.496
 9510TIP3    H228472   1.887   3.191   3.476
 9511TIP3   OH228473   0.429   5.112   0.766
 9511TIP3    H128474   0.396   5.022   0.768
 9511TIP3    H228475   0.365   5.162   0.816
 9512TIP3   OH228476   5.654   2.490   2.306
 9512TIP3    H128477   5.569   2.507   2.266
 9512TIP3    H228478   5.711   2.558   2.272
 9513TIP3   OH228479   2.665   2.610   4.868
 9513TIP3    H128480   2.731   2.678   4.855
 9513TIP3    H228481   2.604   2.647   4.931
 9514TIP3   OH228482   5.152   6.241   3.308
 9514TIP3    H128483   5.115   6.311   3.254
 9514TIP3    H228484   5.239   6.227   3.272
 9515TIP3   OH228485   7.250   3.748   6.507
 9515TIP3    H128486   7.228   3.837   6.481
 9515TIP3    H228487   7.204   3.734   6.589
 9516TIP3   OH228488   7.667   5.050   3.600
 9516TIP3    H128489   7.737   5.013   3.546
 9516TIP3    H228490   7.596   5.066   3.539
 9517TIP3   OH228491   5.014   4.288   2.575
 9517TIP3    H128492   4.927   4.282   2.613
 9517TIP3    H228493   5.071   4.241   2.636
 9518TIP3   OH228494   6.417   1.371   5.842
 9518TIP3    H128495   6.375   1.409   5.764
 9518TIP3    H228496   6.472   1.442   5.876
 9519TIP3   OH228497   4.469   4.718   5.744
 9519TIP3    H128498   4.549   4.753   5.704
 9519TIP3    H228499   4.426   4.672   5.672
 9520TIP3   OH228500   0.126   0.671   6.648
 9520TIP3    H128501   0.179   0.736   6.694
 9520TIP3    H228502   0.037   0.707   6.649
 9521TIP3   OH228503   5.596   4.932   5.766
 9521TIP3    H128504   5.600   5.015   5.719
 9521TIP3    H228505   5.592   4.957   5.858
 9522TIP3   OH228506   5.943   2.086   4.165
 9522TIP3    H128507   5.934   1.992   4.156
 9522TIP3    H228508   6.004   2.098   4.238
 9523TIP3   OH228509   2.284   3.290   0.142
 9523TIP3    H128510   2.255   3.212   0.096
 9523TIP3    H228511   2.215   3.307   0.206
 9524TIP3   OH228512   6.704   0.169   2.116
 9524TIP3    H128513   6.778   0.229   2.112
 9524TIP3    H228514   6.731   0.093   2.064
 9525TIP3   OH228515   0.734   6.598   2.048
 9525TIP3    H128516   0.745   6.631   2.138
 9525TIP3    H228517   0.669   6.656   2.009
 9526TIP3   OH228518   1.843   6.417   1.682
 9526TIP3    H128519   1.881   6.504   1.697
 9526TIP3    H228520   1.844   6.376   1.768
 9527TIP3   OH228521   4.482   1.865   1.009
 9527TIP3    H128522   4.509   1.856   0.918
 9527TIP3    H228523   4.439   1.782   1.030
 9528TIP3   OH228524   3.625   1.823   2.283
 9528TIP3    H128525   3.605   1.914   2.258
 9528TIP3    H228526   3.608   1.772   2.204
 9529TIP3   OH228527   7.170   4.845   4.357
 9529TIP3    H128528   7.125   4.769   4.395
 9529TIP3    H228529   7.175   4.826   4.264
 9530TIP3   OH228530   8.157   5.461   3.941
 9530TIP3    H128531   8.198   5.480   3.857
 9530TIP3    H228532   8.063   5.456   3.921
 9531TIP3   OH228533   5.068   1.118   4.342
 9531TIP3    H128534   5.051   1.078   4.256
 9531TIP3    H228535   5.007   1.074   4.401
 9532TIP3   OH228536   2.221   2.153   5.476
 9532TIP3    H128537   2.294   2.200   5.516
 9532TIP3    H228538   2.258   2.069   5.448
 9533TIP3   OH228539   7.408   5.600   6.101
 9533TIP3    H128540   7.330   5.572   6.054
 9533TIP3    H228541   7.481   5.555   6.057
 9534TIP3   OH228542   2.643   0.731   6.033
 9534TIP3    H128543   2.721   0.766   6.077
 9534TIP3    H228544   2.674   0.654   5.986
 9535TIP3   OH228545   0.299   1.745   3.181
 9535TIP3    H128546   0.305   1.832   3.222
 9535TIP3    H228547   0.326   1.684   3.250
 9536TIP3   OH228548   7.652   6.019   6.404
 9536TIP3    H128549   7.660   6.001   6.498
 9536TIP3    H228550   7.625   5.935   6.366
 9537TIP3   OH228551   4.871   2.594   2.337
 9537TIP3    H128552   4.871   2.588   2.241
 9537TIP3    H228553   4.801   2.656   2.357
 9538TIP3   OH228554   3.438   3.048   1.798
 9538TIP3    H128555   3.530   3.058   1.773
 9538TIP3    H228556   3.393   3.029   1.716
 9539TIP3   OH228557   4.541   5.711   4.759
 9539TIP3    H128558   4.634   5.731   4.761
 9539TIP3    H228559   4.528   5.648   4.830
 9540TIP3   OH228560   3.436   0.371   1.811
 9540TIP3    H128561   3.360   0.424   1.787
 9540TIP3    H228562   3.469   0.411   1.891
 9541TIP3   OH228563   0.085   1.339   3.085
 9541TIP3    H128564   0.153   1.402   3.063
 9541TIP3    H228565   0.115   1.257   3.046
 9542TIP3   OH228566   6.150   2.871   4.019
 9542TIP3    H128567   6.129   2.838   4.106
 9542TIP3    H228568   6.084   2.831   3.962
 9543TIP3   OH228569   5.572   3.634   0.826
 9543TIP3    H128570   5.628   3.568   0.784
 9543TIP3    H228571   5.484   3.599   0.816
 9544TIP3   OH228572   8.290   7.540   3.235
 9544TIP3    H128573   8.349   7.614   3.223
 9544TIP3    H228574   8.335   7.466   3.195
 9545TIP3   OH228575   1.404   7.639   0.459
 9545TIP3    H128576   1.496   7.624   0.483
 9545TIP3    H228577   1.360   7.657   0.542
 9546TIP3   OH228578   2.104   0.491   3.311
 9546TIP3    H128579   2.036   0.428   3.335
 9546TIP3    H228580   2.069   0.575   3.341
 9547TIP3   OH228581   6.206   6.584   6.117
 9547TIP3    H128582   6.237   6.572   6.027
 9547TIP3    H228583   6.194   6.495   6.150
 9548TIP3   OH228584   5.916  -0.022   6.536
 9548TIP3    H128585   6.008  -0.040   6.557
 9548TIP3    H228586   5.916   0.068   6.503
 9549TIP3   OH228587   5.142   7.265   2.742
 9549TIP3    H128588   5.148   7.202   2.814
 9549TIP3    H228589   5.055   7.251   2.705
 9550TIP3   OH228590   4.949   3.620   0.214
 9550TIP3    H128591   4.889   3.667   0.272
 9550TIP3    H228592   5.036   3.652   0.237
 9551TIP3   OH228593   2.764   5.761   4.378
 9551TIP3    H128594   2.811   5.727   4.302
 9551TIP3    H228595   2.691   5.811   4.341
 9552TIP3   OH228596   3.041   3.321   6.696
 9552TIP3    H128597   3.008   3.408   6.675
 9552TIP3    H228598   3.134   3.334   6.713
 9553TIP3   OH228599   7.005   1.729   5.138
 9553TIP3    H128600   6.951   1.683   5.074
 9553TIP3    H228601   7.032   1.809   5.093
 9554TIP3   OH228602   4.714   4.811   2.662
 9554TIP3    H128603   4.657   4.765   2.600
 9554TIP3    H228604   4.677   4.792   2.748
 9555TIP3   OH228605   3.828   6.004   5.970
 9555TIP3    H128606   3.916   5.984   6.002
 9555TIP3    H228607   3.841   6.077   5.909
 9556TIP3   OH228608   2.723   2.418   6.870
 9556TIP3    H128609   2.773   2.469   6.807
 9556TIP3    H228610   2.632   2.426   6.841
 9557TIP3   OH228611   1.426   0.226   3.834
 9557TIP3    H128612   1.346   0.238   3.783
 9557TIP3    H228613   1.497   0.254   3.775
 9558TIP3   OH228614   2.573   7.177   2.951
 9558TIP3    H128615   2.648   7.159   3.008
 9558TIP3    H228616   2.530   7.253   2.990
 9559TIP3   OH228617   5.707   3.466   4.908
 9559TIP3    H128618   5.615   3.442   4.896
 9559TIP3    H228619   5.755   3.396   4.864
 9560TIP3   OH228620   1.397   5.622   2.689
 9560TIP3    H128621   1.331   5.562   2.656
 9560TIP3    H228622   1.360   5.657   2.770
 9561TIP3   OH228623   1.338   3.136   3.641
 9561TIP3    H128624   1.362   3.152   3.550
 9561TIP3    H228625   1.419   3.106   3.682
 9562TIP3   OH228626   2.558   3.022   6.637
 9562TIP3    H128627   2.539   3.076   6.714
 9562TIP3    H228628   2.624   2.960   6.666
 9563TIP3   OH228629   0.579   4.120   2.319
 9563TIP3    H128630   0.558   4.186   2.385
 9563TIP3    H228631   0.673   4.103   2.332
 9564TIP3   OH228632   1.660   0.741   3.247
 9564TIP3    H128633   1.644   0.727   3.153
 9564TIP3    H228634   1.726   0.810   3.250
 9565TIP3   OH228635   2.699   0.283   2.342
 9565TIP3    H128636   2.690   0.314   2.251
 9565TIP3    H228637   2.744   0.355   2.387
 9566TIP3   OH228638   3.246   4.082   1.790
 9566TIP3    H128639   3.159   4.108   1.821
 9566TIP3    H228640   3.230   4.049   1.701
 9567TIP3   OH228641   3.260   6.912   0.028
 9567TIP3    H128642   3.203   6.892   0.102
 9567TIP3    H228643   3.303   6.994   0.052
 9568TIP3   OH228644   5.755   7.079   0.015
 9568TIP3    H128645   5.717   7.112   0.097
 9568TIP3    H228646   5.753   7.154  -0.044
 9569TIP3   OH228647   2.223   3.493   2.528
 9569TIP3    H128648   2.315   3.493   2.502
 9569TIP3    H228649   2.176   3.518   2.449
 9570TIP3   OH228650   7.873   2.851   2.969
 9570TIP3    H128651   7.888   2.844   3.063
 9570TIP3    H228652   7.910   2.937   2.945
 9571TIP3   OH228653   8.015   6.768   5.745
 9571TIP3    H128654   7.938   6.736   5.698
 9571TIP3    H228655   8.061   6.823   5.682
 9572TIP3   OH228656   1.148   5.651   6.555
 9572TIP3    H128657   1.083   5.693   6.498
 9572TIP3    H228658   1.099   5.629   6.634
 9573TIP3   OH228659   1.716   1.136   5.447
 9573TIP3    H128660   1.647   1.160   5.509
 9573TIP3    H228661   1.670   1.115   5.366
 9574TIP3   OH228662   1.344   0.328   5.415
 9574TIP3    H128663   1.408   0.344   5.345
 9574TIP3    H228664   1.363   0.396   5.480
 9575TIP3   OH228665   4.341   2.136   1.276
 9575TIP3    H128666   4.333   2.226   1.245
 9575TIP3    H228667   4.268   2.090   1.235
 9576TIP3   OH228668   8.387   6.031   6.634
 9576TIP3    H128669   8.366   6.112   6.587
 9576TIP3    H228670   8.369   6.051   6.725
 9577TIP3   OH228671   2.834   0.518   1.002
 9577TIP3    H128672   2.820   0.610   0.979
 9577TIP3    H228673   2.799   0.510   1.091
 9578TIP3   OH228674   1.253   6.731   5.914
 9578TIP3    H128675   1.277   6.639   5.907
 9578TIP3    H228676   1.158   6.732   5.911
 9579TIP3   OH228677   7.473   0.741   5.226
 9579TIP3    H128678   7.469   0.661   5.174
 9579TIP3    H228679   7.528   0.800   5.175
 9580TIP3   OH228680   1.638   4.787   4.165
 9580TIP3    H128681   1.707   4.723   4.183
 9580TIP3    H228682   1.597   4.802   4.251
 9581TIP3   OH228683   7.647   2.554   2.100
 9581TIP3    H128684   7.726   2.503   2.079
 9581TIP3    H228685   7.580   2.488   2.115
 9582TIP3   OH228686   4.243   6.597   6.092
 9582TIP3    H128687   4.177   6.666   6.102
 9582TIP3    H228688   4.226   6.559   6.006
 9583TIP3   OH228689   4.831   5.420   1.906
 9583TIP3    H128690   4.878   5.348   1.950
 9583TIP3    H228691   4.793   5.471   1.977
 9584TIP3   OH228692   8.397   7.852   5.866
 9584TIP3    H128693   8.355   7.796   5.931
 9584TIP3    H228694   8.350   7.935   5.872
 9585TIP3   OH228695   2.568   7.679   1.781
 9585TIP3    H128696   2.500   7.617   1.805
 9585TIP3    H228697   2.552   7.755   1.837
 9586TIP3   OH228698   2.505   3.094   5.977
 9586TIP3    H128699   2.414   3.123   5.978
 9586TIP3    H228700   2.538   3.116   6.064
 9587TIP3   OH228701   2.875   3.363   4.125
 9587TIP3    H128702   2.959   3.360   4.079
 9587TIP3    H228703   2.891   3.420   4.200
 9588TIP3   OH228704   6.319   5.507   3.859
 9588TIP3    H128705   6.293   5.544   3.774
 9588TIP3    H228706   6.413   5.521   3.863
 9589TIP3   OH228707   2.459   4.365   0.689
 9589TIP3    H128708   2.384   4.306   0.686
 9589TIP3    H228709   2.493   4.365   0.599
 9590TIP3   OH228710   8.285   6.420   0.820
 9590TIP3    H128711   8.317   6.495   0.870
 9590TIP3    H228712   8.274   6.453   0.731
 9591TIP3   OH228713   0.851   0.994   6.227
 9591TIP3    H128714   0.811   1.079   6.247
 9591TIP3    H228715   0.780   0.942   6.189
 9592TIP3   OH228716   1.502   2.963   1.681
 9592TIP3    H128717   1.484   3.016   1.758
 9592TIP3    H228718   1.588   2.925   1.697
 9593TIP3   OH228719   0.796   2.553   1.153
 9593TIP3    H128720   0.796   2.588   1.064
 9593TIP3    H228721   0.827   2.625   1.208
 9594TIP3   OH228722   1.837   4.105   4.036
 9594TIP3    H128723   1.786   4.171   4.084
 9594TIP3    H228724   1.884   4.057   4.104
 9595TIP3   OH228725   5.381   6.300   0.432
 9595TIP3    H128726   5.393   6.365   0.502
 9595TIP3    H228727   5.455   6.314   0.374
 9596TIP3   OH228728   0.896   5.729   0.252
 9596TIP3    H128729   0.946   5.710   0.173
 9596TIP3    H228730   0.919   5.659   0.313
 9597TIP3   OH228731   3.787   1.514   3.670
 9597TIP3    H128732   3.825   1.602   3.676
 9597TIP3    H228733   3.718   1.513   3.736
 9598TIP3   OH228734   2.157   3.588   1.371
 9598TIP3    H128735   2.088   3.626   1.426
 9598TIP3    H228736   2.191   3.662   1.320
 9599TIP3   OH228737   6.301   5.855   4.858
 9599TIP3    H128738   6.348   5.809   4.789
 9599TIP3    H228739   6.363   5.861   4.930
 9600TIP3   OH228740   7.612   2.448   3.126
 9600TIP3    H128741   7.608   2.542   3.146
 9600TIP3    H228742   7.553   2.437   3.052
 9601TIP3   OH228743   5.975   0.481   4.427
 9601TIP3    H128744   6.010   0.569   4.421
 9601TIP3    H228745   5.907   0.477   4.360
 9602TIP3   OH228746   3.831   3.568   0.532
 9602TIP3    H128747   3.914   3.520   0.523
 9602TIP3    H228748   3.851   3.639   0.592
 9603TIP3   OH228749   4.905   3.198   0.059
 9603TIP3    H128750   4.890   3.245   0.141
 9603TIP3    H228751   4.884   3.263  -0.009
 9604TIP3   OH228752   8.066   5.848   4.454
 9604TIP3    H128753   7.987   5.891   4.484
 9604TIP3    H228754   8.047   5.823   4.364
 9605TIP3   OH228755   5.990   6.934   3.924
 9605TIP3    H128756   6.017   6.866   3.986
 9605TIP3    H228757   5.902   6.959   3.951
 9606TIP3   OH228758   6.553   0.429   4.699
 9606TIP3    H128759   6.502   0.352   4.726
 9606TIP3    H228760   6.618   0.394   4.638
 9607TIP3   OH228761   1.001   5.864   3.393
 9607TIP3    H128762   1.025   5.795   3.455
 9607TIP3    H228763   0.907   5.853   3.380
 9608TIP3   OH228764   7.414   6.749   2.534
 9608TIP3    H128765   7.412   6.778   2.625
 9608TIP3    H228766   7.414   6.653   2.540
 9609TIP3   OH228767   7.252   4.414   0.680
 9609TIP3    H128768   7.184   4.358   0.643
 9609TIP3    H228769   7.299   4.448   0.603
 9610TIP3   OH228770   2.322   4.514   1.035
 9610TIP3    H128771   2.315   4.569   1.113
 9610TIP3    H228772   2.256   4.445   1.049
 9611TIP3   OH228773   2.502   7.544   2.842
 9611TIP3    H128774   2.515   7.461   2.797
 9611TIP3    H228775   2.575   7.551   2.903
 9612TIP3   OH228776   0.186   6.836   3.646
 9612TIP3    H128777   0.100   6.805   3.675
 9612TIP3    H228778   0.211   6.901   3.711
 9613TIP3   OH228779   7.426   6.669   3.212
 9613TIP3    H128780   7.376   6.741   3.251
 9613TIP3    H228781   7.405   6.593   3.265
 9614TIP3   OH228782   4.905   2.329   2.413
 9614TIP3    H128783   4.829   2.321   2.470
 9614TIP3    H228784   4.887   2.407   2.360
 9615TIP3   OH228785   7.430   6.913   5.943
 9615TIP3    H128786   7.460   6.992   5.897
 9615TIP3    H228787   7.419   6.848   5.873
 9616TIP3   OH228788   1.359   4.037   2.588
 9616TIP3    H128789   1.297   4.029   2.661
 9616TIP3    H228790   1.306   4.026   2.509
 9617TIP3   OH228791   4.062   7.531   5.966
 9617TIP3    H128792   3.987   7.578   6.002
 9617TIP3    H228793   4.042   7.523   5.872
 9618TIP3   OH228794   1.437   5.725   1.527
 9618TIP3    H128795   1.362   5.703   1.581
 9618TIP3    H228796   1.400   5.774   1.453
 9619TIP3   OH228797   7.263   7.826   0.332
 9619TIP3    H128798   7.243   7.736   0.307
 9619TIP3    H228799   7.185   7.876   0.306
 9620TIP3   OH228800   7.443   0.226   5.437
 9620TIP3    H128801   7.382   0.153   5.446
 9620TIP3    H228802   7.454   0.259   5.526
 9621TIP3   OH228803   1.384   7.669   3.656
 9621TIP3    H128804   1.391   7.705   3.745
 9621TIP3    H228805   1.343   7.583   3.668
 9622TIP3   OH228806   4.422   7.804   5.251
 9622TIP3    H128807   4.452   7.786   5.162
 9622TIP3    H228808   4.330   7.829   5.241
 9623TIP3   OH228809   2.787   6.322   6.611
 9623TIP3    H128810   2.780   6.362   6.525
 9623TIP3    H228811   2.873   6.280   6.612
 9624TIP3   OH228812   1.372   1.566   2.614
 9624TIP3    H128813   1.334   1.586   2.700
 9624TIP3    H228814   1.435   1.636   2.599
 9625TIP3   OH228815   7.383   7.781   4.682
 9625TIP3    H128816   7.307   7.839   4.696
 9625TIP3    H228817   7.405   7.750   4.770
 9626TIP3   OH228818   8.295   3.290   2.924
 9626TIP3    H128819   8.231   3.304   2.995
 9626TIP3    H228820   8.278   3.362   2.863
 9627TIP3   OH228821   7.251   3.682   2.079
 9627TIP3    H128822   7.317   3.623   2.042
 9627TIP3    H228823   7.254   3.759   2.022
 9628TIP3   OH228824   6.168   1.037   6.555
 9628TIP3    H128825   6.184   0.957   6.606
 9628TIP3    H228826   6.204   1.107   6.609
 9629TIP3   OH228827   0.683   6.483   4.325
 9629TIP3    H128828   0.730   6.549   4.274
 9629TIP3    H228829   0.655   6.418   4.260
 9630TIP3   OH228830   0.655   3.940   1.096
 9630TIP3    H128831   0.625   4.022   1.058
 9630TIP3    H228832   0.634   3.874   1.030
 9631TIP3   OH228833   2.146   4.858   0.447
 9631TIP3    H128834   2.179   4.920   0.382
 9631TIP3    H228835   2.081   4.806   0.398
 9632TIP3   OH228836   0.251   5.939   1.000
 9632TIP3    H128837   0.291   5.892   1.074
 9632TIP3    H228838   0.216   5.869   0.944
 9633TIP3   OH228839   4.154   5.078   4.293
 9633TIP3    H128840   4.167   4.989   4.260
 9633TIP3    H228841   4.065   5.077   4.328
 9634TIP3   OH228842   7.006   5.991   2.935
 9634TIP3    H128843   7.040   5.938   2.863
 9634TIP3    H228844   6.919   6.019   2.905
 9635TIP3   OH228845   0.969   4.203   1.043
 9635TIP3    H128846   0.990   4.112   1.065
 9635TIP3    H228847   0.985   4.209   0.949
 9636TIP3   OH228848   7.978   7.298   4.086
 9636TIP3    H128849   7.989   7.384   4.044
 9636TIP3    H228850   7.914   7.253   4.031
 9637TIP3   OH228851   6.550   7.832   6.021
 9637TIP3    H128852   6.547   7.865   6.111
 9637TIP3    H228853   6.468   7.861   5.982
 9638TIP3   OH228854   3.633   6.430   3.013
 9638TIP3    H128855   3.613   6.488   2.939
 9638TIP3    H228856   3.591   6.347   2.991
 9639TIP3   OH228857   7.053   3.591   5.179
 9639TIP3    H128858   7.020   3.656   5.242
 9639TIP3    H228859   6.980   3.531   5.167
 9640TIP3   OH228860   7.597   3.934   2.839
 9640TIP3    H128861   7.568   3.937   2.930
 9640TIP3    H228862   7.515   3.930   2.788
 9641TIP3   OH228863   2.862   2.508   4.216
 9641TIP3    H128864   2.818   2.593   4.223
 9641TIP3    H228865   2.944   2.520   4.262
 9642TIP3   OH228866   1.805   3.723   1.360
 9642TIP3    H128867   1.828   3.675   1.280
 9642TIP3    H228868   1.889   3.751   1.396
 9643TIP3   OH228869   2.203   7.060   3.989
 9643TIP3    H128870   2.174   6.992   4.049
 9643TIP3    H228871   2.122   7.098   3.956
 9644TIP3   OH228872   7.993   6.877   1.612
 9644TIP3    H128873   7.954   6.925   1.686
 9644TIP3    H228874   7.947   6.911   1.535
 9645TIP3   OH228875   6.706   7.114   2.417
 9645TIP3    H128876   6.653   7.192   2.398
 9645TIP3    H228877   6.794   7.138   2.389
 9646TIP3   OH228878   4.240   7.160   6.414
 9646TIP3    H128879   4.263   7.228   6.477
 9646TIP3    H228880   4.324   7.129   6.381
 9647TIP3   OH228881   6.219   1.457   0.593
 9647TIP3    H128882   6.250   1.397   0.660
 9647TIP3    H228883   6.294   1.513   0.574
 9648TIP3   OH228884   0.976   0.733   1.936
 9648TIP3    H128885   0.996   0.823   1.962
 9648TIP3    H228886   0.886   0.718   1.967
 9649TIP3   OH228887   6.030   0.694   2.346
 9649TIP3    H128888   6.023   0.788   2.328
 9649TIP3    H228889   6.085   0.689   2.424
 9650TIP3   OH228890   1.047   1.672   5.750
 9650TIP3    H128891   1.031   1.673   5.655
 9650TIP3    H228892   1.140   1.694   5.758
 9651TIP3   OH228893   5.164   2.624   5.843
 9651TIP3    H128894   5.253   2.653   5.823
 9651TIP3    H228895   5.144   2.664   5.927
 9652TIP3   OH228896   2.094   0.515   4.903
 9652TIP3    H128897   2.111   0.565   4.983
 9652TIP3    H228898   2.011   0.549   4.871
 9653TIP3   OH228899   6.611   5.051   2.785
 9653TIP3    H128900   6.551   5.120   2.754
 9653TIP3    H228901   6.692   5.068   2.737
 9654TIP3   OH228902   3.646   6.441   3.851
 9654TIP3    H128903   3.636   6.392   3.770
 9654TIP3    H228904   3.689   6.379   3.911
 9655TIP3   OH228905   4.549   6.177   4.973
 9655TIP3    H128906   4.576   6.217   4.891
 9655TIP3    H228907   4.588   6.233   5.041
 9656TIP3   OH228908   4.870   7.802   6.567
 9656TIP3    H128909   4.811   7.730   6.591
 9656TIP3    H228910   4.862   7.865   6.639
 9657TIP3   OH228911   1.298   5.514   3.816
 9657TIP3    H128912   1.306   5.490   3.724
 9657TIP3    H228913   1.325   5.436   3.864
 9658TIP3   OH228914   7.891   0.337   5.821
 9658TIP3    H128915   7.851   0.251   5.812
 9658TIP3    H228916   7.878   0.378   5.735
 9659TIP3   OH228917   5.392   1.241   4.380
 9659TIP3    H128918   5.323   1.299   4.348
 9659TIP3    H228919   5.429   1.288   4.455
 9660TIP3   OH228920   1.670   1.773   6.261
 9660TIP3    H128921   1.614   1.699   6.286
 9660TIP3    H228922   1.624   1.850   6.295
 9661TIP3   OH228923   5.980   2.522   6.411
 9661TIP3    H128924   5.917   2.588   6.382
 9661TIP3    H228925   6.013   2.556   6.494
 9662TIP3   OH228926   7.670   1.210   4.133
 9662TIP3    H128927   7.738   1.276   4.145
 9662TIP3    H228928   7.657   1.207   4.038
 9663TIP3   OH228929   3.201   4.400   1.753
 9663TIP3    H128930   3.229   4.351   1.675
 9663TIP3    H228931   3.166   4.334   1.812
 9664TIP3   OH228932   1.031  -0.008   6.437
 9664TIP3    H128933   0.990   0.045   6.370
 9664TIP3    H228934   1.070  -0.081   6.389
 9665TIP3   OH228935   2.875   5.767   4.634
 9665TIP3    H128936   2.832   5.745   4.551
 9665TIP3    H228937   2.955   5.814   4.608
 9666TIP3   OH228938   1.903   6.963   3.396
 9666TIP3    H128939   1.901   6.982   3.490
 9666TIP3    H228940   1.864   6.876   3.388
 9667TIP3   OH228941   7.176   6.262   4.065
 9667TIP3    H128942   7.234   6.335   4.045
 9667TIP3    H228943   7.115   6.259   3.991
 9668TIP3   OH228944   2.416   5.489   2.997
 9668TIP3    H128945   2.344   5.448   3.044
 9668TIP3    H228946   2.478   5.515   3.065
 9669TIP3   OH228947   6.466   2.926   5.299
 9669TIP3    H128948   6.463   3.021   5.285
 9669TIP3    H228949   6.376   2.904   5.325
 9670TIP3   OH228950   4.135   4.100   2.640
 9670TIP3    H128951   4.186   4.153   2.702
 9670TIP3    H228952   4.077   4.163   2.597
 9671TIP3   OH228953   3.053   6.294   0.867
 9671TIP3    H128954   3.053   6.302   0.963
 9671TIP3    H228955   3.145   6.301   0.843
 9672TIP3   OH228956   6.840   0.649   5.772
 9672TIP3    H128957   6.908   0.634   5.706
 9672TIP3    H228958   6.792   0.567   5.775
 9673TIP3   OH228959   6.167   0.483   5.585
 9673TIP3    H128960   6.183   0.479   5.490
 9673TIP3    H228961   6.147   0.575   5.602
 9674TIP3   OH228962   8.302   7.190   5.104
 9674TIP3    H128963   8.263   7.267   5.060
 9674TIP3    H228964   8.245   7.175   5.179
 9675TIP3   OH228965   8.347   5.729   0.029
 9675TIP3    H128966   8.317   5.812   0.066
 9675TIP3    H228967   8.339   5.741  -0.066
 9676TIP3   OH228968   6.773   2.319   3.208
 9676TIP3    H128969   6.821   2.388   3.161
 9676TIP3    H228970   6.833   2.245   3.211
 9677TIP3   OH228971   4.811   4.869   0.582
 9677TIP3    H128972   4.842   4.799   0.524
 9677TIP3    H228973   4.723   4.889   0.552
 9678TIP3   OH228974   6.144   0.341   2.244
 9678TIP3    H128975   6.237   0.326   2.261
 9678TIP3    H228976   6.104   0.254   2.255
 9679TIP3   OH228977   1.170   5.065   1.855
 9679TIP3    H128978   1.120   5.146   1.859
 9679TIP3    H228979   1.197   5.049   1.945
 9680TIP3   OH228980   1.639   2.887   5.804
 9680TIP3    H128981   1.673   2.952   5.865
 9680TIP3    H228982   1.574   2.934   5.752
 9681TIP3   OH228983   1.448   3.434   1.543
 9681TIP3    H128984   1.393   3.492   1.597
 9681TIP3    H228985   1.537   3.464   1.561
 9682TIP3   OH228986   2.269   5.537   6.152
 9682TIP3    H128987   2.186   5.493   6.170
 9682TIP3    H228988   2.248   5.630   6.154
 9683TIP3   OH228989   1.458   7.479   5.369
 9683TIP3    H128990   1.529   7.543   5.362
 9683TIP3    H228991   1.475   7.417   5.298
 9684TIP3   OH228992   0.680   7.156   5.517
 9684TIP3    H128993   0.682   7.248   5.492
 9684TIP3    H228994   0.748   7.115   5.463
 9685TIP3   OH228995   1.180   4.810   4.590
 9685TIP3    H128996   1.104   4.753   4.577
 9685TIP3    H228997   1.143   4.895   4.615
 9686TIP3   OH228998   5.731   1.634   0.475
 9686TIP3    H128999   5.811   1.586   0.455
 9686TIP3    H229000   5.663   1.585   0.428
 9687TIP3   OH229001   2.966   7.550   1.047
 9687TIP3    H129002   2.963   7.458   1.021
 9687TIP3    H229003   2.999   7.549   1.136
 9688TIP3   OH229004   0.420   3.780   6.296
 9688TIP3    H129005   0.373   3.697   6.291
 9688TIP3    H229006   0.436   3.804   6.205
 9689TIP3   OH229007   0.578   7.132   3.127
 9689TIP3    H129008   0.597   7.180   3.047
 9689TIP3    H229009   0.530   7.054   3.098
 9690TIP3   OH229010   6.197   0.222   0.245
 9690TIP3    H129011   6.286   0.205   0.216
 9690TIP3    H229012   6.163   0.137   0.271
 9691TIP3   OH229013   7.012   0.306   0.267
 9691TIP3    H129014   6.936   0.363   0.260
 9691TIP3    H229015   7.067   0.329   0.192
 9692TIP3   OH229016   7.954   4.956   2.464
 9692TIP3    H129017   7.956   4.884   2.527
 9692TIP3    H229018   7.995   5.029   2.510
 9693TIP3   OH229019   3.157   3.058   2.079
 9693TIP3    H129020   3.224   3.040   2.144
 9693TIP3    H229021   3.131   2.972   2.047
 9694TIP3   OH229022   4.735   2.404   4.953
 9694TIP3    H129023   4.700   2.482   4.996
 9694TIP3    H229024   4.722   2.421   4.859
 9695TIP3   OH229025   5.528   7.778   2.083
 9695TIP3    H129026   5.614   7.818   2.073
 9695TIP3    H229027   5.487   7.787   1.998
 9696TIP3   OH229028   3.648   2.085   0.607
 9696TIP3    H129029   3.589   2.024   0.562
 9696TIP3    H229030   3.704   2.120   0.537
 9697TIP3   OH229031   7.885   1.450   0.185
 9697TIP3    H129032   7.919   1.458   0.097
 9697TIP3    H229033   7.916   1.529   0.230
 9698TIP3   OH229034   7.473   0.947   4.379
 9698TIP3    H129035   7.434   0.957   4.292
 9698TIP3    H229036   7.566   0.960   4.366
 9699TIP3   OH229037   5.895   2.160   0.426
 9699TIP3    H129038   5.831   2.105   0.471
 9699TIP3    H229039   5.967   2.169   0.488
 9700TIP3   OH229040   2.125   3.500   3.110
 9700TIP3    H129041   2.055   3.540   3.059
 9700TIP3    H229042   2.206   3.530   3.069
 9701TIP3   OH229043   4.370   6.135   0.410
 9701TIP3    H129044   4.417   6.190   0.348
 9701TIP3    H229045   4.404   6.047   0.395
 9702TIP3   OH229046   3.665   3.586   2.661
 9702TIP3    H129047   3.605   3.543   2.599
 9702TIP3    H229048   3.623   3.574   2.746
 9703TIP3   OH229049   2.379   0.267   5.355
 9703TIP3    H129050   2.328   0.186   5.356
 9703TIP3    H229051   2.313   0.336   5.364
 9704TIP3   OH229052   2.041   4.263   0.229
 9704TIP3    H129053   1.968   4.324   0.238
 9704TIP3    H229054   2.107   4.312   0.180
 9705TIP3   OH229055   4.529   5.556   6.566
 9705TIP3    H129056   4.445   5.523   6.597
 9705TIP3    H229057   4.539   5.641   6.608
 9706TIP3   OH229058   2.305   4.672   2.397
 9706TIP3    H129059   2.222   4.624   2.408
 9706TIP3    H229060   2.297   4.748   2.454
 9707TIP3   OH229061   0.448   6.285   4.004
 9707TIP3    H129062   0.529   6.276   4.054
 9707TIP3    H229063   0.438   6.201   3.959
 9708TIP3   OH229064   4.637   5.200   4.973
 9708TIP3    H129065   4.615   5.109   4.953
 9708TIP3    H229066   4.581   5.252   4.915
 9709TIP3   OH229067   3.591   3.220   1.020
 9709TIP3    H129068   3.680   3.215   0.984
 9709TIP3    H229069   3.585   3.310   1.054
 9710TIP3   OH229070   6.175   1.536   3.856
 9710TIP3    H129071   6.080   1.526   3.868
 9710TIP3    H229072   6.207   1.447   3.841
 9711TIP3   OH229073   6.434   1.932   5.024
 9711TIP3    H129074   6.407   1.963   5.110
 9711TIP3    H229075   6.352   1.912   4.978
 9712TIP3   OH229076   0.107   4.624   6.513
 9712TIP3    H129077   0.153   4.707   6.510
 9712TIP3    H229078   0.014   4.647   6.506
 9713TIP3   OH229079   7.507   6.179   2.970
 9713TIP3    H129080   7.486   6.250   3.030
 9713TIP3    H229081   7.434   6.118   2.977
 9714TIP3   OH229082   1.134   1.532   2.232
 9714TIP3    H129083   1.186   1.518   2.153
 9714TIP3    H229084   1.054   1.480   2.217
 9715TIP3   OH229085   1.534   3.394   2.185
 9715TIP3    H129086   1.617   3.359   2.154
 9715TIP3    H229087   1.543   3.398   2.280
 9716TIP3   OH229088   1.172   6.175   1.019
 9716TIP3    H129089   1.154   6.114   1.090
 9716TIP3    H229090   1.113   6.148   0.948
 9717TIP3   OH229091   2.220   5.545   4.067
 9717TIP3    H129092   2.197   5.625   4.115
 9717TIP3    H229093   2.170   5.550   3.986
 9718TIP3   OH229094   3.563   2.402   2.031
 9718TIP3    H129095   3.518   2.383   2.113
 9718TIP3    H229096   3.501   2.375   1.963
 9719TIP3   OH229097   2.092   4.263   0.721
 9719TIP3    H129098   2.014   4.264   0.776
 9719TIP3    H229099   2.107   4.171   0.701
 9720TIP3   OH229100   6.941   5.800   6.158
 9720TIP3    H129101   6.867   5.842   6.114
 9720TIP3    H229102   7.018   5.841   6.119
 9721TIP3   OH229103   2.942   0.682   0.721
 9721TIP3    H129104   2.943   0.776   0.703
 9721TIP3    H229105   2.862   0.669   0.773
 9722TIP3   OH229106   5.575   2.448   3.746
 9722TIP3    H129107   5.644   2.441   3.680
 9722TIP3    H229108   5.511   2.508   3.707
 9723TIP3   OH229109   0.337   2.361   2.141
 9723TIP3    H129110   0.328   2.439   2.195
 9723TIP3    H229111   0.279   2.376   2.066
 9724TIP3   OH229112   7.480   4.457   4.850
 9724TIP3    H129113   7.408   4.394   4.856
 9724TIP3    H229114   7.529   4.431   4.772
 9725TIP3   OH229115   4.851   4.651   0.430
 9725TIP3    H129116   4.813   4.637   0.344
 9725TIP3    H229117   4.785   4.618   0.492
 9726TIP3   OH229118   0.533   1.837   5.168
 9726TIP3    H129119   0.624   1.865   5.164
 9726TIP3    H229120   0.517   1.819   5.261
 9727TIP3   OH229121   1.576   2.723   6.779
 9727TIP3    H129122   1.481   2.718   6.767
 9727TIP3    H229123   1.594   2.666   6.853
 9728TIP3   OH229124   4.880   0.365   6.167
 9728TIP3    H129125   4.920   0.437   6.117
 9728TIP3    H229126   4.817   0.326   6.107
 9729TIP3   OH229127   0.282   1.526   3.042
 9729TIP3    H129128   0.360   1.481   3.073
 9729TIP3    H229129   0.287   1.613   3.081
 9730TIP3   OH229130   5.237   0.917   0.135
 9730TIP3    H129131   5.195   0.942   0.218
 9730TIP3    H229132   5.188   0.840   0.106
 9731TIP3   OH229133   7.909   6.270   4.523
 9731TIP3    H129134   7.837   6.332   4.535
 9731TIP3    H229135   7.886   6.223   4.443
 9732TIP3   OH229136   0.223   5.552   4.806
 9732TIP3    H129137   0.278   5.606   4.863
 9732TIP3    H229138   0.165   5.614   4.762
 9733TIP3   OH229139   5.228   3.327   2.698
 9733TIP3    H129140   5.186   3.333   2.612
 9733TIP3    H229141   5.223   3.234   2.721
 9734TIP3   OH229142   1.671   5.597   5.345
 9734TIP3    H129143   1.643   5.680   5.382
 9734TIP3    H229144   1.640   5.531   5.408
 9735TIP3   OH229145   6.164   4.444   2.230
 9735TIP3    H129146   6.233   4.504   2.199
 9735TIP3    H229147   6.113   4.496   2.291
 9736TIP3   OH229148   3.970   7.366   3.523
 9736TIP3    H129149   3.963   7.293   3.461
 9736TIP3    H229150   4.061   7.396   3.515
 9737TIP3   OH229151   4.978   1.871   0.100
 9737TIP3    H129152   5.035   1.831   0.034
 9737TIP3    H229153   4.921   1.800   0.129
 9738TIP3   OH229154   4.585   6.535   1.659
 9738TIP3    H129155   4.673   6.504   1.635
 9738TIP3    H229156   4.555   6.472   1.725
 9739TIP3   OH229157   1.984   0.871   0.261
 9739TIP3    H129158   2.035   0.915   0.193
 9739TIP3    H229159   2.028   0.788   0.275
 9740TIP3   OH229160   0.944   7.147   5.073
 9740TIP3    H129161   1.018   7.139   5.133
 9740TIP3    H229162   0.867   7.146   5.130
 9741TIP3   OH229163   4.757   4.149   1.426
 9741TIP3    H129164   4.833   4.206   1.428
 9741TIP3    H229165   4.717   4.159   1.513
 9742TIP3   OH229166   7.374   1.507   1.333
 9742TIP3    H129167   7.457   1.505   1.286
 9742TIP3    H229168   7.342   1.597   1.323
 9743TIP3   OH229169   6.529   7.939   4.349
 9743TIP3    H129170   6.578   7.874   4.400
 9743TIP3    H229171   6.462   7.887   4.303
 9744TIP3   OH229172   0.379   5.790   2.479
 9744TIP3    H129173   0.295   5.793   2.433
 9744TIP3    H229174   0.369   5.852   2.551
 9745TIP3   OH229175   4.181   0.129   2.222
 9745TIP3    H129176   4.163   0.215   2.261
 9745TIP3    H229177   4.210   0.150   2.133
 9746TIP3   OH229178  -0.030   0.655   3.817
 9746TIP3    H129179  -0.024   0.664   3.722
 9746TIP3    H229180  -0.036   0.745   3.849
 9747TIP3   OH229181   5.750   6.948   2.181
 9747TIP3    H129182   5.757   6.854   2.165
 9747TIP3    H229183   5.662   6.960   2.215
 9748TIP3   OH229184   7.692   7.744   4.793
 9748TIP3    H129185   7.754   7.676   4.770
 9748TIP3    H229186   7.701   7.809   4.723
 9749TIP3   OH229187   5.775   1.518   2.530
 9749TIP3    H129188   5.850   1.567   2.562
 9749TIP3    H229189   5.783   1.432   2.573
 9750TIP3   OH229190   6.251   2.677   5.478
 9750TIP3    H129191   6.275   2.584   5.482
 9750TIP3    H229192   6.294   2.716   5.554
 9751TIP3   OH229193   0.647   3.669   2.513
 9751TIP3    H129194   0.607   3.750   2.543
 9751TIP3    H229195   0.741   3.687   2.513
 9752TIP3   OH229196   0.882   5.273   0.044
 9752TIP3    H129197   0.904   5.333   0.116
 9752TIP3    H229198   0.964   5.229   0.024
 9753TIP3   OH229199   7.198   1.363   3.026
 9753TIP3    H129200   7.187   1.378   2.932
 9753TIP3    H229201   7.233   1.445   3.060
 9754TIP3   OH229202   4.939   3.102   2.351
 9754TIP3    H129203   4.855   3.139   2.323
 9754TIP3    H229204   4.925   3.076   2.442
 9755TIP3   OH229205   4.872   0.069   3.194
 9755TIP3    H129206   4.917   0.055   3.110
 9755TIP3    H229207   4.795   0.121   3.171
 9756TIP3   OH229208   1.742   3.554   5.165
 9756TIP3    H129209   1.753   3.608   5.243
 9756TIP3    H229210   1.683   3.484   5.192
 9757TIP3   OH229211   7.296   6.108   0.450
 9757TIP3    H129212   7.353   6.140   0.520
 9757TIP3    H229213   7.324   6.018   0.434
 9758TIP3   OH229214   0.629   1.181   2.883
 9758TIP3    H129215   0.700   1.119   2.866
 9758TIP3    H229216   0.655   1.259   2.835
 9759TIP3   OH229217   5.481   3.178   0.247
 9759TIP3    H129218   5.458   3.089   0.219
 9759TIP3    H229219   5.422   3.235   0.199
 9760TIP3   OH229220   3.356   1.836   4.492
 9760TIP3    H129221   3.304   1.801   4.420
 9760TIP3    H229222   3.447   1.826   4.463
 9761TIP3   OH229223   0.041   3.997   3.046
 9761TIP3    H129224   0.117   4.030   3.094
 9761TIP3    H229225  -0.008   3.947   3.112
 9762TIP3   OH229226   3.355   6.695   6.191
 9762TIP3    H129227   3.281   6.640   6.216
 9762TIP3    H229228   3.411   6.699   6.269
 9763TIP3   OH229229   5.970   6.252   5.363
 9763TIP3    H129230   5.890   6.254   5.416
 9763TIP3    H229231   5.963   6.172   5.312
 9764TIP3   OH229232   0.605   5.407   3.269
 9764TIP3    H129233   0.590   5.408   3.174
 9764TIP3    H229234   0.543   5.342   3.302
 9765TIP3   OH229235   4.077   6.421   4.940
 9765TIP3    H129236   4.157   6.381   4.905
 9765TIP3    H229237   4.041   6.354   4.999
 9766TIP3   OH229238   2.380   4.451   5.706
 9766TIP3    H129239   2.308   4.513   5.695
 9766TIP3    H229240   2.375   4.425   5.798
 9767TIP3   OH229241   3.595   6.239   5.271
 9767TIP3    H129242   3.512   6.278   5.298
 9767TIP3    H229243   3.659   6.272   5.333
 9768TIP3   OH229244   6.332   0.809   5.901
 9768TIP3    H129245   6.377   0.894   5.898
 9768TIP3    H229246   6.263   0.821   5.966
 9769TIP3   OH229247   0.847   6.794   6.781
 9769TIP3    H129248   0.920   6.819   6.838
 9769TIP3    H229249   0.769   6.814   6.833
 9770TIP3   OH229250   7.138   1.078   4.011
 9770TIP3    H129251   7.046   1.062   4.033
 9770TIP3    H229252   7.135   1.119   3.925
 9771TIP3   OH229253   6.721   6.821   6.664
 9771TIP3    H129254   6.698   6.761   6.735
 9771TIP3    H229255   6.817   6.819   6.662
 9772TIP3   OH229256   2.565   4.698   5.463
 9772TIP3    H129257   2.609   4.778   5.436
 9772TIP3    H229258   2.598   4.681   5.552
 9773TIP3   OH229259   1.917   5.524   0.270
 9773TIP3    H129260   1.834   5.537   0.224
 9773TIP3    H229261   1.962   5.456   0.220
 9774TIP3   OH229262   6.365   1.095   0.671
 9774TIP3    H129263   6.460   1.080   0.667
 9774TIP3    H229264   6.327   1.007   0.677
 9775TIP3   OH229265   7.916   0.620   2.937
 9775TIP3    H129266   7.983   0.554   2.919
 9775TIP3    H229267   7.888   0.602   3.027
 9776TIP3   OH229268   8.048   2.180   1.592
 9776TIP3    H129269   8.016   2.140   1.673
 9776TIP3    H229270   7.986   2.250   1.574
 9777TIP3   OH229271   8.004   6.961   6.235
 9777TIP3    H129272   8.029   6.875   6.203
 9777TIP3    H229273   7.997   7.015   6.156
 9778TIP3   OH229274   4.912   1.700   4.202
 9778TIP3    H129275   4.955   1.623   4.165
 9778TIP3    H229276   4.949   1.774   4.155
 9779TIP3   OH229277   0.551   4.250   3.823
 9779TIP3    H129278   0.643   4.236   3.844
 9779TIP3    H229279   0.551   4.326   3.763
 9780TIP3   OH229280   7.767   7.598   4.420
 9780TIP3    H129281   7.684   7.646   4.428
 9780TIP3    H229282   7.787   7.600   4.326
 9781TIP3   OH229283  -0.053   6.454   5.237
 9781TIP3    H129284  -0.020   6.365   5.225
 9781TIP3    H229285  -0.107   6.470   5.160
 9782TIP3   OH229286   7.789   2.799   5.105
 9782TIP3    H129287   7.722   2.786   5.039
 9782TIP3    H229288   7.858   2.848   5.060
 9783TIP3   OH229289   5.602   5.299   6.211
 9783TIP3    H129290   5.567   5.324   6.297
 9783TIP3    H229291   5.626   5.383   6.170
 9784TIP3   OH229292   0.775   6.498   3.854
 9784TIP3    H129293   0.733   6.569   3.808
 9784TIP3    H229294   0.761   6.421   3.799
 9785TIP3   OH229295   3.303   0.075   3.270
 9785TIP3    H129296   3.305   0.065   3.175
 9785TIP3    H229297   3.384   0.121   3.291
 9786TIP3   OH229298   7.038   2.369   1.914
 9786TIP3    H129299   6.968   2.433   1.899
 9786TIP3    H229300   7.079   2.357   1.828
 9787TIP3   OH229301   3.446   4.715   6.644
 9787TIP3    H129302   3.374   4.776   6.656
 9787TIP3    H229303   3.523   4.770   6.629
 9788TIP3   OH229304   1.075   6.003   3.670
 9788TIP3    H129305   1.167   5.991   3.644
 9788TIP3    H229306   1.038   6.060   3.603
 9789TIP3   OH229307   1.832   2.949   6.603
 9789TIP3    H129308   1.853   3.010   6.532
 9789TIP3    H229309   1.869   2.989   6.681
 9790TIP3   OH229310   6.603   3.430   6.239
 9790TIP3    H129311   6.520   3.385   6.258
 9790TIP3    H229312   6.577   3.520   6.219
 9791TIP3   OH229313   7.184   5.241   5.566
 9791TIP3    H129314   7.223   5.279   5.645
 9791TIP3    H229315   7.253   5.185   5.530
 9792TIP3   OH229316   6.292   5.025   1.392
 9792TIP3    H129317   6.364   4.978   1.434
 9792TIP3    H229318   6.328   5.056   1.309
 9793TIP3   OH229319   7.355   5.472   0.193
 9793TIP3    H129320   7.282   5.463   0.132
 9793TIP3    H229321   7.363   5.566   0.209
 9794TIP3   OH229322   5.918   7.378   2.255
 9794TIP3    H129323   5.976   7.430   2.199
 9794TIP3    H229324   5.841   7.362   2.201
 9795TIP3   OH229325   3.567   7.879   2.265
 9795TIP3    H129326   3.626   7.824   2.317
 9795TIP3    H229327   3.538   7.946   2.327
 9796TIP3   OH229328   6.081   6.991   1.858
 9796TIP3    H129329   6.143   6.918   1.858
 9796TIP3    H229330   6.132   7.066   1.828
 9797TIP3   OH229331   0.941   7.730   5.642
 9797TIP3    H129332   0.949   7.771   5.728
 9797TIP3    H229333   0.873   7.779   5.597
 9798TIP3   OH229334   8.294   5.297   5.713
 9798TIP3    H129335   8.250   5.357   5.652
 9798TIP3    H229336   8.307   5.349   5.792
 9799TIP3   OH229337   8.361   2.326   3.692
 9799TIP3    H129338   8.285   2.347   3.745
 9799TIP3    H229339   8.400   2.249   3.735
 9800TIP3   OH229340   4.758   4.823   0.985
 9800TIP3    H129341   4.834   4.799   0.932
 9800TIP3    H229342   4.706   4.880   0.928
 9801TIP3   OH229343   1.782   6.844   1.001
 9801TIP3    H129344   1.770   6.938   1.017
 9801TIP3    H229345   1.795   6.836   0.907
 9802TIP3   OH229346   6.568   5.424   0.252
 9802TIP3    H129347   6.616   5.473   0.186
 9802TIP3    H229348   6.483   5.469   0.258
 9803TIP3   OH229349   3.050   2.973   4.144
 9803TIP3    H129350   2.965   3.016   4.150
 9803TIP3    H229351   3.112   3.036   4.179
 9804TIP3   OH229352   4.723   1.241   6.185
 9804TIP3    H129353   4.730   1.295   6.263
 9804TIP3    H229354   4.813   1.219   6.163
 9805TIP3   OH229355   7.246   4.344   6.517
 9805TIP3    H129356   7.220   4.415   6.459
 9805TIP3    H229357   7.245   4.383   6.604
 9806TIP3   OH229358   4.460   0.588   2.051
 9806TIP3    H129359   4.544   0.634   2.058
 9806TIP3    H229360   4.468   0.514   2.111
 9807TIP3   OH229361   1.441   3.149  -0.085
 9807TIP3    H129362   1.456   3.094  -0.008
 9807TIP3    H229363   1.368   3.106  -0.131
 9808TIP3   OH229364   8.321   4.089   0.170
 9808TIP3    H129365   8.391   4.026   0.186
 9808TIP3    H229366   8.275   4.096   0.254
 9809TIP3   OH229367   0.962   6.138   5.649
 9809TIP3    H129368   0.998   6.065   5.699
 9809TIP3    H229369   0.909   6.187   5.712
 9810TIP3   OH229370   7.546   4.344   6.320
 9810TIP3    H129371   7.546   4.407   6.391
 9810TIP3    H229372   7.639   4.329   6.301
 9811TIP3   OH229373   4.578   4.024   3.421
 9811TIP3    H129374   4.630   4.104   3.411
 9811TIP3    H229375   4.611   3.983   3.500
 9812TIP3   OH229376   4.987   6.890   2.245
 9812TIP3    H129377   5.040   6.811   2.246
 9812TIP3    H229378   5.005   6.932   2.329
 9813TIP3   OH229379   1.793   2.896   0.555
 9813TIP3    H129380   1.805   2.828   0.621
 9813TIP3    H229381   1.763   2.849   0.477
 9814TIP3   OH229382   7.711   2.366   2.596
 9814TIP3    H129383   7.786   2.398   2.546
 9814TIP3    H229384   7.716   2.413   2.679
 9815TIP3   OH229385   3.024   5.487   6.012
 9815TIP3    H129386   3.113   5.483   6.046
 9815TIP3    H229387   2.974   5.429   6.069
 9816TIP3   OH229388   1.402   1.977   5.010
 9816TIP3    H129389   1.367   2.000   5.096
 9816TIP3    H229390   1.386   1.883   5.001
 9817TIP3   OH229391   2.030   4.438   3.048
 9817TIP3    H129392   2.032   4.362   3.105
 9817TIP3    H229393   2.003   4.404   2.963
 9818TIP3   OH229394   5.866   2.634   3.061
 9818TIP3    H129395   5.949   2.651   3.106
 9818TIP3    H229396   5.888   2.570   2.993
 9819TIP3   OH229397   6.367   5.425   5.976
 9819TIP3    H129398   6.314   5.349   5.956
 9819TIP3    H229399   6.360   5.435   6.071
 9820TIP3   OH229400   7.104   4.626   5.186
 9820TIP3    H129401   7.076   4.708   5.145
 9820TIP3    H229402   7.167   4.589   5.124
 9821TIP3   OH229403   5.654   5.468   3.336
 9821TIP3    H129404   5.670   5.385   3.292
 9821TIP3    H229405   5.736   5.489   3.380
 9822TIP3   OH229406   3.679   1.079   0.773
 9822TIP3    H129407   3.590   1.044   0.770
 9822TIP3    H229408   3.671   1.163   0.818
 9823TIP3   OH229409   4.185   6.780   3.422
 9823TIP3    H129410   4.224   6.861   3.455
 9823TIP3    H229411   4.133   6.747   3.495
 9824TIP3   OH229412   6.761   1.796   5.534
 9824TIP3    H129413   6.744   1.853   5.609
 9824TIP3    H229414   6.820   1.846   5.478
 9825TIP3   OH229415   7.067   7.713   6.540
 9825TIP3    H129416   7.029   7.767   6.471
 9825TIP3    H229417   7.114   7.643   6.492
 9826TIP3   OH229418   8.254   7.693   6.046
 9826TIP3    H129419   8.175   7.654   6.008
 9826TIP3    H229420   8.261   7.653   6.132
 9827TIP3   OH229421   5.632   3.677   6.589
 9827TIP3    H129422   5.653   3.637   6.505
 9827TIP3    H229423   5.664   3.614   6.655
 9828TIP3   OH229424   5.832   6.574   0.259
 9828TIP3    H129425   5.834   6.630   0.337
 9828TIP3    H229426   5.894   6.504   0.278
 9829TIP3   OH229427   4.901   3.305   3.237
 9829TIP3    H129428   4.957   3.314   3.314
 9829TIP3    H229429   4.914   3.214   3.208
 9830TIP3   OH229430   7.342   0.152   5.894
 9830TIP3    H129431   7.364   0.137   5.986
 9830TIP3    H229432   7.317   0.245   5.890
 9831TIP3   OH229433   3.666   7.438   2.941
 9831TIP3    H129434   3.575   7.466   2.952
 9831TIP3    H229435   3.668   7.350   2.977
 9832TIP3   OH229436   1.374   7.319   0.489
 9832TIP3    H129437   1.456   7.308   0.537
 9832TIP3    H229438   1.361   7.236   0.445
 9833TIP3   OH229439   0.800   7.183   6.600
 9833TIP3    H129440   0.803   7.094   6.566
 9833TIP3    H229441   0.790   7.238   6.523
 9834TIP3   OH229442   2.847   7.468   6.388
 9834TIP3    H129443   2.883   7.513   6.464
 9834TIP3    H229444   2.848   7.375   6.411
 9835TIP3   OH229445   0.808   6.544   0.694
 9835TIP3    H129446   0.806   6.607   0.621
 9835TIP3    H229447   0.885   6.490   0.677
 9836TIP3   OH229448   4.764   0.875   6.053
 9836TIP3    H129449   4.841   0.900   6.000
 9836TIP3    H229450   4.699   0.942   6.032
 9837TIP3   OH229451   4.455   2.403   6.745
 9837TIP3    H129452   4.470   2.338   6.676
 9837TIP3    H229453   4.403   2.356   6.810
 9838TIP3   OH229454   6.591   2.754   0.934
 9838TIP3    H129455   6.519   2.728   0.875
 9838TIP3    H229456   6.621   2.838   0.900
 9839TIP3   OH229457   0.802   6.830   6.513
 9839TIP3    H129458   0.814   6.817   6.607
 9839TIP3    H229459   0.717   6.872   6.506
 9840TIP3   OH229460   6.853   3.328   1.228
 9840TIP3    H129461   6.845   3.402   1.167
 9840TIP3    H229462   6.924   3.275   1.191
 9841TIP3   OH229463   2.109   2.107   2.445
 9841TIP3    H129464   2.101   2.122   2.539
 9841TIP3    H229465   2.045   2.038   2.426
 9842TIP3   OH229466   4.636   5.942   5.095
 9842TIP3    H129467   4.730   5.936   5.081
 9842TIP3    H229468   4.610   6.022   5.049
 9843TIP3   OH229469   5.533   6.382   0.959
 9843TIP3    H129470   5.478   6.330   1.017
 9843TIP3    H229471   5.622   6.368   0.992
 9844TIP3   OH229472   7.580   4.535   3.677
 9844TIP3    H129473   7.488   4.520   3.696
 9844TIP3    H229474   7.624   4.521   3.762
 9845TIP3   OH229475   6.290   1.998   6.181
 9845TIP3    H129476   6.363   2.058   6.197
 9845TIP3    H229477   6.229   2.014   6.253
 9846TIP3   OH229478   6.081   1.054   0.138
 9846TIP3    H129479   6.151   1.085   0.080
 9846TIP3    H229480   6.118   1.063   0.226
 9847TIP3   OH229481   4.661   1.409   3.064
 9847TIP3    H129482   4.746   1.453   3.073
 9847TIP3    H229483   4.604   1.474   3.024
 9848TIP3   OH229484   7.821   4.089   6.464
 9848TIP3    H129485   7.746   4.110   6.518
 9848TIP3    H229486   7.857   4.009   6.502
 9849TIP3   OH229487   3.031   1.418   6.199
 9849TIP3    H129488   3.041   1.380   6.286
 9849TIP3    H229489   3.062   1.508   6.207
 9850TIP3   OH229490   1.017   0.246   4.152
 9850TIP3    H129491   1.008   0.188   4.228
 9850TIP3    H229492   1.107   0.278   4.156
 9851TIP3   OH229493   1.172   7.329   0.682
 9851TIP3    H129494   1.245   7.334   0.621
 9851TIP3    H229495   1.193   7.256   0.740
 9852TIP3   OH229496   2.941   1.779   4.494
 9852TIP3    H129497   2.997   1.850   4.464
 9852TIP3    H229498   3.000   1.720   4.540
 9853TIP3   OH229499   6.468   3.654   6.219
 9853TIP3    H129500   6.458   3.626   6.310
 9853TIP3    H229501   6.494   3.746   6.225
 9854TIP3   OH229502   0.864   2.655   1.393
 9854TIP3    H129503   0.907   2.730   1.434
 9854TIP3    H229504   0.896   2.579   1.441
 9855TIP3   OH229505   4.565   6.323   1.810
 9855TIP3    H129506   4.527   6.248   1.764
 9855TIP3    H229507   4.508   6.337   1.886
 9856TIP3   OH229508   5.523   2.430   6.258
 9856TIP3    H129509   5.529   2.342   6.295
 9856TIP3    H229510   5.482   2.417   6.172
 9857TIP3   OH229511   1.858   7.606   1.468
 9857TIP3    H129512   1.942   7.610   1.421
 9857TIP3    H229513   1.792   7.610   1.399
 9858TIP3   OH229514   1.528   5.265   4.990
 9858TIP3    H129515   1.536   5.218   5.074
 9858TIP3    H229516   1.531   5.357   5.014
 9859TIP3   OH229517   4.610   7.210   6.630
 9859TIP3    H129518   4.609   7.118   6.656
 9859TIP3    H229519   4.701   7.229   6.610
 9860TIP3   OH229520   2.325   0.450   2.809
 9860TIP3    H129521   2.379   0.373   2.825
 9860TIP3    H229522   2.343   0.473   2.717
 9861TIP3   OH229523   1.674   3.610   1.586
 9861TIP3    H129524   1.600   3.669   1.599
 9861TIP3    H229525   1.724   3.648   1.514
 9862TIP3   OH229526   1.442   5.606   5.827
 9862TIP3    H129527   1.360   5.562   5.804
 9862TIP3    H229528   1.451   5.591   5.921
 9863TIP3   OH229529   2.708   6.489   6.810
 9863TIP3    H129530   2.731   6.428   6.740
 9863TIP3    H229531   2.781   6.551   6.813
 9864TIP3   OH229532   0.689   4.218   1.081
 9864TIP3    H129533   0.702   4.309   1.108
 9864TIP3    H229534   0.777   4.180   1.078
 9865TIP3   OH229535   0.644   5.643   4.715
 9865TIP3    H129536   0.737   5.659   4.703
 9865TIP3    H229537   0.630   5.555   4.679
 9866TIP3   OH229538   3.191   2.214   5.777
 9866TIP3    H129539   3.156   2.191   5.864
 9866TIP3    H229540   3.212   2.308   5.784
 9867TIP3   OH229541   5.158   7.890   4.792
 9867TIP3    H129542   5.111   7.818   4.833
 9867TIP3    H229543   5.249   7.860   4.790
 9868TIP3   OH229544   4.465   3.320   6.059
 9868TIP3    H129545   4.537   3.346   6.116
 9868TIP3    H229546   4.426   3.402   6.029
 9869TIP3   OH229547   2.715   0.683   3.464
 9869TIP3    H129548   2.668   0.728   3.394
 9869TIP3    H229549   2.792   0.737   3.481
 9870TIP3   OH229550   8.359   2.169   3.127
 9870TIP3    H129551   8.359   2.141   3.036
 9870TIP3    H229552   8.274   2.210   3.139
 9871TIP3   OH229553   4.708   1.116   2.169
 9871TIP3    H129554   4.632   1.110   2.110
 9871TIP3    H229555   4.721   1.026   2.199
 9872TIP3   OH229556   3.825   5.132   2.926
 9872TIP3    H129557   3.748   5.174   2.963
 9872TIP3    H229558   3.826   5.161   2.835
 9873TIP3   OH229559   3.323   6.105   5.602
 9873TIP3    H129560   3.349   6.197   5.598
 9873TIP3    H229561   3.232   6.105   5.569
 9874TIP3   OH229562   6.275   7.153   3.373
 9874TIP3    H129563   6.218   7.132   3.448
 9874TIP3    H229564   6.289   7.069   3.330
 9875TIP3   OH229565   7.202   7.772   4.435
 9875TIP3    H129566   7.212   7.677   4.435
 9875TIP3    H229567   7.209   7.796   4.342
 9876TIP3   OH229568   6.431   5.972   3.260
 9876TIP3    H129569   6.440   6.011   3.173
 9876TIP3    H229570   6.407   6.045   3.316
 9877TIP3   OH229571   1.755   4.035   0.607
 9877TIP3    H129572   1.784   4.001   0.523
 9877TIP3    H229573   1.778   4.128   0.604
 9878TIP3   OH229574   4.780   3.777   0.393
 9878TIP3    H129575   4.771   3.762   0.487
 9878TIP3    H229576   4.697   3.749   0.356
 9879TIP3   OH229577   0.452   3.508   1.465
 9879TIP3    H129578   0.359   3.493   1.450
 9879TIP3    H229579   0.455   3.562   1.544
 9880TIP3   OH229580   3.470   7.704   5.001
 9880TIP3    H129581   3.416   7.703   4.922
 9880TIP3    H229582   3.519   7.787   4.996
 9881TIP3   OH229583   5.857   3.636   5.841
 9881TIP3    H129584   5.942   3.649   5.884
 9881TIP3    H229585   5.821   3.725   5.832
 9882TIP3   OH229586   1.170   1.622   4.969
 9882TIP3    H129587   1.183   1.693   5.032
 9882TIP3    H229588   1.259   1.600   4.940
 9883TIP3   OH229589   0.547   4.898   2.046
 9883TIP3    H129590   0.559   4.993   2.042
 9883TIP3    H229591   0.558   4.876   2.139
 9884TIP3   OH229592   5.917   6.675   6.088
 9884TIP3    H129593   6.008   6.655   6.067
 9884TIP3    H229594   5.897   6.622   6.165
 9885TIP3   OH229595   1.139   3.117   4.221
 9885TIP3    H129596   1.105   3.076   4.141
 9885TIP3    H229597   1.143   3.210   4.200
 9886TIP3   OH229598   5.029   5.023   0.242
 9886TIP3    H129599   5.024   5.043   0.336
 9886TIP3    H229600   5.111   5.064   0.214
 9887TIP3   OH229601   4.348   2.483   6.230
 9887TIP3    H129602   4.427   2.479   6.176
 9887TIP3    H229603   4.374   2.536   6.306
 9888TIP3   OH229604   0.327   0.848   6.756
 9888TIP3    H129605   0.405   0.836   6.701
 9888TIP3    H229606   0.361   0.860   6.844
 9889TIP3   OH229607   6.428   7.005   4.434
 9889TIP3    H129608   6.413   6.910   4.435
 9889TIP3    H229609   6.514   7.014   4.392
 9890TIP3   OH229610   2.775   2.401   4.709
 9890TIP3    H129611   2.857   2.428   4.751
 9890TIP3    H229612   2.713   2.470   4.732
 9891TIP3   OH229613   0.422   2.619   3.716
 9891TIP3    H129614   0.416   2.548   3.652
 9891TIP3    H229615   0.384   2.584   3.796
 9892TIP3   OH229616   3.535   1.332   5.130
 9892TIP3    H129617   3.481   1.377   5.065
 9892TIP3    H229618   3.538   1.241   5.100
 9893TIP3   OH229619   2.006   3.219   2.365
 9893TIP3    H129620   1.982   3.214   2.458
 9893TIP3    H229621   2.019   3.312   2.348
 9894TIP3   OH229622   7.864   6.040   0.331
 9894TIP3    H129623   7.857   6.092   0.411
 9894TIP3    H229624   7.938   5.982   0.347
 9895TIP3   OH229625   2.555   1.301   0.322
 9895TIP3    H129626   2.645   1.303   0.356
 9895TIP3    H229627   2.541   1.210   0.297
 9896TIP3   OH229628   3.632   4.343   4.664
 9896TIP3    H129629   3.629   4.435   4.687
 9896TIP3    H229630   3.725   4.326   4.645
 9897TIP3   OH229631   2.906   4.788   4.052
 9897TIP3    H129632   2.968   4.856   4.078
 9897TIP3    H229633   2.883   4.744   4.134
 9898TIP3   OH229634   7.634   6.353   5.243
 9898TIP3    H129635   7.560   6.390   5.291
 9898TIP3    H229636   7.696   6.328   5.311
 9899TIP3   OH229637   6.305   2.168   1.889
 9899TIP3    H129638   6.316   2.097   1.952
 9899TIP3    H229639   6.254   2.130   1.818
 9900TIP3   OH229640   3.636   5.265   3.063
 9900TIP3    H129641   3.627   5.359   3.075
 9900TIP3    H229642   3.648   5.230   3.151
 9901TIP3   OH229643   4.772   4.227   3.403
 9901TIP3    H129644   4.829   4.299   3.428
 9901TIP3    H229645   4.799   4.205   3.314
 9902TIP3   OH229646   0.925   5.689   5.970
 9902TIP3    H129647   0.834   5.672   5.996
 9902TIP3    H229648   0.918   5.747   5.895
 9903TIP3   OH229649   2.173   3.420   5.423
 9903TIP3    H129650   2.093   3.383   5.385
 9903TIP3    H229651   2.169   3.394   5.515
 9904TIP3   OH229652   6.340   4.229   4.180
 9904TIP3    H129653   6.387   4.313   4.171
 9904TIP3    H229654   6.389   4.169   4.122
 9905TIP3   OH229655   1.782   1.061   4.495
 9905TIP3    H129656   1.794   1.110   4.414
 9905TIP3    H229657   1.733   0.982   4.468
 9906TIP3   OH229658   3.943   6.954   6.248
 9906TIP3    H129659   3.958   7.047   6.234
 9906TIP3    H229660   3.862   6.949   6.298
 9907TIP3   OH229661   2.067   3.535   0.018
 9907TIP3    H129662   2.006   3.464   0.039
 9907TIP3    H229663   2.120   3.545   0.097
 9908TIP3   OH229664   2.706   5.595   6.553
 9908TIP3    H129665   2.773   5.636   6.499
 9908TIP3    H229666   2.626   5.642   6.532
 9909TIP3   OH229667   4.165   5.415   5.561
 9909TIP3    H129668   4.209   5.473   5.499
 9909TIP3    H229669   4.099   5.471   5.603
 9910TIP3   OH229670   3.167   5.913   1.495
 9910TIP3    H129671   3.211   5.842   1.449
 9910TIP3    H229672   3.139   5.973   1.426
 9911TIP3   OH229673   5.595   5.180   0.360
 9911TIP3    H129674   5.633   5.092   0.352
 9911TIP3    H229675   5.649   5.224   0.425
 9912TIP3   OH229676   2.051   4.128   1.183
 9912TIP3    H129677   2.041   4.166   1.096
 9912TIP3    H229678   1.984   4.061   1.188
 9913TIP3   OH229679   2.950   6.763   3.053
 9913TIP3    H129680   3.038   6.756   3.089
 9913TIP3    H229681   2.921   6.672   3.042
 9914TIP3   OH229682   5.961   1.555   6.202
 9914TIP3    H129683   5.883   1.600   6.234
 9914TIP3    H229684   6.013   1.538   6.281
 9915TIP3   OH229685   7.753   6.433   6.368
 9915TIP3    H129686   7.664   6.410   6.394
 9915TIP3    H229687   7.807   6.407   6.443
 9916TIP3   OH229688   5.607   0.761   0.558
 9916TIP3    H129689   5.646   0.680   0.526
 9916TIP3    H229690   5.574   0.738   0.645
 9917TIP3   OH229691   0.062   5.101   5.224
 9917TIP3    H129692   0.107   5.182   5.248
 9917TIP3    H229693   0.129   5.047   5.181
 9918TIP3   OH229694   1.977   6.909   6.640
 9918TIP3    H129695   2.059   6.947   6.670
 9918TIP3    H229696   1.913   6.979   6.650
 9919TIP3   OH229697   5.694   2.191   1.650
 9919TIP3    H129698   5.674   2.263   1.710
 9919TIP3    H229699   5.611   2.169   1.609
 9920TIP3   OH229700   0.605   7.256   2.894
 9920TIP3    H129701   0.700   7.266   2.888
 9920TIP3    H229702   0.571   7.300   2.816
 9921TIP3   OH229703   2.512   1.337   4.350
 9921TIP3    H129704   2.526   1.310   4.441
 9921TIP3    H229705   2.600   1.349   4.315
 9922TIP3   OH229706   5.283   3.462   3.117
 9922TIP3    H129707   5.260   3.512   3.195
 9922TIP3    H229708   5.368   3.497   3.090
 9923TIP3   OH229709   2.572   0.028   0.086
 9923TIP3    H129710   2.541   0.051  -0.001
 9923TIP3    H229711   2.654   0.078   0.096
 9924TIP3   OH229712   7.898   5.332   6.083
 9924TIP3    H129713   7.989   5.320   6.111
 9924TIP3    H229714   7.904   5.391   6.008
 9925TIP3   OH229715   5.078   5.969   6.537
 9925TIP3    H129716   5.102   5.956   6.445
 9925TIP3    H229717   5.014   5.901   6.555
 9926TIP3   OH229718   2.626   7.540   6.244
 9926TIP3    H129719   2.590   7.586   6.320
 9926TIP3    H229720   2.697   7.486   6.280
 9927TIP3   OH229721   5.910   0.180   3.427
 9927TIP3    H129722   5.900   0.234   3.349
 9927TIP3    H229723   5.821   0.169   3.460
 9928TIP3   OH229724   1.366   1.859   4.696
 9928TIP3    H129725   1.367   1.954   4.695
 9928TIP3    H229726   1.296   1.835   4.635
 9929TIP3   OH229727   3.768   2.372   5.051
 9929TIP3    H129728   3.787   2.426   5.128
 9929TIP3    H229729   3.832   2.301   5.055
 9930TIP3   OH229730   6.229   0.345   4.310
 9930TIP3    H129731   6.142   0.371   4.281
 9930TIP3    H229732   6.214   0.274   4.372
 9931TIP3   OH229733   3.717   7.098   1.881
 9931TIP3    H129734   3.746   7.163   1.945
 9931TIP3    H229735   3.652   7.143   1.827
 9932TIP3   OH229736   3.742   5.105   4.509
 9932TIP3    H129737   3.699   5.191   4.508
 9932TIP3    H229738   3.778   5.095   4.421
 9933TIP3   OH229739   4.048   0.209   5.497
 9933TIP3    H129740   3.964   0.168   5.475
 9933TIP3    H229741   4.073   0.258   5.418
 9934TIP3   OH229742   3.192   2.299   2.795
 9934TIP3    H129743   3.163   2.350   2.871
 9934TIP3    H229744   3.262   2.351   2.756
 9935TIP3   OH229745   2.563   7.282   1.943
 9935TIP3    H129746   2.519   7.299   1.859
 9935TIP3    H229747   2.594   7.192   1.937
 9936TIP3   OH229748   0.784   1.396   4.181
 9936TIP3    H129749   0.692   1.419   4.170
 9936TIP3    H229750   0.822   1.472   4.225
 9937TIP3   OH229751   6.116   6.780   5.425
 9937TIP3    H129752   6.119   6.875   5.438
 9937TIP3    H229753   6.042   6.767   5.365
 9938TIP3   OH229754   7.974   1.494   1.610
 9938TIP3    H129755   8.024   1.537   1.542
 9938TIP3    H229756   8.028   1.501   1.689
 9939TIP3   OH229757   5.281   7.479   2.983
 9939TIP3    H129758   5.339   7.539   2.935
 9939TIP3    H229759   5.251   7.529   3.058
 9940TIP3   OH229760   2.725   4.137   5.886
 9940TIP3    H129761   2.813   4.099   5.894
 9940TIP3    H229762   2.677   4.103   5.961
 9941TIP3   OH229763   0.659   0.059   2.404
 9941TIP3    H129764   0.658   0.118   2.328
 9941TIP3    H229765   0.748   0.025   2.406
 9942TIP3   OH229766   1.941   6.418   2.117
 9942TIP3    H129767   1.875   6.375   2.063
 9942TIP3    H229768   1.914   6.510   2.120
 9943TIP3   OH229769   1.653   6.275   0.311
 9943TIP3    H129770   1.738   6.313   0.334
 9943TIP3    H229771   1.667   6.234   0.226
 9944TIP3   OH229772   1.362   5.869   5.825
 9944TIP3    H129773   1.450   5.906   5.821
 9944TIP3    H229774   1.374   5.776   5.807
 9945TIP3   OH229775   4.001   7.164   3.067
 9945TIP3    H129776   4.065   7.094   3.054
 9945TIP3    H229777   3.993   7.206   2.981
 9946TIP3   OH229778   0.851   1.431   3.728
 9946TIP3    H129779   0.783   1.484   3.685
 9946TIP3    H229780   0.810   1.402   3.809
 9947TIP3   OH229781   0.024   6.138   1.737
 9947TIP3    H129782  -0.019   6.174   1.660
 9947TIP3    H229783   0.101   6.092   1.702
 9948TIP3   OH229784   8.396   6.931   1.487
 9948TIP3    H129785   8.471   6.877   1.460
 9948TIP3    H229786   8.363   6.889   1.565
 9949TIP3   OH229787   1.920   6.153   6.293
 9949TIP3    H129788   2.010   6.185   6.294
 9949TIP3    H229789   1.876   6.202   6.363
 9950TIP3   OH229790   4.013   5.084   1.153
 9950TIP3    H129791   4.108   5.099   1.150
 9950TIP3    H229792   4.000   5.032   1.232
 9951TIP3   OH229793   8.218   5.632   6.476
 9951TIP3    H129794   8.243   5.574   6.548
 9951TIP3    H229795   8.166   5.577   6.418
 9952TIP3   OH229796   6.391   6.658   1.454
 9952TIP3    H129797   6.373   6.752   1.445
 9952TIP3    H229798   6.443   6.651   1.534
 9953TIP3   OH229799   0.512   3.765   4.972
 9953TIP3    H129800   0.572   3.779   4.900
 9953TIP3    H229801   0.437   3.721   4.933
 9954TIP3   OH229802   5.096   6.773   2.577
 9954TIP3    H129803   5.031   6.703   2.582
 9954TIP3    H229804   5.181   6.728   2.576
 9955TIP3   OH229805   1.766   7.854   4.795
 9955TIP3    H129806   1.769   7.845   4.891
 9955TIP3    H229807   1.797   7.943   4.779
 9956TIP3   OH229808   0.202   7.577   4.667
 9956TIP3    H129809   0.246   7.652   4.708
 9956TIP3    H229810   0.254   7.559   4.588
 9957TIP3   OH229811   8.341   3.050   3.415
 9957TIP3    H129812   8.389   3.132   3.427
 9957TIP3    H229813   8.408   2.985   3.392
 9958TIP3   OH229814   5.107   4.745  -0.041
 9958TIP3    H129815   5.061   4.749   0.043
 9958TIP3    H229816   5.040   4.770  -0.105
 9959TIP3   OH229817   4.331   4.224   3.084
 9959TIP3    H129818   4.391   4.292   3.115
 9959TIP3    H229819   4.250   4.240   3.132
 9960TIP3   OH229820   2.191   1.939   4.796
 9960TIP3    H129821   2.123   1.873   4.806
 9960TIP3    H229822   2.160   1.995   4.724
 9961TIP3   OH229823   8.015   4.245   6.366
 9961TIP3    H129824   7.960   4.278   6.294
 9961TIP3    H229825   7.961   4.176   6.407
 9962TIP3   OH229826   0.088   6.021   0.359
 9962TIP3    H129827   0.158   5.989   0.414
 9962TIP3    H229828   0.043   6.086   0.413
 9963TIP3   OH229829   2.407   3.380   4.988
 9963TIP3    H129830   2.497   3.375   4.956
 9963TIP3    H229831   2.393   3.473   5.006
 9964TIP3   OH229832   2.965   5.871   3.928
 9964TIP3    H129833   2.891   5.912   3.972
 9964TIP3    H229834   3.041   5.901   3.976
 9965TIP3   OH229835   7.399   6.158   4.195
 9965TIP3    H129836   7.322   6.199   4.156
 9965TIP3    H229837   7.417   6.210   4.274
 9966TIP3   OH229838   7.025   5.731   6.427
 9966TIP3    H129839   7.110   5.775   6.434
 9966TIP3    H229840   7.011   5.721   6.333
 9967TIP3   OH229841   2.470   0.319   6.127
 9967TIP3    H129842   2.531   0.245   6.125
 9967TIP3    H229843   2.507   0.377   6.194
 9968TIP3   OH229844   3.086   7.278   4.767
 9968TIP3    H129845   2.991   7.267   4.770
 9968TIP3    H229846   3.102   7.362   4.811
 9969TIP3   OH229847   2.557   6.099   4.456
 9969TIP3    H129848   2.543   6.069   4.366
 9969TIP3    H229849   2.642   6.144   4.453
 9970TIP3   OH229850   6.263   1.122   5.598
 9970TIP3    H129851   6.246   1.189   5.664
 9970TIP3    H229852   6.245   1.039   5.641
 9971TIP3   OH229853   6.904   3.118   2.422
 9971TIP3    H129854   6.990   3.139   2.460
 9971TIP3    H229855   6.913   3.137   2.329
 9972TIP3   OH229856   3.670   5.522   2.454
 9972TIP3    H129857   3.671   5.479   2.368
 9972TIP3    H229858   3.696   5.612   2.435
 9973TIP3   OH229859   7.038   0.639   4.375
 9973TIP3    H129860   6.944   0.636   4.391
 9973TIP3    H229861   7.060   0.732   4.378
 9974TIP3   OH229862   7.082   3.358   4.731
 9974TIP3    H129863   7.118   3.435   4.687
 9974TIP3    H229864   7.043   3.306   4.661
 9975TIP3   OH229865   5.617   0.555   0.294
 9975TIP3    H129866   5.659   0.528   0.377
 9975TIP3    H229867   5.547   0.614   0.321
 9976TIP3   OH229868   5.210   3.645   5.802
 9976TIP3    H129869   5.292   3.601   5.826
 9976TIP3    H229870   5.161   3.650   5.883
 9977TIP3   OH229871   7.735   6.708   6.348
 9977TIP3    H129872   7.734   6.613   6.336
 9977TIP3    H229873   7.753   6.743   6.261
 9978TIP3   OH229874   6.594   5.617   4.288
 9978TIP3    H129875   6.680   5.592   4.322
 9978TIP3    H229876   6.604   5.708   4.260
 9979TIP3   OH229877   8.123   5.653   2.145
 9979TIP3    H129878   8.117   5.714   2.071
 9979TIP3    H229879   8.104   5.706   2.222
 9980TIP3   OH229880   0.785   4.169   6.717
 9980TIP3    H129881   0.697   4.199   6.697
 9980TIP3    H229882   0.842   4.223   6.662
 9981TIP3   OH229883   4.632   0.123   0.793
 9981TIP3    H129884   4.579   0.169   0.728
 9981TIP3    H229885   4.700   0.186   0.817
 9982TIP3   OH229886   0.793   0.765   1.010
 9982TIP3    H129887   0.868   0.819   0.983
 9982TIP3    H229888   0.749   0.743   0.928
 9983TIP3   OH229889   1.600   6.809   0.494
 9983TIP3    H129890   1.578   6.895   0.460
 9983TIP3    H229891   1.610   6.754   0.416
 9984TIP3   OH229892   1.901   2.712   5.299
 9984TIP3    H129893   1.884   2.621   5.276
 9984TIP3    H229894   1.909   2.712   5.394
 9985TIP3   OH229895   1.138   4.511   1.114
 9985TIP3    H129896   1.053   4.551   1.133
 9985TIP3    H229897   1.120   4.451   1.042
 9986TIP3   OH229898   3.108   6.704   3.327
 9986TIP3    H129899   3.035   6.721   3.387
 9986TIP3    H229900   3.162   6.639   3.374
 9987TIP3   OH229901   6.428   7.584   0.063
 9987TIP3    H129902   6.425   7.490   0.082
 9987TIP3    H229903   6.486   7.591  -0.013
 9988TIP3   OH229904   3.451   3.144   5.272
 9988TIP3    H129905   3.399   3.222   5.253
 9988TIP3    H229906   3.426   3.119   5.361
 9989TIP3   OH229907   0.780   5.604   5.181
 9989TIP3    H129908   0.783   5.697   5.158
 9989TIP3    H229909   0.836   5.596   5.258
 9990TIP3   OH229910   6.857   2.600   1.273
 9990TIP3    H129911   6.859   2.639   1.186
 9990TIP3    H229912   6.847   2.506   1.257
 9991TIP3   OH229913   6.663   2.060   4.881
 9991TIP3    H129914   6.580   2.041   4.924
 9991TIP3    H229915   6.644   2.137   4.826
 9992TIP3   OH229916   0.719   7.142   3.350
 9992TIP3    H129917   0.682   7.121   3.264
 9992TIP3    H229918   0.773   7.220   3.335
 9993TIP3   OH229919   8.386   6.030   2.682
 9993TIP3    H129920   8.344   6.040   2.596
 9993TIP3    H229921   8.394   6.119   2.715
 9994TIP3   OH229922   2.429   5.881   1.933
 9994TIP3    H129923   2.469   5.862   2.018
 9994TIP3    H229924   2.451   5.805   1.879
 9995TIP3   OH229925   6.770   3.284   4.678
 9995TIP3    H129926   6.781   3.330   4.595
 9995TIP3    H229927   6.682   3.246   4.674
 9996TIP3   OH229928   6.194   0.052   2.082
 9996TIP3    H129929   6.261   0.026   2.145
 9996TIP3    H229930   6.118   0.073   2.134
 9997TIP3   OH229931   4.824   2.653   3.271
 9997TIP3    H129932   4.737   2.639   3.232
 9997TIP3    H229933   4.845   2.570   3.312
 9998TIP3   OH229934   5.373   6.074   6.587
 9998TIP3    H129935   5.354   6.155   6.539
 9998TIP3    H229936   5.287   6.035   6.602
 9999TIP3   OH229937   2.009   7.606   1.232
 9999TIP3    H129938   2.073   7.562   1.287
 9999TIP3    H229939   2.061   7.661   1.173
10000TIP3   OH229940   6.430   6.172   6.505
10000TIP3    H129941   6.521   6.174   6.535
10000TIP3    H229942   6.390   6.250   6.545
10001TIP3   OH229943   3.459   5.330   1.106
10001TIP3    H129944   3.368   5.354   1.086
10001TIP3    H229945   3.471   5.246   1.062
10002TIP3   OH229946   4.067   1.484   5.322
10002TIP3    H129947   4.034   1.518   5.239
10002TIP3    H229948   4.028   1.540   5.389
10003TIP3   OH229949   5.691   3.168   0.065
10003TIP3    H129950   5.771   3.129   0.100
10003TIP3    H229951   5.649   3.209   0.141
10004TIP3   OH229952   8.102   1.873   2.770
10004TIP3    H129953   8.014   1.852   2.739
10004TIP3    H229954   8.110   1.826   2.854
10005TIP3   OH229955   7.030   4.873   0.019
10005TIP3    H129956   7.121   4.851   0.040
10005TIP3    H229957   6.980   4.798   0.051
10006TIP3   OH229958   8.127   4.793   4.121
10006TIP3    H129959   8.107   4.807   4.213
10006TIP3    H229960   8.220   4.811   4.113
10007TIP3   OH229961   5.461   5.264   5.997
10007TIP3    H129962   5.518   5.266   6.074
10007TIP3    H229963   5.416   5.349   5.998
10008TIP3   OH229964   5.738   6.969   4.055
10008TIP3    H129965   5.660   6.983   4.001
10008TIP3    H229966   5.717   6.893   4.110
10009TIP3   OH229967   1.279   4.403   3.671
10009TIP3    H129968   1.296   4.497   3.676
10009TIP3    H229969   1.362   4.365   3.641
10010TIP3   OH229970   5.185   4.882   6.718
10010TIP3    H129971   5.210   4.833   6.796
10010TIP3    H229972   5.184   4.974   6.746
10011TIP3   OH229973   4.732   4.769   3.460
10011TIP3    H129974   4.725   4.747   3.553
10011TIP3    H229975   4.674   4.844   3.449
10012TIP3   OH229976   4.753   3.238   4.206
10012TIP3    H129977   4.772   3.295   4.281
10012TIP3    H229978   4.831   3.184   4.196
10013TIP3   OH229979   4.922   1.543   1.170
10013TIP3    H129980   4.841   1.592   1.175
10013TIP3    H229981   4.960   1.551   1.258
10014TIP3   OH229982   6.902   0.669   0.057
10014TIP3    H129983   6.916   0.662  -0.038
10014TIP3    H229984   6.989   0.656   0.095
10015TIP3   OH229985   2.156   5.384   6.699
10015TIP3    H129986   2.240   5.417   6.732
10015TIP3    H229987   2.179   5.340   6.616
10016TIP3   OH229988   5.961   1.931   0.243
10016TIP3    H129989   5.902   1.927   0.318
10016TIP3    H229990   6.049   1.929   0.281
10017TIP3   OH229991   3.829   1.582   6.340
10017TIP3    H129992   3.734   1.588   6.341
10017TIP3    H229993   3.854   1.611   6.252
10018TIP3   OH229994   0.777   4.350   4.267
10018TIP3    H129995   0.819   4.370   4.184
10018TIP3    H229996   0.702   4.295   4.243
10019TIP3   OH229997   1.820   6.394   4.834
10019TIP3    H129998   1.874   6.463   4.873
10019TIP3    H229999   1.825   6.411   4.740
10020TIP3   OH230000   7.897   0.580   5.960
10020TIP3    H130001   7.904   0.498   5.910
10020TIP3    H230002   7.912   0.649   5.896
10021TIP3   OH230003   1.293   6.578   3.845
10021TIP3    H130004   1.382   6.605   3.822
10021TIP3    H230005   1.264   6.643   3.909
10022TIP3   OH230006   3.632   1.324   3.519
10022TIP3    H130007   3.686   1.387   3.567
10022TIP3    H230008   3.606   1.260   3.584
10023TIP3   OH230009   6.703   3.771   2.807
10023TIP3    H130010   6.631   3.769   2.745
10023TIP3    H230011   6.686   3.848   2.861
10024TIP3   OH230012   4.396   3.935   4.330
10024TIP3    H130013   4.460   3.922   4.260
10024TIP3    H230014   4.349   3.852   4.334
10025TIP3   OH230015   4.667   2.481   4.689
10025TIP3    H130016   4.652   2.553   4.627
10025TIP3    H230017   4.597   2.418   4.670
10026TIP3   OH230018   6.996   0.050   5.252
10026TIP3    H130019   6.976   0.037   5.344
10026TIP3    H230020   7.018   0.142   5.245
10027TIP3   OH230021   6.672   2.942   0.056
10027TIP3    H130022   6.729   2.988   0.118
10027TIP3    H230023   6.728   2.925  -0.020
10028TIP3   OH230024   5.561   7.319   2.168
10028TIP3    H130025   5.550   7.314   2.073
10028TIP3    H230026   5.569   7.412   2.186
10029TIP3   OH230027   7.045   4.636   1.718
10029TIP3    H130028   7.062   4.728   1.738
10029TIP3    H230029   6.961   4.637   1.673
10030TIP3   OH230030   3.604   4.956   3.791
10030TIP3    H130031   3.660   5.033   3.804
10030TIP3    H230032   3.588   4.923   3.879
10031TIP3   OH230033   5.355   5.591   1.595
10031TIP3    H130034   5.440   5.581   1.552
10031TIP3    H230035   5.312   5.661   1.547
10032TIP3   OH230036   8.349   3.289   2.120
10032TIP3    H130037   8.279   3.338   2.078
10032TIP3    H230038   8.366   3.215   2.062
10033TIP3   OH230039   1.915   4.297   1.931
10033TIP3    H130040   1.824   4.273   1.916
10033TIP3    H230041   1.931   4.371   1.873
10034TIP3   OH230042   7.162   2.617   3.657
10034TIP3    H130043   7.134   2.689   3.600
10034TIP3    H230044   7.230   2.572   3.608
10035TIP3   OH230045   3.559   1.762   3.587
10035TIP3    H130046   3.569   1.675   3.624
10035TIP3    H230047   3.470   1.763   3.551
10036TIP3   OH230048   1.057   2.812   0.899
10036TIP3    H130049   1.096   2.856   0.975
10036TIP3    H230050   1.093   2.724   0.900
10037TIP3   OH230051   7.774   2.543   4.273
10037TIP3    H130052   7.855   2.539   4.324
10037TIP3    H230053   7.704   2.540   4.338
10038TIP3   OH230054   1.149   2.082   0.301
10038TIP3    H130055   1.163   1.991   0.273
10038TIP3    H230056   1.095   2.075   0.379
10039TIP3   OH230057   4.301   4.490   6.574
10039TIP3    H130058   4.394   4.499   6.552
10039TIP3    H230059   4.293   4.528   6.662
10040TIP3   OH230060   7.079   0.986   3.556
10040TIP3    H130061   7.164   0.950   3.531
10040TIP3    H230062   7.093   1.023   3.643
10041TIP3   OH230063   5.838   1.501   3.260
10041TIP3    H130064   5.873   1.587   3.280
10041TIP3    H230065   5.879   1.442   3.324
10042TIP3   OH230066   1.756   2.742   1.421
10042TIP3    H130067   1.826   2.803   1.399
10042TIP3    H230068   1.718   2.717   1.337
10043TIP3   OH230069   5.369   6.689   4.987
10043TIP3    H130070   5.416   6.637   4.922
10043TIP3    H230071   5.371   6.778   4.953
10044TIP3   OH230072   7.300   2.528   5.440
10044TIP3    H130073   7.373   2.578   5.406
10044TIP3    H230074   7.266   2.479   5.365
10045TIP3   OH230075   4.540   7.835   0.550
10045TIP3    H130076   4.607   7.789   0.601
10045TIP3    H230077   4.473   7.769   0.534
10046TIP3   OH230078   0.560   2.408   4.206
10046TIP3    H130079   0.585   2.324   4.243
10046TIP3    H230080   0.640   2.441   4.164
10047TIP3   OH230081   4.054   3.499   6.650
10047TIP3    H130082   4.064   3.410   6.616
10047TIP3    H230083   4.138   3.519   6.691
10048TIP3   OH230084   7.106   2.428   1.086
10048TIP3    H130085   7.136   2.358   1.145
10048TIP3    H230086   7.183   2.483   1.072
10049TIP3   OH230087   2.794   0.688   0.189
10049TIP3    H130088   2.800   0.752   0.118
10049TIP3    H230089   2.881   0.689   0.230
10050TIP3   OH230090   2.321   7.309   5.864
10050TIP3    H130091   2.320   7.222   5.826
10050TIP3    H230092   2.385   7.304   5.935
10051TIP3   OH230093   6.320   7.655   5.614
10051TIP3    H130094   6.388   7.596   5.581
10051TIP3    H230095   6.264   7.671   5.538
10052TIP3   OH230096   0.427   4.847   4.014
10052TIP3    H130097   0.520   4.825   4.021
10052TIP3    H230098   0.404   4.827   3.923
10053TIP3   OH230099   0.282   1.743   2.148
10053TIP3    H130100   0.188   1.765   2.149
10053TIP3    H230101   0.316   1.781   2.228
10054TIP3   OH230102   2.142   3.096   1.463
10054TIP3    H130103   2.208   3.046   1.415
10054TIP3    H230104   2.156   3.187   1.434
10055TIP3   OH230105   1.680   2.587   5.070
10055TIP3    H130106   1.743   2.522   5.101
10055TIP3    H230107   1.642   2.624   5.149
10056TIP3   OH230108   4.901   2.024   5.142
10056TIP3    H130109   4.831   2.059   5.087
10056TIP3    H230110   4.958   1.976   5.082
10057TIP3   OH230111   2.789   5.307   6.090
10057TIP3    H130112   2.749   5.262   6.016
10057TIP3    H230113   2.843   5.241   6.133
10058TIP3   OH230114   1.399   6.031   2.894
10058TIP3    H130115   1.465   6.039   2.825
10058TIP3    H230116   1.443   6.062   2.973
10059TIP3   OH230117   4.806   2.452   5.302
10059TIP3    H130118   4.742   2.424   5.237
10059TIP3    H230119   4.858   2.373   5.319
10060TIP3   OH230120   4.956   3.042   2.081
10060TIP3    H130121   5.049   3.021   2.074
10060TIP3    H230122   4.942   3.058   2.174
10061TIP3   OH230123   3.022   5.135   4.448
10061TIP3    H130124   3.085   5.204   4.425
10061TIP3    H230125   2.947   5.151   4.390
10062TIP3   OH230126   4.418   1.792   1.403
10062TIP3    H130127   4.358   1.752   1.339
10062TIP3    H230128   4.485   1.725   1.417
10063TIP3   OH230129   1.787   5.869   4.269
10063TIP3    H130130   1.822   5.785   4.237
10063TIP3    H230131   1.790   5.860   4.364
10064TIP3   OH230132   3.620   7.748   6.377
10064TIP3    H130133   3.690   7.689   6.352
10064TIP3    H230134   3.659   7.806   6.443
10065TIP3   OH230135   3.214   6.956   6.152
10065TIP3    H130136   3.238   6.864   6.170
10065TIP3    H230137   3.287   7.007   6.188
10066TIP3   OH230138   4.352   5.762   3.224
10066TIP3    H130139   4.292   5.723   3.287
10066TIP3    H230140   4.424   5.796   3.277
10067TIP3   OH230141   6.005   2.794   1.497
10067TIP3    H130142   5.990   2.699   1.488
10067TIP3    H230143   6.076   2.813   1.436
10068TIP3   OH230144   1.055   3.699   3.558
10068TIP3    H130145   1.127   3.761   3.545
10068TIP3    H230146   1.098   3.614   3.563
10069TIP3   OH230147   3.562   1.060   5.037
10069TIP3    H130148   3.649   1.034   5.066
10069TIP3    H230149   3.514   0.978   5.027
10070TIP3   OH230150   3.237   2.480   5.788
10070TIP3    H130151   3.162   2.540   5.796
10070TIP3    H230152   3.313   2.536   5.804
10071TIP3   OH230153   4.519   6.325   1.071
10071TIP3    H130154   4.585   6.275   1.119
10071TIP3    H230155   4.528   6.296   0.980
10072TIP3   OH230156   6.989   6.490   1.749
10072TIP3    H130157   6.947   6.411   1.782
10072TIP3    H230158   7.054   6.458   1.686
10073TIP3   OH230159   0.957   6.507   6.402
10073TIP3    H130160   1.012   6.581   6.429
10073TIP3    H230161   0.885   6.547   6.353
10074TIP3   OH230162   4.249   7.367   2.368
10074TIP3    H130163   4.235   7.459   2.348
10074TIP3    H230164   4.296   7.366   2.451
10075TIP3   OH230165   6.681   0.704   3.572
10075TIP3    H130166   6.719   0.727   3.657
10075TIP3    H230167   6.736   0.632   3.540
10076TIP3   OH230168   6.700   6.223   1.672
10076TIP3    H130169   6.701   6.313   1.639
10076TIP3    H230170   6.777   6.216   1.728
10077TIP3   OH230171   0.656   7.225   2.089
10077TIP3    H130172   0.577   7.202   2.039
10077TIP3    H230173   0.627   7.225   2.180
10078TIP3   OH230174   1.455   6.128   3.612
10078TIP3    H130175   1.463   6.147   3.706
10078TIP3    H230176   1.421   6.039   3.609
10079TIP3   OH230177   2.100   1.663   2.200
10079TIP3    H130178   2.144   1.630   2.121
10079TIP3    H230179   2.165   1.651   2.269
10080TIP3   OH230180   3.369   2.942   4.407
10080TIP3    H130181   3.380   2.892   4.326
10080TIP3    H230182   3.294   2.901   4.450
10081TIP3   OH230183   7.235   4.528   3.505
10081TIP3    H130184   7.285   4.487   3.575
10081TIP3    H230185   7.300   4.556   3.441
10082TIP3   OH230186   4.809   2.891   4.417
10082TIP3    H130187   4.746   2.862   4.352
10082TIP3    H230188   4.769   2.867   4.501
10083TIP3   OH230189   5.582   4.254   1.418
10083TIP3    H130190   5.505   4.291   1.461
10083TIP3    H230191   5.553   4.168   1.388
10084TIP3   OH230192   1.215   1.805   0.231
10084TIP3    H130193   1.241   1.794   0.140
10084TIP3    H230194   1.137   1.750   0.240
10085TIP3   OH230195   4.736   5.754   0.851
10085TIP3    H130196   4.678   5.830   0.849
10085TIP3    H230197   4.809   5.781   0.907
10086TIP3   OH230198   7.347   2.267   0.811
10086TIP3    H130199   7.277   2.224   0.860
10086TIP3    H230200   7.416   2.202   0.805
10087TIP3   OH230201   5.618   1.373   3.495
10087TIP3    H130202   5.583   1.284   3.489
10087TIP3    H230203   5.541   1.427   3.515
10088TIP3   OH230204   1.347   7.372   0.075
10088TIP3    H130205   1.373   7.423  -0.002
10088TIP3    H230206   1.392   7.288   0.064
10089TIP3   OH230207   8.426   5.882   1.942
10089TIP3    H130208   8.463   5.800   1.910
10089TIP3    H230209   8.420   5.937   1.864
10090TIP3   OH230210   0.797   5.043   5.526
10090TIP3    H130211   0.773   4.974   5.588
10090TIP3    H230212   0.721   5.052   5.469
10091TIP3   OH230213   6.905   5.105   0.081
10091TIP3    H130214   6.878   5.075   0.167
10091TIP3    H230215   6.938   5.026   0.037
10092TIP3   OH230216   7.078   0.633   0.402
10092TIP3    H130217   7.128   0.565   0.448
10092TIP3    H230218   7.095   0.616   0.309
10093TIP3   OH230219   2.396   1.837   6.201
10093TIP3    H130220   2.453   1.787   6.144
10093TIP3    H230221   2.431   1.824   6.289
10094TIP3   OH230222   5.545   4.147   0.377
10094TIP3    H130223   5.554   4.111   0.465
10094TIP3    H230224   5.487   4.086   0.332
10095TIP3   OH230225   7.567   5.312   1.048
10095TIP3    H130226   7.650   5.313   1.000
10095TIP3    H230227   7.510   5.372   1.000
10096TIP3   OH230228   1.801   3.166   5.595
10096TIP3    H130229   1.797   3.140   5.503
10096TIP3    H230230   1.715   3.143   5.631
10097TIP3   OH230231   3.808   2.956   1.113
10097TIP3    H130232   3.737   2.950   1.177
10097TIP3    H230233   3.786   3.031   1.059
10098TIP3   OH230234   2.168   3.273   3.757
10098TIP3    H130235   2.226   3.208   3.795
10098TIP3    H230236   2.135   3.323   3.831
10099TIP3   OH230237   0.684   6.637   5.460
10099TIP3    H130238   0.734   6.633   5.379
10099TIP3    H230239   0.750   6.646   5.529
10100TIP3   OH230240   1.846   1.157   6.205
10100TIP3    H130241   1.896   1.084   6.242
10100TIP3    H230242   1.763   1.118   6.177
10101TIP3   OH230243   5.541   7.876   6.811
10101TIP3    H130244   5.454   7.887   6.849
10101TIP3    H230245   5.546   7.783   6.788
10102TIP3   OH230246   1.925   4.050   0.343
10102TIP3    H130247   1.951   4.134   0.304
10102TIP3    H230248   2.001   3.994   0.331
10103TIP3   OH230249   1.801   1.710   4.510
10103TIP3    H130250   1.839   1.656   4.441
10103TIP3    H230251   1.711   1.727   4.482
10104TIP3   OH230252   0.709   6.007   0.704
10104TIP3    H130253   0.624   6.034   0.667
10104TIP3    H230254   0.696   6.013   0.798
10105TIP3   OH230255   6.487   0.779   3.045
10105TIP3    H130256   6.546   0.816   3.111
10105TIP3    H230257   6.403   0.774   3.089
10106TIP3   OH230258   5.702   0.399   3.692
10106TIP3    H130259   5.791   0.432   3.708
10106TIP3    H230260   5.661   0.398   3.779
10107TIP3   OH230261   6.393   0.778   0.229
10107TIP3    H130262   6.476   0.784   0.181
10107TIP3    H230263   6.403   0.701   0.285
10108TIP3   OH230264   6.595   3.527   0.270
10108TIP3    H130265   6.550   3.529   0.185
10108TIP3    H230266   6.616   3.619   0.288
10109TIP3   OH230267   5.721   1.243   3.208
10109TIP3    H130268   5.675   1.208   3.285
10109TIP3    H230269   5.757   1.327   3.238
10110TIP3   OH230270   1.327   3.536   0.333
10110TIP3    H130271   1.284   3.604   0.281
10110TIP3    H230272   1.400   3.506   0.279
10111TIP3   OH230273   8.325   5.637   4.969
10111TIP3    H130274   8.292   5.584   4.897
10111TIP3    H230275   8.279   5.604   5.046
10112TIP3   OH230276   2.854   1.077   1.853
10112TIP3    H130277   2.927   1.048   1.799
10112TIP3    H230278   2.879   1.165   1.881
10113TIP3   OH230279   1.301   4.801   4.330
10113TIP3    H130280   1.285   4.836   4.418
10113TIP3    H230281   1.244   4.853   4.273
10114TIP3   OH230282   0.332   5.493   3.360
10114TIP3    H130283   0.271   5.455   3.296
10114TIP3    H230284   0.346   5.583   3.329
10115TIP3   OH230285   3.524   3.313   5.598
10115TIP3    H130286   3.464   3.267   5.540
10115TIP3    H230287   3.556   3.245   5.658
10116TIP3   OH230288   2.364   6.428   5.309
10116TIP3    H130289   2.339   6.387   5.226
10116TIP3    H230290   2.282   6.460   5.345
10117TIP3   OH230291   0.416   5.115   1.896
10117TIP3    H130292   0.349   5.059   1.935
10117TIP3    H230293   0.432   5.078   1.809
10118TIP3   OH230294   7.107   2.177   2.901
10118TIP3    H130295   7.172   2.111   2.927
10118TIP3    H230296   7.156   2.241   2.850
10119TIP3   OH230297   4.240   2.593   6.831
10119TIP3    H130298   4.148   2.592   6.807
10119TIP3    H230299   4.263   2.501   6.841
10120TIP3   OH230300   1.241   6.398   2.499
10120TIP3    H130301   1.207   6.370   2.414
10120TIP3    H230302   1.272   6.317   2.541
10121TIP3   OH230303   7.585   2.930   4.429
10121TIP3    H130304   7.645   2.956   4.359
10121TIP3    H230305   7.498   2.947   4.394
10122TIP3   OH230306   6.838   0.654   1.155
10122TIP3    H130307   6.786   0.713   1.210
10122TIP3    H230308   6.852   0.704   1.075
10123TIP3   OH230309   6.202   2.529   3.710
10123TIP3    H130310   6.134   2.551   3.773
10123TIP3    H230311   6.255   2.608   3.702
10124TIP3   OH230312   1.122   1.252   4.751
10124TIP3    H130313   1.106   1.239   4.844
10124TIP3    H230314   1.184   1.183   4.728
10125TIP3   OH230315   6.178   3.831   6.102
10125TIP3    H130316   6.086   3.853   6.091
10125TIP3    H230317   6.179   3.735   6.110
10126TIP3   OH230318   4.078   6.037   4.524
10126TIP3    H130319   4.166   6.033   4.562
10126TIP3    H230320   4.020   6.050   4.598
10127TIP3   OH230321   5.458   6.917   6.510
10127TIP3    H130322   5.528   6.976   6.537
10127TIP3    H230323   5.488   6.830   6.538
10128TIP3   OH230324   3.888   6.263   5.853
10128TIP3    H130325   3.932   6.296   5.932
10128TIP3    H230326   3.856   6.342   5.808
10129TIP3   OH230327   1.201   6.590   2.064
10129TIP3    H130328   1.200   6.552   1.976
10129TIP3    H230329   1.177   6.682   2.051
10130TIP3   OH230330   4.736   2.274   0.833
10130TIP3    H130331   4.679   2.349   0.845
10130TIP3    H230332   4.799   2.279   0.905
10131TIP3   OH230333   7.180   0.363   0.001
10131TIP3    H130334   7.254   0.329   0.051
10131TIP3    H230335   7.218   0.434  -0.052
10132TIP3   OH230336   6.567   2.963   6.043
10132TIP3    H130337   6.635   3.005   5.990
10132TIP3    H230338   6.590   2.870   6.041
10133TIP3   OH230339   0.113   3.651   4.617
10133TIP3    H130340   0.137   3.612   4.533
10133TIP3    H230341   0.020   3.669   4.609
10134TIP3   OH230342   4.507   7.354   0.541
10134TIP3    H130343   4.589   7.374   0.496
10134TIP3    H230344   4.488   7.433   0.592
10135TIP3   OH230345   3.979   3.276   1.224
10135TIP3    H130346   3.956   3.316   1.140
10135TIP3    H230347   4.068   3.242   1.210
10136TIP3   OH230348   5.689   0.577   3.042
10136TIP3    H130349   5.617   0.518   3.022
10136TIP3    H230350   5.646   0.658   3.070
10137TIP3   OH230351   2.011   3.455   6.429
10137TIP3    H130352   1.916   3.470   6.433
10137TIP3    H230353   2.034   3.475   6.338
10138TIP3   OH230354   1.073   2.683   3.464
10138TIP3    H130355   1.119   2.722   3.390
10138TIP3    H230356   1.106   2.593   3.468
10139TIP3   OH230357   5.985   3.715   5.024
10139TIP3    H130358   5.909   3.764   5.054
10139TIP3    H230359   6.010   3.757   4.942
10140TIP3   OH230360   4.301   7.789   5.727
10140TIP3    H130361   4.368   7.758   5.788
10140TIP3    H230362   4.286   7.715   5.669
10141TIP3   OH230363   0.520   7.023   4.729
10141TIP3    H130364   0.440   6.970   4.726
10141TIP3    H230365   0.588   6.966   4.693
10142TIP3   OH230366   5.182   2.513   0.758
10142TIP3    H130367   5.095   2.478   0.777
10142TIP3    H230368   5.243   2.453   0.802
10143TIP3   OH230369   2.705   5.480   6.803
10143TIP3    H130370   2.687   5.405   6.746
10143TIP3    H230371   2.715   5.554   6.743
10144TIP3   OH230372   6.388   7.370   3.608
10144TIP3    H130373   6.308   7.349   3.658
10144TIP3    H230374   6.381   7.317   3.529
10145TIP3   OH230375   5.294   5.486   1.028
10145TIP3    H130376   5.298   5.521   1.117
10145TIP3    H230377   5.382   5.450   1.013
10146TIP3   OH230378   6.984   0.649   2.004
10146TIP3    H130379   6.949   0.687   2.085
10146TIP3    H230380   7.071   0.617   2.029
10147TIP3   OH230381   3.033   6.911   5.226
10147TIP3    H130382   3.126   6.916   5.251
10147TIP3    H230383   3.031   6.945   5.137
10148TIP3   OH230384   6.524   4.659   0.899
10148TIP3    H130385   6.452   4.665   0.961
10148TIP3    H230386   6.483   4.629   0.817
10149TIP3   OH230387   0.167   4.348   0.644
10149TIP3    H130388   0.126   4.276   0.595
10149TIP3    H230389   0.171   4.420   0.582
10150TIP3   OH230390   2.394   1.568   4.868
10150TIP3    H130391   2.319   1.597   4.920
10150TIP3    H230392   2.469   1.610   4.910
10151TIP3   OH230393   1.197   5.472   1.401
10151TIP3    H130394   1.111   5.479   1.360
10151TIP3    H230395   1.202   5.547   1.460
10152TIP3   OH230396   1.402   5.803   6.153
10152TIP3    H130397   1.309   5.809   6.130
10152TIP3    H230398   1.403   5.798   6.249
10153TIP3   OH230399   0.965   7.164   5.902
10153TIP3    H130400   0.932   7.077   5.923
10153TIP3    H230401   1.035   7.179   5.965
10154TIP3   OH230402   2.398   3.628   3.052
10154TIP3    H130403   2.441   3.635   3.138
10154TIP3    H230404   2.433   3.548   3.014
10155TIP3   OH230405   5.763   1.998   0.063
10155TIP3    H130406   5.766   2.074   0.120
10155TIP3    H230407   5.819   1.933   0.106
10156TIP3   OH230408   6.813   4.919   4.063
10156TIP3    H130409   6.795   4.961   3.979
10156TIP3    H230410   6.870   4.981   4.109
10157TIP3   OH230411   6.579   6.312   0.206
10157TIP3    H130412   6.516   6.266   0.151
10157TIP3    H230413   6.579   6.402   0.173
10158TIP3   OH230414   0.976   1.849   0.787
10158TIP3    H130415   1.066   1.839   0.754
10158TIP3    H230416   0.977   1.933   0.833
10159TIP3   OH230417   1.404   2.300   2.829
10159TIP3    H130418   1.366   2.347   2.755
10159TIP3    H230419   1.496   2.288   2.804
10160TIP3   OH230420   1.757   1.810   1.523
10160TIP3    H130421   1.692   1.840   1.460
10160TIP3    H230422   1.819   1.883   1.531
10161TIP3   OH230423   0.172   3.398   4.708
10161TIP3    H130424   0.177   3.389   4.803
10161TIP3    H230425   0.099   3.457   4.693
10162TIP3   OH230426   4.130   0.408   1.662
10162TIP3    H130427   4.177   0.441   1.739
10162TIP3    H230428   4.096   0.323   1.689
10163TIP3   OH230429   6.580   5.421   1.325
10163TIP3    H130430   6.641   5.349   1.339
10163TIP3    H230431   6.633   5.489   1.282
10164TIP3   OH230432   4.832   0.380   4.917
10164TIP3    H130433   4.847   0.362   5.010
10164TIP3    H230434   4.920   0.375   4.878
10165TIP3   OH230435   4.364   5.122   3.962
10165TIP3    H130436   4.449   5.101   4.001
10165TIP3    H230437   4.383   5.192   3.899
10166TIP3   OH230438   1.181   3.516   5.831
10166TIP3    H130439   1.106   3.545   5.882
10166TIP3    H230440   1.254   3.519   5.893
10167TIP3   OH230441   0.018   5.608   2.419
10167TIP3    H130442   0.074   5.544   2.463
10167TIP3    H230443  -0.058   5.558   2.390
10168TIP3   OH230444   6.441   3.387   3.864
10168TIP3    H130445   6.451   3.389   3.959
10168TIP3    H230446   6.438   3.479   3.839
10169TIP3   OH230447   6.617   6.753   4.684
10169TIP3    H130448   6.531   6.794   4.697
10169TIP3    H230449   6.645   6.726   4.771
10170TIP3   OH230450   0.366   6.684   2.624
10170TIP3    H130451   0.274   6.699   2.642
10170TIP3    H230452   0.412   6.713   2.703
10171TIP3   OH230453   7.570   0.049   2.476
10171TIP3    H130454   7.660   0.075   2.454
10171TIP3    H230455   7.522   0.058   2.394
10172TIP3   OH230456   4.951   3.833   1.108
10172TIP3    H130457   4.886   3.846   1.177
10172TIP3    H230458   4.967   3.921   1.074
10173TIP3   OH230459   3.019   1.142   1.416
10173TIP3    H130460   2.945   1.109   1.366
10173TIP3    H230461   3.084   1.166   1.350
10174TIP3   OH230462   5.165   5.272   1.260
10174TIP3    H130463   5.233   5.210   1.231
10174TIP3    H230464   5.181   5.283   1.353
10175TIP3   OH230465   7.778   0.919   2.040
10175TIP3    H130466   7.722   0.937   1.965
10175TIP3    H230467   7.793   1.004   2.081
10176TIP3   OH230468   0.248   5.292   6.033
10176TIP3    H130469   0.197   5.231   5.979
10176TIP3    H230470   0.275   5.240   6.108
10177TIP3   OH230471   3.018   1.208   0.682
10177TIP3    H130472   2.964   1.285   0.664
10177TIP3    H230473   3.049   1.221   0.772
10178TIP3   OH230474   6.113   2.192   4.824
10178TIP3    H130475   6.179   2.261   4.826
10178TIP3    H230476   6.109   2.161   4.914
10179TIP3   OH230477   7.823   1.357   4.921
10179TIP3    H130478   7.787   1.291   4.980
10179TIP3    H230479   7.784   1.337   4.836
10180TIP3   OH230480   2.686   3.956   2.346
10180TIP3    H130481   2.698   4.024   2.279
10180TIP3    H230482   2.750   3.978   2.413
10181TIP3   OH230483   7.196   3.121   4.572
10181TIP3    H130484   7.199   3.206   4.529
10181TIP3    H230485   7.252   3.065   4.518
10182TIP3   OH230486   3.649   6.567   0.718
10182TIP3    H130487   3.656   6.658   0.746
10182TIP3    H230488   3.740   6.538   0.709
10183TIP3   OH230489   0.134   5.605   6.339
10183TIP3    H130490   0.100   5.673   6.396
10183TIP3    H230491   0.162   5.536   6.398
10184TIP3   OH230492   6.374   7.105   0.087
10184TIP3    H130493   6.416   7.116   0.172
10184TIP3    H230494   6.414   7.172   0.031
10185TIP3   OH230495   5.388   2.692   1.839
10185TIP3    H130496   5.451   2.620   1.834
10185TIP3    H230497   5.437   2.769   1.810
10186TIP3   OH230498   3.015   1.691   6.549
10186TIP3    H130499   3.009   1.645   6.632
10186TIP3    H230500   2.953   1.646   6.492
10187TIP3   OH230501   1.247   4.712   2.755
10187TIP3    H130502   1.199   4.694   2.837
10187TIP3    H230503   1.312   4.642   2.750
10188TIP3   OH230504   5.815   1.201   6.657
10188TIP3    H130505   5.875   1.175   6.727
10188TIP3    H230506   5.755   1.262   6.699
10189TIP3   OH230507   6.650   0.567   3.290
10189TIP3    H130508   6.713   0.514   3.339
10189TIP3    H230509   6.582   0.505   3.263
10190TIP3   OH230510   4.266   7.554   5.067
10190TIP3    H130511   4.259   7.459   5.070
10190TIP3    H230512   4.267   7.582   5.158
10191TIP3   OH230513   2.294   0.640   0.886
10191TIP3    H130514   2.232   0.706   0.856
10191TIP3    H230515   2.251   0.599   0.961
10192TIP3   OH230516   7.539   6.712   6.560
10192TIP3    H130517   7.508   6.791   6.605
10192TIP3    H230518   7.617   6.739   6.513
10193TIP3   OH230519   5.028   6.417   1.925
10193TIP3    H130520   5.050   6.406   1.832
10193TIP3    H230521   5.059   6.504   1.947
10194TIP3   OH230522   3.820   5.900   1.437
10194TIP3    H130523   3.742   5.879   1.385
10194TIP3    H230524   3.827   5.995   1.431
10195TIP3   OH230525   7.542   6.645   3.977
10195TIP3    H130526   7.533   6.737   4.001
10195TIP3    H230527   7.556   6.599   4.060
10196TIP3   OH230528   3.898   5.662   2.937
10196TIP3    H130529   3.969   5.679   2.998
10196TIP3    H230530   3.927   5.585   2.887
10197TIP3   OH230531   8.121   2.594   4.233
10197TIP3    H130532   8.211   2.584   4.200
10197TIP3    H230533   8.066   2.558   4.164
10198TIP3   OH230534   2.993   2.130   1.708
10198TIP3    H130535   3.059   2.073   1.669
10198TIP3    H230536   2.973   2.089   1.792
10199TIP3   OH230537   1.337   0.434   4.700
10199TIP3    H130538   1.265   0.466   4.755
10199TIP3    H230539   1.416   0.473   4.739
10200TIP3   OH230540   2.853   6.128   4.921
10200TIP3    H130541   2.929   6.094   4.874
10200TIP3    H230542   2.856   6.085   5.006
10201TIP3   OH230543   5.848   7.353   6.374
10201TIP3    H130544   5.848   7.449   6.366
10201TIP3    H230545   5.862   7.322   6.284
10202TIP3   OH230546   5.706   3.940   1.985
10202TIP3    H130547   5.719   4.007   1.918
10202TIP3    H230548   5.764   3.868   1.958
10203TIP3   OH230549   2.842   6.562   4.435
10203TIP3    H130550   2.884   6.489   4.390
10203TIP3    H230551   2.898   6.579   4.511
10204TIP3   OH230552   3.903   2.361   0.706
10204TIP3    H130553   3.829   2.386   0.651
10204TIP3    H230554   3.960   2.310   0.648
10205TIP3   OH230555   5.884   7.576   5.915
10205TIP3    H130556   5.838   7.598   5.834
10205TIP3    H230557   5.825   7.605   5.984
10206TIP3   OH230558   0.220   5.088   6.239
10206TIP3    H130559   0.249   4.999   6.217
10206TIP3    H230560   0.282   5.118   6.305
10207TIP3   OH230561   5.989   3.790   0.501
10207TIP3    H130562   5.943   3.737   0.436
10207TIP3    H230563   5.973   3.880   0.475
10208TIP3   OH230564   5.874   2.762   0.719
10208TIP3    H130565   5.834   2.732   0.801
10208TIP3    H230566   5.958   2.717   0.715
10209TIP3   OH230567   1.272   0.099   1.688
10209TIP3    H130568   1.238   0.169   1.743
10209TIP3    H230569   1.297   0.144   1.606
10210TIP3   OH230570   5.689   5.684   4.744
10210TIP3    H130571   5.688   5.764   4.797
10210TIP3    H230572   5.781   5.672   4.721
10211TIP3   OH230573   4.318   7.085   3.315
10211TIP3    H130574   4.389   7.053   3.259
10211TIP3    H230575   4.361   7.136   3.383
10212TIP3   OH230576   6.770   1.578   6.650
10212TIP3    H130577   6.863   1.561   6.666
10212TIP3    H230578   6.733   1.492   6.628
10213TIP3   OH230579   1.060   0.463   2.920
10213TIP3    H130580   1.118   0.444   2.847
10213TIP3    H230581   1.071   0.388   2.979
10214TIP3   OH230582   2.339   7.760   2.917
10214TIP3    H130583   2.275   7.692   2.939
10214TIP3    H230584   2.416   7.711   2.887
10215TIP3   OH230585   6.792   3.045   0.287
10215TIP3    H130586   6.758   3.004   0.367
10215TIP3    H230587   6.797   3.138   0.308
10216TIP3   OH230588   1.811   6.291   1.924
10216TIP3    H130589   1.813   6.211   1.871
10216TIP3    H230590   1.719   6.300   1.949
10217TIP3   OH230591   7.761   0.739   4.351
10217TIP3    H130592   7.739   0.831   4.336
10217TIP3    H230593   7.748   0.697   4.266
10218TIP3   OH230594   0.088   4.356   3.871
10218TIP3    H130595   0.096   4.448   3.846
10218TIP3    H230596   0.060   4.312   3.791
10219TIP3   OH230597   4.150   7.350   0.522
10219TIP3    H130598   4.110   7.298   0.452
10219TIP3    H230599   4.184   7.285   0.584
10220TIP3   OH230600   7.191   1.781   6.230
10220TIP3    H130601   7.161   1.724   6.159
10220TIP3    H230602   7.144   1.750   6.307
10221TIP3   OH230603   2.022   1.355   2.828
10221TIP3    H130604   1.975   1.434   2.857
10221TIP3    H230605   2.018   1.359   2.732
10222TIP3   OH230606   7.884   1.635   1.301
10222TIP3    H130607   7.935   1.661   1.225
10222TIP3    H230608   7.944   1.584   1.355
10223TIP3   OH230609   4.197   5.548   2.715
10223TIP3    H130610   4.148   5.479   2.758
10223TIP3    H230611   4.164   5.550   2.626
10224TIP3   OH230612   4.674   6.966   4.036
10224TIP3    H130613   4.683   7.022   3.959
10224TIP3    H230614   4.762   6.959   4.071
10225TIP3   OH230615   4.791   3.684   4.443
10225TIP3    H130616   4.710   3.733   4.448
10225TIP3    H230617   4.820   3.695   4.353
10226TIP3   OH230618   1.988   0.162   5.684
10226TIP3    H130619   2.078   0.179   5.713
10226TIP3    H230620   1.934   0.189   5.759
10227TIP3   OH230621   4.360   4.338   0.499
10227TIP3    H130622   4.409   4.263   0.467
10227TIP3    H230623   4.347   4.393   0.422
10228TIP3   OH230624   1.258   1.700   1.857
10228TIP3    H130625   1.168   1.715   1.828
10228TIP3    H230626   1.310   1.765   1.810
10229TIP3   OH230627   6.987   5.884   5.469
10229TIP3    H130628   6.929   5.857   5.541
10229TIP3    H230629   7.070   5.840   5.487
10230TIP3   OH230630   7.935   5.228   5.024
10230TIP3    H130631   8.029   5.213   5.036
10230TIP3    H230632   7.929   5.304   4.967
10231TIP3   OH230633   4.349   5.817   6.160
10231TIP3    H130634   4.314   5.765   6.232
10231TIP3    H230635   4.276   5.873   6.134
10232TIP3   OH230636   6.496   6.501   2.651
10232TIP3    H130637   6.433   6.440   2.691
10232TIP3    H230638   6.471   6.504   2.559
10233TIP3   OH230639   3.703   0.675   4.943
10233TIP3    H130640   3.611   0.673   4.969
10233TIP3    H230641   3.701   0.681   4.848
10234TIP3   OH230642   8.252   0.749   5.314
10234TIP3    H130643   8.313   0.822   5.316
10234TIP3    H230644   8.302   0.675   5.349
10235TIP3   OH230645   7.087   2.311   1.631
10235TIP3    H130646   7.182   2.316   1.628
10235TIP3    H230647   7.061   2.279   1.545
10236TIP3   OH230648   4.086   4.146   0.185
10236TIP3    H130649   4.014   4.204   0.159
10236TIP3    H230650   4.115   4.106   0.103
10237TIP3   OH230651   4.835   5.063   5.574
10237TIP3    H130652   4.904   5.070   5.640
10237TIP3    H230653   4.872   5.103   5.495
10238TIP3   OH230654   7.764   0.239   4.072
10238TIP3    H130655   7.750   0.309   4.136
10238TIP3    H230656   7.808   0.283   3.999
10239TIP3   OH230657   0.547   7.819   5.092
10239TIP3    H130658   0.561   7.880   5.020
10239TIP3    H230659   0.631   7.774   5.102
10240TIP3   OH230660   0.816   6.271   0.544
10240TIP3    H130661   0.809   6.175   0.546
10240TIP3    H230662   0.826   6.293   0.451
10241TIP3   OH230663   6.878   6.353   5.406
10241TIP3    H130664   6.944   6.422   5.404
10241TIP3    H230665   6.917   6.284   5.460
10242TIP3   OH230666   3.482   3.452   2.016
10242TIP3    H130667   3.470   3.450   1.921
10242TIP3    H230668   3.537   3.377   2.035
10243TIP3   OH230669   3.587   6.991   0.870
10243TIP3    H130670   3.557   7.081   0.882
10243TIP3    H230671   3.517   6.938   0.909
10244TIP3   OH230672   0.351   6.930   3.453
10244TIP3    H130673   0.262   6.924   3.487
10244TIP3    H230674   0.361   6.853   3.398
10245TIP3   OH230675   0.160   4.891   4.855
10245TIP3    H130676   0.194   4.820   4.801
10245TIP3    H230677   0.237   4.943   4.877
10246TIP3   OH230678   7.929   2.271   0.384
10246TIP3    H130679   7.836   2.252   0.370
10246TIP3    H230680   7.940   2.360   0.350
10247TIP3   OH230681   7.581   2.714   3.126
10247TIP3    H130682   7.565   2.798   3.170
10247TIP3    H230683   7.499   2.694   3.081
10248TIP3   OH230684   7.858   1.597   4.522
10248TIP3    H130685   7.941   1.558   4.496
10248TIP3    H230686   7.794   1.560   4.461
10249TIP3   OH230687   1.210   5.692   4.365
10249TIP3    H130688   1.169   5.644   4.437
10249TIP3    H230689   1.243   5.772   4.405
10250TIP3   OH230690   5.577   5.896   5.676
10250TIP3    H130691   5.654   5.840   5.681
10250TIP3    H230692   5.585   5.955   5.750
10251TIP3   OH230693   4.524   1.414   0.650
10251TIP3    H130694   4.563   1.485   0.600
10251TIP3    H230695   4.498   1.453   0.733
10252TIP3   OH230696   5.852   0.491   3.922
10252TIP3    H130697   5.942   0.522   3.932
10252TIP3    H230698   5.803   0.568   3.894
10253TIP3   OH230699   7.802   0.147   1.018
10253TIP3    H130700   7.870   0.146   0.951
10253TIP3    H230701   7.796   0.057   1.048
10254TIP3   OH230702   2.803   6.499   5.660
10254TIP3    H130703   2.750   6.455   5.727
10254TIP3    H230704   2.759   6.478   5.577
10255TIP3   OH230705   5.952   5.006   6.765
10255TIP3    H130706   5.986   4.960   6.689
10255TIP3    H230707   5.988   5.095   6.757
10256TIP3   OH230708   3.180   3.530   1.372
10256TIP3    H130709   3.178   3.464   1.441
10256TIP3    H230710   3.192   3.481   1.291
10257TIP3   OH230711   1.674   7.759   1.677
10257TIP3    H130712   1.712   7.716   1.600
10257TIP3    H230713   1.740   7.823   1.704
10258TIP3   OH230714   3.211   2.669   2.816
10258TIP3    H130715   3.307   2.677   2.823
10258TIP3    H230716   3.197   2.579   2.788
10259TIP3   OH230717   0.081   5.288   2.320
10259TIP3    H130718   0.117   5.304   2.407
10259TIP3    H230719   0.155   5.258   2.268
10260TIP3   OH230720   2.871   5.515   2.202
10260TIP3    H130721   2.943   5.484   2.256
10260TIP3    H230722   2.810   5.441   2.198
10261TIP3   OH230723   7.787   6.277   3.620
10261TIP3    H130724   7.790   6.276   3.715
10261TIP3    H230725   7.855   6.339   3.595
10262TIP3   OH230726   3.337   6.891   4.749
10262TIP3    H130727   3.408   6.830   4.731
10262TIP3    H230728   3.258   6.848   4.715
10263TIP3   OH230729   1.863   3.967   1.075
10263TIP3    H130730   1.838   3.907   1.145
10263TIP3    H230731   1.908   3.912   1.011
10264TIP3   OH230732   5.200   6.096   4.939
10264TIP3    H130733   5.174   6.136   4.856
10264TIP3    H230734   5.182   6.003   4.927
10265TIP3   OH230735   0.950   4.609   3.417
10265TIP3    H130736   0.975   4.604   3.509
10265TIP3    H230737   0.856   4.628   3.419
10266TIP3   OH230738   6.424   2.557   6.061
10266TIP3    H130739   6.397   2.588   6.148
10266TIP3    H230740   6.386   2.470   6.053
10267TIP3   OH230741   7.312   1.323   5.672
10267TIP3    H130742   7.302   1.399   5.615
10267TIP3    H230743   7.223   1.298   5.696
10268TIP3   OH230744   4.379   2.661   2.249
10268TIP3    H130745   4.345   2.610   2.176
10268TIP3    H230746   4.472   2.673   2.229
10269TIP3   OH230747   0.578   5.424   5.105
10269TIP3    H130748   0.651   5.479   5.133
10269TIP3    H230749   0.530   5.478   5.042
10270TIP3   OH230750   0.661   1.574   3.918
10270TIP3    H130751   0.668   1.575   3.822
10270TIP3    H230752   0.646   1.482   3.939
10271TIP3   OH230753   7.073   4.114   1.559
10271TIP3    H130754   7.114   4.051   1.500
10271TIP3    H230755   6.979   4.101   1.547
10272TIP3   OH230756   6.472   7.751   6.601
10272TIP3    H130757   6.518   7.799   6.532
10272TIP3    H230758   6.490   7.800   6.681
10273TIP3   OH230759   2.243   7.609   5.569
10273TIP3    H130760   2.164   7.628   5.618
10273TIP3    H230761   2.252   7.682   5.508
10274TIP3   OH230762   5.374   7.331   0.823
10274TIP3    H130763   5.303   7.278   0.785
10274TIP3    H230764   5.440   7.335   0.754
10275TIP3   OH230765   7.501   6.331   6.404
10275TIP3    H130766   7.440   6.357   6.336
10275TIP3    H230767   7.448   6.280   6.466
10276TIP3   OH230768   8.170   4.701   3.617
10276TIP3    H130769   8.143   4.700   3.709
10276TIP3    H230770   8.209   4.615   3.603
10277TIP3   OH230771   4.877   7.564   0.741
10277TIP3    H130772   4.923   7.496   0.693
10277TIP3    H230773   4.820   7.516   0.801
10278TIP3   OH230774   0.133   4.941   0.742
10278TIP3    H130775   0.047   4.956   0.780
10278TIP3    H230776   0.182   4.893   0.809
10279TIP3   OH230777   4.787   6.646   0.101
10279TIP3    H130778   4.865   6.601   0.135
10279TIP3    H230779   4.808   6.739   0.107
10280TIP3   OH230780   7.123   4.486   0.431
10280TIP3    H130781   7.218   4.492   0.423
10280TIP3    H230782   7.101   4.543   0.505
10281TIP3   OH230783   1.303   1.287   5.069
10281TIP3    H130784   1.216   1.250   5.054
10281TIP3    H230785   1.355   1.256   4.995
10282TIP3   OH230786   7.147   6.607   0.217
10282TIP3    H130787   7.118   6.586   0.128
10282TIP3    H230788   7.132   6.526   0.267
10283TIP3   OH230789   2.031   4.384   2.168
10283TIP3    H130790   2.003   4.346   2.084
10283TIP3    H230791   1.977   4.463   2.177
10284TIP3   OH230792   8.083   6.827   0.971
10284TIP3    H130793   8.025   6.761   1.011
10284TIP3    H230794   8.024   6.894   0.937
10285TIP3   OH230795   4.119   7.708   2.484
10285TIP3    H130796   4.074   7.747   2.409
10285TIP3    H230797   4.193   7.660   2.446
10286TIP3   OH230798   5.029   0.365   0.184
10286TIP3    H130799   5.051   0.285   0.136
10286TIP3    H230800   5.107   0.419   0.176
10287TIP3   OH230801   3.013   0.240   5.262
10287TIP3    H130802   3.077   0.169   5.273
10287TIP3    H230803   2.957   0.211   5.191
10288TIP3   OH230804   3.159   4.572   6.205
10288TIP3    H130805   3.148   4.648   6.262
10288TIP3    H230806   3.084   4.516   6.223
10289TIP3   OH230807   0.005   2.814   4.102
10289TIP3    H130808   0.050   2.851   4.026
10289TIP3    H230809   0.017   2.879   4.171
10290TIP3   OH230810   5.092   3.610   2.502
10290TIP3    H130811   5.187   3.604   2.504
10290TIP3    H230812   5.063   3.521   2.482
10291TIP3   OH230813   0.716   1.571   0.426
10291TIP3    H130814   0.749   1.520   0.500
10291TIP3    H230815   0.670   1.508   0.372
10292TIP3   OH230816   4.830   6.793   4.507
10292TIP3    H130817   4.827   6.881   4.469
10292TIP3    H230818   4.778   6.799   4.587
10293TIP3   OH230819   4.349   1.085   2.223
10293TIP3    H130820   4.381   1.069   2.312
10293TIP3    H230821   4.270   1.138   2.236
10294TIP3   OH230822   6.822   2.375   2.316
10294TIP3    H130823   6.807   2.469   2.312
10294TIP3    H230824   6.869   2.361   2.399
10295TIP3   OH230825   6.739   1.803   3.076
10295TIP3    H130826   6.791   1.883   3.069
10295TIP3    H230827   6.736   1.769   2.987
10296TIP3   OH230828   5.342   2.558   5.610
10296TIP3    H130829   5.379   2.645   5.628
10296TIP3    H230830   5.363   2.507   5.688
10297TIP3   OH230831   6.367   4.147   4.669
10297TIP3    H130832   6.417   4.217   4.712
10297TIP3    H230833   6.427   4.112   4.603
10298TIP3   OH230834   3.668   4.748   2.490
10298TIP3    H130835   3.670   4.703   2.405
10298TIP3    H230836   3.629   4.684   2.550
10299TIP3   OH230837   6.163   5.784   5.211
10299TIP3    H130838   6.207   5.699   5.208
10299TIP3    H230839   6.085   5.772   5.156
10300TIP3   OH230840   3.367   2.049   3.786
10300TIP3    H130841   3.324   2.121   3.833
10300TIP3    H230842   3.304   1.977   3.790
10301TIP3   OH230843   0.733   0.785   2.097
10301TIP3    H130844   0.638   0.778   2.104
10301TIP3    H230845   0.754   0.867   2.140
10302TIP3   OH230846   4.085   2.806   1.881
10302TIP3    H130847   4.109   2.895   1.907
10302TIP3    H230848   3.997   2.793   1.917
10303TIP3   OH230849   1.503   2.005   4.012
10303TIP3    H130850   1.544   2.092   4.010
10303TIP3    H230851   1.566   1.949   4.056
10304TIP3   OH230852   3.603   4.611   4.794
10304TIP3    H130853   3.553   4.658   4.727
10304TIP3    H230854   3.695   4.627   4.771
10305TIP3   OH230855   7.901   4.684   1.913
10305TIP3    H130856   7.807   4.698   1.923
10305TIP3    H230857   7.922   4.723   1.828
10306TIP3   OH230858   3.945   6.497   0.760
10306TIP3    H130859   3.974   6.463   0.675
10306TIP3    H230860   4.025   6.497   0.814
10307TIP3   OH230861   6.452   0.163   4.734
10307TIP3    H130862   6.477   0.089   4.679
10307TIP3    H230863   6.513   0.160   4.808
10308TIP3   OH230864   1.688   2.917   3.272
10308TIP3    H130865   1.703   2.993   3.215
10308TIP3    H230866   1.599   2.888   3.249
10309TIP3   OH230867   6.014   7.881   1.205
10309TIP3    H130868   5.932   7.919   1.235
10309TIP3    H230869   5.990   7.795   1.170
10310TIP3   OH230870   7.621   6.607   3.707
10310TIP3    H130871   7.716   6.617   3.713
10310TIP3    H230872   7.592   6.606   3.798
10311TIP3   OH230873   2.317   1.664   0.839
10311TIP3    H130874   2.359   1.724   0.777
10311TIP3    H230875   2.308   1.715   0.919
10312TIP3   OH230876   5.711   6.761   2.848
10312TIP3    H130877   5.627   6.777   2.806
10312TIP3    H230878   5.761   6.841   2.831
10313TIP3   OH230879   4.015   7.260   2.499
10313TIP3    H130880   4.090   7.258   2.439
10313TIP3    H230881   4.032   7.336   2.555
10314TIP3   OH230882   7.103   3.754   3.780
10314TIP3    H130883   7.023   3.732   3.733
10314TIP3    H230884   7.145   3.822   3.726
10315TIP3   OH230885   0.981   1.829   2.772
10315TIP3    H130886   0.957   1.894   2.838
10315TIP3    H230887   0.898   1.799   2.735
10316TIP3   OH230888   0.589   2.615   6.059
10316TIP3    H130889   0.514   2.558   6.040
10316TIP3    H230890   0.551   2.703   6.067
10317TIP3   OH230891   6.641   4.308   3.023
10317TIP3    H130892   6.632   4.323   2.929
10317TIP3    H230893   6.566   4.255   3.047
10318TIP3   OH230894   0.349   2.639   1.761
10318TIP3    H130895   0.421   2.657   1.821
10318TIP3    H230896   0.373   2.684   1.680
10319TIP3   OH230897   6.951   5.136   4.185
10319TIP3    H130898   6.883   5.200   4.207
10319TIP3    H230899   7.033   5.180   4.208
10320TIP3   OH230900   1.666   1.087   4.925
10320TIP3    H130901   1.727   1.037   4.979
10320TIP3    H230902   1.719   1.156   4.886
10321TIP3   OH230903   4.571   4.113   6.136
10321TIP3    H130904   4.566   4.155   6.222
10321TIP3    H230905   4.484   4.076   6.122
10322TIP3   OH230906   7.113   5.239   5.087
10322TIP3    H130907   7.071   5.318   5.054
10322TIP3    H230908   7.177   5.215   5.020
10323TIP3   OH230909   5.959   3.044   6.468
10323TIP3    H130910   6.020   3.096   6.521
10323TIP3    H230911   5.912   3.108   6.415
10324TIP3   OH230912   3.813   6.538   6.112
10324TIP3    H130913   3.846   6.584   6.190
10324TIP3    H230914   3.780   6.608   6.055
10325TIP3   OH230915   0.418   1.036   5.314
10325TIP3    H130916   0.482   1.107   5.310
10325TIP3    H230917   0.343   1.068   5.264
10326TIP3   OH230918   5.269   7.279   6.427
10326TIP3    H130919   5.359   7.264   6.398
10326TIP3    H230920   5.232   7.192   6.439
10327TIP3   OH230921   2.669   6.198   1.674
10327TIP3    H130922   2.584   6.238   1.656
10327TIP3    H230923   2.732   6.259   1.638
10328TIP3   OH230924   3.598   1.667   6.836
10328TIP3    H130925   3.550   1.620   6.905
10328TIP3    H230926   3.575   1.621   6.756
10329TIP3   OH230927   4.461   3.195   0.279
10329TIP3    H130928   4.405   3.118   0.277
10329TIP3    H230929   4.461   3.222   0.371
10330TIP3   OH230930   7.506   0.941   3.363
10330TIP3    H130931   7.596   0.970   3.372
10330TIP3    H230932   7.484   0.962   3.272
10331TIP3   OH230933   4.800   4.429   6.576
10331TIP3    H130934   4.840   4.475   6.649
10331TIP3    H230935   4.712   4.408   6.605
10332TIP3   OH230936   5.806   1.649   1.314
10332TIP3    H130937   5.714   1.646   1.288
10332TIP3    H230938   5.828   1.557   1.333
10333TIP3   OH230939   0.744   3.538   0.938
10333TIP3    H130940   0.773   3.628   0.949
10333TIP3    H230941   0.806   3.486   0.990
10334TIP3   OH230942   2.691   2.395   1.113
10334TIP3    H130943   2.745   2.456   1.062
10334TIP3    H230944   2.752   2.326   1.140
10335TIP3   OH230945   4.121   2.074   6.294
10335TIP3    H130946   4.152   1.984   6.300
10335TIP3    H230947   4.072   2.089   6.374
10336TIP3   OH230948   8.105   7.314   0.261
10336TIP3    H130949   8.110   7.306   0.357
10336TIP3    H230950   8.177   7.372   0.238
10337TIP3   OH230951   7.598   0.101   2.967
10337TIP3    H130952   7.649   0.025   2.938
10337TIP3    H230953   7.663   0.164   2.996
10338TIP3   OH230954   1.255   7.541   2.814
10338TIP3    H130955   1.298   7.511   2.734
10338TIP3    H230956   1.241   7.635   2.800
10339TIP3   OH230957   1.438   3.950   4.247
10339TIP3    H130958   1.382   3.917   4.317
10339TIP3    H230959   1.462   3.872   4.197
10340TIP3   OH230960   1.564   5.300   3.661
10340TIP3    H130961   1.625   5.335   3.596
10340TIP3    H230962   1.560   5.368   3.729
10341TIP3   OH230963   0.731   1.082   4.095
10341TIP3    H130964   0.799   1.015   4.101
10341TIP3    H230965   0.774   1.162   4.126
10342TIP3   OH230966   2.602   1.286   2.056
10342TIP3    H130967   2.590   1.198   2.091
10342TIP3    H230968   2.685   1.316   2.093
10343TIP3   OH230969   5.335   4.318   3.869
10343TIP3    H130970   5.382   4.252   3.919
10343TIP3    H230971   5.278   4.269   3.810
10344TIP3   OH230972   1.423   6.465   2.155
10344TIP3    H130973   1.330   6.491   2.157
10344TIP3    H230974   1.470   6.546   2.137
10345TIP3   OH230975   6.759   0.642   4.431
10345TIP3    H130976   6.782   0.710   4.495
10345TIP3    H230977   6.720   0.690   4.358
10346TIP3   OH230978   7.078   1.525   4.760
10346TIP3    H130979   7.000   1.487   4.801
10346TIP3    H230980   7.046   1.604   4.717
10347TIP3   OH230981   1.839   7.491   6.427
10347TIP3    H130982   1.890   7.418   6.392
10347TIP3    H230983   1.894   7.568   6.414
10348TIP3   OH230984   1.615   0.261   2.795
10348TIP3    H130985   1.637   0.226   2.882
10348TIP3    H230986   1.691   0.315   2.772
10349TIP3   OH230987   2.014   1.183   2.355
10349TIP3    H130988   2.020   1.088   2.344
10349TIP3    H230989   1.923   1.199   2.380
10350TIP3   OH230990   2.562   0.656   4.161
10350TIP3    H130991   2.469   0.655   4.136
10350TIP3    H230992   2.609   0.662   4.078
10351TIP3   OH230993   8.193   5.892   0.677
10351TIP3    H130994   8.201   5.868   0.585
10351TIP3    H230995   8.109   5.938   0.683
10352TIP3   OH230996   5.955   3.048   1.674
10352TIP3    H130997   5.889   2.998   1.722
10352TIP3    H230998   5.974   2.995   1.597
10353TIP3   OH230999   1.237   6.927   5.238
10353TIP3    H131000   1.287   6.857   5.280
10353TIP3    H231001   1.175   6.956   5.305
10354TIP3   OH231002   2.065   3.261   5.647
10354TIP3    H131003   1.984   3.212   5.632
10354TIP3    H231004   2.046   3.315   5.723
10355TIP3   OH231005   7.980   7.403   1.574
10355TIP3    H131006   7.994   7.324   1.627
10355TIP3    H231007   7.936   7.464   1.633
10356TIP3   OH231008   1.334   3.825   0.776
10356TIP3    H131009   1.272   3.752   0.778
10356TIP3    H231010   1.366   3.832   0.866
10357TIP3   OH231011   0.682   7.295   2.588
10357TIP3    H131012   0.650   7.385   2.591
10357TIP3    H231013   0.772   7.300   2.620
10358TIP3   OH231014   6.910   6.707   1.488
10358TIP3    H131015   6.894   6.671   1.401
10358TIP3    H231016   6.846   6.778   1.497
10359TIP3   OH231017   6.298   1.316   0.830
10359TIP3    H131018   6.370   1.337   0.889
10359TIP3    H231019   6.327   1.239   0.782
10360TIP3   OH231020   3.113   5.607   4.444
10360TIP3    H131021   3.117   5.664   4.521
10360TIP3    H231022   3.034   5.554   4.457
10361TIP3   OH231023   6.529   4.897   2.159
10361TIP3    H131024   6.608   4.935   2.197
10361TIP3    H231025   6.463   4.904   2.228
10362TIP3   OH231026   4.437   2.326   0.272
10362TIP3    H131027   4.482   2.382   0.335
10362TIP3    H231028   4.424   2.243   0.317
10363TIP3   OH231029   5.859   0.485   5.086
10363TIP3    H131030   5.839   0.492   5.179
10363TIP3    H231031   5.919   0.411   5.080
10364TIP3   OH231032   0.289   5.406   5.776
10364TIP3    H131033   0.334   5.490   5.782
10364TIP3    H231034   0.272   5.381   5.867
10365TIP3   OH231035   5.228   2.701   2.499
10365TIP3    H131036   5.213   2.776   2.440
10365TIP3    H231037   5.315   2.670   2.476
10366TIP3   OH231038   1.869   5.792   4.527
10366TIP3    H131039   1.803   5.764   4.591
10366TIP3    H231040   1.914   5.712   4.501
10367TIP3   OH231041   4.425   0.314   0.934
10367TIP3    H131042   4.350   0.360   0.896
10367TIP3    H231043   4.447   0.247   0.870
10368TIP3   OH231044   6.187   3.689   1.773
10368TIP3    H131045   6.096   3.702   1.745
10368TIP3    H231046   6.225   3.634   1.704
10369TIP3   OH231047   4.109   2.278   6.663
10369TIP3    H131048   4.153   2.282   6.748
10369TIP3    H231049   4.020   2.250   6.684
10370TIP3   OH231050   3.371   4.932   4.999
10370TIP3    H131051   3.423   4.869   5.050
10370TIP3    H231052   3.286   4.889   4.989
10371TIP3   OH231053   8.253   3.598   4.479
10371TIP3    H131054   8.243   3.545   4.558
10371TIP3    H231055   8.187   3.564   4.418
10372TIP3   OH231056   5.246   4.944   4.564
10372TIP3    H131057   5.273   5.034   4.545
10372TIP3    H231058   5.324   4.891   4.545
10373TIP3   OH231059   0.607   5.411   6.662
10373TIP3    H131060   0.563   5.405   6.746
10373TIP3    H231061   0.606   5.504   6.640
10374TIP3   OH231062   2.219   2.332   0.197
10374TIP3    H131063   2.165   2.337   0.117
10374TIP3    H231064   2.206   2.243   0.229
10375TIP3   OH231065   8.091   2.544   1.279
10375TIP3    H131066   8.141   2.463   1.277
10375TIP3    H231067   8.138   2.600   1.340
10376TIP3   OH231068   5.269   1.545   2.979
10376TIP3    H131069   5.316   1.628   2.990
10376TIP3    H231070   5.234   1.526   3.067
10377TIP3   OH231071   5.461   4.821   5.372
10377TIP3    H131072   5.542   4.772   5.382
10377TIP3    H231073   5.488   4.913   5.371
10378TIP3   OH231074   4.782   5.411   1.115
10378TIP3    H131075   4.789   5.316   1.110
10378TIP3    H231076   4.869   5.441   1.142
10379TIP3   OH231077   2.760   5.930   2.128
10379TIP3    H131078   2.673   5.914   2.164
10379TIP3    H231079   2.744   5.949   2.035
10380TIP3   OH231080   0.074   5.520   6.851
10380TIP3    H131081   0.013   5.448   6.870
10380TIP3    H231082   0.153   5.497   6.900
10381TIP3   OH231083   5.302   4.331   0.926
10381TIP3    H131084   5.345   4.287   0.999
10381TIP3    H231085   5.209   4.311   0.936
10382TIP3   OH231086   4.676   7.711   4.557
10382TIP3    H131087   4.616   7.655   4.606
10382TIP3    H231088   4.686   7.788   4.613
10383TIP3   OH231089   7.183   6.311   1.624
10383TIP3    H131090   7.150   6.226   1.596
10383TIP3    H231091   7.212   6.354   1.543
10384TIP3   OH231092   6.726   7.153   6.638
10384TIP3    H131093   6.644   7.108   6.657
10384TIP3    H231094   6.784   7.085   6.602
10385TIP3   OH231095   0.343   6.868   6.613
10385TIP3    H131096   0.315   6.925   6.685
10385TIP3    H231097   0.285   6.892   6.541
10386TIP3   OH231098   0.124   1.281   1.503
10386TIP3    H131099   0.071   1.342   1.555
10386TIP3    H231100   0.211   1.287   1.541
10387TIP3   OH231101   0.045   1.372   1.236
10387TIP3    H131102   0.070   1.333   1.319
10387TIP3    H231103   0.084   1.460   1.238
10388TIP3   OH231104   4.494   3.279   4.195
10388TIP3    H131105   4.585   3.305   4.211
10388TIP3    H231106   4.474   3.216   4.264
10389TIP3   OH231107   5.984   7.251   1.571
10389TIP3    H131108   6.042   7.262   1.647
10389TIP3    H231109   5.957   7.159   1.575
10390TIP3   OH231110   0.011   7.058   5.772
10390TIP3    H131111   0.010   6.995   5.845
10390TIP3    H231112   0.086   7.114   5.791
10391TIP3   OH231113   5.151   4.734   4.027
10391TIP3    H131114   5.150   4.640   4.047
10391TIP3    H231115   5.225   4.746   3.968
10392TIP3   OH231116   3.110   6.675   1.017
10392TIP3    H131117   3.028   6.695   0.972
10392TIP3    H231118   3.170   6.650   0.948
10393TIP3   OH231119   0.451   2.781   3.082
10393TIP3    H131120   0.452   2.742   2.995
10393TIP3    H231121   0.480   2.711   3.141
10394TIP3   OH231122   2.573   1.463   1.465
10394TIP3    H131123   2.498   1.449   1.522
10394TIP3    H231124   2.648   1.433   1.517
10395TIP3   OH231125   6.806   5.266   3.428
10395TIP3    H131126   6.732   5.217   3.393
10395TIP3    H231127   6.809   5.243   3.521
10396TIP3   OH231128   1.460   0.591   4.472
10396TIP3    H131129   1.396   0.559   4.536
10396TIP3    H231130   1.443   0.540   4.393
10397TIP3   OH231131   0.224   6.328   4.701
10397TIP3    H131132   0.305   6.279   4.712
10397TIP3    H231133   0.199   6.354   4.790
10398TIP3   OH231134   0.388   3.142   4.349
10398TIP3    H131135   0.337   3.095   4.282
10398TIP3    H231136   0.327   3.154   4.421
10399TIP3   OH231137   6.505   1.130   5.383
10399TIP3    H131138   6.504   1.061   5.450
10399TIP3    H231139   6.412   1.150   5.369
10400TIP3   OH231140   8.195   5.163   5.091
10400TIP3    H131141   8.277   5.116   5.108
10400TIP3    H231142   8.157   5.178   5.178
10401TIP3   OH231143   4.018   0.743   2.432
10401TIP3    H131144   4.055   0.829   2.451
10401TIP3    H231145   3.986   0.711   2.516
10402TIP3   OH231146   6.513   2.640   2.155
10402TIP3    H131147   6.584   2.703   2.159
10402TIP3    H231148   6.509   2.615   2.063
10403TIP3   OH231149   1.345   1.379   2.931
10403TIP3    H131150   1.439   1.375   2.916
10403TIP3    H231151   1.306   1.353   2.847
10404TIP3   OH231152   4.312   5.576   5.361
10404TIP3    H131153   4.406   5.591   5.351
10404TIP3    H231154   4.279   5.659   5.395
10405TIP3   OH231155   7.882   6.688   0.226
10405TIP3    H131156   7.828   6.613   0.252
10405TIP3    H231157   7.847   6.713   0.140
10406TIP3   OH231158   1.596   7.366   3.709
10406TIP3    H131159   1.560   7.370   3.620
10406TIP3    H231160   1.640   7.281   3.712
10407TIP3   OH231161   4.082   2.455   2.335
10407TIP3    H131162   4.175   2.439   2.321
10407TIP3    H231163   4.038   2.402   2.268
10408TIP3   OH231164   7.015   5.090   1.551
10408TIP3    H131165   7.080   5.091   1.622
10408TIP3    H231166   7.063   5.124   1.475
10409TIP3   OH231167   6.109   7.439   0.181
10409TIP3    H131168   6.072   7.351   0.180
10409TIP3    H231169   6.119   7.463   0.089
10410TIP3   OH231170   5.933   6.686   1.247
10410TIP3    H131171   5.909   6.608   1.196
10410TIP3    H231172   5.924   6.658   1.338
10411TIP3   OH231173   4.417   4.521   0.069
10411TIP3    H131174   4.500   4.473   0.080
10411TIP3    H231175   4.407   4.531  -0.025
10412TIP3   OH231176   5.914   6.292   4.762
10412TIP3    H131177   5.972   6.216   4.771
10412TIP3    H231178   5.929   6.343   4.841
10413TIP3   OH231179   8.108   0.210   1.779
10413TIP3    H131180   8.164   0.286   1.765
10413TIP3    H231181   8.137   0.173   1.862
10414TIP3   OH231182   4.932   2.352   0.288
10414TIP3    H131183   4.843   2.370   0.318
10414TIP3    H231184   4.965   2.286   0.348
10415TIP3   OH231185   6.377   2.800   5.708
10415TIP3    H131186   6.327   2.877   5.682
10415TIP3    H231187   6.324   2.759   5.777
10416TIP3   OH231188   2.212   5.061   2.205
10416TIP3    H131189   2.221   5.149   2.167
10416TIP3    H231190   2.133   5.025   2.164
10417TIP3   OH231191   0.141   6.136   3.228
10417TIP3    H131192   0.091   6.218   3.231
10417TIP3    H231193   0.185   6.132   3.313
10418TIP3   OH231194   1.609   2.014   0.304
10418TIP3    H131195   1.687   1.958   0.305
10418TIP3    H231196   1.623   2.071   0.227
10419TIP3   OH231197   6.840   7.055   3.364
10419TIP3    H131198   6.775   7.117   3.396
10419TIP3    H231199   6.818   6.972   3.407
10420TIP3   OH231200   8.125   5.864   6.684
10420TIP3    H131201   8.124   5.824   6.597
10420TIP3    H231202   8.193   5.815   6.732
10421TIP3   OH231203   1.167   4.728   0.628
10421TIP3    H131204   1.242   4.703   0.574
10421TIP3    H231205   1.178   4.821   0.644
10422TIP3   OH231206   7.041   2.991   0.196
10422TIP3    H131207   7.018   2.905   0.162
10422TIP3    H231208   6.959   3.026   0.230
10423TIP3   OH231209   7.404   1.258   4.177
10423TIP3    H131210   7.377   1.167   4.163
10423TIP3    H231211   7.499   1.256   4.178
10424TIP3   OH231212   4.517   6.712   3.849
10424TIP3    H131213   4.495   6.689   3.939
10424TIP3    H231214   4.434   6.701   3.801
10425TIP3   OH231215   2.121   2.142   1.896
10425TIP3    H131216   2.166   2.064   1.929
10425TIP3    H231217   2.094   2.118   1.807
10426TIP3   OH231218   3.207   5.689   3.291
10426TIP3    H131219   3.166   5.769   3.259
10426TIP3    H231220   3.280   5.674   3.231
10427TIP3   OH231221   8.236   7.106   1.302
10427TIP3    H131222   8.157   7.057   1.280
10427TIP3    H231223   8.289   7.046   1.354
10428TIP3   OH231224   4.285   7.064   2.384
10428TIP3    H131225   4.257   7.054   2.475
10428TIP3    H231226   4.281   7.158   2.367
10429TIP3   OH231227   2.991   6.709   0.496
10429TIP3    H131228   3.036   6.660   0.427
10429TIP3    H231229   3.061   6.742   0.551
10430TIP3   OH231230   0.514   2.580   5.406
10430TIP3    H131231   0.445   2.540   5.459
10430TIP3    H231232   0.594   2.536   5.433
10431TIP3   OH231233   1.528   7.868   4.468
10431TIP3    H131234   1.590   7.805   4.504
10431TIP3    H231235   1.540   7.864   4.374
10432TIP3   OH231236   7.026   1.858   0.395
10432TIP3    H131237   6.997   1.792   0.332
10432TIP3    H231238   7.116   1.833   0.415
10433TIP3   OH231239   2.962   3.805   4.082
10433TIP3    H131240   2.930   3.889   4.114
10433TIP3    H231241   2.936   3.803   3.990
10434TIP3   OH231242   3.451   2.207   4.624
10434TIP3    H131243   3.374   2.241   4.577
10434TIP3    H231244   3.416   2.175   4.707
10435TIP3   OH231245   1.714   0.286   4.512
10435TIP3    H131246   1.662   0.238   4.448
10435TIP3    H231247   1.805   0.265   4.489
10436TIP3   OH231248   8.328   1.503   5.730
10436TIP3    H131249   8.344   1.410   5.740
10436TIP3    H231250   8.414   1.540   5.709
10437TIP3   OH231251   5.341   6.027   2.757
10437TIP3    H131252   5.347   5.944   2.804
10437TIP3    H231253   5.348   6.093   2.825
10438TIP3   OH231254   3.267   3.192   3.677
10438TIP3    H131255   3.303   3.276   3.707
10438TIP3    H231256   3.328   3.163   3.609
10439TIP3   OH231257   3.603   7.374   5.518
10439TIP3    H131258   3.514   7.410   5.520
10439TIP3    H231259   3.651   7.431   5.458
10440TIP3   OH231260   5.357   1.984   3.933
10440TIP3    H131261   5.401   2.064   3.904
10440TIP3    H231262   5.350   1.993   4.028
10441TIP3   OH231263   4.091   6.372   3.200
10441TIP3    H131264   4.170   6.335   3.241
10441TIP3    H231265   4.038   6.296   3.178
10442TIP3   OH231266   7.059   6.812   6.902
10442TIP3    H131267   7.041   6.895   6.859
10442TIP3    H231268   7.127   6.771   6.848
10443TIP3   OH231269   6.925   1.614   2.330
10443TIP3    H131270   6.846   1.656   2.364
10443TIP3    H231271   6.893   1.536   2.285
10444TIP3   OH231272   1.086   1.747   6.139
10444TIP3    H131273   1.062   1.686   6.069
10444TIP3    H231274   1.115   1.690   6.211
10445TIP3   OH231275   1.732   6.189   0.968
10445TIP3    H131276   1.728   6.261   1.031
10445TIP3    H231277   1.648   6.144   0.978
10446TIP3   OH231278   7.933   7.418   5.317
10446TIP3    H131279   7.925   7.428   5.412
10446TIP3    H231280   7.894   7.333   5.299
10447TIP3   OH231281   0.647   3.233   5.431
10447TIP3    H131282   0.602   3.183   5.499
10447TIP3    H231283   0.739   3.232   5.459
10448TIP3   OH231284   0.527   4.252   4.226
10448TIP3    H131285   0.488   4.190   4.289
10448TIP3    H231286   0.474   4.240   4.147
10449TIP3   OH231287   1.364   3.756   3.877
10449TIP3    H131288   1.272   3.758   3.902
10449TIP3    H231289   1.411   3.742   3.959
10450TIP3   OH231290   3.883   4.050   1.788
10450TIP3    H131291   3.808   3.993   1.803
10450TIP3    H231292   3.929   4.010   1.714
10451TIP3   OH231293   1.447   1.871   2.136
10451TIP3    H131294   1.357   1.856   2.166
10451TIP3    H231295   1.437   1.903   2.046
10452TIP3   OH231296   0.807   7.819   4.448
10452TIP3    H131297   0.854   7.894   4.412
10452TIP3    H231298   0.843   7.807   4.535
10453TIP3   OH231299   7.291   6.582   4.204
10453TIP3    H131300   7.331   6.517   4.146
10453TIP3    H231301   7.364   6.618   4.254
10454TIP3   OH231302   0.768   2.343   3.575
10454TIP3    H131303   0.786   2.400   3.500
10454TIP3    H231304   0.847   2.349   3.629
10455TIP3   OH231305   6.339   7.226   6.662
10455TIP3    H131306   6.273   7.215   6.594
10455TIP3    H231307   6.399   7.291   6.627
10456TIP3   OH231308   0.646   6.182   5.015
10456TIP3    H131309   0.581   6.181   5.085
10456TIP3    H231310   0.601   6.142   4.940
10457TIP3   OH231311   8.194   4.873   2.121
10457TIP3    H131312   8.110   4.918   2.111
10457TIP3    H231313   8.239   4.889   2.037
10458TIP3   OH231314   0.697   0.681   4.770
10458TIP3    H131315   0.640   0.737   4.717
10458TIP3    H231316   0.713   0.731   4.850
10459TIP3   OH231317   4.309   3.114   3.098
10459TIP3    H131318   4.349   3.053   3.035
10459TIP3    H231319   4.383   3.147   3.149
10460TIP3   OH231320   6.190   0.811   6.730
10460TIP3    H131321   6.155   0.728   6.696
10460TIP3    H231322   6.113   0.860   6.758
10461TIP3   OH231323   6.423   4.852   3.069
10461TIP3    H131324   6.459   4.764   3.067
10461TIP3    H231325   6.384   4.865   2.982
10462TIP3   OH231326   2.126   7.352   4.202
10462TIP3    H131327   2.217   7.340   4.229
10462TIP3    H231328   2.111   7.447   4.209
10463TIP3   OH231329   6.876   0.952   5.127
10463TIP3    H131330   6.872   0.892   5.202
10463TIP3    H231331   6.793   1.001   5.131
10464TIP3   OH231332   0.932   5.058   2.676
10464TIP3    H131333   0.984   5.123   2.723
10464TIP3    H231334   0.842   5.080   2.697
10465TIP3   OH231335   5.298   3.191   3.212
10465TIP3    H131336   5.332   3.211   3.299
10465TIP3    H231337   5.276   3.276   3.174
10466TIP3   OH231338   7.750   0.457   1.519
10466TIP3    H131339   7.798   0.377   1.541
10466TIP3    H231340   7.755   0.463   1.423
10467TIP3   OH231341   1.366   7.197   5.152
10467TIP3    H131342   1.454   7.173   5.182
10467TIP3    H231343   1.308   7.131   5.190
10468TIP3   OH231344   2.406   2.184   6.197
10468TIP3    H131345   2.341   2.114   6.200
10468TIP3    H231346   2.359   2.259   6.162
10469TIP3   OH231347   6.579   4.271   0.780
10469TIP3    H131348   6.617   4.238   0.699
10469TIP3    H231349   6.489   4.237   0.781
10470TIP3   OH231350   4.423   7.276   4.579
10470TIP3    H131351   4.432   7.291   4.673
10470TIP3    H231352   4.341   7.321   4.556
10471TIP3   OH231353   0.321   2.437   5.539
10471TIP3    H131354   0.381   2.446   5.613
10471TIP3    H231355   0.246   2.390   5.574
10472TIP3   OH231356   2.053   3.815   2.218
10472TIP3    H131357   2.108   3.787   2.291
10472TIP3    H231358   1.995   3.741   2.202
10473TIP3   OH231359   3.354   1.987   5.558
10473TIP3    H131360   3.374   1.986   5.465
10473TIP3    H231361   3.374   2.076   5.586
10474TIP3   OH231362   3.310   3.594   5.153
10474TIP3    H131363   3.253   3.620   5.225
10474TIP3    H231364   3.297   3.662   5.087
10475TIP3   OH231365   3.947   7.430   1.041
10475TIP3    H131366   3.986   7.513   1.012
10475TIP3    H231367   3.866   7.455   1.086
10476TIP3   OH231368   1.909   5.800   0.623
10476TIP3    H131369   1.923   5.879   0.677
10476TIP3    H231370   1.840   5.825   0.561
10477TIP3   OH231371   6.817   0.939   3.473
10477TIP3    H131372   6.798   0.852   3.509
10477TIP3    H231373   6.911   0.949   3.483
10478TIP3   OH231374   5.372   3.657   3.511
10478TIP3    H131375   5.339   3.714   3.581
10478TIP3    H231376   5.420   3.588   3.557
10479TIP3   OH231377   3.202   4.725   4.190
10479TIP3    H131378   3.238   4.791   4.249
10479TIP3    H231379   3.162   4.661   4.249
10480TIP3   OH231380   0.522   1.819   0.880
10480TIP3    H131381   0.589   1.768   0.835
10480TIP3    H231382   0.459   1.841   0.811
10481TIP3   OH231383   4.044   0.796   0.093
10481TIP3    H131384   4.136   0.812   0.072
10481TIP3    H231385   4.046   0.732   0.164
10482TIP3   OH231386   6.602   2.789   4.130
10482TIP3    H131387   6.578   2.698   4.148
10482TIP3    H231388   6.616   2.828   4.216
10483TIP3   OH231389   2.251   0.519   6.655
10483TIP3    H131390   2.214   0.600   6.619
10483TIP3    H231391   2.175   0.463   6.671
10484TIP3   OH231392   0.709   4.659   4.693
10484TIP3    H131393   0.665   4.585   4.735
10484TIP3    H231394   0.772   4.689   4.758
10485TIP3   OH231395   7.214   2.710   0.254
10485TIP3    H131396   7.223   2.767   0.178
10485TIP3    H231397   7.282   2.644   0.243
10486TIP3   OH231398   6.520   7.518   1.402
10486TIP3    H131399   6.494   7.503   1.492
10486TIP3    H231400   6.612   7.490   1.398
10487TIP3   OH231401   3.328   4.624   0.088
10487TIP3    H131402   3.296   4.589   0.005
10487TIP3    H231403   3.298   4.561   0.153
10488TIP3   OH231404   2.145   5.599   0.741
10488TIP3    H131405   2.173   5.555   0.821
10488TIP3    H231406   2.051   5.584   0.736
10489TIP3   OH231407   1.544   3.481   0.155
10489TIP3    H131408   1.606   3.538   0.200
10489TIP3    H231409   1.520   3.529   0.076
10490TIP3   OH231410   1.294   6.148   4.287
10490TIP3    H131411   1.278   6.204   4.210
10490TIP3    H231412   1.233   6.181   4.353
10491TIP3   OH231413   1.703   4.501   6.691
10491TIP3    H131414   1.696   4.582   6.641
10491TIP3    H231415   1.789   4.466   6.669
10492TIP3   OH231416   0.172   1.701   5.966
10492TIP3    H131417   0.084   1.664   5.964
10492TIP3    H231418   0.193   1.719   5.875
10493TIP3   OH231419   5.896   3.265   4.790
10493TIP3    H131420   5.880   3.218   4.709
10493TIP3    H231421   5.961   3.331   4.767
10494TIP3   OH231422   2.056   3.805   5.422
10494TIP3    H131423   2.135   3.833   5.377
10494TIP3    H231424   2.087   3.771   5.506
10495TIP3   OH231425   2.536   1.333   4.619
10495TIP3    H131426   2.579   1.309   4.701
10495TIP3    H231427   2.455   1.282   4.618
10496TIP3   OH231428   5.405   3.927   4.078
10496TIP3    H131429   5.428   3.853   4.021
10496TIP3    H231430   5.436   4.004   4.031
10497TIP3   OH231431   0.670   4.011   5.999
10497TIP3    H131432   0.757   3.988   5.969
10497TIP3    H231433   0.635   4.068   5.929
10498TIP3   OH231434   1.959   0.865   0.569
10498TIP3    H131435   1.939   0.957   0.557
10498TIP3    H231436   2.026   0.845   0.504
10499TIP3   OH231437   7.772   3.868   0.757
10499TIP3    H131438   7.853   3.916   0.776
10499TIP3    H231439   7.702   3.929   0.778
10500TIP3   OH231440   6.221   5.866   4.254
10500TIP3    H131441   6.178   5.821   4.327
10500TIP3    H231442   6.213   5.805   4.180
10501TIP3   OH231443   7.207   3.825   1.078
10501TIP3    H131444   7.157   3.760   1.127
10501TIP3    H231445   7.297   3.816   1.110
10502TIP3   OH231446   2.523   4.312   3.286
10502TIP3    H131447   2.455   4.379   3.298
10502TIP3    H231448   2.481   4.244   3.234
10503TIP3   OH231449   3.891   5.369   1.028
10503TIP3    H131450   3.955   5.396   0.962
10503TIP3    H231451   3.890   5.440   1.092
10504TIP3   OH231452   5.719   4.274   4.208
10504TIP3    H131453   5.764   4.251   4.289
10504TIP3    H231454   5.718   4.193   4.157
10505TIP3   OH231455   8.231   6.476   3.792
10505TIP3    H131456   8.277   6.490   3.875
10505TIP3    H231457   8.270   6.396   3.756
10506TIP3   OH231458   2.828   2.831   5.926
10506TIP3    H131459   2.787   2.752   5.891
10506TIP3    H231460   2.841   2.812   6.019
10507TIP3   OH231461   2.699   2.686   1.642
10507TIP3    H131462   2.697   2.673   1.737
10507TIP3    H231463   2.792   2.689   1.620
10508TIP3   OH231464   2.543   3.761   5.972
10508TIP3    H131465   2.592   3.792   5.895
10508TIP3    H231466   2.582   3.808   6.046
10509TIP3   OH231467   8.233   6.947   5.351
10509TIP3    H131468   8.151   6.951   5.302
10509TIP3    H231469   8.207   6.929   5.441
10510TIP3   OH231470   3.112   7.438   0.284
10510TIP3    H131471   3.051   7.447   0.358
10510TIP3    H231472   3.059   7.457   0.207
10511TIP3   OH231473   3.983   5.629   6.067
10511TIP3    H131474   3.963   5.536   6.075
10511TIP3    H231475   3.915   5.664   6.010
10512TIP3   OH231476   8.064   3.959   4.548
10512TIP3    H131477   8.150   3.919   4.532
10512TIP3    H231478   8.058   3.965   4.643
10513TIP3   OH231479   0.866   3.047   0.327
10513TIP3    H131480   0.844   3.111   0.260
10513TIP3    H231481   0.861   2.963   0.282
10514TIP3   OH231482   0.281   6.976   5.951
10514TIP3    H131483   0.274   7.032   5.874
10514TIP3    H231484   0.375   6.957   5.958
10515TIP3   OH231485   7.703   6.245   5.703
10515TIP3    H131486   7.703   6.269   5.610
10515TIP3    H231487   7.795   6.248   5.729
10516TIP3   OH231488   4.231   1.193   0.563
10516TIP3    H131489   4.182   1.129   0.512
10516TIP3    H231490   4.294   1.231   0.501
10517TIP3   OH231491   3.864   3.517   2.972
10517TIP3    H131492   3.844   3.607   2.996
10517TIP3    H231493   3.952   3.521   2.935
10518TIP3   OH231494   2.798   1.588   5.153
10518TIP3    H131495   2.888   1.593   5.121
10518TIP3    H231496   2.794   1.504   5.200
10519TIP3   OH231497   3.756   5.156   3.917
10519TIP3    H131498   3.799   5.089   3.971
10519TIP3    H231499   3.827   5.195   3.867
10520TIP3   OH231500   7.020   6.005   0.472
10520TIP3    H131501   6.941   6.057   0.490
10520TIP3    H231502   7.092   6.068   0.478
10521TIP3   OH231503   2.846   5.366   3.953
10521TIP3    H131504   2.936   5.397   3.941
10521TIP3    H231505   2.793   5.426   3.902
10522TIP3   OH231506   1.794   6.766   0.697
10522TIP3    H131507   1.730   6.755   0.627
10522TIP3    H231508   1.832   6.679   0.709
10523TIP3   OH231509   3.954   0.357   0.207
10523TIP3    H131510   3.954   0.304   0.127
10523TIP3    H231511   3.876   0.330   0.255
10524TIP3   OH231512   6.580   6.151   5.111
10524TIP3    H131513   6.512   6.100   5.156
10524TIP3    H231514   6.553   6.150   5.019
10525TIP3   OH231515   2.380   6.818   0.447
10525TIP3    H131516   2.429   6.740   0.474
10525TIP3    H231517   2.439   6.891   0.464
10526TIP3   OH231518   7.219   1.514   1.560
10526TIP3    H131519   7.160   1.439   1.560
10526TIP3    H231520   7.284   1.493   1.493
10527TIP3   OH231521   3.096   2.198   3.624
10527TIP3    H131522   3.130   2.238   3.704
10527TIP3    H231523   3.135   2.110   3.624
10528TIP3   OH231524   3.461   2.494   5.489
10528TIP3    H131525   3.429   2.580   5.462
10528TIP3    H231526   3.549   2.489   5.452
10529TIP3   OH231527   4.153   2.378   4.625
10529TIP3    H131528   4.066   2.395   4.661
10529TIP3    H231529   4.136   2.326   4.547
10530TIP3   OH231530   2.143   0.219   5.051
10530TIP3    H131531   2.079   0.203   4.981
10530TIP3    H231532   2.117   0.159   5.121
10531TIP3   OH231533   5.357   3.638   2.495
10531TIP3    H131534   5.425   3.647   2.429
10531TIP3    H231535   5.404   3.630   2.578
10532TIP3   OH231536   1.212   4.193   6.504
10532TIP3    H131537   1.139   4.243   6.467
10532TIP3    H231538   1.290   4.238   6.472
10533TIP3   OH231539   0.762   2.440   1.949
10533TIP3    H131540   0.700   2.368   1.955
10533TIP3    H231541   0.738   2.485   1.867
10534TIP3   OH231542   6.202   1.127   2.107
10534TIP3    H131543   6.275   1.128   2.169
10534TIP3    H231544   6.150   1.051   2.134
10535TIP3   OH231545   2.294   1.099   2.708
10535TIP3    H131546   2.375   1.147   2.693
10535TIP3    H231547   2.284   1.043   2.631
10536TIP3   OH231548   5.982   7.526   0.398
10536TIP3    H131549   5.891   7.498   0.390
10536TIP3    H231550   6.027   7.485   0.324
10537TIP3   OH231551   1.878   3.947   4.528
10537TIP3    H131552   1.902   3.967   4.619
10537TIP3    H231553   1.808   4.008   4.507
10538TIP3   OH231554   1.166   6.459   1.000
10538TIP3    H131555   1.121   6.390   1.050
10538TIP3    H231556   1.132   6.541   1.037
10539TIP3   OH231557   7.096   0.784   3.810
10539TIP3    H131558   7.105   0.746   3.897
10539TIP3    H231559   7.049   0.717   3.760
10540TIP3   OH231560   5.810   1.439   1.905
10540TIP3    H131561   5.785   1.467   1.993
10540TIP3    H231562   5.799   1.344   1.905
10541TIP3   OH231563   3.841   3.435   4.216
10541TIP3    H131564   3.747   3.447   4.203
10541TIP3    H231565   3.870   3.516   4.258
10542TIP3   OH231566   5.830   6.923   3.530
10542TIP3    H131567   5.792   6.971   3.604
10542TIP3    H231568   5.796   6.834   3.539
10543TIP3   OH231569   0.344   4.882   0.415
10543TIP3    H131570   0.310   4.840   0.336
10543TIP3    H231571   0.421   4.831   0.438
10544TIP3   OH231572   4.610   5.513   0.919
10544TIP3    H131573   4.659   5.592   0.895
10544TIP3    H231574   4.661   5.474   0.990
10545TIP3   OH231575   0.243   4.718   3.460
10545TIP3    H131576   0.202   4.702   3.375
10545TIP3    H231577   0.337   4.712   3.444
10546TIP3   OH231578   3.603   6.800   0.091
10546TIP3    H131579   3.527   6.792   0.034
10546TIP3    H231580   3.581   6.748   0.168
10547TIP3   OH231581   7.556   4.385   1.752
10547TIP3    H131582   7.528   4.337   1.675
10547TIP3    H231583   7.579   4.318   1.816
10548TIP3   OH231584   1.863   2.445   1.977
10548TIP3    H131585   1.930   2.455   2.044
10548TIP3    H231586   1.833   2.534   1.959
10549TIP3   OH231587   4.688   3.024   4.029
10549TIP3    H131588   4.613   2.988   3.981
10549TIP3    H231589   4.650   3.060   4.109
10550TIP3   OH231590   3.241   6.292   0.089
10550TIP3    H131591   3.219   6.289   0.182
10550TIP3    H231592   3.255   6.385   0.071
10551TIP3   OH231593   7.641   0.362   0.725
10551TIP3    H131594   7.609   0.314   0.648
10551TIP3    H231595   7.715   0.412   0.693
10552TIP3   OH231596   7.530   3.601   3.358
10552TIP3    H131597   7.538   3.532   3.424
10552TIP3    H231598   7.456   3.574   3.303
10553TIP3   OH231599   0.612   7.904   0.359
10553TIP3    H131600   0.603   7.912   0.264
10553TIP3    H231601   0.527   7.872   0.389
10554TIP3   OH231602   3.698   7.198   6.210
10554TIP3    H131603   3.744   7.232   6.287
10554TIP3    H231604   3.702   7.270   6.147
10555TIP3   OH231605   3.699   4.727   0.212
10555TIP3    H131606   3.774   4.670   0.229
10555TIP3    H231607   3.652   4.731   0.295
10556TIP3   OH231608   6.100   4.128   2.662
10556TIP3    H131609   6.139   4.108   2.577
10556TIP3    H231610   6.124   4.055   2.718
10557TIP3   OH231611   3.671   2.454   0.567
10557TIP3    H131612   3.615   2.437   0.643
10557TIP3    H231613   3.618   2.425   0.492
10558TIP3   OH231614   1.531   4.784   3.287
10558TIP3    H131615   1.540   4.699   3.245
10558TIP3    H231616   1.441   4.812   3.267
10559TIP3   OH231617   4.698   1.774   1.166
10559TIP3    H131618   4.635   1.802   1.099
10559TIP3    H231619   4.666   1.815   1.247
10560TIP3   OH231620   3.575   2.696   2.073
10560TIP3    H131621   3.587   2.601   2.082
10560TIP3    H231622   3.480   2.708   2.071
10561TIP3   OH231623   5.333   6.684   4.421
10561TIP3    H131624   5.394   6.730   4.478
10561TIP3    H231625   5.255   6.739   4.420
10562TIP3   OH231626   0.349   1.058   6.367
10562TIP3    H131627   0.358   0.964   6.352
10562TIP3    H231628   0.431   1.085   6.408
10563TIP3   OH231629   0.643   2.849   4.893
10563TIP3    H131630   0.713   2.915   4.892
10563TIP3    H231631   0.584   2.876   4.823
10564TIP3   OH231632   7.814   1.953   4.506
10564TIP3    H131633   7.753   2.015   4.465
10564TIP3    H231634   7.846   1.900   4.434
10565TIP3   OH231635   6.059   1.552   4.642
10565TIP3    H131636   5.994   1.565   4.573
10565TIP3    H231637   6.105   1.471   4.618
10566TIP3   OH231638   2.248   3.085   2.317
10566TIP3    H131639   2.285   3.047   2.396
10566TIP3    H231640   2.165   3.123   2.345
10567TIP3   OH231641   4.718   1.148   0.903
10567TIP3    H131642   4.629   1.157   0.939
10567TIP3    H231643   4.770   1.211   0.952
10568TIP3   OH231644   6.912   6.217   6.757
10568TIP3    H131645   6.926   6.261   6.841
10568TIP3    H231646   6.954   6.132   6.768
10569TIP3   OH231647   5.161   7.544   2.742
10569TIP3    H131648   5.179   7.486   2.816
10569TIP3    H231649   5.172   7.489   2.665
10570TIP3   OH231650   2.923   2.931   1.107
10570TIP3    H131651   2.961   2.976   1.182
10570TIP3    H231652   2.872   2.859   1.145
10571TIP3   OH231653   6.337   5.547   5.227
10571TIP3    H131654   6.389   5.567   5.305
10571TIP3    H231655   6.401   5.518   5.162
10572TIP3   OH231656   8.025   4.683   3.853
10572TIP3    H131657   7.969   4.757   3.834
10572TIP3    H231658   8.078   4.711   3.927
10573TIP3   OH231659   3.452   2.447   3.046
10573TIP3    H131660   3.518   2.503   3.087
10573TIP3    H231661   3.454   2.366   3.098
10574TIP3   OH231662   3.770   1.149   6.775
10574TIP3    H131663   3.831   1.191   6.836
10574TIP3    H231664   3.805   1.061   6.762
10575TIP3   OH231665   4.151   0.774   4.484
10575TIP3    H131666   4.104   0.839   4.536
10575TIP3    H231667   4.241   0.777   4.517
10576TIP3   OH231668   0.815   7.302   6.325
10576TIP3    H131669   0.909   7.313   6.309
10576TIP3    H231670   0.773   7.367   6.270
10577TIP3   OH231671   7.823   4.631   2.924
10577TIP3    H131672   7.886   4.672   2.983
10577TIP3    H231673   7.763   4.583   2.981
10578TIP3   OH231674   1.949   1.183   0.807
10578TIP3    H131675   1.874   1.185   0.748
10578TIP3    H231676   1.946   1.267   0.853
10579TIP3   OH231677   2.631   5.977   4.206
10579TIP3    H131678   2.571   6.015   4.142
10579TIP3    H231679   2.718   6.009   4.180
10580TIP3   OH231680   6.325   4.610   4.474
10580TIP3    H131681   6.302   4.650   4.391
10580TIP3    H231682   6.255   4.547   4.492
10581TIP3   OH231683   0.144   2.950   1.477
10581TIP3    H131684   0.207   3.021   1.491
10581TIP3    H231685   0.194   2.870   1.491
10582TIP3   OH231686   3.398   2.283   6.030
10582TIP3    H131687   3.490   2.298   6.010
10582TIP3    H231688   3.388   2.188   6.032
10583TIP3   OH231689   5.046   3.402   5.608
10583TIP3    H131690   5.028   3.383   5.700
10583TIP3    H231691   5.039   3.497   5.602
10584TIP3   OH231692   7.943   5.492   2.502
10584TIP3    H131693   7.968   5.408   2.541
10584TIP3    H231694   7.848   5.497   2.513
10585TIP3   OH231695   6.686   4.009   4.233
10585TIP3    H131696   6.625   4.033   4.302
10585TIP3    H231697   6.772   4.007   4.276
10586TIP3   OH231698   6.956   0.992   5.497
10586TIP3    H131699   6.968   1.064   5.435
10586TIP3    H231700   7.033   0.995   5.554
10587TIP3   OH231701   1.323   1.483   0.402
10587TIP3    H131702   1.334   1.427   0.325
10587TIP3    H231703   1.404   1.473   0.451
10588TIP3   OH231704   4.151   7.081   3.556
10588TIP3    H131705   4.217   7.083   3.488
10588TIP3    H231706   4.086   7.147   3.529
10589TIP3   OH231707   2.029   7.600   1.973
10589TIP3    H131708   1.964   7.651   2.022
10589TIP3    H231709   2.113   7.621   2.015
10590TIP3   OH231710   6.556   0.809   0.531
10590TIP3    H131711   6.569   0.872   0.460
10590TIP3    H231712   6.635   0.754   0.530
10591TIP3   OH231713   8.356   0.934   5.722
10591TIP3    H131714   8.261   0.939   5.735
10591TIP3    H231715   8.391   0.911   5.808
10592TIP3   OH231716   0.626   0.855   6.151
10592TIP3    H131717   0.577   0.779   6.183
10592TIP3    H231718   0.562   0.903   6.098
10593TIP3   OH231719   5.350   7.247   1.966
10593TIP3    H131720   5.333   7.304   2.040
10593TIP3    H231721   5.386   7.305   1.898
10594TIP3   OH231722   6.971   2.564   2.497
10594TIP3    H131723   7.063   2.588   2.489
10594TIP3    H231724   6.925   2.648   2.500
10595TIP3   OH231725   7.067   1.155   4.290
10595TIP3    H131726   7.090   1.151   4.198
10595TIP3    H231727   7.010   1.231   4.298
10596TIP3   OH231728   2.840   7.438   3.535
10596TIP3    H131729   2.923   7.409   3.499
10596TIP3    H231730   2.822   7.521   3.491
10597TIP3   OH231731   3.493   2.090   6.250
10597TIP3    H131732   3.585   2.115   6.239
10597TIP3    H231733   3.449   2.171   6.274
10598TIP3   OH231734   6.287   2.025   5.275
10598TIP3    H131735   6.281   1.946   5.329
10598TIP3    H231736   6.249   2.094   5.330
10599TIP3   OH231737   2.618   4.054   0.659
10599TIP3    H131738   2.672   4.003   0.598
10599TIP3    H231739   2.581   4.124   0.605
10600TIP3   OH231740   3.162   2.416   6.147
10600TIP3    H131741   3.094   2.351   6.166
10600TIP3    H231742   3.226   2.370   6.094
10601TIP3   OH231743   3.071   2.830   1.987
10601TIP3    H131744   2.999   2.768   1.997
10601TIP3    H231745   3.068   2.854   1.894
10602TIP3   OH231746   0.548   6.803   4.327
10602TIP3    H131747   0.567   6.835   4.415
10602TIP3    H231748   0.631   6.812   4.280
10603TIP3   OH231749   7.200   6.851   5.459
10603TIP3    H131750   7.240   6.938   5.460
10603TIP3    H231751   7.106   6.867   5.461
10604TIP3   OH231752   6.426   3.724   5.572
10604TIP3    H131753   6.391   3.636   5.559
10604TIP3    H231754   6.376   3.759   5.646
10605TIP3   OH231755   6.750   0.762   4.830
10605TIP3    H131756   6.665   0.743   4.789
10605TIP3    H231757   6.743   0.725   4.918
10606TIP3   OH231758   7.604   2.329   0.271
10606TIP3    H131759   7.596   2.257   0.209
10606TIP3    H231760   7.543   2.308   0.341
10607TIP3   OH231761   6.228   2.861   0.102
10607TIP3    H131762   6.139   2.895   0.107
10607TIP3    H231763   6.280   2.924   0.153
10608TIP3   OH231764   7.183   2.637   5.852
10608TIP3    H131765   7.179   2.642   5.757
10608TIP3    H231766   7.162   2.546   5.873
10609TIP3   OH231767   6.837   1.189   3.332
10609TIP3    H131768   6.867   1.110   3.377
10609TIP3    H231769   6.917   1.226   3.294
10610TIP3   OH231770   1.324   6.514   2.755
10610TIP3    H131771   1.251   6.499   2.695
10610TIP3    H231772   1.290   6.575   2.820
10611TIP3   OH231773   7.196   4.013   4.230
10611TIP3    H131774   7.215   3.970   4.147
10611TIP3    H231775   7.279   4.011   4.278
10612TIP3   OH231776   3.665   7.560   2.171
10612TIP3    H131777   3.737   7.520   2.123
10612TIP3    H231778   3.678   7.533   2.262
10613TIP3   OH231779   5.925   4.731   1.480
10613TIP3    H131780   5.982   4.790   1.431
10613TIP3    H231781   5.985   4.672   1.526
10614TIP3   OH231782   5.736   7.799   1.770
10614TIP3    H131783   5.796   7.770   1.839
10614TIP3    H231784   5.757   7.743   1.695
10615TIP3   OH231785   5.405   3.909   5.830
10615TIP3    H131786   5.337   3.854   5.869
10615TIP3    H231787   5.482   3.895   5.886
10616TIP3   OH231788   7.005   0.821   1.548
10616TIP3    H131789   7.057   0.780   1.479
10616TIP3    H231790   7.037   0.781   1.629
10617TIP3   OH231791   8.145   2.874   1.415
10617TIP3    H131792   8.211   2.924   1.366
10617TIP3    H231793   8.196   2.810   1.464
10618TIP3   OH231794   3.101   1.609   4.663
10618TIP3    H131795   3.042   1.545   4.701
10618TIP3    H231796   3.163   1.629   4.734
10619TIP3   OH231797   6.145   6.616   5.658
10619TIP3    H131798   6.076   6.549   5.660
10619TIP3    H231799   6.142   6.650   5.569
10620TIP3   OH231800   5.195   2.929   3.431
10620TIP3    H131801   5.243   2.848   3.413
10620TIP3    H231802   5.178   2.966   3.344
10621TIP3   OH231803   5.502   0.252   1.054
10621TIP3    H131804   5.496   0.280   1.145
10621TIP3    H231805   5.588   0.209   1.048
10622TIP3   OH231806   3.780   1.299   4.292
10622TIP3    H131807   3.854   1.347   4.254
10622TIP3    H231808   3.811   1.273   4.379
10623TIP3   OH231809   8.026   6.123   0.732
10623TIP3    H131810   8.075   6.150   0.810
10623TIP3    H231811   8.075   6.161   0.659
10624TIP3   OH231812   4.996   0.465   4.209
10624TIP3    H131813   4.913   0.498   4.243
10624TIP3    H231814   5.036   0.420   4.284
10625TIP3   OH231815   1.811   4.756   2.530
10625TIP3    H131816   1.751   4.830   2.542
10625TIP3    H231817   1.757   4.688   2.488
10626TIP3   OH231818   0.409   5.005   5.905
10626TIP3    H131819   0.467   4.928   5.908
10626TIP3    H231820   0.460   5.071   5.857
10627TIP3   OH231821   0.200   4.054   0.933
10627TIP3    H131822   0.272   4.027   0.990
10627TIP3    H231823   0.234   4.130   0.886
10628TIP3   OH231824   3.926   4.447   6.310
10628TIP3    H131825   3.981   4.409   6.377
10628TIP3    H231826   3.964   4.416   6.227
10629TIP3   OH231827   6.435   1.756   2.951
10629TIP3    H131828   6.446   1.850   2.968
10629TIP3    H231829   6.445   1.714   3.036
10630TIP3   OH231830   0.933   3.731   6.522
10630TIP3    H131831   0.900   3.744   6.611
10630TIP3    H231832   0.969   3.816   6.497
10631TIP3   OH231833   8.017   4.333   2.521
10631TIP3    H131834   8.085   4.273   2.553
10631TIP3    H231835   7.982   4.374   2.600
10632TIP3   OH231836   0.574   6.252   1.184
10632TIP3    H131837   0.555   6.244   1.278
10632TIP3    H231838   0.514   6.320   1.153
10633TIP3   OH231839   0.378   1.177   4.188
10633TIP3    H131840   0.372   1.169   4.283
10633TIP3    H231841   0.398   1.270   4.173
10634TIP3   OH231842   4.293   2.687   2.624
10634TIP3    H131843   4.377   2.677   2.579
10634TIP3    H231844   4.310   2.752   2.692
10635TIP3   OH231845   8.336   7.102   0.256
10635TIP3    H131846   8.353   7.190   0.288
10635TIP3    H231847   8.423   7.065   0.240
10636TIP3   OH231848   7.389   7.364   0.914
10636TIP3    H131849   7.427   7.277   0.907
10636TIP3    H231850   7.340   7.375   0.833
10637TIP3   OH231851   4.575   6.360   6.387
10637TIP3    H131852   4.490   6.374   6.429
10637TIP3    H231853   4.554   6.329   6.299
10638TIP3   OH231854   2.566   4.906   5.737
10638TIP3    H131855   2.528   4.917   5.824
10638TIP3    H231856   2.588   4.813   5.731
10639TIP3   OH231857   5.722   0.107   1.058
10639TIP3    H131858   5.678   0.022   1.064
10639TIP3    H231859   5.809   0.092   1.096
10640TIP3   OH231860   2.988   3.950   4.908
10640TIP3    H131861   3.052   4.019   4.890
10640TIP3    H231862   3.016   3.876   4.854
10641TIP3   OH231863   5.861   6.044   6.226
10641TIP3    H131864   5.916   6.025   6.151
10641TIP3    H231865   5.792   5.977   6.223
10642TIP3   OH231866   2.999   2.812   3.212
10642TIP3    H131867   3.052   2.825   3.290
10642TIP3    H231868   3.045   2.858   3.142
10643TIP3   OH231869   5.840   2.681   4.108
10643TIP3    H131870   5.808   2.593   4.084
10643TIP3    H231871   5.784   2.741   4.059
10644TIP3   OH231872   2.743   1.783   6.448
10644TIP3    H131873   2.725   1.747   6.535
10644TIP3    H231874   2.656   1.795   6.409
10645TIP3   OH231875   2.127   0.439   3.932
10645TIP3    H131876   2.118   0.347   3.906
10645TIP3    H231877   2.198   0.439   3.996
10646TIP3   OH231878   1.566   5.700   3.660
10646TIP3    H131879   1.593   5.614   3.694
10646TIP3    H231880   1.539   5.749   3.737
10647TIP3   OH231881   1.116   5.794   3.109
10647TIP3    H131882   1.042   5.734   3.104
10647TIP3    H231883   1.086   5.873   3.063
10648TIP3   OH231884   6.066   5.889   3.828
10648TIP3    H131885   6.090   5.905   3.920
10648TIP3    H231886   6.150   5.887   3.782
10649TIP3   OH231887   6.885   7.744   0.445
10649TIP3    H131888   6.946   7.688   0.494
10649TIP3    H231889   6.936   7.823   0.426
10650TIP3   OH231890   0.973   7.209   4.379
10650TIP3    H131891   1.053   7.250   4.409
10650TIP3    H231892   0.905   7.244   4.437
10651TIP3   OH231893   7.734   0.069   1.884
10651TIP3    H131894   7.816   0.023   1.903
10651TIP3    H231895   7.756   0.162   1.896
10652TIP3   OH231896   4.029   4.353   6.531
10652TIP3    H131897   4.092   4.423   6.548
10652TIP3    H231898   3.965   4.360   6.601
10653TIP3   OH231899   2.706   4.785   3.448
10653TIP3    H131900   2.758   4.723   3.397
10653TIP3    H231901   2.621   4.788   3.403
10654TIP3   OH231902   6.629   4.465   5.197
10654TIP3    H131903   6.632   4.385   5.144
10654TIP3    H231904   6.603   4.533   5.136
10655TIP3   OH231905   1.637   0.060   6.129
10655TIP3    H131906   1.607   0.068   6.038
10655TIP3    H231907   1.698  -0.013   6.127
10656TIP3   OH231908   1.866   0.395   5.567
10656TIP3    H131909   1.895   0.318   5.616
10656TIP3    H231910   1.873   0.368   5.475
10657TIP3   OH231911   7.390   0.171   3.662
10657TIP3    H131912   7.366   0.158   3.570
10657TIP3    H231913   7.322   0.228   3.697
10658TIP3   OH231914   4.771   2.031   5.506
10658TIP3    H131915   4.712   2.062   5.575
10658TIP3    H231916   4.822   2.109   5.481
10659TIP3   OH231917   3.098   4.561   3.984
10659TIP3    H131918   3.010   4.595   4.001
10659TIP3    H231919   3.155   4.614   4.040
10660TIP3   OH231920   1.744   7.919   3.695
10660TIP3    H131921   1.732   7.825   3.685
10660TIP3    H231922   1.677   7.958   3.639
10661TIP3   OH231923   5.602   6.147   2.645
10661TIP3    H131924   5.622   6.209   2.716
10661TIP3    H231925   5.545   6.082   2.686
10662TIP3   OH231926   4.886   0.091   1.397
10662TIP3    H131927   4.793   0.097   1.420
10662TIP3    H231928   4.912   0.004   1.428
10663TIP3   OH231929   7.164   7.482   3.449
10663TIP3    H131930   7.149   7.508   3.540
10663TIP3    H231931   7.120   7.397   3.442
10664TIP3   OH231932   1.928   3.362   5.259
10664TIP3    H131933   1.949   3.303   5.187
10664TIP3    H231934   1.922   3.448   5.218
10665TIP3   OH231935   1.374   6.135   6.265
10665TIP3    H131936   1.285   6.105   6.283
10665TIP3    H231937   1.363   6.206   6.202
10666TIP3   OH231938   6.585   1.676   4.029
10666TIP3    H131939   6.600   1.583   4.047
10666TIP3    H231940   6.618   1.688   3.940
10667TIP3   OH231941   5.159   2.803   0.583
10667TIP3    H131942   5.190   2.865   0.649
10667TIP3    H231943   5.159   2.719   0.629
10668TIP3   OH231944   3.399   6.949   5.892
10668TIP3    H131945   3.398   6.854   5.880
10668TIP3    H231946   3.395   6.961   5.987
10669TIP3   OH231947   1.488   6.271   6.674
10669TIP3    H131948   1.515   6.299   6.586
10669TIP3    H231949   1.471   6.352   6.721
10670TIP3   OH231950   7.741   5.939   5.128
10670TIP3    H131951   7.674   5.870   5.125
10670TIP3    H231952   7.740   5.976   5.040
10671TIP3   OH231953   4.734   5.149   1.058
10671TIP3    H131954   4.722   5.112   0.970
10671TIP3    H231955   4.808   5.101   1.094
10672TIP3   OH231956   7.677   2.851   0.647
10672TIP3    H131957   7.750   2.789   0.641
10672TIP3    H231958   7.655   2.872   0.557
10673TIP3   OH231959   6.388   6.811   2.461
10673TIP3    H131960   6.425   6.770   2.383
10673TIP3    H231961   6.313   6.861   2.428
10674TIP3   OH231962   3.469   3.145   0.333
10674TIP3    H131963   3.479   3.152   0.238
10674TIP3    H231964   3.512   3.223   0.368
10675TIP3   OH231965   1.931   5.012   2.690
10675TIP3    H131966   1.989   4.970   2.626
10675TIP3    H231967   1.853   5.034   2.640
10676TIP3   OH231968   6.389   1.656   1.976
10676TIP3    H131969   6.423   1.746   1.980
10676TIP3    H231970   6.294   1.667   1.966
10677TIP3   OH231971   6.853   3.545   1.066
10677TIP3    H131972   6.771   3.585   1.037
10677TIP3    H231973   6.913   3.557   0.992
10678TIP3   OH231974   1.445   2.706   5.682
10678TIP3    H131975   1.528   2.663   5.661
10678TIP3    H231976   1.381   2.663   5.625
10679TIP3   OH231977   7.680   6.982   6.667
10679TIP3    H131978   7.710   7.045   6.733
10679TIP3    H231979   7.738   6.996   6.592
10680TIP3   OH231980   8.209   7.127   4.070
10680TIP3    H131981   8.169   7.096   3.989
10680TIP3    H231982   8.159   7.205   4.093
10681TIP3   OH231983   2.761   3.364   0.404
10681TIP3    H131984   2.816   3.433   0.368
10681TIP3    H231985   2.671   3.392   0.386
10682TIP3   OH231986   0.409   1.628   4.030
10682TIP3    H131987   0.409   1.723   4.040
10682TIP3    H231988   0.488   1.609   3.978
10683TIP3   OH231989   6.739   1.638   0.869
10683TIP3    H131990   6.773   1.581   0.938
10683TIP3    H231991   6.751   1.588   0.789
10684TIP3   OH231992   7.722   3.631   6.717
10684TIP3    H131993   7.636   3.670   6.731
10684TIP3    H231994   7.718   3.597   6.627
10685TIP3   OH231995   4.893   3.994   0.261
10685TIP3    H131996   4.863   3.973   0.172
10685TIP3    H231997   4.856   3.925   0.316
10686TIP3   OH231998   6.485   3.554   3.534
10686TIP3    H131999   6.477   3.526   3.444
10686TIP3    H232000   6.406   3.606   3.551
10687TIP3   OH232001   7.954   3.078   6.644
10687TIP3    H132002   7.902   3.158   6.640
10687TIP3    H232003   7.965   3.052   6.552
10688TIP3   OH232004   6.541   7.481   0.894
10688TIP3    H132005   6.624   7.474   0.940
10688TIP3    H232006   6.494   7.551   0.939
10689TIP3   OH232007   5.235   0.198   2.753
10689TIP3    H132008   5.214   0.282   2.793
10689TIP3    H232009   5.327   0.182   2.777
10690TIP3   OH232010   6.662   6.067   0.341
10690TIP3    H132011   6.575   6.050   0.378
10690TIP3    H232012   6.651   6.146   0.289
10691TIP3   OH232013   7.482   3.443   1.635
10691TIP3    H132014   7.558   3.387   1.618
10691TIP3    H232015   7.412   3.383   1.659
10692TIP3   OH232016   6.089   6.636   0.986
10692TIP3    H132017   6.120   6.667   1.072
10692TIP3    H232018   6.003   6.599   1.004
10693TIP3   OH232019   0.453   5.636   2.913
10693TIP3    H132020   0.364   5.650   2.882
10693TIP3    H232021   0.469   5.707   2.974
10694TIP3   OH232022   7.620   1.622   0.977
10694TIP3    H132023   7.616   1.638   1.071
10694TIP3    H232024   7.599   1.707   0.937
10695TIP3   OH232025   7.042   3.833   2.153
10695TIP3    H132026   6.993   3.833   2.071
10695TIP3    H232027   7.117   3.777   2.135
10696TIP3   OH232028   0.704   6.249   4.097
10696TIP3    H132029   0.711   6.282   4.008
10696TIP3    H232030   0.750   6.165   4.095
10697TIP3   OH232031   6.589   5.966   5.525
10697TIP3    H132032   6.647   5.913   5.578
10697TIP3    H232033   6.609   6.056   5.549
10698TIP3   OH232034   1.570   7.135   1.036
10698TIP3    H132035   1.598   7.113   0.948
10698TIP3    H232036   1.635   7.094   1.093
10699TIP3   OH232037   0.534   4.164   5.755
10699TIP3    H132038   0.590   4.099   5.713
10699TIP3    H232039   0.447   4.149   5.716
10700TIP3   OH232040   8.300   2.425   1.899
10700TIP3    H132041   8.387   2.461   1.915
10700TIP3    H232042   8.313   2.364   1.826
10701TIP3   OH232043   2.855   2.328   2.756
10701TIP3    H132044   2.944   2.338   2.723
10701TIP3    H232045   2.826   2.418   2.773
10702TIP3   OH232046   2.962   0.185   3.850
10702TIP3    H132047   2.894   0.122   3.872
10702TIP3    H232048   2.921   0.270   3.862
10703TIP3   OH232049   2.282   5.670   6.660
10703TIP3    H132050   2.270   5.738   6.726
10703TIP3    H232051   2.363   5.693   6.616
10704TIP3   OH232052   7.737   3.431   5.361
10704TIP3    H132053   7.781   3.516   5.362
10704TIP3    H232054   7.734   3.406   5.454
10705TIP3   OH232055   5.123   6.009   6.249
10705TIP3    H132056   5.062   5.962   6.192
10705TIP3    H232057   5.116   6.100   6.220
10706TIP3   OH232058   2.061   7.619   5.856
10706TIP3    H132059   2.148   7.644   5.824
10706TIP3    H232060   2.077   7.542   5.911
10707TIP3   OH232061   4.755   1.020   5.352
10707TIP3    H132062   4.729   0.990   5.439
10707TIP3    H232063   4.798   1.104   5.368
10708TIP3   OH232064   0.952   6.344   1.784
10708TIP3    H132065   0.978   6.371   1.696
10708TIP3    H232066   0.856   6.340   1.780
10709TIP3   OH232067   7.871   3.927   2.057
10709TIP3    H132068   7.846   3.979   2.134
10709TIP3    H232069   7.857   3.836   2.084
10710TIP3   OH232070   7.897   2.298   5.985
10710TIP3    H132071   7.867   2.360   5.918
10710TIP3    H232072   7.840   2.315   6.060
10711TIP3   OH232073   2.871   3.539   5.698
10711TIP3    H132074   2.800   3.585   5.653
10711TIP3    H232075   2.941   3.532   5.633
10712TIP3   OH232076   2.604   7.200   6.324
10712TIP3    H132077   2.668   7.158   6.382
10712TIP3    H232078   2.543   7.130   6.301
10713TIP3   OH232079   7.712   5.385   4.574
10713TIP3    H132080   7.790   5.438   4.589
10713TIP3    H232081   7.747   5.301   4.541
10714TIP3   OH232082   3.532   1.058   2.619
10714TIP3    H132083   3.542   1.050   2.524
10714TIP3    H232084   3.620   1.080   2.650
10715TIP3   OH232085   6.915   4.764   2.343
10715TIP3    H132086   6.891   4.688   2.291
10715TIP3    H232087   7.009   4.774   2.329
10716TIP3   OH232088   5.382   4.178   5.415
10716TIP3    H132089   5.420   4.266   5.419
10716TIP3    H232090   5.304   4.183   5.469
10717TIP3   OH232091  -0.025   6.065   6.325
10717TIP3    H132092  -0.050   5.976   6.351
10717TIP3    H232093   0.058   6.080   6.370
10718TIP3   OH232094   3.191   4.076   4.475
10718TIP3    H132095   3.269   4.132   4.476
10718TIP3    H232096   3.225   3.987   4.468
10719TIP3   OH232097   3.809   0.656   2.067
10719TIP3    H132098   3.726   0.619   2.036
10719TIP3    H232099   3.859   0.580   2.096
10720TIP3   OH232100   0.771   0.937   2.865
10720TIP3    H132101   0.844   0.920   2.924
10720TIP3    H232102   0.696   0.896   2.908
10721TIP3   OH232103   7.739   6.291   1.292
10721TIP3    H132104   7.652   6.319   1.321
10721TIP3    H232105   7.760   6.216   1.347
10722TIP3   OH232106   3.223   4.703   5.329
10722TIP3    H132107   3.226   4.623   5.382
10722TIP3    H232108   3.133   4.734   5.338
10723TIP3   OH232109   6.124   6.667   2.286
10723TIP3    H132110   6.209   6.680   2.245
10723TIP3    H232111   6.063   6.654   2.214
10724TIP3   OH232112   4.590   7.203   1.302
10724TIP3    H132113   4.589   7.288   1.347
10724TIP3    H232114   4.528   7.149   1.352
10725TIP3   OH232115   3.820   7.316   3.805
10725TIP3    H132116   3.863   7.336   3.888
10725TIP3    H232117   3.871   7.243   3.769
10726TIP3   OH232118   6.318   4.635   5.235
10726TIP3    H132119   6.362   4.639   5.320
10726TIP3    H232120   6.389   4.640   5.171
10727TIP3   OH232121   1.127   3.789   4.178
10727TIP3    H132122   1.185   3.733   4.127
10727TIP3    H232123   1.054   3.808   4.119
10728TIP3   OH232124   4.218   3.511   0.856
10728TIP3    H132125   4.268   3.563   0.918
10728TIP3    H232126   4.280   3.445   0.825
10729TIP3   OH232127   7.294   3.502   2.483
10729TIP3    H132128   7.212   3.453   2.478
10729TIP3    H232129   7.329   3.482   2.570
10730TIP3   OH232130   4.344   1.447   2.172
10730TIP3    H132131   4.313   1.431   2.083
10730TIP3    H232132   4.431   1.485   2.162
10731TIP3   OH232133   6.730   6.595   0.205
10731TIP3    H132134   6.802   6.577   0.265
10731TIP3    H232135   6.657   6.620   0.261
10732TIP3   OH232136   1.835   0.314   6.123
10732TIP3    H132137   1.842   0.289   6.030
10732TIP3    H232138   1.871   0.239   6.170
10733TIP3   OH232139   7.659   0.688   6.080
10733TIP3    H132140   7.620   0.667   5.995
10733TIP3    H232141   7.709   0.610   6.103
10734TIP3   OH232142   3.737   7.765   3.841
10734TIP3    H132143   3.774   7.827   3.778
10734TIP3    H232144   3.642   7.775   3.831
10735TIP3   OH232145   6.654   4.203   6.333
10735TIP3    H132146   6.560   4.210   6.315
10735TIP3    H232147   6.696   4.235   6.253
10736TIP3   OH232148   3.570   1.262   0.355
10736TIP3    H132149   3.569   1.175   0.315
10736TIP3    H232150   3.531   1.250   0.441
10737TIP3   OH232151   4.171   1.797   2.532
10737TIP3    H132152   4.195   1.709   2.502
10737TIP3    H232153   4.075   1.795   2.536
10738TIP3   OH232154   8.139   0.356   5.183
10738TIP3    H132155   8.195   0.427   5.149
10738TIP3    H232156   8.169   0.278   5.136
10739TIP3   OH232157   7.717   6.804   6.056
10739TIP3    H132158   7.705   6.709   6.060
10739TIP3    H232159   7.670   6.831   5.977
10740TIP3   OH232160   6.980   5.705   4.758
10740TIP3    H132161   7.059   5.759   4.756
10740TIP3    H232162   6.938   5.728   4.841
10741TIP3   OH232163   2.577   1.777   3.879
10741TIP3    H132164   2.491   1.801   3.846
10741TIP3    H232165   2.625   1.746   3.802
10742TIP3   OH232166   4.437   0.635   4.625
10742TIP3    H132167   4.495   0.634   4.701
10742TIP3    H232168   4.432   0.728   4.600
10743TIP3   OH232169   3.028   3.836   0.815
10743TIP3    H132170   2.987   3.876   0.738
10743TIP3    H232171   3.064   3.910   0.864
10744TIP3   OH232172   2.588   3.262   1.950
10744TIP3    H132173   2.539   3.211   2.016
10744TIP3    H232174   2.520   3.305   1.898
10745TIP3   OH232175   2.428   2.238   3.667
10745TIP3    H132176   2.449   2.173   3.601
10745TIP3    H232177   2.429   2.322   3.620
10746TIP3   OH232178   4.009   1.294   4.911
10746TIP3    H132179   3.998   1.314   4.818
10746TIP3    H232180   4.100   1.265   4.919
10747TIP3   OH232181   0.279   2.842   6.366
10747TIP3    H132182   0.333   2.867   6.441
10747TIP3    H232183   0.280   2.919   6.309
10748TIP3   OH232184   3.310   5.888   3.566
10748TIP3    H132185   3.396   5.928   3.581
10748TIP3    H232186   3.256   5.919   3.638
10749TIP3   OH232187   3.610   5.790   5.636
10749TIP3    H132188   3.515   5.793   5.634
10749TIP3    H232189   3.638   5.868   5.589
10750TIP3   OH232190   6.360   2.869   6.662
10750TIP3    H132191   6.267   2.887   6.676
10750TIP3    H232192   6.372   2.779   6.693
10751TIP3   OH232193   4.506   6.406   3.154
10751TIP3    H132194   4.540   6.482   3.107
10751TIP3    H232195   4.451   6.361   3.089
10752TIP3   OH232196   7.912   7.592   4.703
10752TIP3    H132197   7.890   7.598   4.611
10752TIP3    H232198   7.999   7.552   4.704
10753TIP3   OH232199   4.345   2.912   1.250
10753TIP3    H132200   4.311   2.950   1.169
10753TIP3    H232201   4.397   2.837   1.220
10754TIP3   OH232202   8.101   6.000   3.383
10754TIP3    H132203   8.096   5.906   3.400
10754TIP3    H232204   8.050   6.012   3.303
10755TIP3   OH232205   8.239   3.930   4.027
10755TIP3    H132206   8.328   3.961   4.039
10755TIP3    H232207   8.244   3.870   3.952
10756TIP3   OH232208   0.093   6.696   2.698
10756TIP3    H132209   0.022   6.746   2.739
10756TIP3    H232210   0.120   6.634   2.766
10757TIP3   OH232211   5.359   1.430   6.007
10757TIP3    H132212   5.455   1.426   6.015
10757TIP3    H232213   5.337   1.519   6.034
10758TIP3   OH232214   3.044   4.649   2.978
10758TIP3    H132215   2.997   4.713   3.030
10758TIP3    H232216   3.079   4.699   2.904
10759TIP3   OH232217   6.377   4.213   2.534
10759TIP3    H132218   6.443   4.273   2.501
10759TIP3    H232219   6.399   4.201   2.627
10760TIP3   OH232220   6.696   4.541   0.268
10760TIP3    H132221   6.716   4.573   0.356
10760TIP3    H232222   6.666   4.619   0.221
10761TIP3   OH232223   1.846   2.279   3.323
10761TIP3    H132224   1.820   2.188   3.311
10761TIP3    H232225   1.763   2.326   3.333
10762TIP3   OH232226   4.026   2.303   2.881
10762TIP3    H132227   4.038   2.306   2.787
10762TIP3    H232228   3.964   2.373   2.900
10763TIP3   OH232229   0.759   0.700   5.378
10763TIP3    H132230   0.803   0.769   5.429
10763TIP3    H232231   0.700   0.658   5.440
10764TIP3   OH232232   7.786   3.960   3.938
10764TIP3    H132233   7.770   4.050   3.909
10764TIP3    H232234   7.877   3.943   3.913
10765TIP3   OH232235   3.665   4.734   4.330
10765TIP3    H132236   3.655   4.639   4.338
10765TIP3    H232237   3.593   4.762   4.274
10766TIP3   OH232238   3.300   4.027   3.214
10766TIP3    H132239   3.287   3.965   3.287
10766TIP3    H232240   3.322   4.109   3.256
10767TIP3   OH232241   3.572   3.646   5.337
10767TIP3    H132242   3.620   3.566   5.314
10767TIP3    H232243   3.495   3.614   5.383
10768TIP3   OH232244   6.584   3.043   0.629
10768TIP3    H132245   6.516   2.981   0.602
10768TIP3    H232246   6.666   3.000   0.607
10769TIP3   OH232247   4.345   5.065   2.704
10769TIP3    H132248   4.328   5.026   2.619
10769TIP3    H232249   4.273   5.035   2.759
10770TIP3   OH232250   4.309   5.833   5.482
10770TIP3    H132251   4.349   5.897   5.540
10770TIP3    H232252   4.217   5.858   5.479
10771TIP3   OH232253   4.566   6.548   2.684
10771TIP3    H132254   4.555   6.455   2.662
10771TIP3    H232255   4.660   6.564   2.673
10772TIP3   OH232256   1.294   6.592   5.141
10772TIP3    H132257   1.354   6.614   5.212
10772TIP3    H232258   1.211   6.633   5.166
10773TIP3   OH232259   6.331   2.368   2.189
10773TIP3    H132260   6.336   2.428   2.115
10773TIP3    H232261   6.305   2.422   2.263
10774TIP3   OH232262   2.139   0.436   5.234
10774TIP3    H132263   2.185   0.379   5.172
10774TIP3    H232264   2.171   0.524   5.214
10775TIP3   OH232265   4.745   1.528   4.826
10775TIP3    H132266   4.699   1.546   4.744
10775TIP3    H232267   4.678   1.491   4.884
10776TIP3   OH232268   7.056   5.708   3.112
10776TIP3    H132269   7.040   5.643   3.180
10776TIP3    H232270   7.003   5.679   3.038
10777TIP3   OH232271   3.273   0.956   3.419
10777TIP3    H132272   3.219   1.017   3.368
10777TIP3    H232273   3.224   0.874   3.416
10778TIP3   OH232274   6.634   7.454   2.286
10778TIP3    H132275   6.569   7.467   2.355
10778TIP3    H232276   6.603   7.376   2.239
10779TIP3   OH232277   1.089   1.759   3.399
10779TIP3    H132278   1.021   1.818   3.367
10779TIP3    H232279   1.053   1.671   3.386
10780TIP3   OH232280   6.945   3.175   3.497
10780TIP3    H132281   6.872   3.186   3.436
10780TIP3    H232282   6.913   3.112   3.562
10781TIP3   OH232283   5.915   5.425   0.398
10781TIP3    H132284   5.852   5.384   0.457
10781TIP3    H232285   5.907   5.377   0.316
10782TIP3   OH232286   2.607   7.043   2.697
10782TIP3    H132287   2.530   7.010   2.652
10782TIP3    H232288   2.575   7.071   2.783
10783TIP3   OH232289   5.404   4.565   6.045
10783TIP3    H132290   5.439   4.516   6.119
10783TIP3    H232291   5.453   4.534   5.969
10784TIP3   OH232292   7.363   7.498   3.845
10784TIP3    H132293   7.384   7.555   3.919
10784TIP3    H232294   7.268   7.498   3.841
10785TIP3   OH232295   5.620   0.381   0.772
10785TIP3    H132296   5.627   0.287   0.790
10785TIP3    H232297   5.652   0.423   0.851
10786TIP3   OH232298   4.219   3.436   5.944
10786TIP3    H132299   4.243   3.402   5.859
10786TIP3    H232300   4.180   3.522   5.926
10787TIP3   OH232301   3.635   1.399   1.145
10787TIP3    H132302   3.561   1.341   1.164
10787TIP3    H232303   3.603   1.487   1.163
10788TIP3   OH232304   2.512   4.723   4.181
10788TIP3    H132305   2.476   4.641   4.148
10788TIP3    H232306   2.541   4.703   4.270
10789TIP3   OH232307   2.068   4.813   5.916
10789TIP3    H132308   2.104   4.893   5.952
10789TIP3    H232309   2.082   4.820   5.821
10790TIP3   OH232310   4.801   6.067   0.231
10790TIP3    H132311   4.881   6.083   0.181
10790TIP3    H232312   4.799   6.137   0.297
10791TIP3   OH232313   5.345   1.412   0.820
10791TIP3    H132314   5.271   1.470   0.803
10791TIP3    H232315   5.415   1.471   0.848
10792TIP3   OH232316   5.788   2.060   1.217
10792TIP3    H132317   5.697   2.068   1.244
10792TIP3    H232318   5.825   2.148   1.229
10793TIP3   OH232319   2.160   0.331   4.693
10793TIP3    H132320   2.170   0.389   4.768
10793TIP3    H232321   2.124   0.387   4.624
10794TIP3   OH232322   3.557   6.009   5.483
10794TIP3    H132323   3.480   6.026   5.537
10794TIP3    H232324   3.567   6.089   5.431
10795TIP3   OH232325   6.823   2.820   1.072
10795TIP3    H132326   6.866   2.770   1.003
10795TIP3    H232327   6.734   2.834   1.041
10796TIP3   OH232328   4.644   3.604   2.998
10796TIP3    H132329   4.595   3.674   3.041
10796TIP3    H232330   4.616   3.608   2.906
10797TIP3   OH232331   7.000   3.090   0.941
10797TIP3    H132332   6.990   2.995   0.934
10797TIP3    H232333   7.089   3.107   0.910
10798TIP3   OH232334   2.107   2.487   3.638
10798TIP3    H132335   2.077   2.476   3.548
10798TIP3    H232336   2.071   2.411   3.684
10799TIP3   OH232337   1.934   1.425   0.918
10799TIP3    H132338   1.903   1.494   0.977
10799TIP3    H232339   1.987   1.471   0.853
10800TIP3   OH232340   6.064   7.439   2.037
10800TIP3    H132341   6.152   7.477   2.046
10800TIP3    H232342   6.067   7.391   1.955
10801TIP3   OH232343   2.074   7.219   3.018
10801TIP3    H132344   2.052   7.138   3.063
10801TIP3    H232345   2.002   7.279   3.040
10802TIP3   OH232346   4.346   0.270   1.414
10802TIP3    H132347   4.291   0.266   1.491
10802TIP3    H232348   4.285   0.274   1.340
10803TIP3   OH232349   5.824   3.927   3.445
10803TIP3    H132350   5.783   3.854   3.491
10803TIP3    H232351   5.910   3.894   3.418
10804TIP3   OH232352   7.670   4.762   6.101
10804TIP3    H132353   7.576   4.748   6.088
10804TIP3    H232354   7.687   4.847   6.059
10805TIP3   OH232355   0.389   2.152   1.245
10805TIP3    H132356   0.453   2.222   1.231
10805TIP3    H232357   0.420   2.107   1.324
10806TIP3   OH232358   6.987   7.799   5.889
10806TIP3    H132359   6.936   7.732   5.842
10806TIP3    H232360   6.930   7.875   5.891
10807TIP3   OH232361   6.282   7.687   3.376
10807TIP3    H132362   6.376   7.703   3.366
10807TIP3    H232363   6.276   7.594   3.399
10808TIP3   OH232364   7.733   0.936   4.621
10808TIP3    H132365   7.720   0.953   4.528
10808TIP3    H232366   7.792   1.005   4.651
10809TIP3   OH232367   1.329   4.506   0.215
10809TIP3    H132368   1.372   4.556   0.285
10809TIP3    H232369   1.252   4.558   0.193
10810TIP3   OH232370   0.210   4.416   4.312
10810TIP3    H132371   0.245   4.401   4.225
10810TIP3    H232372   0.264   4.486   4.348
10811TIP3   OH232373   5.342   0.253   6.306
10811TIP3    H132374   5.250   0.234   6.289
10811TIP3    H232375   5.363   0.200   6.383
10812TIP3   OH232376   5.560   1.966   1.706
10812TIP3    H132377   5.608   1.941   1.626
10812TIP3    H232378   5.625   1.961   1.776
10813TIP3   OH232379   7.815   2.355   3.291
10813TIP3    H132380   7.751   2.370   3.222
10813TIP3    H232381   7.824   2.259   3.296
10814TIP3   OH232382   3.108   6.209   4.160
10814TIP3    H132383   3.154   6.136   4.119
10814TIP3    H232384   3.100   6.274   4.090
10815TIP3   OH232385   4.558   2.426   4.073
10815TIP3    H132386   4.543   2.518   4.050
10815TIP3    H232387   4.473   2.395   4.104
10816TIP3   OH232388   3.429   7.874   6.149
10816TIP3    H132389   3.375   7.851   6.225
10816TIP3    H232390   3.500   7.927   6.185
10817TIP3   OH232391   3.541   5.457   1.943
10817TIP3    H132392   3.534   5.377   1.891
10817TIP3    H232393   3.570   5.524   1.881
10818TIP3   OH232394   1.740   5.125   5.364
10818TIP3    H132395   1.778   5.045   5.327
10818TIP3    H232396   1.648   5.104   5.376
10819TIP3   OH232397   0.072   2.313   4.075
10819TIP3    H132398   0.034   2.396   4.047
10819TIP3    H232399   0.122   2.334   4.153
10820TIP3   OH232400   8.267   0.616   0.387
10820TIP3    H132401   8.193   0.670   0.359
10820TIP3    H232402   8.227   0.545   0.438
10821TIP3   OH232403   4.023   2.002   4.776
10821TIP3    H132404   4.118   2.003   4.784
10821TIP3    H232405   4.006   2.052   4.696
10822TIP3   OH232406   1.684   6.250   3.822
10822TIP3    H132407   1.601   6.228   3.863
10822TIP3    H232408   1.705   6.337   3.855
10823TIP3   OH232409   4.141   2.173   4.421
10823TIP3    H132410   4.236   2.165   4.425
10823TIP3    H232411   4.126   2.255   4.373
10824TIP3   OH232412   1.197   3.226   0.663
10824TIP3    H132413   1.249   3.292   0.618
10824TIP3    H232414   1.178   3.161   0.597
10825TIP3   OH232415   5.073   0.001   2.657
10825TIP3    H132416   5.138   0.071   2.666
10825TIP3    H232417   4.988   0.045   2.666
10826TIP3   OH232418   2.660   1.123   4.010
10826TIP3    H132419   2.748   1.096   3.986
10826TIP3    H232420   2.662   1.218   4.009
10827TIP3   OH232421   0.189   2.364   4.308
10827TIP3    H132422   0.182   2.403   4.396
10827TIP3    H232423   0.275   2.392   4.277
10828TIP3   OH232424   8.123   5.689   4.698
10828TIP3    H132425   8.115   5.755   4.628
10828TIP3    H232426   8.108   5.738   4.779
10829TIP3   OH232427   1.570   1.494   1.603
10829TIP3    H132428   1.543   1.474   1.692
10829TIP3    H232429   1.656   1.535   1.612
10830TIP3   OH232430   6.199   7.644   2.584
10830TIP3    H132431   6.225   7.597   2.664
10830TIP3    H232432   6.254   7.607   2.515
10831TIP3   OH232433   3.076   0.097   1.439
10831TIP3    H132434   3.108   0.024   1.385
10831TIP3    H232435   3.061   0.168   1.376
10832TIP3   OH232436   2.350   4.593   6.587
10832TIP3    H132437   2.423   4.536   6.561
10832TIP3    H232438   2.348   4.662   6.521
10833TIP3   OH232439   8.052   1.507   2.525
10833TIP3    H132440   8.131   1.461   2.496
10833TIP3    H232441   8.048   1.491   2.619
10834TIP3   OH232442   7.732   1.010   4.345
10834TIP3    H132443   7.719   1.082   4.284
10834TIP3    H232444   7.824   1.017   4.371
10835TIP3   OH232445   3.435   7.557   5.736
10835TIP3    H132446   3.464   7.639   5.698
10835TIP3    H232447   3.399   7.508   5.662
10836TIP3   OH232448   3.271   4.359   3.203
10836TIP3    H132449   3.336   4.396   3.143
10836TIP3    H232450   3.187   4.371   3.159
10837TIP3   OH232451   5.518   3.448   2.276
10837TIP3    H132452   5.529   3.391   2.353
10837TIP3    H232453   5.568   3.526   2.297
10838TIP3   OH232454   0.989   2.632   1.862
10838TIP3    H132455   0.988   2.648   1.956
10838TIP3    H232456   0.901   2.602   1.841
10839TIP3   OH232457   6.334   3.276   5.721
10839TIP3    H132458   6.426   3.247   5.716
10839TIP3    H232459   6.320   3.293   5.814
10840TIP3   OH232460   1.862   3.184   3.098
10840TIP3    H132461   1.905   3.099   3.105
10840TIP3    H232462   1.889   3.218   3.013
10841TIP3   OH232463   1.503   1.638   3.944
10841TIP3    H132464   1.455   1.711   3.904
10841TIP3    H232465   1.488   1.564   3.884
10842TIP3   OH232466   4.297   0.561   4.155
10842TIP3    H132467   4.342   0.581   4.237
10842TIP3    H232468   4.368   0.551   4.091
10843TIP3   OH232469   6.815   4.122   5.478
10843TIP3    H132470   6.760   4.092   5.406
10843TIP3    H232471   6.868   4.193   5.441
10844TIP3   OH232472   3.754   0.346   5.210
10844TIP3    H132473   3.721   0.394   5.134
10844TIP3    H232474   3.786   0.263   5.174
10845TIP3   OH232475   6.579   1.399   0.605
10845TIP3    H132476   6.574   1.337   0.678
10845TIP3    H232477   6.663   1.444   0.618
10846TIP3   OH232478   2.569   7.035   0.352
10846TIP3    H132479   2.613   7.000   0.274
10846TIP3    H232480   2.476   7.024   0.334
10847TIP3   OH232481   0.294   3.792   0.465
10847TIP3    H132482   0.317   3.885   0.465
10847TIP3    H232483   0.276   3.771   0.373
10848TIP3   OH232484   1.330   6.268   1.755
10848TIP3    H132485   1.313   6.175   1.737
10848TIP3    H232486   1.342   6.307   1.669
10849TIP3   OH232487   8.248   0.227   5.396
10849TIP3    H132488   8.303   0.165   5.348
10849TIP3    H232489   8.208   0.282   5.329
10850TIP3   OH232490   6.260   7.053   2.131
10850TIP3    H132491   6.180   7.016   2.095
10850TIP3    H232492   6.251   7.043   2.226
10851TIP3   OH232493   5.678   2.824   3.128
10851TIP3    H132494   5.719   2.895   3.078
10851TIP3    H232495   5.717   2.744   3.091
10852TIP3   OH232496   3.437   6.533   0.159
10852TIP3    H132497   3.435   6.564   0.249
10852TIP3    H232498   3.502   6.463   0.159
10853TIP3   OH232499   2.972   7.789   1.814
10853TIP3    H132500   3.026   7.815   1.739
10853TIP3    H232501   3.014   7.711   1.849
10854TIP3   OH232502   7.459   4.882   4.036
10854TIP3    H132503   7.424   4.941   4.103
10854TIP3    H232504   7.552   4.875   4.057
10855TIP3   OH232505   2.855   5.527   5.430
10855TIP3    H132506   2.827   5.589   5.498
10855TIP3    H232507   2.951   5.527   5.435
10856TIP3   OH232508   1.958   6.630   4.877
10856TIP3    H132509   2.014   6.660   4.806
10856TIP3    H232510   2.017   6.582   4.936
10857TIP3   OH232511   5.552   4.408   5.709
10857TIP3    H132512   5.462   4.381   5.724
10857TIP3    H232513   5.561   4.413   5.614
10858TIP3   OH232514   4.543   6.681   1.921
10858TIP3    H132515   4.611   6.624   1.956
10858TIP3    H232516   4.562   6.688   1.828
10859TIP3   OH232517   4.444   5.759   5.197
10859TIP3    H132518   4.365   5.783   5.148
10859TIP3    H232519   4.512   5.817   5.162
10860TIP3   OH232520   6.749   1.156   6.106
10860TIP3    H132521   6.721   1.246   6.122
10860TIP3    H232522   6.831   1.148   6.154
10861TIP3   OH232523   2.968   5.669   6.401
10861TIP3    H132524   3.031   5.707   6.340
10861TIP3    H232525   3.008   5.586   6.427
10862TIP3   OH232526   4.988   6.208   6.080
10862TIP3    H132527   5.020   6.226   5.991
10862TIP3    H232528   4.904   6.164   6.066
10863TIP3   OH232529   2.811   2.000   2.964
10863TIP3    H132530   2.834   1.959   3.047
10863TIP3    H232531   2.796   2.092   2.986
10864TIP3   OH232532   1.957   2.052   0.472
10864TIP3    H132533   1.924   2.100   0.548
10864TIP3    H232534   2.015   1.985   0.508
10865TIP3   OH232535   8.232   4.354   5.936
10865TIP3    H132536   8.182   4.274   5.948
10865TIP3    H232537   8.166   4.420   5.912
10866TIP3   OH232538   1.978   4.222   6.300
10866TIP3    H132539   1.953   4.158   6.233
10866TIP3    H232540   1.976   4.306   6.255
10867TIP3   OH232541   7.520   6.615   1.302
10867TIP3    H132542   7.582   6.644   1.368
10867TIP3    H232543   7.501   6.524   1.325
10868TIP3   OH232544   5.498   7.589   5.170
10868TIP3    H132545   5.459   7.557   5.089
10868TIP3    H232546   5.458   7.675   5.183
10869TIP3   OH232547   3.071   2.170   6.268
10869TIP3    H132548   3.147   2.120   6.239
10869TIP3    H232549   3.030   2.116   6.335
10870TIP3   OH232550   3.782   4.642   5.742
10870TIP3    H132551   3.861   4.645   5.689
10870TIP3    H232552   3.711   4.660   5.681
10871TIP3   OH232553   7.703   0.554   2.287
10871TIP3    H132554   7.659   0.471   2.306
10871TIP3    H232555   7.640   0.603   2.235
10872TIP3   OH232556   2.931   5.173   5.768
10872TIP3    H132557   2.947   5.111   5.696
10872TIP3    H232558   2.961   5.257   5.734
10873TIP3   OH232559   4.187   6.160   5.533
10873TIP3    H132560   4.130   6.106   5.587
10873TIP3    H232561   4.176   6.126   5.444
10874TIP3   OH232562   5.209   5.184   6.361
10874TIP3    H132563   5.260   5.109   6.392
10874TIP3    H232564   5.249   5.259   6.405
10875TIP3   OH232565   3.660   2.305   5.939
10875TIP3    H132566   3.634   2.287   5.849
10875TIP3    H232567   3.733   2.367   5.931
10876TIP3   OH232568   3.726   0.316   1.696
10876TIP3    H132569   3.744   0.312   1.790
10876TIP3    H232570   3.760   0.234   1.661
10877TIP3   OH232571   7.786   7.864   3.566
10877TIP3    H132572   7.802   7.771   3.577
10877TIP3    H232573   7.814   7.883   3.476
10878TIP3   OH232574   7.273   3.339   0.841
10878TIP3    H132575   7.259   3.324   0.934
10878TIP3    H232576   7.323   3.421   0.837
10879TIP3   OH232577   1.077   3.977   4.406
10879TIP3    H132578   1.111   3.924   4.334
10879TIP3    H232579   1.009   3.923   4.446
10880TIP3   OH232580   6.099   0.670   0.149
10880TIP3    H132581   6.067   0.652   0.237
10880TIP3    H232582   6.187   0.706   0.162
10881TIP3   OH232583   2.936   0.376   0.160
10881TIP3    H132584   2.841   0.387   0.161
10881TIP3    H232585   2.970   0.465   0.158
10882TIP3   OH232586   1.986   0.348   6.689
10882TIP3    H132587   1.943   0.402   6.623
10882TIP3    H232588   1.993   0.262   6.649
10883TIP3   OH232589   8.035   4.588   4.974
10883TIP3    H132590   7.991   4.653   4.918
10883TIP3    H232591   8.038   4.629   5.060
10884TIP3   OH232592   6.571   6.729   5.631
10884TIP3    H132593   6.567   6.805   5.573
10884TIP3    H232594   6.504   6.746   5.697
10885TIP3   OH232595   7.581   7.884   1.204
10885TIP3    H132596   7.553   7.879   1.295
10885TIP3    H232597   7.529   7.817   1.159
10886TIP3   OH232598   4.304   7.780   0.756
10886TIP3    H132599   4.294   7.875   0.768
10886TIP3    H232600   4.214   7.749   0.742
10887TIP3   OH232601   7.137   2.820   4.749
10887TIP3    H132602   7.197   2.882   4.790
10887TIP3    H232603   7.066   2.874   4.714
10888TIP3   OH232604   5.256   2.701   4.952
10888TIP3    H132605   5.201   2.624   4.946
10888TIP3    H232606   5.270   2.728   4.861
10889TIP3   OH232607   4.235   6.137   3.986
10889TIP3    H132608   4.225   6.042   3.976
10889TIP3    H232609   4.151   6.167   4.021
10890TIP3   OH232610   6.317   2.892   2.121
10890TIP3    H132611   6.326   2.987   2.130
10890TIP3    H232612   6.381   2.857   2.183
10891TIP3   OH232613   1.073   7.050   3.581
10891TIP3    H132614   1.152   7.003   3.556
10891TIP3    H232615   1.073   7.128   3.526
10892TIP3   OH232616   6.548   6.342   6.205
10892TIP3    H132617   6.468   6.298   6.233
10892TIP3    H232618   6.525   6.383   6.122
10893TIP3   OH232619   5.194   3.117   6.523
10893TIP3    H132620   5.103   3.149   6.525
10893TIP3    H232621   5.209   3.084   6.612
10894TIP3   OH232622   2.240   2.247   3.870
10894TIP3    H132623   2.294   2.183   3.916
10894TIP3    H232624   2.299   2.287   3.806
10895TIP3   OH232625   8.424   7.333   2.631
10895TIP3    H132626   8.392   7.274   2.563
10895TIP3    H232627   8.346   7.355   2.682
10896TIP3   OH232628   2.603   2.195   1.442
10896TIP3    H132629   2.688   2.221   1.406
10896TIP3    H232630   2.624   2.150   1.524
10897TIP3   OH232631   5.944   4.389   2.080
10897TIP3    H132632   5.862   4.382   2.128
10897TIP3    H232633   6.011   4.402   2.148
10898TIP3   OH232634   6.528   1.740   3.233
10898TIP3    H132635   6.573   1.739   3.317
10898TIP3    H232636   6.598   1.741   3.167
10899TIP3   OH232637   0.312   5.264   4.867
10899TIP3    H132638   0.299   5.340   4.923
10899TIP3    H232639   0.302   5.298   4.778
10900TIP3   OH232640   4.107   4.900   1.345
10900TIP3    H132641   4.044   4.852   1.399
10900TIP3    H232642   4.174   4.929   1.406
10901TIP3   OH232643   5.083   3.065   0.207
10901TIP3    H132644   5.070   2.972   0.185
10901TIP3    H232645   5.043   3.112   0.134
10902TIP3   OH232646   6.549   2.637   5.306
10902TIP3    H132647   6.540   2.725   5.269
10902TIP3    H232648   6.558   2.651   5.400
10903TIP3   OH232649   3.977   1.492   1.724
10903TIP3    H132650   4.022   1.518   1.805
10903TIP3    H232651   3.940   1.406   1.744
10904TIP3   OH232652   8.350   5.748   5.852
10904TIP3    H132653   8.310   5.796   5.780
10904TIP3    H232654   8.316   5.791   5.931
10905TIP3   OH232655   4.028   5.764   1.409
10905TIP3    H132656   3.950   5.818   1.423
10905TIP3    H232657   4.041   5.764   1.314
10906TIP3   OH232658   1.052   1.497   5.948
10906TIP3    H132659   1.009   1.562   5.892
10906TIP3    H232660   1.113   1.451   5.891
10907TIP3   OH232661   8.162   5.062   5.745
10907TIP3    H132662   8.191   5.013   5.669
10907TIP3    H232663   8.213   5.143   5.743
10908TIP3   OH232664   4.306   5.238   0.544
10908TIP3    H132665   4.341   5.264   0.629
10908TIP3    H232666   4.211   5.238   0.555
10909TIP3   OH232667   2.447   7.425   6.691
10909TIP3    H132668   2.443   7.401   6.784
10909TIP3    H232669   2.521   7.486   6.685
10910TIP3   OH232670   1.502   7.007   6.753
10910TIP3    H132671   1.474   6.986   6.842
10910TIP3    H232672   1.448   7.082   6.728
10911TIP3   OH232673   1.707   3.975   3.581
10911TIP3    H132674   1.756   3.901   3.616
10911TIP3    H232675   1.659   3.938   3.507
10912TIP3   OH232676   7.146   6.859   5.779
10912TIP3    H132677   7.230   6.841   5.738
10912TIP3    H232678   7.144   6.802   5.856
10913TIP3   OH232679   1.114   7.004   4.203
10913TIP3    H132680   1.128   7.022   4.296
10913TIP3    H232681   1.177   7.060   4.158
10914TIP3   OH232682   0.961   7.793   4.166
10914TIP3    H132683   0.999   7.744   4.238
10914TIP3    H232684   0.927   7.873   4.207
10915TIP3   OH232685   8.365   7.155   2.452
10915TIP3    H132686   8.388   7.100   2.377
10915TIP3    H232687   8.280   7.121   2.481
10916TIP3   OH232688   3.030   3.671   4.791
10916TIP3    H132689   3.066   3.586   4.815
10916TIP3    H232690   2.959   3.651   4.731
10917TIP3   OH232691   0.465   6.707   6.401
10917TIP3    H132692   0.454   6.737   6.491
10917TIP3    H232693   0.378   6.674   6.377
10918TIP3   OH232694   8.221   7.779   4.639
10918TIP3    H132695   8.228   7.820   4.725
10918TIP3    H232696   8.135   7.808   4.606
10919TIP3   OH232697   4.163   5.641   6.279
10919TIP3    H132698   4.211   5.559   6.265
10919TIP3    H232699   4.095   5.640   6.213
10920TIP3   OH232700   0.712   2.513   2.870
10920TIP3    H132701   0.738   2.540   2.958
10920TIP3    H232702   0.653   2.582   2.839
10921TIP3   OH232703   5.316   5.973   5.921
10921TIP3    H132704   5.284   5.997   5.834
10921TIP3    H232705   5.310   5.877   5.923
10922TIP3   OH232706   4.023   4.446   6.042
10922TIP3    H132707   3.967   4.523   6.054
10922TIP3    H232708   4.068   4.463   5.959
10923TIP3   OH232709   4.202   1.528   5.611
10923TIP3    H132710   4.218   1.611   5.656
10923TIP3    H232711   4.116   1.500   5.644
10924TIP3   OH232712   4.748   5.854   4.121
10924TIP3    H132713   4.796   5.830   4.200
10924TIP3    H232714   4.675   5.908   4.152
10925TIP3   OH232715   4.110   6.626   5.480
10925TIP3    H132716   4.156   6.655   5.559
10925TIP3    H232717   4.138   6.536   5.467
10926TIP3   OH232718   2.769   7.597   3.868
10926TIP3    H132719   2.779   7.633   3.956
10926TIP3    H232720   2.677   7.609   3.846
10927TIP3   OH232721   0.783   3.652   6.823
10927TIP3    H132722   0.821   3.571   6.791
10927TIP3    H232723   0.859   3.709   6.839
10928TIP3   OH232724   4.983   1.865   5.431
10928TIP3    H132725   5.016   1.921   5.361
10928TIP3    H232726   4.924   1.922   5.481
10929TIP3   OH232727   7.428   1.581   5.478
10929TIP3    H132728   7.369   1.529   5.423
10929TIP3    H232729   7.372   1.650   5.513
10930TIP3   OH232730   2.701   5.736   0.285
10930TIP3    H132731   2.769   5.801   0.268
10930TIP3    H232732   2.624   5.768   0.239
10931TIP3   OH232733   4.026   0.788   1.928
10931TIP3    H132734   3.940   0.752   1.951
10931TIP3    H232735   4.063   0.816   2.012
10932TIP3   OH232736   6.385   7.121   2.708
10932TIP3    H132737   6.460   7.068   2.681
10932TIP3    H232738   6.309   7.064   2.694
10933TIP3   OH232739   7.439   6.372   1.775
10933TIP3    H132740   7.381   6.315   1.724
10933TIP3    H232741   7.497   6.312   1.821
10934TIP3   OH232742   2.941   2.356   6.434
10934TIP3    H132743   2.993   2.299   6.377
10934TIP3    H232744   2.916   2.299   6.508
10935TIP3   OH232745   8.304   6.472   0.091
10935TIP3    H132746   8.269   6.460   0.003
10935TIP3    H232747   8.388   6.428   0.090
10936TIP3   OH232748   5.726   3.020   2.978
10936TIP3    H132749   5.640   3.062   2.971
10936TIP3    H232750   5.787   3.092   2.991
10937TIP3   OH232751   8.322   5.334   3.687
10937TIP3    H132752   8.253   5.267   3.691
10937TIP3    H232753   8.274   5.416   3.674
10938TIP3   OH232754   7.391   1.829   1.930
10938TIP3    H132755   7.437   1.910   1.907
10938TIP3    H232756   7.422   1.765   1.866
10939TIP3   OH232757   5.774   6.652   0.874
10939TIP3    H132758   5.688   6.627   0.841
10939TIP3    H232759   5.799   6.580   0.933
10940TIP3   OH232760   3.884   4.900   0.737
10940TIP3    H132761   3.818   4.912   0.669
10940TIP3    H232762   3.966   4.928   0.696
10941TIP3   OH232763   6.233   7.783   4.276
10941TIP3    H132764   6.152   7.795   4.326
10941TIP3    H232765   6.204   7.749   4.191
10942TIP3   OH232766   7.240   5.428   0.440
10942TIP3    H132767   7.309   5.452   0.377
10942TIP3    H232768   7.190   5.360   0.395
10943TIP3   OH232769   2.463   2.777   4.006
10943TIP3    H132770   2.391   2.755   3.946
10943TIP3    H232771   2.438   2.737   4.089
10944TIP3   OH232772   7.902   6.961   0.544
10944TIP3    H132773   7.994   6.983   0.557
10944TIP3    H232774   7.885   6.983   0.452
10945TIP3   OH232775   0.770   3.154   3.090
10945TIP3    H132776   0.812   3.187   3.011
10945TIP3    H232777   0.680   3.135   3.064
10946TIP3   OH232778   5.043   1.930   4.030
10946TIP3    H132779   5.102   1.881   4.089
10946TIP3    H232780   5.064   2.022   4.046
10947TIP3   OH232781   7.615   6.206   4.031
10947TIP3    H132782   7.678   6.136   4.047
10947TIP3    H232783   7.552   6.198   4.102
10948TIP3   OH232784   3.401   0.413   3.021
10948TIP3    H132785   3.314   0.398   2.986
10948TIP3    H232786   3.460   0.383   2.952
10949TIP3   OH232787   6.843   7.201   5.377
10949TIP3    H132788   6.887   7.203   5.292
10949TIP3    H232789   6.750   7.197   5.355
10950TIP3   OH232790   7.117   6.773   3.563
10950TIP3    H132791   7.152   6.853   3.602
10950TIP3    H232792   7.031   6.762   3.606
10951TIP3   OH232793   3.165   7.842   3.356
10951TIP3    H132794   3.102   7.843   3.284
10951TIP3    H232795   3.170   7.933   3.385
10952TIP3   OH232796   6.818   3.331   3.870
10952TIP3    H132797   6.890   3.385   3.902
10952TIP3    H232798   6.769   3.388   3.811
10953TIP3   OH232799   2.614   1.315   0.976
10953TIP3    H132800   2.616   1.290   1.068
10953TIP3    H232801   2.522   1.310   0.951
10954TIP3   OH232802   0.374   5.570   2.073
10954TIP3    H132803   0.348   5.560   2.164
10954TIP3    H232804   0.436   5.642   2.072
10955TIP3   OH232805   5.740   3.296   2.950
10955TIP3    H132806   5.743   3.261   2.861
10955TIP3    H232807   5.826   3.275   2.987
10956TIP3   OH232808   3.274   4.033   0.780
10956TIP3    H132809   3.334   4.080   0.721
10956TIP3    H232810   3.199   4.092   0.788
10957TIP3   OH232811   4.924   1.307   5.363
10957TIP3    H132812   4.875   1.313   5.445
10957TIP3    H232813   4.983   1.233   5.375
10958TIP3   OH232814   5.983   0.739   6.284
10958TIP3    H132815   5.942   0.685   6.352
10958TIP3    H232816   6.065   0.769   6.323
10959TIP3   OH232817   6.499   6.146   0.840
10959TIP3    H132818   6.452   6.070   0.874
10959TIP3    H232819   6.583   6.145   0.886
10960TIP3   OH232820   7.946   0.224   6.759
10960TIP3    H132821   7.906   0.300   6.802
10960TIP3    H232822   7.953   0.159   6.829
10961TIP3   OH232823   2.890   3.898   0.586
10961TIP3    H132824   2.884   3.826   0.524
10961TIP3    H232825   2.850   3.972   0.541
10962TIP3   OH232826   0.967   7.313   0.998
10962TIP3    H132827   0.940   7.246   1.060
10962TIP3    H232828   0.960   7.271   0.913
10963TIP3   OH232829   7.300   3.203   0.447
10963TIP3    H132830   7.207   3.221   0.434
10963TIP3    H232831   7.303   3.121   0.496
10964TIP3   OH232832   7.983   3.213   3.114
10964TIP3    H132833   7.955   3.131   3.155
10964TIP3    H232834   7.902   3.255   3.086
10965TIP3   OH232835   0.596   2.769   3.838
10965TIP3    H132836   0.521   2.745   3.784
10965TIP3    H232837   0.566   2.759   3.928
10966TIP3   OH232838   3.688   4.410   2.480
10966TIP3    H132839   3.747   4.343   2.447
10966TIP3    H232840   3.628   4.428   2.408
10967TIP3   OH232841   7.998   6.814   2.661
10967TIP3    H132842   8.020   6.757   2.588
10967TIP3    H232843   8.080   6.859   2.682
10968TIP3   OH232844   6.564   6.115   5.946
10968TIP3    H132845   6.610   6.108   6.030
10968TIP3    H232846   6.590   6.200   5.911
10969TIP3   OH232847   5.103   4.744   1.649
10969TIP3    H132848   5.173   4.701   1.698
10969TIP3    H232849   5.122   4.837   1.656
10970TIP3   OH232850   6.561   6.553   6.623
10970TIP3    H132851   6.603   6.560   6.537
10970TIP3    H232852   6.503   6.477   6.615
10971TIP3   OH232853   4.052   1.413   1.482
10971TIP3    H132854   4.130   1.366   1.511
10971TIP3    H232855   4.044   1.486   1.544
10972TIP3   OH232856   6.828   6.508   4.289
10972TIP3    H132857   6.814   6.560   4.210
10972TIP3    H232858   6.740   6.488   4.322
10973TIP3   OH232859   4.648   6.210   2.836
10973TIP3    H132860   4.636   6.169   2.921
10973TIP3    H232861   4.609   6.148   2.774
10974TIP3   OH232862   6.972   6.157   5.583
10974TIP3    H132863   7.063   6.149   5.553
10974TIP3    H232864   6.937   6.068   5.577
10975TIP3   OH232865   5.805   7.004   4.578
10975TIP3    H132866   5.768   7.088   4.606
10975TIP3    H232867   5.890   7.028   4.541
10976TIP3   OH232868   6.461   3.797   2.684
10976TIP3    H132869   6.383   3.850   2.704
10976TIP3    H232870   6.430   3.731   2.622
10977TIP3   OH232871   3.916   1.834   2.676
10977TIP3    H132872   3.976   1.900   2.711
10977TIP3    H232873   3.845   1.885   2.637
10978TIP3   OH232874   7.274   3.207   2.209
10978TIP3    H132875   7.343   3.146   2.236
10978TIP3    H232876   7.268   3.197   2.114
10979TIP3   OH232877   1.359   7.179   2.660
10979TIP3    H132878   1.346   7.274   2.663
10979TIP3    H232879   1.272   7.142   2.676
10980TIP3   OH232880   8.071   0.254   4.158
10980TIP3    H132881   8.025   0.172   4.177
10980TIP3    H232882   8.004   0.309   4.117
10981TIP3   OH232883   1.588   4.597   3.481
10981TIP3    H132884   1.564   4.663   3.416
10981TIP3    H232885   1.527   4.525   3.467
10982TIP3   OH232886   5.088   7.824   2.656
10982TIP3    H132887   5.164   7.879   2.639
10982TIP3    H232888   5.123   7.736   2.667
10983TIP3   OH232889   7.496   7.528   3.088
10983TIP3    H132890   7.420   7.509   3.033
10983TIP3    H232891   7.529   7.612   3.055
10984TIP3   OH232892   3.462   6.762   1.908
10984TIP3    H132893   3.429   6.805   1.830
10984TIP3    H232894   3.463   6.830   1.975
10985TIP3   OH232895   4.402   7.530   4.272
10985TIP3    H132896   4.400   7.604   4.332
10985TIP3    H232897   4.321   7.538   4.221
10986TIP3   OH232898   2.099   4.502   2.589
10986TIP3    H132899   2.157   4.457   2.651
10986TIP3    H232900   2.014   4.460   2.601
10987TIP3   OH232901   3.335   5.758   1.263
10987TIP3    H132902   3.320   5.735   1.171
10987TIP3    H232903   3.421   5.799   1.264
10988TIP3   OH232904   3.686   6.553   4.902
10988TIP3    H132905   3.765   6.605   4.889
10988TIP3    H232906   3.646   6.589   4.982
10989TIP3   OH232907   3.994   6.454   4.511
10989TIP3    H132908   3.958   6.407   4.586
10989TIP3    H232909   3.928   6.444   4.443
10990TIP3   OH232910   1.181   2.702   5.566
10990TIP3    H132911   1.179   2.640   5.493
10990TIP3    H232912   1.146   2.783   5.529
10991TIP3   OH232913   1.383   5.915   4.440
10991TIP3    H132914   1.326   5.984   4.406
10991TIP3    H232915   1.446   5.962   4.495
10992TIP3   OH232916   7.425   1.996   5.488
10992TIP3    H132917   7.397   1.916   5.533
10992TIP3    H232918   7.403   2.066   5.549
10993TIP3   OH232919   5.759   0.089   3.961
10993TIP3    H132920   5.710   0.156   3.912
10993TIP3    H232921   5.692   0.045   4.014
10994TIP3   OH232922   2.131   1.258   6.238
10994TIP3    H132923   2.138   1.300   6.323
10994TIP3    H232924   2.112   1.330   6.177
10995TIP3   OH232925   8.260   4.827   3.393
10995TIP3    H132926   8.255   4.757   3.328
10995TIP3    H232927   8.232   4.786   3.475
10996TIP3   OH232928   2.219   5.799   6.038
10996TIP3    H132929   2.272   5.854   6.096
10996TIP3    H232930   2.129   5.831   6.052
10997TIP3   OH232931   6.459   3.438   2.833
10997TIP3    H132932   6.487   3.352   2.864
10997TIP3    H232933   6.499   3.446   2.746
10998TIP3   OH232934   4.716   4.539   0.975
10998TIP3    H132935   4.647   4.499   1.028
10998TIP3    H232936   4.710   4.632   0.994
10999TIP3   OH232937   4.615   3.934   1.944
10999TIP3    H132938   4.588   3.844   1.930
10999TIP3    H232939   4.664   3.933   2.026
11000TIP3   OH232940   2.887   4.388   4.144
11000TIP3    H132941   2.792   4.383   4.130
11000TIP3    H232942   2.908   4.306   4.189
11001TIP3   OH232943   0.884   2.003   2.957
11001TIP3    H132944   0.834   1.935   3.002
11001TIP3    H232945   0.824   2.077   2.949
11002TIP3   OH232946   4.607   3.878   6.834
11002TIP3    H132947   4.693   3.897   6.796
11002TIP3    H232948   4.618   3.896   6.928
11003TIP3   OH232949   1.666   7.639   2.008
11003TIP3    H132950   1.678   7.734   2.016
11003TIP3    H232951   1.646   7.610   2.097
11004TIP3   OH232952   7.672   6.716   1.518
11004TIP3    H132953   7.612   6.715   1.593
11004TIP3    H232954   7.730   6.641   1.533
11005TIP3   OH232955   5.485   0.712   3.569
11005TIP3    H132956   5.405   0.664   3.546
11005TIP3    H232957   5.505   0.686   3.658
11006TIP3   OH232958   3.740   0.386   5.954
11006TIP3    H132959   3.810   0.446   5.979
11006TIP3    H232960   3.730   0.399   5.859
11007TIP3   OH232961   7.425   7.016   1.541
11007TIP3    H132962   7.481   6.958   1.593
11007TIP3    H232963   7.381   6.959   1.479
11008TIP3   OH232964   1.255   1.536   1.553
11008TIP3    H132965   1.340   1.498   1.576
11008TIP3    H232966   1.248   1.524   1.458
11009TIP3   OH232967   6.568   7.552   2.553
11009TIP3    H132968   6.528   7.496   2.619
11009TIP3    H232969   6.660   7.557   2.578
11010TIP3   OH232970   0.084   0.644   1.168
11010TIP3    H132971   0.104   0.711   1.103
11010TIP3    H232972   0.116   0.681   1.251
11011TIP3   OH232973   3.839   2.558   6.486
11011TIP3    H132974   3.822   2.473   6.446
11011TIP3    H232975   3.934   2.562   6.498
11012TIP3   OH232976   1.288   0.623   3.858
11012TIP3    H132977   1.201   0.588   3.879
11012TIP3    H232978   1.291   0.708   3.901
11013TIP3   OH232979   3.170   0.723   3.377
11013TIP3    H132980   3.186   0.722   3.283
11013TIP3    H232981   3.148   0.632   3.399
11014TIP3   OH232982   4.410   3.677   2.140
11014TIP3    H132983   4.376   3.701   2.054
11014TIP3    H232984   4.353   3.722   2.202
11015TIP3   OH232985   1.373   4.148   4.052
11015TIP3    H132986   1.409   4.079   4.107
11015TIP3    H232987   1.393   4.121   3.962
11016TIP3   OH232988   3.952   2.371   1.190
11016TIP3    H132989   3.941   2.466   1.182
11016TIP3    H232990   3.865   2.339   1.216
11017TIP3   OH232991   6.909   4.977   6.428
11017TIP3    H132992   6.846   5.006   6.362
11017TIP3    H232993   6.938   4.890   6.397
11018TIP3   OH232994   5.363   2.496   4.736
11018TIP3    H132995   5.410   2.425   4.780
11018TIP3    H232996   5.427   2.532   4.675
11019TIP3   OH232997   2.141   1.761   1.403
11019TIP3    H132998   2.201   1.739   1.474
11019TIP3    H232999   2.070   1.809   1.445
11020TIP3   OH233000   2.181   4.697   3.456
11020TIP3    H133001   2.160   4.787   3.433
11020TIP3    H233002   2.196   4.699   3.551
11021TIP3   OH233003   0.591   3.674   3.502
11021TIP3    H133004   0.610   3.590   3.544
11021TIP3    H233005   0.674   3.722   3.507
11022TIP3   OH233006   1.657   4.179   6.439
11022TIP3    H133007   1.648   4.107   6.376
11022TIP3    H233008   1.730   4.153   6.495
11023TIP3   OH233009   4.226   5.608   2.987
11023TIP3    H133010   4.201   5.610   2.894
11023TIP3    H233011   4.260   5.520   3.000
11024TIP3   OH233012   6.420   4.054   4.411
11024TIP3    H133013   6.500   4.096   4.441
11024TIP3    H233014   6.387   4.111   4.342
11025TIP3   OH233015   5.657   0.752   3.261
11025TIP3    H133016   5.566   0.776   3.246
11025TIP3    H233017   5.683   0.803   3.338
11026TIP3   OH233018   2.780   3.275   3.870
11026TIP3    H133019   2.795   3.353   3.816
11026TIP3    H233020   2.764   3.310   3.958
11027TIP3   OH233021   2.334   6.805   3.255
11027TIP3    H133022   2.271   6.781   3.187
11027TIP3    H233023   2.417   6.770   3.225
11028TIP3   OH233024   2.894   5.659   4.166
11028TIP3    H133025   2.825   5.646   4.101
11028TIP3    H233026   2.960   5.593   4.144
11029TIP3   OH233027   4.244   2.168   5.504
11029TIP3    H133028   4.188   2.103   5.547
11029TIP3    H233029   4.302   2.116   5.449
11030TIP3   OH233030   0.912   5.088   4.912
11030TIP3    H133031   0.868   5.153   4.966
11030TIP3    H233032   0.997   5.126   4.892
11031TIP3   OH233033   0.089   1.389   5.348
11031TIP3    H133034   0.124   1.397   5.260
11031TIP3    H233035   0.000   1.422   5.342
11032TIP3   OH233036   8.131   1.803   6.223
11032TIP3    H133037   8.172   1.817   6.308
11032TIP3    H233038   8.170   1.869   6.166
11033TIP3   OH233039   6.278   2.342   0.268
11033TIP3    H133040   6.183   2.337   0.261
11033TIP3    H233041   6.307   2.368   0.181
11034TIP3   OH233042   2.634   4.519   0.328
11034TIP3    H133043   2.562   4.493   0.385
11034TIP3    H233044   2.597   4.586   0.270
11035TIP3   OH233045   7.421   7.957   5.436
11035TIP3    H133046   7.392   7.919   5.352
11035TIP3    H233047   7.485   8.024   5.411
11036TIP3   OH233048   5.189   1.965   6.671
11036TIP3    H133049   5.155   1.992   6.585
11036TIP3    H233050   5.137   2.014   6.734
11037TIP3   OH233051   5.937   4.007   5.560
11037TIP3    H133052   5.887   4.075   5.516
11037TIP3    H233053   5.903   3.925   5.525
11038TIP3   OH233054   6.449   5.149   0.209
11038TIP3    H133055   6.501   5.224   0.236
11038TIP3    H233056   6.366   5.186   0.179
11039TIP3   OH233057   2.549   6.137   5.982
11039TIP3    H133058   2.616   6.177   6.038
11039TIP3    H233059   2.550   6.044   6.006
11040TIP3   OH233060   2.447   1.562   4.055
11040TIP3    H133061   2.414   1.511   3.981
11040TIP3    H233062   2.491   1.638   4.015
11041TIP3   OH233063   6.419   5.572   1.513
11041TIP3    H133064   6.420   5.503   1.446
11041TIP3    H233065   6.361   5.539   1.581
11042TIP3   OH233066   1.605   5.429   2.350
11042TIP3    H133067   1.568   5.376   2.421
11042TIP3    H233068   1.615   5.516   2.388
11043TIP3   OH233069   0.070   3.534   2.169
11043TIP3    H133070   0.039   3.446   2.148
11043TIP3    H233071  -0.010   3.584   2.185
11044TIP3   OH233072   1.722   3.520   6.459
11044TIP3    H133073   1.694   3.451   6.400
11044TIP3    H233074   1.652   3.525   6.524
11045TIP3   OH233075   0.412   5.664   5.828
11045TIP3    H133076   0.403   5.759   5.820
11045TIP3    H233077   0.349   5.639   5.895
11046TIP3   OH233078   0.622   5.884   6.155
11046TIP3    H133079   0.587   5.839   6.232
11046TIP3    H233080   0.658   5.814   6.100
11047TIP3   OH233081   6.100   0.088   3.633
11047TIP3    H133082   6.068   0.167   3.677
11047TIP3    H233083   6.053   0.086   3.550
11048TIP3   OH233084   5.045   1.568   4.018
11048TIP3    H133085   5.121   1.603   3.972
11048TIP3    H233086   5.061   1.473   4.021
11049TIP3   OH233087   2.781   1.153   5.117
11049TIP3    H133088   2.837   1.227   5.137
11049TIP3    H233089   2.811   1.083   5.175
11050TIP3   OH233090   0.678   4.401   2.822
11050TIP3    H133091   0.698   4.487   2.861
11050TIP3    H233092   0.675   4.341   2.896
11051TIP3   OH233093   5.531   1.009   1.438
11051TIP3    H133094   5.462   0.974   1.381
11051TIP3    H233095   5.491   1.012   1.525
11052TIP3   OH233096   2.251   1.932   0.002
11052TIP3    H133097   2.224   1.867   0.067
11052TIP3    H233098   2.225   1.895  -0.082
11053TIP3   OH233099   2.033   2.945   0.242
11053TIP3    H133100   1.967   3.003   0.281
11053TIP3    H233101   2.035   2.869   0.300
11054TIP3   OH233102   1.558   0.287   0.599
11054TIP3    H133103   1.575   0.275   0.692
11054TIP3    H233104   1.614   0.360   0.573
11055TIP3   OH233105   1.744   6.885   4.637
11055TIP3    H133106   1.729   6.865   4.730
11055TIP3    H233107   1.814   6.950   4.638
11056TIP3   OH233108   4.974   5.896   6.056
11056TIP3    H133109   4.912   5.823   6.048
11056TIP3    H233110   4.946   5.959   5.990
11057TIP3   OH233111   1.693   3.203   0.154
11057TIP3    H133112   1.673   3.226   0.245
11057TIP3    H233113   1.646   3.269   0.102
11058TIP3   OH233114   2.896   3.629   5.944
11058TIP3    H133115   2.836   3.696   5.913
11058TIP3    H233116   2.930   3.589   5.865
11059TIP3   OH233117   4.193   0.815   5.475
11059TIP3    H133118   4.237   0.766   5.407
11059TIP3    H233119   4.101   0.818   5.448
11060TIP3   OH233120   4.169   6.724   5.139
11060TIP3    H133121   4.149   6.818   5.144
11060TIP3    H233122   4.091   6.682   5.176
11061TIP3   OH233123   4.992   3.329   4.737
11061TIP3    H133124   5.010   3.416   4.701
11061TIP3    H233125   5.041   3.269   4.680
11062TIP3   OH233126   5.790   2.360   4.263
11062TIP3    H133127   5.723   2.404   4.210
11062TIP3    H233128   5.743   2.290   4.308
11063TIP3   OH233129   5.921   4.327   6.430
11063TIP3    H133130   5.953   4.244   6.395
11063TIP3    H233131   5.826   4.318   6.430
11064TIP3   OH233132   7.298   4.817   0.104
11064TIP3    H133133   7.309   4.837   0.197
11064TIP3    H233134   7.357   4.877   0.059
11065TIP3   OH233135   4.707   6.205   1.228
11065TIP3    H133136   4.767   6.273   1.257
11065TIP3    H233137   4.730   6.128   1.280
11066TIP3   OH233138   4.252   3.681   2.382
11066TIP3    H133139   4.197   3.622   2.331
11066TIP3    H233140   4.204   3.693   2.464
11067TIP3   OH233141   3.059   5.104   6.555
11067TIP3    H133142   3.089   5.188   6.590
11067TIP3    H233143   2.982   5.127   6.502
11068TIP3   OH233144   1.401   6.730   0.890
11068TIP3    H133145   1.382   6.652   0.942
11068TIP3    H233146   1.442   6.698   0.810
11069TIP3   OH233147   8.191   2.551   0.987
11069TIP3    H133148   8.179   2.456   0.983
11069TIP3    H233149   8.162   2.575   1.075
11070TIP3   OH233150   5.031   7.320   0.867
11070TIP3    H133151   4.957   7.327   0.927
11070TIP3    H233152   5.071   7.407   0.867
11071TIP3   OH233153   3.694   5.597   4.225
11071TIP3    H133154   3.618   5.644   4.259
11071TIP3    H233155   3.736   5.658   4.164
11072TIP3   OH233156   3.016   5.869   5.465
11072TIP3    H133157   2.929   5.910   5.462
11072TIP3    H233158   3.074   5.934   5.426
11073TIP3   OH233159   3.183   5.924   2.123
11073TIP3    H133160   3.131   5.855   2.082
11073TIP3    H233161   3.144   5.935   2.210
11074TIP3   OH233162   7.241   3.357   1.113
11074TIP3    H133163   7.333   3.337   1.129
11074TIP3    H233164   7.227   3.442   1.154
11075TIP3   OH233165   7.381   3.787   0.525
11075TIP3    H133166   7.368   3.861   0.584
11075TIP3    H233167   7.302   3.734   0.535
11076TIP3   OH233168   1.869   0.140   0.777
11076TIP3    H133169   1.944   0.086   0.802
11076TIP3    H233170   1.864   0.131   0.682
11077TIP3   OH233171   2.038   1.740   3.640
11077TIP3    H133172   1.980   1.700   3.574
11077TIP3    H233173   2.104   1.673   3.657
11078TIP3   OH233174   4.065   3.491   4.820
11078TIP3    H133175   4.058   3.533   4.735
11078TIP3    H233176   4.121   3.415   4.804
11079TIP3   OH233177   7.140   5.488   0.034
11079TIP3    H133178   7.135   5.395   0.056
11079TIP3    H233179   7.069   5.529   0.083
11080TIP3   OH233180   0.587   5.704   4.025
11080TIP3    H133181   0.494   5.720   4.040
11080TIP3    H233182   0.607   5.626   4.077
11081TIP3   OH233183   5.270   1.886   1.886
11081TIP3    H133184   5.276   1.977   1.915
11081TIP3    H233185   5.312   1.885   1.801
11082TIP3   OH233186   4.442   1.257   6.678
11082TIP3    H133187   4.475   1.311   6.607
11082TIP3    H233188   4.387   1.316   6.730
11083TIP3   OH233189   0.844   2.585   6.745
11083TIP3    H133190   0.757   2.548   6.740
11083TIP3    H233191   0.836   2.656   6.809
11084TIP3   OH233192   0.689   4.643   6.406
11084TIP3    H133193   0.769   4.680   6.369
11084TIP3    H233194   0.659   4.707   6.470
11085TIP3   OH233195   5.842   6.593   4.501
11085TIP3    H133196   5.909   6.646   4.544
11085TIP3    H233197   5.760   6.641   4.517
11086TIP3   OH233198   0.843   2.650   3.134
11086TIP3    H133199   0.750   2.635   3.147
11086TIP3    H233200   0.848   2.739   3.098
11087TIP3   OH233201   4.170   7.513   4.066
11087TIP3    H133202   4.134   7.556   3.988
11087TIP3    H233203   4.166   7.581   4.134
11088TIP3   OH233204   4.471   4.893   3.732
11088TIP3    H133205   4.518   4.812   3.710
11088TIP3    H233206   4.541   4.958   3.742
11089TIP3   OH233207   6.634   5.973   3.866
11089TIP3    H133208   6.651   6.018   3.783
11089TIP3    H233209   6.608   6.043   3.926
11090TIP3   OH233210   0.819   0.970   4.483
11090TIP3    H133211   0.842   1.024   4.559
11090TIP3    H233212   0.838   0.880   4.511
11091TIP3   OH233213   2.962   0.762   3.881
11091TIP3    H133214   2.972   0.707   3.804
11091TIP3    H233215   3.039   0.744   3.935
11092TIP3   OH233216   1.537   6.668   3.738
11092TIP3    H133217   1.548   6.664   3.643
11092TIP3    H233218   1.523   6.761   3.756
11093TIP3   OH233219   6.596   1.175   0.447
11093TIP3    H133220   6.602   1.258   0.494
11093TIP3    H233221   6.668   1.122   0.483
11094TIP3   OH233222   0.915   0.101   6.211
11094TIP3    H133223   0.821   0.084   6.212
11094TIP3    H233224   0.922   0.195   6.194
11095TIP3   OH233225   5.225   6.150   2.321
11095TIP3    H133226   5.234   6.064   2.279
11095TIP3    H233227   5.200   6.209   2.250
11096TIP3   OH233228   6.392   5.799   5.504
11096TIP3    H133229   6.451   5.873   5.488
11096TIP3    H233230   6.448   5.722   5.494
11097TIP3   OH233231   0.207   7.490   4.346
11097TIP3    H133232   0.178   7.413   4.296
11097TIP3    H233233   0.302   7.481   4.349
11098TIP3   OH233234   3.073   4.927   4.826
11098TIP3    H133235   3.062   4.868   4.752
11098TIP3    H233236   3.025   5.006   4.801
11099TIP3   OH233237   2.196   6.227   4.755
11099TIP3    H133238   2.155   6.168   4.692
11099TIP3    H233239   2.199   6.176   4.836
11100TIP3   OH233240   0.277   5.757   5.429
11100TIP3    H133241   0.292   5.700   5.354
11100TIP3    H233242   0.237   5.700   5.495
11101TIP3   OH233243   1.519   0.034   1.452
11101TIP3    H133244   1.609   0.060   1.473
11101TIP3    H233245   1.466   0.110   1.475
11102TIP3   OH233246   7.779   7.205   1.207
11102TIP3    H133247   7.703   7.244   1.163
11102TIP3    H233248   7.841   7.277   1.218
11103TIP3   OH233249  -0.006   1.728   1.797
11103TIP3    H133250   0.063   1.788   1.827
11103TIP3    H233251  -0.032   1.681   1.876
11104TIP3   OH233252   3.495   7.801   1.016
11104TIP3    H133253   3.573   7.745   1.013
11104TIP3    H233254   3.528   7.885   1.048
11105TIP3   OH233255   0.163   4.166   6.523
11105TIP3    H133256   0.131   4.252   6.498
11105TIP3    H233257   0.249   4.159   6.480
11106TIP3   OH233258   8.383   5.319   6.406
11106TIP3    H133259   8.295   5.317   6.444
11106TIP3    H233260   8.437   5.360   6.473
11107TIP3   OH233261   4.110   4.702   0.547
11107TIP3    H133262   4.129   4.620   0.592
11107TIP3    H233263   4.176   4.763   0.580
11108TIP3   OH233264   2.919   5.088   5.474
11108TIP3    H133265   2.845   5.148   5.467
11108TIP3    H233266   2.991   5.133   5.430
11109TIP3   OH233267   1.248   2.471   4.679
11109TIP3    H133268   1.193   2.493   4.754
11109TIP3    H233269   1.336   2.497   4.705
11110TIP3   OH233270   3.329   6.837   2.796
11110TIP3    H133271   3.366   6.871   2.877
11110TIP3    H233272   3.235   6.839   2.809
11111TIP3   OH233273   2.264   4.169   6.659
11111TIP3    H133274   2.194   4.106   6.677
11111TIP3    H233275   2.334   4.145   6.720
11112TIP3   OH233276   3.646   3.661   1.611
11112TIP3    H133277   3.718   3.656   1.674
11112TIP3    H233278   3.568   3.641   1.662
11113TIP3   OH233279   8.365   6.845   0.997
11113TIP3    H133280   8.270   6.845   0.997
11113TIP3    H233281   8.389   6.935   1.021
11114TIP3   OH233282   3.965   7.781   2.274
11114TIP3    H133283   4.013   7.843   2.219
11114TIP3    H233284   3.875   7.786   2.242
11115TIP3   OH233285   5.643   3.109   1.206
11115TIP3    H133286   5.549   3.125   1.203
11115TIP3    H233287   5.673   3.125   1.116
11116TIP3   OH233288   5.737   0.905   3.477
11116TIP3    H133289   5.702   0.841   3.538
11116TIP3    H233290   5.832   0.902   3.490
11117TIP3   OH233291   4.175   5.701   6.540
11117TIP3    H133292   4.132   5.623   6.575
11117TIP3    H233293   4.176   5.687   6.446
11118TIP3   OH233294   5.024   0.290   2.026
11118TIP3    H133295   5.065   0.271   2.111
11118TIP3    H233296   4.937   0.323   2.048
11119TIP3   OH233297   6.598   7.236   5.262
11119TIP3    H133298   6.524   7.249   5.321
11119TIP3    H233299   6.576   7.156   5.214
11120TIP3   OH233300   4.111   6.760   2.411
11120TIP3    H133301   4.139   6.839   2.456
11120TIP3    H233302   4.176   6.694   2.435
11121TIP3   OH233303   3.246   7.738   0.117
11121TIP3    H133304   3.249   7.819   0.065
11121TIP3    H233305   3.197   7.676   0.063
11122TIP3   OH233306   5.423   0.697   3.849
11122TIP3    H133307   5.397   0.622   3.902
11122TIP3    H233308   5.350   0.758   3.856
11123TIP3   OH233309   4.799   1.449   3.540
11123TIP3    H133310   4.803   1.428   3.633
11123TIP3    H233311   4.832   1.539   3.535
11124TIP3   OH233312   6.230   0.601   2.157
11124TIP3    H133313   6.144   0.599   2.200
11124TIP3    H233314   6.272   0.520   2.185
11125TIP3   OH233315   8.041   5.473   4.290
11125TIP3    H133316   8.074   5.385   4.276
11125TIP3    H233317   7.950   5.470   4.261
11126TIP3   OH233318   4.046   0.341   3.613
11126TIP3    H133319   4.042   0.312   3.704
11126TIP3    H233320   4.017   0.432   3.616
11127TIP3   OH233321   5.670   3.204   1.700
11127TIP3    H133322   5.665   3.124   1.648
11127TIP3    H233323   5.738   3.257   1.658
11128TIP3   OH233324  -0.027   0.889   2.016
11128TIP3    H133325   0.054   0.935   2.038
11128TIP3    H233326   0.001   0.814   1.964
11129TIP3   OH233327   7.798   6.223   1.023
11129TIP3    H133328   7.757   6.236   1.108
11129TIP3    H233329   7.777   6.133   0.999
11130TIP3   OH233330   7.997   7.294   0.838
11130TIP3    H133331   8.070   7.324   0.893
11130TIP3    H233332   7.924   7.286   0.899
11131TIP3   OH233333   6.194   5.809   1.855
11131TIP3    H133334   6.286   5.810   1.881
11131TIP3    H233335   6.183   5.727   1.806
11132TIP3   OH233336   1.426   2.178   2.214
11132TIP3    H133337   1.489   2.143   2.151
11132TIP3    H233338   1.346   2.190   2.163
11133TIP3   OH233339   3.569   4.152   1.123
11133TIP3    H133340   3.525   4.161   1.208
11133TIP3    H233341   3.569   4.241   1.087
11134TIP3   OH233342   5.544   1.695   2.463
11134TIP3    H133343   5.511   1.652   2.384
11134TIP3    H233344   5.618   1.640   2.491
11135TIP3   OH233345   5.160   5.381   4.060
11135TIP3    H133346   5.104   5.458   4.049
11135TIP3    H233347   5.244   5.407   4.022
11136TIP3   OH233348   1.841   1.427   0.592
11136TIP3    H133349   1.923   1.421   0.641
11136TIP3    H233350   1.832   1.520   0.572
11137TIP3   OH233351   0.452   0.264   3.936
11137TIP3    H133352   0.504   0.227   4.007
11137TIP3    H233353   0.420   0.189   3.887
11138TIP3   OH233354   7.926   6.406   3.119
11138TIP3    H133355   8.014   6.369   3.126
11138TIP3    H233356   7.868   6.331   3.116
11139TIP3   OH233357   4.294   2.977   5.461
11139TIP3    H133358   4.255   2.965   5.548
11139TIP3    H233359   4.360   3.045   5.473
11140TIP3   OH233360   5.572   6.230   5.183
11140TIP3    H133361   5.597   6.308   5.134
11140TIP3    H233362   5.554   6.263   5.272
11141TIP3   OH233363   2.440   7.868   2.251
11141TIP3    H133364   2.526   7.845   2.284
11141TIP3    H233365   2.380   7.808   2.296
11142TIP3   OH233366   1.288   5.238   0.778
11142TIP3    H133367   1.213   5.295   0.761
11142TIP3    H233368   1.340   5.242   0.697
11143TIP3   OH233369   5.209   4.415   2.792
11143TIP3    H133370   5.118   4.387   2.780
11143TIP3    H233371   5.258   4.333   2.799
11144TIP3   OH233372   6.110   1.985   6.791
11144TIP3    H133373   6.023   1.967   6.757
11144TIP3    H233374   6.169   1.968   6.717
11145TIP3   OH233375   2.205   3.990   4.601
11145TIP3    H133376   2.199   4.017   4.509
11145TIP3    H233377   2.281   4.037   4.635
11146TIP3   OH233378   0.791   5.863   5.078
11146TIP3    H133379   0.803   5.949   5.118
11146TIP3    H233380   0.723   5.876   5.012
11147TIP3   OH233381   3.921   2.806   3.131
11147TIP3    H133382   3.959   2.891   3.153
11147TIP3    H233383   3.933   2.753   3.210
11148TIP3   OH233384   6.960   4.639   5.428
11148TIP3    H133385   6.969   4.732   5.449
11148TIP3    H233386   7.004   4.628   5.344
11149TIP3   OH233387   3.753   1.999   3.073
11149TIP3    H133388   3.749   2.086   3.033
11149TIP3    H233389   3.842   1.993   3.107
11150TIP3   OH233390   4.487   4.361   0.748
11150TIP3    H133391   4.557   4.299   0.723
11150TIP3    H233392   4.429   4.362   0.672
11151TIP3   OH233393   4.194   3.915   5.257
11151TIP3    H133394   4.231   3.958   5.335
11151TIP3    H233395   4.224   3.824   5.264
11152TIP3   OH233396   3.284   4.208   5.086
11152TIP3    H133397   3.276   4.269   5.013
11152TIP3    H233398   3.195   4.175   5.100
11153TIP3   OH233399   8.235   6.694   1.574
11153TIP3    H133400   8.225   6.623   1.510
11153TIP3    H233401   8.157   6.748   1.561
11154TIP3   OH233402   0.934   5.046   4.503
11154TIP3    H133403   0.959   4.954   4.494
11154TIP3    H233404   1.014   5.089   4.534
11155TIP3   OH233405   2.346   6.447   1.818
11155TIP3    H133406   2.281   6.377   1.815
11155TIP3    H233407   2.313   6.513   1.757
11156TIP3   OH233408   0.525   1.927   1.783
11156TIP3    H133409   0.464   2.000   1.792
11156TIP3    H233410   0.611   1.965   1.799
11157TIP3   OH233411   4.177   1.924   1.236
11157TIP3    H133412   4.190   1.830   1.255
11157TIP3    H233413   4.177   1.965   1.323
11158TIP3   OH233414   6.818   6.538   4.579
11158TIP3    H133415   6.731   6.573   4.603
11158TIP3    H233416   6.824   6.554   4.485
11159TIP3   OH233417   0.811   6.929   2.163
11159TIP3    H133418   0.852   7.004   2.119
11159TIP3    H233419   0.794   6.960   2.252
11160TIP3   OH233420   3.383   5.881   2.605
11160TIP3    H133421   3.318   5.877   2.674
11160TIP3    H233422   3.347   5.943   2.541
11161TIP3   OH233423   5.507   0.104   6.511
11161TIP3    H133424   5.536   0.013   6.518
11161TIP3    H233425   5.534   0.145   6.593
11162TIP3   OH233426   2.846   5.357   2.692
11162TIP3    H133427   2.853   5.432   2.751
11162TIP3    H233428   2.797   5.292   2.742
11163TIP3   OH233429   7.721   5.791   2.472
11163TIP3    H133430   7.631   5.763   2.452
11163TIP3    H233431   7.711   5.878   2.510
11164TIP3   OH233432   0.278   3.551   6.273
11164TIP3    H133433   0.226   3.492   6.327
11164TIP3    H233434   0.231   3.556   6.190
11165TIP3   OH233435   1.511   5.307   2.125
11165TIP3    H133436   1.575   5.261   2.071
11165TIP3    H233437   1.561   5.342   2.198
11166TIP3   OH233438   7.615   4.271   1.502
11166TIP3    H133439   7.700   4.229   1.509
11166TIP3    H233440   7.612   4.305   1.412
11167TIP3   OH233441   2.763   5.838   6.249
11167TIP3    H133442   2.822   5.822   6.322
11167TIP3    H233443   2.806   5.800   6.173
11168TIP3   OH233444   2.684   4.419   3.841
11168TIP3    H133445   2.750   4.361   3.805
11168TIP3    H233446   2.726   4.505   3.844
11169TIP3   OH233447   6.831   6.441   6.081
11169TIP3    H133448   6.871   6.355   6.077
11169TIP3    H233449   6.744   6.430   6.041
11170TIP3   OH233450   2.295   2.590   1.392
11170TIP3    H133451   2.348   2.564   1.467
11170TIP3    H233452   2.263   2.508   1.355
11171TIP3   OH233453   3.709   6.133   0.574
11171TIP3    H133454   3.792   6.088   0.593
11171TIP3    H233455   3.732   6.199   0.509
11172TIP3   OH233456   2.053   7.417   0.459
11172TIP3    H133457   1.988   7.385   0.521
11172TIP3    H233458   2.002   7.442   0.382
11173TIP3   OH233459   3.647   1.353   6.650
11173TIP3    H133460   3.683   1.296   6.718
11173TIP3    H233461   3.712   1.422   6.639
11174TIP3   OH233462   7.593   7.397   4.956
11174TIP3    H133463   7.595   7.366   4.866
11174TIP3    H233464   7.503   7.381   4.985
11175TIP3   OH233465   6.546   4.073   0.581
11175TIP3    H133466   6.609   4.034   0.642
11175TIP3    H233467   6.594   4.080   0.498
11176TIP3   OH233468   1.608   2.524   0.794
11176TIP3    H133469   1.531   2.580   0.785
11176TIP3    H233470   1.579   2.438   0.762
11177TIP3   OH233471   5.549   2.558   4.559
11177TIP3    H133472   5.579   2.468   4.570
11177TIP3    H233473   5.630   2.610   4.556
11178TIP3   OH233474   6.059   3.356   1.159
11178TIP3    H133475   6.033   3.277   1.111
11178TIP3    H233476   6.128   3.395   1.106
11179TIP3   OH233477   5.475   2.921   1.491
11179TIP3    H133478   5.562   2.959   1.476
11179TIP3    H233479   5.457   2.939   1.583
11180TIP3   OH233480   1.174   4.996   4.216
11180TIP3    H133481   1.257   5.044   4.208
11180TIP3    H233482   1.112   5.046   4.163
11181TIP3   OH233483   6.851   3.170   4.203
11181TIP3    H133484   6.903   3.111   4.257
11181TIP3    H233485   6.760   3.149   4.226
11182TIP3   OH233486   6.849  -0.002   5.007
11182TIP3    H133487   6.861   0.088   4.978
11182TIP3    H233488   6.876  -0.001   5.099
11183TIP3   OH233489   2.168   1.998   4.516
11183TIP3    H133490   2.136   1.918   4.474
11183TIP3    H233491   2.259   1.978   4.539
11184TIP3   OH233492   7.897   1.908   4.004
11184TIP3    H133493   7.895   1.898   3.909
11184TIP3    H233494   7.814   1.871   4.034
11185TIP3   OH233495   1.165   6.650   0.448
11185TIP3    H133496   1.208   6.733   0.467
11185TIP3    H233497   1.173   6.600   0.529
11186TIP3   OH233498   3.219   7.413   4.464
11186TIP3    H133499   3.245   7.391   4.375
11186TIP3    H233500   3.248   7.339   4.517
11187TIP3   OH233501   5.268   4.795   6.085
11187TIP3    H133502   5.290   4.752   6.167
11187TIP3    H233503   5.294   4.732   6.017
11188TIP3   OH233504   4.657   2.563   6.836
11188TIP3    H133505   4.580   2.515   6.807
11188TIP3    H233506   4.729   2.499   6.833
11189TIP3   OH233507   6.437   6.180   4.101
11189TIP3    H133508   6.463   6.140   4.184
11189TIP3    H233509   6.496   6.255   4.092
11190TIP3   OH233510   5.664   1.941   2.752
11190TIP3    H133511   5.649   1.926   2.659
11190TIP3    H233512   5.748   1.986   2.756
11191TIP3   OH233513   4.156   6.945   2.612
11191TIP3    H133514   4.166   6.952   2.707
11191TIP3    H233515   4.067   6.975   2.595
11192TIP3   OH233516   0.681   1.476   2.058
11192TIP3    H133517   0.627   1.544   2.019
11192TIP3    H233518   0.645   1.465   2.146
11193TIP3   OH233519   3.818   0.301   1.958
11193TIP3    H133520   3.880   0.285   2.029
11193TIP3    H233521   3.732   0.294   2.001
11194TIP3   OH233522   7.521   2.320   4.354
11194TIP3    H133523   7.491   2.339   4.265
11194TIP3    H233524   7.446   2.344   4.409
11195TIP3   OH233525   5.846   4.113   4.404
11195TIP3    H133526   5.828   4.063   4.483
11195TIP3    H233527   5.934   4.149   4.418
11196TIP3   OH233528   6.403   3.720   1.178
11196TIP3    H133529   6.316   3.760   1.179
11196TIP3    H233530   6.443   3.747   1.261
11197TIP3   OH233531   6.920   0.767   6.614
11197TIP3    H133532   6.969   0.803   6.688
11197TIP3    H233533   6.899   0.678   6.640
11198TIP3   OH233534   1.006   2.061   4.764
11198TIP3    H133535   1.007   1.969   4.788
11198TIP3    H233536   0.997   2.061   4.669
11199TIP3   OH233537   8.039   3.656   3.555
11199TIP3    H133538   7.984   3.664   3.477
11199TIP3    H233539   8.035   3.563   3.577
11200TIP3   OH233540   4.366   6.269   2.967
11200TIP3    H133541   4.435   6.219   2.924
11200TIP3    H233542   4.286   6.219   2.952
11201TIP3   OH233543   7.192   7.202   2.461
11201TIP3    H133544   7.268   7.194   2.519
11201TIP3    H233545   7.157   7.289   2.480
11202TIP3   OH233546   2.362   7.740   5.864
11202TIP3    H133547   2.401   7.721   5.778
11202TIP3    H233548   2.432   7.721   5.926
11203TIP3   OH233549   4.008   1.033   3.599
11203TIP3    H133550   3.983   0.997   3.514
11203TIP3    H233551   3.980   1.125   3.595
11204TIP3   OH233552   2.060   5.225   2.424
11204TIP3    H133553   2.053   5.130   2.423
11204TIP3    H233554   2.000   5.254   2.355
11205TIP3   OH233555   1.534   7.091   4.936
11205TIP3    H133556   1.520   7.032   4.862
11205TIP3    H233557   1.447   7.098   4.976
11206TIP3   OH233558   3.651   6.144   1.200
11206TIP3    H133559   3.569   6.191   1.217
11206TIP3    H233560   3.631   6.053   1.220
11207TIP3   OH233561   2.785   2.112   4.430
11207TIP3    H133562   2.753   2.022   4.418
11207TIP3    H233563   2.795   2.145   4.341
11208TIP3   OH233564   5.486   4.292   1.842
11208TIP3    H133565   5.465   4.350   1.915
11208TIP3    H233566   5.469   4.345   1.764
11209TIP3   OH233567   1.045   1.354   1.441
11209TIP3    H133568   1.019   1.333   1.530
11209TIP3    H233569   0.967   1.392   1.401
11210TIP3   OH233570   3.925   2.827   6.578
11210TIP3    H133571   4.006   2.840   6.528
11210TIP3    H233572   3.874   2.765   6.526
11211TIP3   OH233573   2.800   4.399   4.564
11211TIP3    H133574   2.807   4.437   4.652
11211TIP3    H233575   2.872   4.336   4.560
11212TIP3   OH233576   3.948   4.628   0.322
11212TIP3    H133577   4.014   4.585   0.267
11212TIP3    H233578   3.999   4.670   0.391
11213TIP3   OH233579   0.114   3.707   5.074
11213TIP3    H133580   0.118   3.662   5.159
11213TIP3    H233581   0.030   3.680   5.037
11214TIP3   OH233582   3.992   5.416   2.860
11214TIP3    H133583   3.930   5.363   2.811
11214TIP3    H233584   3.990   5.381   2.949
11215TIP3   OH233585   4.402   6.729   4.632
11215TIP3    H133586   4.368   6.664   4.570
11215TIP3    H233587   4.327   6.753   4.686
11216TIP3   OH233588   7.988   1.024   4.484
11216TIP3    H133589   8.060   0.998   4.428
11216TIP3    H233590   8.029   1.048   4.567
11217TIP3   OH233591   1.809   1.705   0.546
11217TIP3    H133592   1.739   1.759   0.583
11217TIP3    H233593   1.831   1.747   0.463
11218TIP3   OH233594   1.850   5.396   1.346
11218TIP3    H133595   1.936   5.380   1.384
11218TIP3    H233596   1.801   5.441   1.415
11219TIP3   OH233597   3.237   2.252   3.894
11219TIP3    H133598   3.173   2.307   3.939
11219TIP3    H233599   3.299   2.313   3.854
11220TIP3   OH233600   7.314   3.559   3.888
11220TIP3    H133601   7.239   3.611   3.857
11220TIP3    H233602   7.275   3.477   3.919
11221TIP3   OH233603   3.648   0.269   6.311
11221TIP3    H133604   3.608   0.354   6.331
11221TIP3    H233605   3.740   0.289   6.294
11222TIP3   OH233606   1.315   5.897   4.803
11222TIP3    H133607   1.254   5.884   4.730
11222TIP3    H233608   1.398   5.919   4.762
11223TIP3   OH233609   0.380   7.486   0.415
11223TIP3    H133610   0.447   7.538   0.459
11223TIP3    H233611   0.316   7.550   0.384
11224TIP3   OH233612   6.093   2.152   5.088
11224TIP3    H133613   6.187   2.140   5.100
11224TIP3    H233614   6.072   2.231   5.138
11225TIP3   OH233615   5.823   3.589   6.290
11225TIP3    H133616   5.731   3.578   6.312
11225TIP3    H233617   5.856   3.499   6.282
11226TIP3   OH233618   8.237   7.867   2.146
11226TIP3    H133619   8.180   7.935   2.182
11226TIP3    H233620   8.317   7.913   2.121
11227TIP3   OH233621   8.156   1.590   1.431
11227TIP3    H133622   8.162   1.686   1.435
11227TIP3    H233623   8.246   1.562   1.411
11228TIP3   OH233624   6.862   4.900   3.432
11228TIP3    H133625   6.781   4.949   3.423
11228TIP3    H233626   6.834   4.809   3.444
11229TIP3   OH233627   3.618   7.041   4.914
11229TIP3    H133628   3.657   6.999   4.838
11229TIP3    H233629   3.539   7.084   4.881
11230TIP3   OH233630   7.465   5.986   3.867
11230TIP3    H133631   7.510   6.065   3.896
11230TIP3    H233632   7.376   6.016   3.848
11231TIP3   OH233633   2.109   4.423   3.817
11231TIP3    H133634   2.045   4.464   3.758
11231TIP3    H233635   2.174   4.492   3.833
11232TIP3   OH233636   8.221   4.202   0.428
11232TIP3    H133637   8.291   4.156   0.474
11232TIP3    H233638   8.161   4.231   0.498
11233TIP3   OH233639   4.848   7.596   1.394
11233TIP3    H133640   4.856   7.613   1.488
11233TIP3    H233641   4.828   7.682   1.356
11234TIP3   OH233642   0.894   2.050   6.588
11234TIP3    H133643   0.906   2.070   6.681
11234TIP3    H233644   0.802   2.068   6.572
11235TIP3   OH233645   1.819   6.453   3.064
11235TIP3    H133646   1.853   6.529   3.110
11235TIP3    H233647   1.885   6.385   3.077
11236TIP3   OH233648   3.575   1.818   0.514
11236TIP3    H133649   3.534   1.815   0.427
11236TIP3    H233650   3.630   1.740   0.517
11237TIP3   OH233651   7.647   5.480   2.487
11237TIP3    H133652   7.558   5.452   2.467
11237TIP3    H233653   7.661   5.556   2.431
11238TIP3   OH233654   1.590   0.043   3.973
11238TIP3    H133655   1.679   0.062   3.942
11238TIP3    H233656   1.533   0.094   3.915
11239TIP3   OH233657   4.956   6.025   3.998
11239TIP3    H133658   4.932   5.937   4.028
11239TIP3    H233659   4.925   6.028   3.907
11240TIP3   OH233660   0.735   3.454   3.888
11240TIP3    H133661   0.696   3.533   3.925
11240TIP3    H233662   0.751   3.398   3.964
11241TIP3   OH233663   5.151   6.224   3.936
11241TIP3    H133664   5.198   6.237   4.019
11241TIP3    H233665   5.083   6.160   3.957
11242TIP3   OH233666   6.974   3.909   0.427
11242TIP3    H133667   6.966   3.821   0.389
11242TIP3    H233668   7.068   3.926   0.429
11243TIP3   OH233669   2.654   5.282   4.987
11243TIP3    H133670   2.733   5.281   5.041
11243TIP3    H233671   2.584   5.310   5.046
11244TIP3   OH233672   0.410   5.907   3.484
11244TIP3    H133673   0.390   5.859   3.404
11244TIP3    H233674   0.379   5.851   3.555
11245TIP3   OH233675   3.173   6.332   1.522
11245TIP3    H133676   3.251   6.305   1.571
11245TIP3    H233677   3.113   6.258   1.529
11246TIP3   OH233678   0.392   7.925   5.305
11246TIP3    H133679   0.430   7.878   5.380
11246TIP3    H233680   0.407   7.867   5.231
11247TIP3   OH233681   5.650   0.375   6.428
11247TIP3    H133682   5.616   0.286   6.433
11247TIP3    H233683   5.576   0.431   6.449
11248TIP3   OH233684   6.061   2.396   1.876
11248TIP3    H133685   6.066   2.407   1.971
11248TIP3    H233686   6.052   2.301   1.863
11249TIP3   OH233687   2.196   4.571   5.928
11249TIP3    H133688   2.124   4.632   5.915
11249TIP3    H233689   2.240   4.602   6.007
11250TIP3   OH233690   6.731   4.760   1.454
11250TIP3    H133691   6.801   4.720   1.402
11250TIP3    H233692   6.733   4.712   1.537
11251TIP3   OH233693   5.182   2.186   6.341
11251TIP3    H133694   5.205   2.279   6.335
11251TIP3    H233695   5.261   2.144   6.377
11252TIP3   OH233696   2.292   2.613   6.689
11252TIP3    H133697   2.312   2.706   6.698
11252TIP3    H233698   2.229   2.608   6.617
11253TIP3   OH233699   3.876   7.039   2.590
11253TIP3    H133700   3.801   7.070   2.641
11253TIP3    H233701   3.920   7.119   2.562
11254TIP3   OH233702   8.021   5.772   1.002
11254TIP3    H133703   8.100   5.771   1.055
11254TIP3    H233704   8.001   5.680   0.986
11255TIP3   OH233705   6.953   4.939   4.685
11255TIP3    H133706   6.882   4.988   4.727
11255TIP3    H233707   6.990   5.000   4.621
11256TIP3   OH233708   2.761   5.246   1.842
11256TIP3    H133709   2.758   5.293   1.759
11256TIP3    H233710   2.829   5.290   1.893
11257TIP3   OH233711   4.276   2.057   3.112
11257TIP3    H133712   4.307   1.976   3.073
11257TIP3    H233713   4.320   2.126   3.063
11258TIP3   OH233714   5.282   4.876   0.490
11258TIP3    H133715   5.215   4.908   0.551
11258TIP3    H233716   5.240   4.804   0.444
11259TIP3   OH233717   5.345   0.992   3.493
11259TIP3    H133718   5.325   1.015   3.584
11259TIP3    H233719   5.354   0.896   3.494
11260TIP3   OH233720   5.602   6.538   3.389
11260TIP3    H133721   5.624   6.456   3.433
11260TIP3    H233722   5.519   6.520   3.345
11261TIP3   OH233723   0.714   4.870   4.033
11261TIP3    H133724   0.679   4.928   4.101
11261TIP3    H233725   0.747   4.795   4.082
11262TIP3   OH233726   7.590   6.903   5.468
11262TIP3    H133727   7.628   6.973   5.415
11262TIP3    H233728   7.538   6.852   5.406
11263TIP3   OH233729   7.186   7.604   0.823
11263TIP3    H133730   7.196   7.515   0.788
11263TIP3    H233731   7.147   7.654   0.751
11264TIP3   OH233732   6.445   4.284   3.357
11264TIP3    H133733   6.356   4.320   3.364
11264TIP3    H233734   6.482   4.293   3.445
11265TIP3   OH233735   3.498   6.921   2.993
11265TIP3    H133736   3.565   6.905   2.926
11265TIP3    H233737   3.499   6.841   3.047
11266TIP3   OH233738   1.354   5.565   2.101
11266TIP3    H133739   1.421   5.613   2.053
11266TIP3    H233740   1.389   5.476   2.109
11267TIP3   OH233741   5.090   5.662   2.812
11267TIP3    H133742   5.068   5.596   2.878
11267TIP3    H233743   5.025   5.731   2.824
11268TIP3   OH233744   3.547   3.186   3.173
11268TIP3    H133745   3.547   3.104   3.223
11268TIP3    H233746   3.539   3.158   3.081
11269TIP3   OH233747   0.937   3.015   2.258
11269TIP3    H133748   0.967   3.106   2.259
11269TIP3    H233749   1.013   2.964   2.286
11270TIP3   OH233750   4.633   0.569   2.468
11270TIP3    H133751   4.597   0.650   2.503
11270TIP3    H233752   4.674   0.527   2.544
11271TIP3   OH233753   6.598  -0.021   1.732
11271TIP3    H133754   6.667   0.005   1.793
11271TIP3    H233755   6.639  -0.011   1.645
11272TIP3   OH233756   2.458   4.644   1.553
11272TIP3    H133757   2.526   4.653   1.620
11272TIP3    H233758   2.414   4.728   1.551
11273TIP3   OH233759   3.258   3.038   0.904
11273TIP3    H133760   3.210   3.116   0.878
11273TIP3    H233761   3.323   3.025   0.834
11274TIP3   OH233762   1.929   7.738   6.361
11274TIP3    H133763   1.973   7.763   6.280
11274TIP3    H233764   1.951   7.806   6.424
11275TIP3   OH233765   4.761   6.317   3.296
11275TIP3    H133766   4.676   6.337   3.258
11275TIP3    H233767   4.791   6.239   3.249
11276TIP3   OH233768   5.461   3.580   5.189
11276TIP3    H133769   5.394   3.619   5.133
11276TIP3    H233770   5.455   3.486   5.172
11277TIP3   OH233771   2.409   5.467   5.347
11277TIP3    H133772   2.416   5.421   5.263
11277TIP3    H233773   2.376   5.400   5.407
11278TIP3   OH233774   4.738   0.719   5.543
11278TIP3    H133775   4.682   0.784   5.584
11278TIP3    H233776   4.692   0.695   5.463
11279TIP3   OH233777   3.499   6.291   4.827
11279TIP3    H133778   3.537   6.338   4.753
11279TIP3    H233779   3.574   6.267   4.881
11280TIP3   OH233780   2.156   6.063   5.100
11280TIP3    H133781   2.144   6.025   5.013
11280TIP3    H233782   2.069   6.058   5.140
11281TIP3   OH233783   7.990   2.011   0.778
11281TIP3    H133784   8.068   1.967   0.813
11281TIP3    H233785   8.004   2.104   0.798
11282TIP3   OH233786   6.397   6.031   0.432
11282TIP3    H133787   6.375   5.980   0.510
11282TIP3    H233788   6.319   6.027   0.377
11283TIP3   OH233789   5.371   5.708   5.512
11283TIP3    H133790   5.308   5.647   5.551
11283TIP3    H233791   5.318   5.775   5.470
11284TIP3   OH233792   7.105   5.970   6.707
11284TIP3    H133793   7.125   5.903   6.641
11284TIP3    H233794   7.043   5.927   6.766
11285TIP3   OH233795   6.422   7.040   3.686
11285TIP3    H133796   6.328   7.048   3.700
11285TIP3    H233797   6.462   7.072   3.767
11286TIP3   OH233798   3.001   3.907   2.371
11286TIP3    H133799   3.096   3.901   2.360
11286TIP3    H233800   2.966   3.825   2.336
11287TIP3   OH233801   2.714   6.568   3.390
11287TIP3    H133802   2.641   6.531   3.440
11287TIP3    H233803   2.685   6.564   3.298
11288TIP3   OH233804   2.394   1.579   6.615
11288TIP3    H133805   2.450   1.510   6.652
11288TIP3    H233806   2.325   1.533   6.568
11289TIP3   OH233807   5.611   7.374   0.699
11289TIP3    H133808   5.625   7.288   0.659
11289TIP3    H233809   5.699   7.408   0.714
11290TIP3   OH233810   0.466   3.582   4.254
11290TIP3    H133811   0.466   3.503   4.201
11290TIP3    H233812   0.478   3.653   4.191
11291TIP3   OH233813   1.932   5.782   5.189
11291TIP3    H133814   1.963   5.704   5.236
11291TIP3    H233815   1.943   5.853   5.251
11292TIP3   OH233816   7.443   7.250   2.592
11292TIP3    H133817   7.479   7.220   2.676
11292TIP3    H233818   7.473   7.184   2.529
11293TIP3   OH233819   7.060   5.923   4.185
11293TIP3    H133820   7.017   5.983   4.246
11293TIP3    H233821   7.127   5.880   4.238
11294TIP3   OH233822   0.460   0.648   3.999
11294TIP3    H133823   0.416   0.593   3.934
11294TIP3    H233824   0.389   0.683   4.052
11295TIP3   OH233825   2.724   1.691   3.672
11295TIP3    H133826   2.766   1.673   3.588
11295TIP3    H233827   2.774   1.638   3.735
11296TIP3   OH233828   6.927   5.287   5.462
11296TIP3    H133829   6.869   5.254   5.530
11296TIP3    H233830   7.015   5.266   5.492
11297TIP3   OH233831   8.247   5.961   1.076
11297TIP3    H133832   8.279   6.005   1.155
11297TIP3    H233833   8.259   6.024   1.006
11298TIP3   OH233834   3.521   7.332   4.680
11298TIP3    H133835   3.596   7.353   4.736
11298TIP3    H233836   3.469   7.271   4.733
11299TIP3   OH233837   1.831   3.090   3.864
11299TIP3    H133838   1.851   3.065   3.954
11299TIP3    H233839   1.875   3.174   3.852
11300TIP3   OH233840   4.249   6.796   5.681
11300TIP3    H133841   4.274   6.848   5.604
11300TIP3    H233842   4.332   6.767   5.718
11301TIP3   OH233843   2.409   4.356   6.186
11301TIP3    H133844   2.368   4.441   6.171
11301TIP3    H233845   2.365   4.297   6.125
11302TIP3   OH233846   3.996   7.587   1.867
11302TIP3    H133847   3.917   7.640   1.882
11302TIP3    H233848   3.996   7.524   1.939
11303TIP3   OH233849   2.682   7.842   0.142
11303TIP3    H133850   2.774   7.853   0.117
11303TIP3    H233851   2.676   7.884   0.228
11304TIP3   OH233852   7.843   2.459   0.773
11304TIP3    H133853   7.909   2.396   0.745
11304TIP3    H233854   7.806   2.493   0.692
11305TIP3   OH233855   8.355   1.032   0.485
11305TIP3    H133856   8.404   1.011   0.405
11305TIP3    H233857   8.394   1.113   0.516
11306TIP3   OH233858   2.169   2.011   6.230
11306TIP3    H133859   2.203   1.924   6.248
11306TIP3    H233860   2.088   1.996   6.182
11307TIP3   OH233861   5.051   2.574   3.507
11307TIP3    H133862   5.134   2.585   3.460
11307TIP3    H233863   5.077   2.562   3.598
11308TIP3   OH233864   0.175   2.288   1.479
11308TIP3    H133865   0.269   2.300   1.493
11308TIP3    H233866   0.137   2.374   1.497
11309TIP3   OH233867   7.556   0.090   0.579
11309TIP3    H133868   7.487   0.033   0.545
11309TIP3    H233869   7.560   0.068   0.672
11310TIP3   OH233870   1.659   2.932   2.612
11310TIP3    H133871   1.587   2.932   2.675
11310TIP3    H233872   1.678   3.025   2.597
11311TIP3   OH233873   1.899   7.366   2.223
11311TIP3    H133874   1.972   7.413   2.183
11311TIP3    H233875   1.829   7.431   2.228
11312TIP3   OH233876   0.300   0.354   1.626
11312TIP3    H133877   0.270   0.348   1.717
11312TIP3    H233878   0.229   0.398   1.580
11313TIP3   OH233879   0.793   4.708   2.021
11313TIP3    H133880   0.844   4.742   2.094
11313TIP3    H233881   0.751   4.629   2.056
11314TIP3   OH233882   5.250   2.052   3.109
11314TIP3    H133883   5.290   2.100   3.182
11314TIP3    H233884   5.309   1.978   3.094
11315TIP3   OH233885   0.504   0.699   2.399
11315TIP3    H133886   0.460   0.628   2.354
11315TIP3    H233887   0.484   0.684   2.492
11316TIP3   OH233888   8.193   5.930   5.675
11316TIP3    H133889   8.198   5.964   5.586
11316TIP3    H233890   8.222   6.002   5.731
11317TIP3   OH233891   7.403   2.610   6.316
11317TIP3    H133892   7.447   2.548   6.374
11317TIP3    H233893   7.356   2.555   6.253
11318TIP3   OH233894   6.755   4.998   2.256
11318TIP3    H133895   6.743   5.067   2.321
11318TIP3    H233896   6.816   4.937   2.298
11319TIP3   OH233897   0.138   5.346   1.862
11319TIP3    H133898   0.065   5.298   1.901
11319TIP3    H233899   0.117   5.438   1.877
11320TIP3   OH233900   6.563   1.633   5.863
11320TIP3    H133901   6.607   1.607   5.781
11320TIP3    H233902   6.593   1.722   5.879
11321TIP3   OH233903   6.646   0.570   1.938
11321TIP3    H133904   6.582   0.633   1.970
11321TIP3    H233905   6.661   0.511   2.013
11322TIP3   OH233906   6.710   5.951   4.643
11322TIP3    H133907   6.746   6.040   4.642
11322TIP3    H233908   6.616   5.963   4.635
11323TIP3   OH233909   4.278   6.433   2.488
11323TIP3    H133910   4.299   6.512   2.537
11323TIP3    H233911   4.362   6.392   2.471
11324TIP3   OH233912   0.106   1.778   6.365
11324TIP3    H133913   0.068   1.865   6.376
11324TIP3    H233914   0.032   1.718   6.374
11325TIP3   OH233915   1.880   6.263   2.801
11325TIP3    H133916   1.793   6.228   2.820
11325TIP3    H233917   1.863   6.353   2.772
11326TIP3   OH233918   3.828   2.671   4.894
11326TIP3    H133919   3.899   2.681   4.830
11326TIP3    H233920   3.866   2.703   4.976
11327TIP3   OH233921   3.987   1.335   6.219
11327TIP3    H133922   3.928   1.404   6.251
11327TIP3    H233923   4.032   1.375   6.145
11328TIP3   OH233924   4.123   6.909   6.448
11328TIP3    H133925   4.055   6.926   6.383
11328TIP3    H233926   4.186   6.980   6.437
11329TIP3   OH233927   4.880   6.629   3.067
11329TIP3    H133928   4.923   6.614   2.983
11329TIP3    H233929   4.860   6.723   3.067
11330TIP3   OH233930   2.954   6.988   1.414
11330TIP3    H133931   3.042   7.020   1.396
11330TIP3    H233932   2.912   6.986   1.328
11331TIP3   OH233933   1.171   4.164   1.602
11331TIP3    H133934   1.247   4.107   1.589
11331TIP3    H233935   1.097   4.115   1.567
11332TIP3   OH233936   2.119   0.630   0.170
11332TIP3    H133937   2.159   0.550   0.206
11332TIP3    H233938   2.078   0.602   0.089
11333TIP3   OH233939   0.488   7.567   0.871
11333TIP3    H133940   0.419   7.585   0.934
11333TIP3    H233941   0.450   7.506   0.809
11334TIP3   OH233942   2.332   4.763   0.198
11334TIP3    H133943   2.312   4.738   0.107
11334TIP3    H233944   2.280   4.842   0.213
11335TIP3   OH233945   0.157   2.897   3.564
11335TIP3    H133946   0.224   2.923   3.628
11335TIP3    H233947   0.206   2.881   3.483
11336TIP3   OH233948   0.096   5.600   1.483
11336TIP3    H133949   0.004   5.582   1.467
11336TIP3    H233950   0.139   5.575   1.401
11337TIP3   OH233951   0.727   3.021   4.045
11337TIP3    H133952   0.688   2.980   4.123
11337TIP3    H233953   0.651   3.044   3.991
11338TIP3   OH233954   5.402   4.724   2.290
11338TIP3    H133955   5.336   4.746   2.225
11338TIP3    H233956   5.483   4.712   2.240
11339TIP3   OH233957   4.186   4.744   5.961
11339TIP3    H133958   4.251   4.750   5.891
11339TIP3    H233959   4.202   4.659   6.001
11340TIP3   OH233960   3.709   6.629   6.455
11340TIP3    H133961   3.623   6.618   6.414
11340TIP3    H233962   3.712   6.561   6.522
11341TIP3   OH233963   0.201   5.650   0.573
11341TIP3    H133964   0.234   5.588   0.638
11341TIP3    H233965   0.107   5.653   0.587
11342TIP3   OH233966   5.067   7.771   4.377
11342TIP3    H133967   5.014   7.692   4.375
11342TIP3    H233968   5.151   7.743   4.412
11343TIP3   OH233969   1.868   7.179   1.326
11343TIP3    H133970   1.786   7.132   1.313
11343TIP3    H233971   1.880   7.231   1.246
11344TIP3   OH233972   6.471   5.089   5.686
11344TIP3    H133973   6.517   5.082   5.769
11344TIP3    H233974   6.379   5.076   5.708
11345TIP3   OH233975   5.694   5.209   5.825
11345TIP3    H133976   5.711   5.303   5.816
11345TIP3    H233977   5.630   5.203   5.895
11346TIP3   OH233978   1.587   0.286   6.314
11346TIP3    H133979   1.514   0.244   6.360
11346TIP3    H233980   1.604   0.230   6.239
11347TIP3   OH233981   0.052   2.685   0.489
11347TIP3    H133982  -0.011   2.716   0.424
11347TIP3    H233983   0.065   2.593   0.469
11348TIP3   OH233984   8.072   3.901   3.048
11348TIP3    H133985   8.134   3.912   3.120
11348TIP3    H233986   7.990   3.877   3.091
11349TIP3   OH233987   0.213   5.006   3.066
11349TIP3    H133988   0.164   4.982   3.145
11349TIP3    H233989   0.176   4.951   2.997
11350TIP3   OH233990   2.460   5.499   0.847
11350TIP3    H133991   2.442   5.421   0.900
11350TIP3    H233992   2.414   5.482   0.764
11351TIP3   OH233993   6.843   2.977   5.897
11351TIP3    H133994   6.915   2.968   5.835
11351TIP3    H233995   6.870   2.926   5.973
11352TIP3   OH233996   1.270   5.451   6.141
11352TIP3    H133997   1.209   5.379   6.126
11352TIP3    H233998   1.340   5.413   6.195
11353TIP3   OH233999   1.901   2.034   0.746
11353TIP3    H134000   1.825   2.038   0.803
11353TIP3    H234001   1.928   1.942   0.749
11354TIP3   OH234002   5.804   6.615   1.491
11354TIP3    H134003   5.822   6.524   1.516
11354TIP3    H234004   5.709   6.619   1.482
11355TIP3   OH234005   6.241   6.525   0.735
11355TIP3    H134006   6.161   6.475   0.751
11355TIP3    H234007   6.238   6.597   0.797
11356TIP3   OH234008   7.524   2.075   3.179
11356TIP3    H134009   7.528   2.024   3.260
11356TIP3    H234010   7.565   2.019   3.114
11357TIP3   OH234011   7.951   3.167   5.847
11357TIP3    H134012   8.014   3.094   5.845
11357TIP3    H234013   7.942   3.188   5.940
11358TIP3   OH234014   1.288   6.213   2.086
11358TIP3    H134015   1.227   6.178   2.021
11358TIP3    H234016   1.237   6.277   2.135
11359TIP3   OH234017   4.532   5.486   2.989
11359TIP3    H134018   4.556   5.533   3.069
11359TIP3    H234019   4.459   5.430   3.015
11360TIP3   OH234020   1.236   0.954   0.616
11360TIP3    H134021   1.151   0.948   0.660
11360TIP3    H234022   1.288   1.012   0.672
11361TIP3   OH234023   2.307   5.447   0.304
11361TIP3    H134024   2.377   5.451   0.239
11361TIP3    H234025   2.273   5.536   0.308
11362TIP3   OH234026   5.242   5.185   5.715
11362TIP3    H134027   5.324   5.206   5.671
11362TIP3    H234028   5.256   5.097   5.751
11363TIP3   OH234029   8.316   6.235   4.261
11363TIP3    H134030   8.368   6.166   4.219
11363TIP3    H234031   8.347   6.237   4.351
11364TIP3   OH234032   4.202   6.430   3.600
11364TIP3    H134033   4.245   6.458   3.519
11364TIP3    H234034   4.272   6.389   3.651
11365TIP3   OH234035   3.163   2.529   0.978
11365TIP3    H134036   3.172   2.548   0.885
11365TIP3    H234037   3.117   2.445   0.981
11366TIP3   OH234038   3.200   4.341   1.401
11366TIP3    H134039   3.166   4.374   1.318
11366TIP3    H234040   3.165   4.252   1.407
11367TIP3   OH234041   5.897   5.259   2.352
11367TIP3    H134042   5.901   5.325   2.283
11367TIP3    H234043   5.988   5.248   2.380
11368TIP3   OH234044   0.955   1.369   0.314
11368TIP3    H134045   1.022   1.352   0.380
11368TIP3    H234046   0.880   1.318   0.343
11369TIP3   OH234047   1.577   0.551   3.819
11369TIP3    H134048   1.603   0.642   3.814
11369TIP3    H234049   1.482   0.552   3.809
11370TIP3   OH234050   3.076   1.257   5.385
11370TIP3    H134051   3.060   1.222   5.472
11370TIP3    H234052   3.170   1.275   5.383
11371TIP3   OH234053   6.431   5.117   6.111
11371TIP3    H134054   6.370   5.130   6.185
11371TIP3    H234055   6.375   5.123   6.033
11372TIP3   OH234056   5.949   2.876   2.809
11372TIP3    H134057   5.871   2.878   2.864
11372TIP3    H234058   5.932   2.943   2.742
11373TIP3   OH234059   7.226   5.330   3.728
11373TIP3    H134060   7.167   5.389   3.774
11373TIP3    H234061   7.245   5.375   3.646
11374TIP3   OH234062   3.491   7.632   1.589
11374TIP3    H134063   3.404   7.630   1.550
11374TIP3    H234064   3.541   7.691   1.532
11375TIP3   OH234065   3.258   5.559   2.876
11375TIP3    H134066   3.330   5.505   2.843
11375TIP3    H234067   3.187   5.496   2.892
11376TIP3   OH234068   0.513   4.651   5.304
11376TIP3    H134069   0.500   4.701   5.384
11376TIP3    H234070   0.582   4.697   5.257
11377TIP3   OH234071   2.423   5.260   6.048
11377TIP3    H134072   2.504   5.281   6.003
11377TIP3    H234073   2.425   5.312   6.128
11378TIP3   OH234074   3.609   5.837   1.232
11378TIP3    H134075   3.577   5.891   1.160
11378TIP3    H234076   3.631   5.753   1.191
11379TIP3   OH234077   7.618   6.478   4.169
11379TIP3    H134078   7.629   6.401   4.224
11379TIP3    H234079   7.701   6.524   4.174
11380TIP3   OH234080   2.583   1.031   5.640
11380TIP3    H134081   2.532   0.982   5.575
11380TIP3    H234082   2.660   0.976   5.657
11381TIP3   OH234083   4.627   2.622   5.074
11381TIP3    H134084   4.541   2.588   5.051
11381TIP3    H234085   4.614   2.663   5.160
11382TIP3   OH234086   7.695   7.459   1.414
11382TIP3    H134087   7.606   7.438   1.442
11382TIP3    H234088   7.730   7.376   1.380
11383TIP3   OH234089   1.577   1.812   3.244
11383TIP3    H134090   1.553   1.807   3.152
11383TIP3    H234091   1.543   1.731   3.283
11384TIP3   OH234092   7.067   5.484   3.317
11384TIP3    H134093   7.013   5.516   3.390
11384TIP3    H234094   7.156   5.511   3.340
11385TIP3   OH234095   3.058   5.230   3.812
11385TIP3    H134096   3.132   5.171   3.824
11385TIP3    H234097   3.087   5.313   3.849
11386TIP3   OH234098   0.182   1.208   1.817
11386TIP3    H134099   0.153   1.283   1.765
11386TIP3    H234100   0.271   1.230   1.843
11387TIP3   OH234101   2.782   5.674   0.682
11387TIP3    H134102   2.818   5.603   0.629
11387TIP3    H234103   2.691   5.682   0.652
11388TIP3   OH234104   2.311   0.127   2.433
11388TIP3    H134105   2.347   0.100   2.517
11388TIP3    H234106   2.238   0.185   2.455
11389TIP3   OH234107   1.418   7.198   1.283
11389TIP3    H134108   1.492   7.152   1.243
11389TIP3    H234109   1.347   7.133   1.283
11390TIP3   OH234110   0.090   2.306   3.329
11390TIP3    H134111   0.037   2.381   3.359
11390TIP3    H234112   0.031   2.257   3.272
11391TIP3   OH234113   5.904   3.835   6.090
11391TIP3    H134114   5.851   3.900   6.043
11391TIP3    H234115   5.841   3.767   6.115
11392TIP3   OH234116   1.647   3.270   0.433
11392TIP3    H134117   1.571   3.212   0.442
11392TIP3    H234118   1.641   3.328   0.509
11393TIP3   OH234119   4.320   0.854   0.582
11393TIP3    H134120   4.340   0.848   0.675
11393TIP3    H234121   4.226   0.872   0.579
11394TIP3   OH234122   4.020   7.129   3.790
11394TIP3    H134123   4.080   7.136   3.864
11394TIP3    H234124   4.077   7.115   3.714
11395TIP3   OH234125   1.352   7.630   4.203
11395TIP3    H134126   1.372   7.678   4.123
11395TIP3    H234127   1.369   7.693   4.273
11396TIP3   OH234128   2.254   0.242   0.560
11396TIP3    H134129   2.244   0.194   0.642
11396TIP3    H234130   2.298   0.180   0.501
11397TIP3   OH234131   6.267   7.783   0.138
11397TIP3    H134132   6.335   7.716   0.136
11397TIP3    H234133   6.216   7.763   0.216
11398TIP3   OH234134   6.748   4.089   2.467
11398TIP3    H134135   6.667   4.051   2.432
11398TIP3    H234136   6.727   4.111   2.558
11399TIP3   OH234137   5.229   3.164   4.980
11399TIP3    H134138   5.177   3.118   5.046
11399TIP3    H234139   5.193   3.134   4.896
11400TIP3   OH234140   0.672   3.834   4.681
11400TIP3    H134141   0.601   3.899   4.688
11400TIP3    H234142   0.631   3.759   4.638
11401TIP3   OH234143   4.479   4.544   3.394
11401TIP3    H134144   4.408   4.481   3.379
11401TIP3    H234145   4.549   4.493   3.434
11402TIP3   OH234146   0.028   7.845   5.223
11402TIP3    H134147   0.067   7.911   5.165
11402TIP3    H234148   0.078   7.766   5.207
11403TIP3   OH234149   6.506   2.891   2.467
11403TIP3    H134150   6.523   2.945   2.544
11403TIP3    H234151   6.546   2.806   2.488
11404TIP3   OH234152   4.029   0.337   5.239
11404TIP3    H134153   3.940   0.308   5.222
11404TIP3    H234154   4.044   0.408   5.175
11405TIP3   OH234155   5.987   7.633   1.108
11405TIP3    H134156   5.941   7.551   1.127
11405TIP3    H234157   6.075   7.619   1.145
11406TIP3   OH234158   7.164   0.901   4.365
11406TIP3    H134159   7.147   0.992   4.340
11406TIP3    H234160   7.208   0.863   4.289
11407TIP3   OH234161   7.532   6.413   0.483
11407TIP3    H134162   7.483   6.333   0.504
11407TIP3    H234163   7.616   6.401   0.528
11408TIP3   OH234164   5.991   1.366   1.657
11408TIP3    H134165   5.955   1.339   1.573
11408TIP3    H234166   5.917   1.365   1.718
11409TIP3   OH234167   0.977   4.414   4.642
11409TIP3    H134168   1.030   4.491   4.621
11409TIP3    H234169   0.970   4.367   4.559
11410TIP3   OH234170   3.073   4.100   3.970
11410TIP3    H134171   3.059   4.139   4.057
11410TIP3    H234172   3.087   4.174   3.912
11411TIP3   OH234173   1.167   7.580   2.426
11411TIP3    H134174   1.107   7.630   2.371
11411TIP3    H234175   1.135   7.594   2.515
11412TIP3   OH234176   7.249   6.347   5.579
11412TIP3    H134177   7.269   6.394   5.660
11412TIP3    H234178   7.252   6.255   5.604
11413TIP3   OH234179   3.994   6.136   0.601
11413TIP3    H134180   4.006   6.102   0.512
11413TIP3    H234181   4.010   6.230   0.593
11414TIP3   OH234182   4.352   4.405   1.662
11414TIP3    H134183   4.410   4.335   1.632
11414TIP3    H234184   4.401   4.448   1.732
11415TIP3   OH234185   2.996   5.578   4.838
11415TIP3    H134186   2.915   5.545   4.878
11415TIP3    H234187   2.968   5.656   4.789
11416TIP3   OH234188   3.928   1.995   1.071
11416TIP3    H134189   4.006   1.968   1.119
11416TIP3    H234190   3.876   2.045   1.134
11417TIP3   OH234191   4.367   1.722   6.011
11417TIP3    H134192   4.416   1.650   6.050
11417TIP3    H234193   4.424   1.756   5.942
11418TIP3   OH234194   2.764   7.917   4.155
11418TIP3    H134195   2.800   7.830   4.172
11418TIP3    H234196   2.670   7.906   4.160
11419TIP3   OH234197   7.039   0.280   5.117
11419TIP3    H134198   7.024   0.232   5.036
11419TIP3    H234199   7.092   0.355   5.091
11420TIP3   OH234200   7.978   6.303   5.710
11420TIP3    H134201   8.045   6.237   5.729
11420TIP3    H234202   8.027   6.384   5.696
11421TIP3   OH234203   2.086   0.535   4.521
11421TIP3    H134204   2.014   0.584   4.483
11421TIP3    H234205   2.147   0.602   4.551
11422TIP3   OH234206   0.762   4.355   6.112
11422TIP3    H134207   0.743   4.272   6.155
11422TIP3    H234208   0.698   4.361   6.041
11423TIP3   OH234209   3.207   6.155   6.730
11423TIP3    H134210   3.155   6.104   6.792
11423TIP3    H234211   3.290   6.170   6.775
11424TIP3   OH234212   5.871   0.763   1.245
11424TIP3    H134213   5.918   0.767   1.162
11424TIP3    H234214   5.883   0.850   1.284
11425TIP3   OH234215   5.535   0.234   2.778
11425TIP3    H134216   5.567   0.323   2.792
11425TIP3    H234217   5.557   0.214   2.687
11426TIP3   OH234218   1.706   2.033   3.314
11426TIP3    H134219   1.661   1.952   3.291
11426TIP3    H234220   1.637   2.100   3.313
11427TIP3   OH234221   0.514   7.130   1.028
11427TIP3    H134222   0.607   7.125   1.050
11427TIP3    H234223   0.470   7.095   1.106
11428TIP3   OH234224   6.758   2.260   0.533
11428TIP3    H134225   6.718   2.174   0.544
11428TIP3    H234226   6.846   2.250   0.569
11429TIP3   OH234227   8.171   0.346   2.250
11429TIP3    H134228   8.095   0.377   2.299
11429TIP3    H234229   8.194   0.420   2.193
11430TIP3   OH234230   4.312   3.967   3.390
11430TIP3    H134231   4.297   3.934   3.301
11430TIP3    H234232   4.405   3.990   3.392
11431TIP3   OH234233  -0.012   5.256   6.852
11431TIP3    H134234  -0.051   5.175   6.818
11431TIP3    H234235   0.028   5.231   6.934
11432TIP3   OH234236   2.923   2.491   2.309
11432TIP3    H134237   2.856   2.436   2.270
11432TIP3    H234238   2.999   2.480   2.252
11433TIP3   OH234239   7.358   5.975   6.117
11433TIP3    H134240   7.382   5.927   6.196
11433TIP3    H234241   7.434   5.965   6.059
11434TIP3   OH234242   6.604   7.035   1.624
11434TIP3    H134243   6.676   7.098   1.619
11434TIP3    H234244   6.614   6.980   1.546
11435TIP3   OH234245   7.821   5.816   1.917
11435TIP3    H134246   7.816   5.723   1.896
11435TIP3    H234247   7.759   5.828   1.990
11436TIP3   OH234248   4.447   7.279   2.015
11436TIP3    H134249   4.510   7.240   2.076
11436TIP3    H234250   4.463   7.234   1.932
11437TIP3   OH234251   2.058   2.744   4.913
11437TIP3    H134252   2.007   2.680   4.864
11437TIP3    H234253   2.067   2.819   4.854
11438TIP3   OH234254   3.533   3.719   3.122
11438TIP3    H134255   3.529   3.712   3.218
11438TIP3    H234256   3.626   3.708   3.102
11439TIP3   OH234257   2.401   3.788   2.823
11439TIP3    H134258   2.402   3.737   2.904
11439TIP3    H234259   2.467   3.856   2.837
11440TIP3   OH234260   0.192   4.121   2.496
11440TIP3    H134261   0.168   4.035   2.461
11440TIP3    H234262   0.245   4.102   2.573
11441TIP3   OH234263   5.338   4.586   4.596
11441TIP3    H134264   5.261   4.548   4.554
11441TIP3    H234265   5.405   4.518   4.590
11442TIP3   OH234266   5.935   4.041   3.734
11442TIP3    H134267   5.882   3.961   3.739
11442TIP3    H234268   5.970   4.040   3.645
11443TIP3   OH234269   4.073   2.483   1.893
11443TIP3    H134270   4.051   2.572   1.918
11443TIP3    H234271   3.992   2.434   1.908
11444TIP3   OH234272   6.938   3.927   4.317
11444TIP3    H134273   7.014   3.966   4.274
11444TIP3    H234274   6.972   3.891   4.399
11445TIP3   OH234275   7.105   5.068   2.338
11445TIP3    H134276   7.200   5.080   2.337
11445TIP3    H234277   7.072   5.133   2.277
11446TIP3   OH234278   7.384   4.050   0.668
11446TIP3    H134279   7.409   4.117   0.604
11446TIP3    H234280   7.454   4.053   0.734
11447TIP3   OH234281   2.196   4.759   0.707
11447TIP3    H134282   2.277   4.716   0.734
11447TIP3    H234283   2.216   4.796   0.621
11448TIP3   OH234284   0.934   0.238   4.622
11448TIP3    H134285   0.917   0.212   4.531
11448TIP3    H234286   0.852   0.280   4.650
11449TIP3   OH234287   0.244   0.371   5.088
11449TIP3    H134288   0.285   0.406   5.009
11449TIP3    H234289   0.289   0.415   5.160
11450TIP3   OH234290   3.479   5.773   2.327
11450TIP3    H134291   3.517   5.816   2.403
11450TIP3    H234292   3.385   5.781   2.340
11451TIP3   OH234293   7.515   2.509   1.455
11451TIP3    H134294   7.565   2.510   1.536
11451TIP3    H234295   7.453   2.581   1.464
11452TIP3   OH234296   6.092   5.908   0.745
11452TIP3    H134297   6.050   5.917   0.831
11452TIP3    H234298   6.043   5.969   0.689
11453TIP3   OH234299   7.873   5.525   3.095
11453TIP3    H134300   7.962   5.552   3.073
11453TIP3    H234301   7.867   5.537   3.189
11454TIP3   OH234302   2.719   0.351   6.273
11454TIP3    H134303   2.738   0.270   6.321
11454TIP3    H234304   2.654   0.396   6.327
11455TIP3   OH234305   5.337   5.571   6.923
11455TIP3    H134306   5.429   5.579   6.948
11455TIP3    H234307   5.333   5.609   6.835
11456TIP3   OH234308   4.794   2.796   4.108
11456TIP3    H134309   4.887   2.805   4.125
11456TIP3    H234310   4.766   2.883   4.078
11457TIP3   OH234311   1.880   3.596   4.391
11457TIP3    H134312   1.847   3.605   4.481
11457TIP3    H234313   1.971   3.623   4.396
11458TIP3   OH234314   0.115   5.596   5.596
11458TIP3    H134315   0.091   5.632   5.681
11458TIP3    H234316   0.159   5.514   5.615
11459TIP3   OH234317   1.873   3.769   3.725
11459TIP3    H134318   1.938   3.719   3.676
11459TIP3    H234319   1.898   3.758   3.817
11460TIP3   OH234320   5.089   6.299   5.810
11460TIP3    H134321   5.088   6.394   5.801
11460TIP3    H234322   5.104   6.266   5.722
11461TIP3   OH234323   5.063   0.187   4.502
11461TIP3    H134324   5.151   0.175   4.468
11461TIP3    H234325   5.010   0.122   4.455
11462TIP3   OH234326  -0.004   4.002   0.733
11462TIP3    H134327   0.064   4.054   0.776
11462TIP3    H234328   0.041   3.921   0.709
11463TIP3   OH234329   7.841   3.638   2.084
11463TIP3    H134330   7.819   3.551   2.050
11463TIP3    H234331   7.766   3.662   2.138
11464TIP3   OH234332   0.863   5.307   3.403
11464TIP3    H134333   0.796   5.280   3.465
11464TIP3    H234334   0.814   5.338   3.327
11465TIP3   OH234335   4.955   4.029   4.809
11465TIP3    H134336   4.969   4.023   4.903
11465TIP3    H234337   4.937   3.938   4.782
11466TIP3   OH234338   4.231   7.846   2.096
11466TIP3    H134339   4.280   7.929   2.101
11466TIP3    H234340   4.256   7.798   2.175
11467TIP3   OH234341   3.448   2.131   0.758
11467TIP3    H134342   3.537   2.114   0.729
11467TIP3    H234343   3.420   2.049   0.800
11468TIP3   OH234344   7.055   3.700   6.689
11468TIP3    H134345   6.977   3.646   6.694
11468TIP3    H234346   7.047   3.763   6.760
11469TIP3   OH234347   6.483   7.825   2.530
11469TIP3    H134348   6.519   7.762   2.469
11469TIP3    H234349   6.447   7.772   2.601
11470TIP3   OH234350   5.260   7.182   6.088
11470TIP3    H134351   5.248   7.156   5.997
11470TIP3    H234352   5.231   7.106   6.139
11471TIP3   OH234353   0.918   5.075   4.092
11471TIP3    H134354   0.888   5.157   4.131
11471TIP3    H234355   0.852   5.054   4.026
11472TIP3   OH234356   5.123   3.320   1.157
11472TIP3    H134357   5.033   3.350   1.146
11472TIP3    H234358   5.171   3.358   1.083
11473TIP3   OH234359   4.986   5.875   5.235
11473TIP3    H134360   4.933   5.803   5.201
11473TIP3    H234361   4.922   5.935   5.274
11474TIP3   OH234362   8.175   3.420   5.948
11474TIP3    H134363   8.094   3.370   5.960
11474TIP3    H234364   8.198   3.449   6.036
11475TIP3   OH234365   5.002   6.203   0.074
11475TIP3    H134366   5.072   6.257   0.037
11475TIP3    H234367   4.922   6.235   0.032
11476TIP3   OH234368   5.795   7.384   0.981
11476TIP3    H134369   5.825   7.302   0.943
11476TIP3    H234370   5.818   7.450   0.916
11477TIP3   OH234371   4.929   6.117   0.996
11477TIP3    H134372   4.894   6.078   0.916
11477TIP3    H234373   4.863   6.098   1.063
11478TIP3   OH234374   4.748   1.275   0.443
11478TIP3    H134375   4.743   1.182   0.466
11478TIP3    H234376   4.776   1.318   0.523
11479TIP3   OH234377   2.220   2.981   6.449
11479TIP3    H134378   2.280   3.041   6.404
11479TIP3    H234379   2.146   2.972   6.390
11480TIP3   OH234380   1.769   2.958   0.077
11480TIP3    H134381   1.764   3.036   0.131
11480TIP3    H234382   1.756   2.989  -0.013
11481TIP3   OH234383   7.012   7.644   1.162
11481TIP3    H134384   7.062   7.696   1.098
11481TIP3    H234385   7.056   7.659   1.245
11482TIP3   OH234386   1.103   0.263   3.112
11482TIP3    H134387   1.025   0.213   3.136
11482TIP3    H234388   1.175   0.219   3.157
11483TIP3   OH234389   2.247   2.738   2.390
11483TIP3    H134390   2.247   2.657   2.442
11483TIP3    H234391   2.256   2.808   2.455
11484TIP3   OH234392   5.700   7.526   3.216
11484TIP3    H134393   5.665   7.607   3.177
11484TIP3    H234394   5.786   7.516   3.176
11485TIP3   OH234395   1.003   2.429   5.420
11485TIP3    H134396   0.940   2.433   5.492
11485TIP3    H234397   1.027   2.337   5.414
11486TIP3   OH234398   1.442   1.192   5.462
11486TIP3    H134399   1.381   1.206   5.534
11486TIP3    H234400   1.428   1.101   5.436
11487TIP3   OH234401   7.974   7.434   6.207
11487TIP3    H134402   7.996   7.340   6.208
11487TIP3    H234403   8.001   7.464   6.120
11488TIP3   OH234404   2.555   3.258   3.181
11488TIP3    H134405   2.564   3.331   3.119
11488TIP3    H234406   2.484   3.205   3.146
11489TIP3   OH234407   4.168   0.923   6.259
11489TIP3    H134408   4.102   0.856   6.242
11489TIP3    H234409   4.155   0.947   6.350
11490TIP3   OH234410   1.555   3.807   4.488
11490TIP3    H134411   1.616   3.775   4.554
11490TIP3    H234412   1.483   3.846   4.537
11491TIP3   OH234413   4.953   5.138   4.658
11491TIP3    H134414   4.956   5.046   4.683
11491TIP3    H234415   4.969   5.138   4.564
11492TIP3   OH234416   8.066   3.293   5.139
11492TIP3    H134417   8.150   3.264   5.104
11492TIP3    H234418   8.088   3.332   5.224
11493TIP3   OH234419   7.416   2.449   3.773
11493TIP3    H134420   7.378   2.439   3.686
11493TIP3    H234421   7.505   2.415   3.764
11494TIP3   OH234422   5.946   3.831   0.157
11494TIP3    H134423   5.880   3.885   0.113
11494TIP3    H234424   6.012   3.893   0.187
11495TIP3   OH234425   5.786   2.641   0.946
11495TIP3    H134426   5.774   2.639   1.041
11495TIP3    H234427   5.795   2.549   0.921
11496TIP3   OH234428   2.822   6.729   3.798
11496TIP3    H134429   2.735   6.707   3.766
11496TIP3    H234430   2.811   6.735   3.893
11497TIP3   OH234431   8.011   7.207   3.559
11497TIP3    H134432   7.999   7.244   3.471
11497TIP3    H234433   8.055   7.277   3.608
11498TIP3   OH234434   0.691   3.836   1.366
11498TIP3    H134435   0.601   3.811   1.386
11498TIP3    H234436   0.689   3.858   1.272
11499TIP3   OH234437   8.329   6.381   1.154
11499TIP3    H134438   8.233   6.376   1.159
11499TIP3    H234439   8.357   6.290   1.140
11500TIP3   OH234440   7.941   1.825   4.311
11500TIP3    H134441   8.019   1.773   4.330
11500TIP3    H234442   7.973   1.915   4.307
11501TIP3   OH234443   6.269   6.579   5.304
11501TIP3    H134444   6.222   6.555   5.223
11501TIP3    H234445   6.218   6.651   5.340
11502TIP3   OH234446   0.688   6.506   5.784
11502TIP3    H134447   0.710   6.585   5.735
11502TIP3    H234448   0.646   6.539   5.864
11503TIP3   OH234449   7.938   2.697   5.363
11503TIP3    H134450   7.951   2.624   5.301
11503TIP3    H234451   7.844   2.713   5.362
11504TIP3   OH234452   2.906   7.789   6.077
11504TIP3    H134453   2.921   7.789   6.172
11504TIP3    H234454   2.937   7.703   6.048
11505TIP3   OH234455   3.582   2.699   0.318
11505TIP3    H134456   3.617   2.623   0.270
11505TIP3    H234457   3.610   2.775   0.267
11506TIP3   OH234458   0.944   6.151   2.365
11506TIP3    H134459   1.037   6.157   2.341
11506TIP3    H234460   0.942   6.170   2.458
11507TIP3   OH234461   5.407   0.194   3.661
11507TIP3    H134462   5.402   0.119   3.720
11507TIP3    H234463   5.485   0.178   3.608
11508TIP3   OH234464   0.146   5.197   0.995
11508TIP3    H134465   0.153   5.135   1.067
11508TIP3    H234466   0.072   5.164   0.943
11509TIP3   OH234467   5.094   0.012   0.339
11509TIP3    H134468   5.077   0.091   0.390
11509TIP3    H234469   5.063  -0.060   0.394
11510TIP3   OH234470   2.509   0.785   0.620
11510TIP3    H134471   2.514   0.764   0.526
11510TIP3    H234472   2.580   0.849   0.634
11511TIP3   OH234473   6.124   2.678   3.172
11511TIP3    H134474   6.203   2.644   3.128
11511TIP3    H234475   6.118   2.628   3.253
11512TIP3   OH234476   1.891   7.876   2.916
11512TIP3    H134477   1.942   7.812   2.966
11512TIP3    H234478   1.821   7.824   2.876
11513TIP3   OH234479   3.844   4.429   4.873
11513TIP3    H134480   3.864   4.494   4.805
11513TIP3    H234481   3.920   4.431   4.931
11514TIP3   OH234482   2.305   5.270   1.746
11514TIP3    H134483   2.246   5.326   1.797
11514TIP3    H234484   2.376   5.249   1.807
11515TIP3   OH234485   0.827   4.195   2.086
11515TIP3    H134486   0.889   4.151   2.028
11515TIP3    H234487   0.838   4.288   2.066
11516TIP3   OH234488   6.605   7.283   1.199
11516TIP3    H134489   6.536   7.332   1.153
11516TIP3    H234490   6.687   7.317   1.162
11517TIP3   OH234491   4.476   2.909   3.870
11517TIP3    H134492   4.446   2.995   3.900
11517TIP3    H234493   4.412   2.884   3.804
11518TIP3   OH234494   4.800   0.404   0.390
11518TIP3    H134495   4.870   0.397   0.325
11518TIP3    H234496   4.731   0.346   0.357
11519TIP3   OH234497   3.780   6.679   4.533
11519TIP3    H134498   3.789   6.733   4.612
11519TIP3    H234499   3.797   6.740   4.461
11520TIP3   OH234500   6.379   6.275   2.773
11520TIP3    H134501   6.334   6.207   2.723
11520TIP3    H234502   6.465   6.237   2.792
11521TIP3   OH234503   5.407   2.792   5.798
11521TIP3    H134504   5.470   2.827   5.734
11521TIP3    H234505   5.455   2.790   5.881
11522TIP3   OH234506   7.110   6.737   2.742
11522TIP3    H134507   7.167   6.810   2.717
11522TIP3    H234508   7.155   6.697   2.817
11523TIP3   OH234509   1.658   0.304   0.865
11523TIP3    H134510   1.706   0.351   0.933
11523TIP3    H234511   1.721   0.238   0.833
11524TIP3   OH234512   4.908   6.400   2.428
11524TIP3    H134513   4.985   6.361   2.469
11524TIP3    H234514   4.851   6.325   2.408
11525TIP3   OH234515   2.287   4.192   1.746
11525TIP3    H134516   2.304   4.279   1.783
11525TIP3    H234517   2.263   4.210   1.654
11526TIP3   OH234518   5.175   6.413   1.705
11526TIP3    H134519   5.269   6.421   1.720
11526TIP3    H234520   5.144   6.503   1.698
11527TIP3   OH234521   5.783   7.731   6.113
11527TIP3    H134522   5.805   7.824   6.106
11527TIP3    H234523   5.689   7.727   6.094
11528TIP3   OH234524   5.384   3.902   5.397
11528TIP3    H134525   5.469   3.874   5.363
11528TIP3    H234526   5.396   3.994   5.419
11529TIP3   OH234527   3.059   1.057   4.641
11529TIP3    H134528   3.088   1.070   4.550
11529TIP3    H234529   3.136   1.022   4.685
11530TIP3   OH234530   4.957   6.255   1.627
11530TIP3    H134531   4.918   6.340   1.644
11530TIP3    H234532   5.047   6.263   1.657
11531TIP3   OH234533   3.800   0.429   2.928
11531TIP3    H134534   3.838   0.429   3.016
11531TIP3    H234535   3.827   0.346   2.889
11532TIP3   OH234536   5.794   4.699   4.514
11532TIP3    H134537   5.883   4.727   4.492
11532TIP3    H234538   5.767   4.645   4.439
11533TIP3   OH234539   2.077   1.673   1.768
11533TIP3    H134540   2.166   1.670   1.734
11533TIP3    H234541   2.075   1.606   1.836
11534TIP3   OH234542   1.615   2.872   2.272
11534TIP3    H134543   1.586   2.815   2.344
11534TIP3    H234544   1.692   2.827   2.236
11535TIP3   OH234545   5.904   2.455   4.599
11535TIP3    H134546   5.946   2.436   4.683
11535TIP3    H234547   5.823   2.404   4.601
11536TIP3   OH234548   1.483   3.593   6.607
11536TIP3    H134549   1.405   3.558   6.651
11536TIP3    H234550   1.527   3.645   6.675
11537TIP3   OH234551   7.540   0.731   2.111
11537TIP3    H134552   7.633   0.747   2.093
11537TIP3    H234553   7.515   0.802   2.170
11538TIP3   OH234554   6.407   6.212   3.447
11538TIP3    H134555   6.319   6.214   3.484
11538TIP3    H234556   6.462   6.179   3.518
11539TIP3   OH234557   4.299   4.937   6.437
11539TIP3    H134558   4.347   5.014   6.407
11539TIP3    H234559   4.364   4.867   6.439
11540TIP3   OH234560   3.519   1.647   1.167
11540TIP3    H134561   3.560   1.733   1.170
11540TIP3    H234562   3.426   1.663   1.183
11541TIP3   OH234563   6.926   6.016   2.258
11541TIP3    H134564   6.965   5.933   2.231
11541TIP3    H234565   7.000   6.073   2.278
11542TIP3   OH234566   1.946   2.553   6.304
11542TIP3    H134567   1.913   2.465   6.285
11542TIP3    H234568   1.868   2.608   6.309
11543TIP3   OH234569   1.635   3.651   1.033
11543TIP3    H134570   1.703   3.642   0.967
11543TIP3    H234571   1.596   3.736   1.016
11544TIP3   OH234572   7.180   3.329   4.344
11544TIP3    H134573   7.177   3.411   4.296
11544TIP3    H234574   7.099   3.328   4.395
11545TIP3   OH234575   7.628   3.223   2.172
11545TIP3    H134576   7.589   3.151   2.221
11545TIP3    H234577   7.576   3.300   2.198
11546TIP3   OH234578   2.176   7.177   2.547
11546TIP3    H134579   2.100   7.139   2.591
11546TIP3    H234580   2.199   7.253   2.601
11547TIP3   OH234581   7.050   1.622   3.437
11547TIP3    H134582   7.024   1.616   3.528
11547TIP3    H234583   7.078   1.533   3.414
11548TIP3   OH234584   1.026   4.289   5.925
11548TIP3    H134585   1.005   4.197   5.944
11548TIP3    H234586   0.962   4.339   5.976
11549TIP3   OH234587   0.503   7.363   5.323
11549TIP3    H134588   0.475   7.401   5.407
11549TIP3    H234589   0.425   7.320   5.289
11550TIP3   OH234590   2.344   0.364   3.249
11550TIP3    H134591   2.419   0.407   3.289
11550TIP3    H234592   2.269   0.417   3.275
11551TIP3   OH234593   4.223   2.926   4.865
11551TIP3    H134594   4.293   2.868   4.893
11551TIP3    H234595   4.210   2.987   4.938
11552TIP3   OH234596   7.299   4.014   3.147
11552TIP3    H134597   7.278   4.105   3.170
11552TIP3    H234598   7.251   3.998   3.066
11553TIP3   OH234599   8.045   3.863   6.303
11553TIP3    H134600   7.997   3.924   6.247
11553TIP3    H234601   7.977   3.805   6.339
11554TIP3   OH234602   2.976   2.635   3.707
11554TIP3    H134603   2.972   2.636   3.803
11554TIP3    H234604   2.960   2.544   3.683
11555TIP3   OH234605   7.027   4.386   5.519
11555TIP3    H134606   7.016   4.346   5.433
11555TIP3    H234607   7.000   4.477   5.507
11556TIP3   OH234608   4.346   7.731   4.466
11556TIP3    H134609   4.428   7.778   4.448
11556TIP3    H234610   4.286   7.799   4.497
11557TIP3   OH234611   2.543   3.284   6.537
11557TIP3    H134612   2.562   3.192   6.554
11557TIP3    H234613   2.484   3.310   6.607
11558TIP3   OH234614   7.267   0.549   6.749
11558TIP3    H134615   7.220   0.554   6.832
11558TIP3    H234616   7.267   0.456   6.727
11559TIP3   OH234617   3.339   0.070   2.060
11559TIP3    H134618   3.276   0.129   2.018
11559TIP3    H234619   3.413   0.068   1.999
11560TIP3   OH234620   3.682   7.303   0.174
11560TIP3    H134621   3.613   7.357   0.134
11560TIP3    H234622   3.727   7.264   0.100
11561TIP3   OH234623   6.545   2.611   4.457
11561TIP3    H134624   6.535   2.521   4.488
11561TIP3    H234625   6.535   2.665   4.535
11562TIP3   OH234626   7.881   1.729   5.253
11562TIP3    H134627   7.949   1.725   5.186
11562TIP3    H234628   7.802   1.756   5.206
11563TIP3   OH234629   8.011   7.165   2.722
11563TIP3    H134630   7.930   7.178   2.673
11563TIP3    H234631   7.986   7.114   2.799
11564TIP3   OH234632   7.663   7.168   3.508
11564TIP3    H134633   7.569   7.167   3.491
11564TIP3    H234634   7.674   7.231   3.579
11565TIP3   OH234635   2.540   4.051   1.748
11565TIP3    H134636   2.479   4.125   1.751
11565TIP3    H234637   2.604   4.076   1.682
11566TIP3   OH234638   1.773   4.281   1.266
11566TIP3    H134639   1.862   4.247   1.266
11566TIP3    H234640   1.783   4.375   1.282
11567TIP3   OH234641   4.080   4.282   3.197
11567TIP3    H134642   4.029   4.209   3.232
11567TIP3    H234643   4.029   4.314   3.123
11568TIP3   OH234644   6.941   3.768   6.384
11568TIP3    H134645   7.012   3.825   6.414
11568TIP3    H234646   6.935   3.700   6.451
11569TIP3   OH234647   2.427   7.722   3.246
11569TIP3    H134648   2.473   7.638   3.241
11569TIP3    H234649   2.341   7.700   3.282
11570TIP3   OH234650   5.715   6.264   2.875
11570TIP3    H134651   5.809   6.249   2.874
11570TIP3    H234652   5.685   6.229   2.959
11571TIP3   OH234653   1.612   0.049   3.390
11571TIP3    H134654   1.599   0.115   3.457
11571TIP3    H234655   1.707   0.031   3.393
11572TIP3   OH234656   8.286   1.846   3.199
11572TIP3    H134657   8.236   1.769   3.227
11572TIP3    H234658   8.220   1.913   3.183
11573TIP3   OH234659   1.138   1.074   6.794
11573TIP3    H134660   1.151   1.087   6.888
11573TIP3    H234661   1.046   1.098   6.780
11574TIP3   OH234662   7.519   4.268   0.524
11574TIP3    H134663   7.613   4.280   0.510
11574TIP3    H234664   7.479   4.288   0.440
11575TIP3   OH234665   6.176   5.135   5.685
11575TIP3    H134666   6.081   5.123   5.691
11575TIP3    H234667   6.190   5.173   5.598
11576TIP3   OH234668   4.531   6.407   5.697
11576TIP3    H134669   4.560   6.479   5.641
11576TIP3    H234670   4.561   6.432   5.785
11577TIP3   OH234671   8.183   4.004   5.134
11577TIP3    H134672   8.186   3.996   5.229
11577TIP3    H234673   8.109   3.950   5.107
11578TIP3   OH234674   1.865   2.796   4.108
11578TIP3    H134675   1.934   2.769   4.048
11578TIP3    H234676   1.785   2.792   4.055
11579TIP3   OH234677   0.219   1.560   3.832
11579TIP3    H134678   0.135   1.565   3.879
11579TIP3    H234679   0.285   1.570   3.901
11580TIP3   OH234680   5.764   6.138   4.218
11580TIP3    H134681   5.684   6.189   4.214
11580TIP3    H234682   5.826   6.185   4.163
11581TIP3   OH234683   1.360   5.054   1.640
11581TIP3    H134684   1.327   4.992   1.576
11581TIP3    H234685   1.304   5.041   1.717
11582TIP3   OH234686   6.130   1.007   5.056
11582TIP3    H134687   6.199   1.057   5.013
11582TIP3    H234688   6.127   1.042   5.145
11583TIP3   OH234689   5.760   0.661   1.487
11583TIP3    H134690   5.798   0.687   1.403
11583TIP3    H234691   5.670   0.691   1.483
11584TIP3   OH234692   6.060   4.192   5.826
11584TIP3    H134693   5.995   4.257   5.800
11584TIP3    H234694   6.010   4.111   5.838
11585TIP3   OH234695   2.166   2.639   5.714
11585TIP3    H134696   2.190   2.549   5.695
11585TIP3    H234697   2.146   2.641   5.807
11586TIP3   OH234698   2.777   1.612   1.936
11586TIP3    H134699   2.872   1.613   1.940
11586TIP3    H234700   2.754   1.700   1.906
11587TIP3   OH234701   1.011   0.680   6.320
11587TIP3    H134702   1.012   0.706   6.228
11587TIP3    H234703   1.094   0.711   6.356
11588TIP3   OH234704   7.499   2.082   1.846
11588TIP3    H134705   7.580   2.123   1.877
11588TIP3    H234706   7.432   2.150   1.859
11589TIP3   OH234707   4.463   4.381   1.028
11589TIP3    H134708   4.417   4.300   1.049
11589TIP3    H234709   4.446   4.395   0.935
11590TIP3   OH234710   2.273   3.064   4.320
11590TIP3    H134711   2.368   3.062   4.324
11590TIP3    H234712   2.251   3.019   4.238
11591TIP3   OH234713   7.236   3.953   3.634
11591TIP3    H134714   7.277   3.982   3.553
11591TIP3    H234715   7.178   4.024   3.659
11592TIP3   OH234716   1.954   4.472   6.183
11592TIP3    H134717   1.972   4.561   6.214
11592TIP3    H234718   1.863   4.475   6.155
11593TIP3   OH234719   1.836   2.295   6.185
11593TIP3    H134720   1.868   2.273   6.097
11593TIP3    H234721   1.889   2.240   6.243
11594TIP3   OH234722   3.308   3.751   1.465
11594TIP3    H134723   3.390   3.735   1.418
11594TIP3    H234724   3.247   3.686   1.430
11595TIP3   OH234725   0.477   2.093   2.770
11595TIP3    H134726   0.441   2.115   2.856
11595TIP3    H234727   0.557   2.145   2.763
11596TIP3   OH234728   2.777   1.818   0.487
11596TIP3    H134729   2.715   1.813   0.414
11596TIP3    H234730   2.790   1.726   0.514
11597TIP3   OH234731   0.235   5.990   0.104
11597TIP3    H134732   0.200   6.045   0.174
11597TIP3    H234733   0.229   5.901   0.138
11598TIP3   OH234734   0.178   3.946   6.045
11598TIP3    H134735   0.134   3.938   6.130
11598TIP3    H234736   0.267   3.914   6.061
11599TIP3   OH234737   4.516   3.790   3.120
11599TIP3    H134738   4.559   3.840   3.190
11599TIP3    H234739   4.440   3.843   3.097
11600TIP3   OH234740   2.944   7.066   0.747
11600TIP3    H134741   3.020   7.018   0.778
11600TIP3    H234742   2.884   6.999   0.716
11601TIP3   OH234743   3.209   0.977   1.087
11601TIP3    H134744   3.134   0.919   1.078
11601TIP3    H234745   3.173   1.065   1.079
11602TIP3   OH234746   7.700   2.629   3.396
11602TIP3    H134747   7.721   2.660   3.308
11602TIP3    H234748   7.780   2.583   3.424
11603TIP3   OH234749   0.366   4.153   2.701
11603TIP3    H134750   0.317   4.224   2.744
11603TIP3    H234751   0.436   4.133   2.762
11604TIP3   OH234752   2.220   7.830   6.506
11604TIP3    H134753   2.301   7.836   6.455
11604TIP3    H234754   2.204   7.736   6.513
11605TIP3   OH234755   5.755   4.532   1.565
11605TIP3    H134756   5.737   4.469   1.496
11605TIP3    H234757   5.806   4.601   1.522
11606TIP3   OH234758   3.850   5.693   1.655
11606TIP3    H134759   3.862   5.750   1.578
11606TIP3    H234760   3.857   5.604   1.621
11607TIP3   OH234761   4.999   2.723   3.055
11607TIP3    H134762   4.967   2.663   3.122
11607TIP3    H234763   4.974   2.810   3.087
11608TIP3   OH234764   1.197   1.155   1.322
11608TIP3    H134765   1.158   1.233   1.362
11608TIP3    H234766   1.290   1.161   1.343
11609TIP3   OH234767   7.558   6.276   4.375
11609TIP3    H134768   7.608   6.195   4.382
11609TIP3    H234769   7.596   6.333   4.442
11610TIP3   OH234770   2.258   5.777   1.495
11610TIP3    H134771   2.319   5.747   1.428
11610TIP3    H234772   2.249   5.703   1.555
11611TIP3   OH234773   5.223   2.769   6.598
11611TIP3    H134774   5.191   2.780   6.509
11611TIP3    H234775   5.273   2.848   6.616
11612TIP3   OH234776   7.666   0.649   4.032
11612TIP3    H134777   7.689   0.742   4.035
11612TIP3    H234778   7.582   0.646   3.986
11613TIP3   OH234779   4.145   2.010   2.367
11613TIP3    H134780   4.156   1.917   2.389
11613TIP3    H234781   4.190   2.056   2.438
11614TIP3   OH234782   5.354   0.829   4.221
11614TIP3    H134783   5.430   0.792   4.177
11614TIP3    H234784   5.390   0.879   4.295
11615TIP3   OH234785   1.203   7.796   2.632
11615TIP3    H134786   1.270   7.829   2.572
11615TIP3    H234787   1.200   7.860   2.703
11616TIP3   OH234788   4.837   1.803   4.863
11616TIP3    H134789   4.812   1.711   4.868
11616TIP3    H234790   4.783   1.840   4.793
11617TIP3   OH234791   2.288   7.875   5.486
11617TIP3    H134792   2.381   7.860   5.502
11617TIP3    H234793   2.280   7.971   5.483
11618TIP3   OH234794   7.872   7.503   6.809
11618TIP3    H134795   7.832   7.550   6.882
11618TIP3    H234796   7.878   7.568   6.739
11619TIP3   OH234797   7.776   0.694   0.131
11619TIP3    H134798   7.861   0.706   0.089
11619TIP3    H234799   7.720   0.761   0.092
11620TIP3   OH234800   6.463   6.164   0.029
11620TIP3    H134801   6.449   6.069   0.034
11620TIP3    H234802   6.508   6.177  -0.054
11621TIP3   OH234803   5.885   5.342   2.899
11621TIP3    H134804   5.821   5.273   2.880
11621TIP3    H234805   5.963   5.316   2.850
11622TIP3   OH234806   0.440   0.322   2.026
11622TIP3    H134807   0.356   0.324   1.980
11622TIP3    H234808   0.500   0.281   1.964
11623TIP3   OH234809   4.584   5.560   2.728
11623TIP3    H134810   4.539   5.556   2.813
11623TIP3    H234811   4.613   5.470   2.712
11624TIP3   OH234812   5.735   7.675   2.783
11624TIP3    H134813   5.794   7.695   2.711
11624TIP3    H234814   5.778   7.603   2.830
11625TIP3   OH234815   7.218   2.331   5.217
11625TIP3    H134816   7.302   2.286   5.211
11625TIP3    H234817   7.155   2.262   5.236
11626TIP3   OH234818   8.284   5.680   1.127
11626TIP3    H134819   8.291   5.773   1.109
11626TIP3    H234820   8.373   5.646   1.116
11627TIP3   OH234821   4.788   0.417   6.866
11627TIP3    H134822   4.775   0.480   6.794
11627TIP3    H234823   4.882   0.415   6.879
11628TIP3   OH234824   1.857   4.548   2.281
11628TIP3    H134825   1.797   4.591   2.220
11628TIP3    H234826   1.800   4.511   2.349
11629TIP3   OH234827   3.363   1.158   0.726
11629TIP3    H134828   3.318   1.073   0.723
11629TIP3    H234829   3.392   1.166   0.817
11630TIP3   OH234830   6.031   3.854   3.276
11630TIP3    H134831   6.106   3.845   3.217
11630TIP3    H234832   5.972   3.914   3.231
11631TIP3   OH234833   7.447   2.771   0.767
11631TIP3    H134834   7.413   2.683   0.746
11631TIP3    H234835   7.538   2.769   0.736
11632TIP3   OH234836   3.570   2.959   2.018
11632TIP3    H134837   3.503   2.952   1.949
11632TIP3    H234838   3.603   2.870   2.028
11633TIP3   OH234839   0.725   7.552   2.978
11633TIP3    H134840   0.734   7.588   3.067
11633TIP3    H234841   0.812   7.517   2.958
11634TIP3   OH234842   4.985   3.078   4.143
11634TIP3    H134843   4.970   3.059   4.050
11634TIP3    H234844   5.057   3.140   4.143
11635TIP3   OH234845   0.509   5.714   6.329
11635TIP3    H134846   0.431   5.732   6.382
11635TIP3    H234847   0.581   5.710   6.393
11636TIP3   OH234848   4.260   4.223   6.213
11636TIP3    H134849   4.274   4.142   6.165
11636TIP3    H234850   4.197   4.201   6.281
11637TIP3   OH234851   0.484   0.408   0.892
11637TIP3    H134852   0.565   0.411   0.841
11637TIP3    H234853   0.512   0.383   0.980
11638TIP3   OH234854   1.489   3.597   1.254
11638TIP3    H134855   1.565   3.589   1.312
11638TIP3    H234856   1.526   3.604   1.166
11639TIP3   OH234857   6.510   7.462   3.832
11639TIP3    H134858   6.581   7.517   3.801
11639TIP3    H234859   6.476   7.419   3.753
11640TIP3   OH234860   0.761   4.457   1.676
11640TIP3    H134861   0.702   4.386   1.700
11640TIP3    H234862   0.715   4.536   1.704
11641TIP3   OH234863   1.358   0.659   6.161
11641TIP3    H134864   1.418   0.594   6.126
11641TIP3    H234865   1.366   0.733   6.101
11642TIP3   OH234866   2.853   3.846   3.803
11642TIP3    H134867   2.902   3.764   3.791
11642TIP3    H234868   2.843   3.881   3.715
11643TIP3   OH234869   5.592   7.344   0.114
11643TIP3    H134870   5.595   7.260   0.159
11643TIP3    H234871   5.499   7.369   0.117
11644TIP3   OH234872   0.723   3.496   3.149
11644TIP3    H134873   0.653   3.515   3.210
11644TIP3    H234874   0.699   3.542   3.069
11645TIP3   OH234875   5.847   6.233   0.236
11645TIP3    H134876   5.936   6.252   0.206
11645TIP3    H234877   5.844   6.267   0.325
11646TIP3   OH234878   4.597   5.485   6.061
11646TIP3    H134879   4.555   5.564   6.025
11646TIP3    H234880   4.615   5.507   6.152
11647TIP3   OH234881   0.728   6.102   2.196
11647TIP3    H134882   0.794   6.109   2.266
11647TIP3    H234883   0.644   6.114   2.241
11648TIP3   OH234884   0.465   1.456   0.980
11648TIP3    H134885   0.403   1.395   1.021
11648TIP3    H234886   0.543   1.450   1.034
11649TIP3   OH234887   2.585   4.660   2.644
11649TIP3    H134888   2.547   4.588   2.694
11649TIP3    H234889   2.533   4.665   2.564
11650TIP3   OH234890   6.602   0.651   5.500
11650TIP3    H134891   6.569   0.609   5.580
11650TIP3    H234892   6.597   0.582   5.434
11651TIP3   OH234893   4.614   1.839   0.763
11651TIP3    H134894   4.701   1.809   0.789
11651TIP3    H234895   4.615   1.934   0.781
11652TIP3   OH234896   0.856   4.238   4.906
11652TIP3    H134897   0.864   4.167   4.842
11652TIP3    H234898   0.886   4.201   4.988
11653TIP3   OH234899   4.059   7.908   2.686
11653TIP3    H134900   4.096   7.848   2.621
11653TIP3    H234901   3.965   7.907   2.668
11654TIP3   OH234902   2.557   5.988   6.384
11654TIP3    H134903   2.623   5.987   6.315
11654TIP3    H234904   2.603   6.016   6.462
11655TIP3   OH234905   6.474   4.844   1.447
11655TIP3    H134906   6.405   4.783   1.420
11655TIP3    H234907   6.555   4.794   1.439
11656TIP3   OH234908   0.408   4.367   6.314
11656TIP3    H134909   0.359   4.334   6.239
11656TIP3    H234910   0.458   4.291   6.345
11657TIP3   OH234911   4.350   2.061   0.352
11657TIP3    H134912   4.327   1.991   0.291
11657TIP3    H234913   4.369   2.015   0.434
11658TIP3   OH234914   0.310   3.683   6.749
11658TIP3    H134915   0.284   3.775   6.753
11658TIP3    H234916   0.229   3.637   6.725
11659TIP3   OH234917   4.062   5.358   3.500
11659TIP3    H134918   4.142   5.349   3.447
11659TIP3    H234919   4.013   5.429   3.458
11660TIP3   OH234920   4.508   1.198   1.080
11660TIP3    H134921   4.524   1.115   1.126
11660TIP3    H234922   4.419   1.222   1.105
11661TIP3   OH234923   7.384   7.545   6.527
11661TIP3    H134924   7.332   7.575   6.603
11661TIP3    H234925   7.318   7.512   6.466
11662TIP3   OH234926   2.121   4.002   1.887
11662TIP3    H134927   2.204   4.034   1.852
11662TIP3    H234928   2.073   4.082   1.911
11663TIP3   OH234929   6.235   5.974   6.491
11663TIP3    H134930   6.171   6.044   6.481
11663TIP3    H234931   6.320   6.017   6.481
11664TIP3   OH234932   2.909   1.850   5.431
11664TIP3    H134933   2.824   1.852   5.388
11664TIP3    H234934   2.959   1.921   5.391
11665TIP3   OH234935   0.531   6.569   2.436
11665TIP3    H134936   0.481   6.612   2.505
11665TIP3    H234937   0.479   6.582   2.357
11666TIP3   OH234938   7.571   3.475   4.759
11666TIP3    H134939   7.485   3.468   4.801
11666TIP3    H234940   7.591   3.385   4.731
11667TIP3   OH234941   3.868   2.648   0.477
11667TIP3    H134942   3.947   2.597   0.459
11667TIP3    H234943   3.796   2.589   0.456
11668TIP3   OH234944   7.935   1.513   6.454
11668TIP3    H134945   7.846   1.481   6.440
11668TIP3    H234946   7.989   1.435   6.464
11669TIP3   OH234947   4.667   2.449   5.923
11669TIP3    H134948   4.636   2.362   5.898
11669TIP3    H234949   4.675   2.496   5.841
11670TIP3   OH234950   0.772   4.025   1.558
11670TIP3    H134951   0.753   3.949   1.502
11670TIP3    H234952   0.822   4.084   1.502
11671TIP3   OH234953   5.142   5.698   0.651
11671TIP3    H134954   5.132   5.696   0.746
11671TIP3    H234955   5.163   5.608   0.627
11672TIP3   OH234956   0.603   6.970   2.454
11672TIP3    H134957   0.614   7.049   2.401
11672TIP3    H234958   0.520   6.932   2.425
11673TIP3   OH234959   7.486   5.780   6.287
11673TIP3    H134960   7.570   5.811   6.253
11673TIP3    H234961   7.457   5.715   6.222
11674TIP3   OH234962   6.921   5.112   1.083
11674TIP3    H134963   6.944   5.063   1.005
11674TIP3    H234964   7.000   5.111   1.137
11675TIP3   OH234965   2.625   5.828   3.070
11675TIP3    H134966   2.567   5.903   3.089
11675TIP3    H234967   2.599   5.762   3.134
11676TIP3   OH234968   6.487   6.684   0.916
11676TIP3    H134969   6.563   6.692   0.973
11676TIP3    H234970   6.463   6.591   0.920
11677TIP3   OH234971   5.655   6.881   1.328
11677TIP3    H134972   5.658   6.819   1.255
11677TIP3    H234973   5.564   6.877   1.358
11678TIP3   OH234974   7.698   0.448   4.570
11678TIP3    H134975   7.779   0.500   4.566
11678TIP3    H234976   7.633   0.509   4.603
11679TIP3   OH234977   3.653   1.345   0.868
11679TIP3    H134978   3.730   1.400   0.855
11679TIP3    H234979   3.636   1.350   0.963
11680TIP3   OH234980   3.360   6.224   1.699
11680TIP3    H134981   3.346   6.304   1.750
11680TIP3    H234982   3.348   6.153   1.762
11681TIP3   OH234983   6.222   7.230   1.796
11681TIP3    H134984   6.282   7.202   1.727
11681TIP3    H234985   6.271   7.295   1.846
11682TIP3   OH234986   3.894   1.028   1.622
11682TIP3    H134987   3.926   0.966   1.557
11682TIP3    H234988   3.823   1.075   1.578
11683TIP3   OH234989   7.897   1.802   4.975
11683TIP3    H134990   7.808   1.819   5.007
11683TIP3    H234991   7.888   1.800   4.880
11684TIP3   OH234992   4.598   0.767   5.265
11684TIP3    H134993   4.650   0.842   5.238
11684TIP3    H234994   4.582   0.718   5.184
11685TIP3   OH234995   1.835   1.365   6.379
11685TIP3    H134996   1.806   1.322   6.460
11685TIP3    H234997   1.825   1.298   6.312
11686TIP3   OH234998   2.210   6.462   6.118
11686TIP3    H134999   2.157   6.532   6.080
11686TIP3    H235000   2.257   6.424   6.044
11687TIP3   OH235001   0.317   5.670   3.874
11687TIP3    H135002   0.311   5.588   3.923
11687TIP3    H235003   0.227   5.691   3.850
11688TIP3   OH235004   7.955   0.687   3.936
11688TIP3    H135005   7.964   0.781   3.918
11688TIP3    H235006   7.862   0.674   3.951
11689TIP3   OH235007   0.376   6.845   0.777
11689TIP3    H135008   0.424   6.765   0.798
11689TIP3    H235009   0.312   6.854   0.848
11690TIP3   OH235010   0.053   1.046   6.428
11690TIP3    H135011   0.142   1.036   6.393
11690TIP3    H235012   0.064   1.040   6.523
11691TIP3   OH235013   0.993   1.532   3.250
11691TIP3    H135014   1.065   1.471   3.234
11691TIP3    H235015   0.977   1.572   3.164
11692TIP3   OH235016   7.925   0.179   3.448
11692TIP3    H135017   7.861   0.109   3.441
11692TIP3    H235018   7.873   0.259   3.448
11693TIP3   OH235019   7.736   3.934   5.213
11693TIP3    H135020   7.765   4.021   5.241
11693TIP3    H235021   7.718   3.888   5.295
11694TIP3   OH235022   1.776   3.277   1.113
11694TIP3    H135023   1.770   3.261   1.207
11694TIP3    H235024   1.696   3.238   1.077
11695TIP3   OH235025   5.753   6.322   5.520
11695TIP3    H135026   5.739   6.277   5.603
11695TIP3    H235027   5.665   6.329   5.483
11696TIP3   OH235028   1.546   1.464   0.943
11696TIP3    H135029   1.561   1.395   1.008
11696TIP3    H235030   1.572   1.424   0.860
11697TIP3   OH235031   4.415   2.328   2.848
11697TIP3    H135032   4.498   2.373   2.830
11697TIP3    H235033   4.442   2.242   2.882
11698TIP3   OH235034   1.022   5.614   3.931
11698TIP3    H135035   1.049   5.610   3.840
11698TIP3    H235036   1.090   5.565   3.978
11699TIP3   OH235037   5.546   1.092   2.999
11699TIP3    H135038   5.561   1.092   2.904
11699TIP3    H235039   5.615   1.149   3.034
11700TIP3   OH235040   1.261   1.292   4.492
11700TIP3    H135041   1.306   1.361   4.443
11700TIP3    H235042   1.251   1.327   4.580
11701TIP3   OH235043   2.500   5.269   4.658
11701TIP3    H135044   2.591   5.256   4.686
11701TIP3    H235045   2.478   5.188   4.611
11702TIP3   OH235046   6.876   4.189   0.115
11702TIP3    H135047   6.958   4.227   0.149
11702TIP3    H235048   6.901   4.103   0.082
11703TIP3   OH235049   5.437   2.947   1.755
11703TIP3    H135050   5.344   2.967   1.758
11703TIP3    H235051   5.476   3.001   1.823
11704TIP3   OH235052   1.820   3.043   5.358
11704TIP3    H135053   1.915   3.034   5.355
11704TIP3    H235054   1.788   2.997   5.280
11705TIP3   OH235055   7.893   5.483   5.519
11705TIP3    H135056   7.855   5.530   5.445
11705TIP3    H235057   7.830   5.414   5.539
11706TIP3   OH235058   5.111   1.093   0.692
11706TIP3    H135059   5.034   1.036   0.695
11706TIP3    H235060   5.087   1.168   0.746
11707TIP3   OH235061   3.910   2.998   6.897
11707TIP3    H135062   3.910   2.911   6.857
11707TIP3    H235063   3.861   2.987   6.978
11708TIP3   OH235064   0.891   3.101   1.694
11708TIP3    H135065   0.850   3.181   1.659
11708TIP3    H235066   0.850   3.089   1.780
11709TIP3   OH235067   3.808   3.160   6.361
11709TIP3    H135068   3.890   3.121   6.331
11709TIP3    H235069   3.748   3.087   6.370
11710TIP3   OH235070   3.757   4.898   1.626
11710TIP3    H135071   3.714   4.815   1.607
11710TIP3    H235072   3.763   4.942   1.541
11711TIP3   OH235073   1.563   7.330   0.695
11711TIP3    H135074   1.559   7.425   0.696
11711TIP3    H235075   1.656   7.310   0.683
11712TIP3   OH235076   3.106   6.365   5.256
11712TIP3    H135077   3.071   6.315   5.330
11712TIP3    H235078   3.030   6.379   5.199
11713TIP3   OH235079   5.276   3.887   2.753
11713TIP3    H135080   5.302   3.910   2.842
11713TIP3    H235081   5.255   3.793   2.758
11714TIP3   OH235082   1.679   0.352   5.087
11714TIP3    H135083   1.664   0.299   5.009
11714TIP3    H235084   1.724   0.430   5.054
11715TIP3   OH235085   6.732   3.991   0.764
11715TIP3    H135086   6.790   3.914   0.761
11715TIP3    H235087   6.792   4.065   0.763
11716TIP3   OH235088   4.181   4.481   0.925
11716TIP3    H135089   4.128   4.459   0.848
11716TIP3    H235090   4.257   4.423   0.920
11717TIP3   OH235091   8.373   3.103   1.918
11717TIP3    H135092   8.318   3.028   1.938
11717TIP3    H235093   8.384   3.101   1.823
11718TIP3   OH235094   1.698   1.995   2.938
11718TIP3    H135095   1.750   2.075   2.949
11718TIP3    H235096   1.611   2.026   2.912
11719TIP3   OH235097   5.039   2.043   0.920
11719TIP3    H135098   5.015   1.986   0.994
11719TIP3    H235099   5.052   2.129   0.960
11720TIP3   OH235100   8.167   2.260   4.557
11720TIP3    H135101   8.211   2.345   4.562
11720TIP3    H235102   8.235   2.200   4.526
11721TIP3   OH235103   0.748   1.523   3.395
11721TIP3    H135104   0.708   1.563   3.318
11721TIP3    H235105   0.840   1.512   3.371
11722TIP3   OH235106   5.676   5.612   6.544
11722TIP3    H135107   5.618   5.674   6.588
11722TIP3    H235108   5.757   5.661   6.529
11723TIP3   OH235109   2.127   4.580   4.982
11723TIP3    H135110   2.048   4.629   5.003
11723TIP3    H235111   2.099   4.516   4.916
11724TIP3   OH235112   2.194   4.413   5.214
11724TIP3    H135113   2.247   4.456   5.281
11724TIP3    H235114   2.172   4.483   5.152
11725TIP3   OH235115   5.955   2.470   5.606
11725TIP3    H135116   5.885   2.531   5.584
11725TIP3    H235117   6.026   2.525   5.638
11726TIP3   OH235118   5.835   3.251   4.496
11726TIP3    H135119   5.807   3.168   4.458
11726TIP3    H235120   5.753   3.299   4.510
11727TIP3   OH235121   1.050   7.726   4.734
11727TIP3    H135122   1.103   7.785   4.788
11727TIP3    H235123   1.107   7.705   4.659
11728TIP3   OH235124   3.645   4.858   6.525
11728TIP3    H135125   3.692   4.939   6.545
11728TIP3    H235126   3.714   4.794   6.508
11729TIP3   OH235127   0.830   2.251   0.924
11729TIP3    H135128   0.804   2.304   0.999
11729TIP3    H235129   0.757   2.192   0.909
11730TIP3   OH235130   8.205   4.182   0.778
11730TIP3    H135131   8.242   4.217   0.859
11730TIP3    H235132   8.264   4.111   0.753
11731TIP3   OH235133   0.516   0.659   1.073
11731TIP3    H135134   0.573   0.608   1.015
11731TIP3    H235135   0.471   0.594   1.126
11732TIP3   OH235136   4.656   7.269   4.455
11732TIP3    H135137   4.672   7.335   4.388
11732TIP3    H235138   4.575   7.297   4.498
11733TIP3   OH235139   5.538   3.596   5.778
11733TIP3    H135140   5.494   3.629   5.700
11733TIP3    H235141   5.618   3.649   5.784
11734TIP3   OH235142   2.999   3.958   2.647
11734TIP3    H135143   3.010   3.934   2.555
11734TIP3    H235144   3.088   3.970   2.680
11735TIP3   OH235145   2.859   1.493   6.406
11735TIP3    H135146   2.796   1.565   6.401
11735TIP3    H235147   2.883   1.475   6.315
11736TIP3   OH235148   5.032   5.398   4.371
11736TIP3    H135149   5.104   5.407   4.309
11736TIP3    H235150   5.073   5.403   4.457
11737TIP3   OH235151   1.768   7.800   3.284
11737TIP3    H135152   1.701   7.743   3.323
11737TIP3    H235153   1.718   7.869   3.240
11738TIP3   OH235154   4.255   6.140   4.296
11738TIP3    H135155   4.161   6.132   4.315
11738TIP3    H235156   4.298   6.109   4.375
11739TIP3   OH235157   2.003   2.387   6.795
11739TIP3    H135158   2.042   2.467   6.760
11739TIP3    H235159   1.914   2.386   6.758
11740TIP3   OH235160   3.938   0.289   6.271
11740TIP3    H135161   3.989   0.286   6.190
11740TIP3    H235162   4.003   0.295   6.340
11741TIP3   OH235163   3.418   4.200   0.586
11741TIP3    H135164   3.381   4.286   0.569
11741TIP3    H235165   3.425   4.158   0.500
11742TIP3   OH235166   7.241   2.659   3.365
11742TIP3    H135167   7.333   2.644   3.388
11742TIP3    H235168   7.241   2.743   3.318
11743TIP3   OH235169   7.353   4.428   3.793
11743TIP3    H135170   7.262   4.405   3.813
11743TIP3    H235171   7.405   4.366   3.843
11744TIP3   OH235172   1.793   5.279   4.905
11744TIP3    H135173   1.814   5.332   4.982
11744TIP3    H235174   1.705   5.246   4.922
11745TIP3   OH235175   5.886   6.966   1.465
11745TIP3    H135176   5.913   7.002   1.381
11745TIP3    H235177   5.803   6.921   1.447
11746TIP3   OH235178   1.359   7.718   3.258
11746TIP3    H135179   1.296   7.748   3.324
11746TIP3    H235180   1.444   7.726   3.302
11747TIP3   OH235181   7.475   0.354   1.276
11747TIP3    H135182   7.473   0.328   1.184
11747TIP3    H235183   7.551   0.308   1.311
11748TIP3   OH235184   3.004   1.440   0.271
11748TIP3    H135185   3.080   1.401   0.315
11748TIP3    H235186   3.021   1.534   0.275
11749TIP3   OH235187   6.765   3.922   6.045
11749TIP3    H135188   6.767   3.854   5.977
11749TIP3    H235189   6.739   4.001   5.998
11750TIP3   OH235190   0.542   5.669   2.287
11750TIP3    H135191   0.495   5.713   2.357
11750TIP3    H235192   0.627   5.648   2.325
11751TIP3   OH235193   3.668   1.753   5.760
11751TIP3    H135194   3.761   1.738   5.774
11751TIP3    H235195   3.663   1.844   5.731
11752TIP3   OH235196   2.259   0.802   2.714
11752TIP3    H135197   2.305   0.829   2.635
11752TIP3    H235198   2.328   0.782   2.777
11753TIP3   OH235199   3.207   7.279   5.608
11753TIP3    H135200   3.141   7.217   5.578
11753TIP3    H235201   3.280   7.224   5.638
11754TIP3   OH235202   3.430   0.628   4.568
11754TIP3    H135203   3.359   0.692   4.567
11754TIP3    H235204   3.462   0.627   4.478
11755TIP3   OH235205   0.127   0.499   4.139
11755TIP3    H135206   0.164   0.587   4.128
11755TIP3    H235207   0.033   0.513   4.144
11756TIP3   OH235208   1.235   7.325   2.414
11756TIP3    H135209   1.180   7.283   2.479
11756TIP3    H235210   1.215   7.418   2.422
11757TIP3   OH235211   5.862   1.279   6.407
11757TIP3    H135212   5.854   1.239   6.494
11757TIP3    H235213   5.954   1.265   6.383
11758TIP3   OH235214   1.643   7.008   1.331
11758TIP3    H135215   1.615   7.012   1.423
11758TIP3    H235216   1.634   6.916   1.307
11759TIP3   OH235217   2.666   5.563   4.569
11759TIP3    H135218   2.698   5.634   4.513
11759TIP3    H235219   2.593   5.525   4.521
11760TIP3   OH235220   2.158   6.466   4.019
11760TIP3    H135221   2.124   6.409   3.949
11760TIP3    H235222   2.084   6.521   4.043
11761TIP3   OH235223   5.300   3.248   2.225
11761TIP3    H135224   5.273   3.273   2.138
11761TIP3    H235225   5.384   3.292   2.238
11762TIP3   OH235226   0.640   4.304   2.533
11762TIP3    H135227   0.691   4.374   2.493
11762TIP3    H235228   0.650   4.318   2.627
11763TIP3   OH235229   5.447   1.314   5.614
11763TIP3    H135230   5.521   1.345   5.667
11763TIP3    H235231   5.476   1.229   5.580
11764TIP3   OH235232   8.065   3.402   4.299
11764TIP3    H135233   7.993   3.354   4.259
11764TIP3    H235234   8.027   3.487   4.323
11765TIP3   OH235235   7.862   5.793   4.204
11765TIP3    H135236   7.807   5.725   4.241
11765TIP3    H235237   7.939   5.746   4.170
11766TIP3   OH235238   0.243   4.906   4.219
11766TIP3    H135239   0.239   4.853   4.299
11766TIP3    H235240   0.297   4.854   4.159
11767TIP3   OH235241   4.249   4.967   6.122
11767TIP3    H135242   4.226   4.902   6.056
11767TIP3    H235243   4.311   4.923   6.180
11768TIP3   OH235244   0.173   2.163   6.532
11768TIP3    H135245   0.196   2.086   6.584
11768TIP3    H235246   0.257   2.201   6.507
11769TIP3   OH235247   6.350   2.019   1.646
11769TIP3    H135248   6.435   1.976   1.635
11769TIP3    H235249   6.288   1.946   1.655
11770TIP3   OH235250   4.094   5.817   3.118
11770TIP3    H135251   4.169   5.757   3.114
11770TIP3    H235252   4.130   5.901   3.089
11771TIP3   OH235253   3.675   5.453   2.185
11771TIP3    H135254   3.677   5.360   2.161
11771TIP3    H235255   3.628   5.496   2.114
11772TIP3   OH235256   5.367   3.668   5.574
11772TIP3    H135257   5.374   3.735   5.505
11772TIP3    H235258   5.313   3.709   5.642
11773TIP3   OH235259   3.267   1.793   4.953
11773TIP3    H135260   3.248   1.873   4.905
11773TIP3    H235261   3.286   1.821   5.042
11774TIP3   OH235262   1.513   4.816   5.030
11774TIP3    H135263   1.494   4.731   5.069
11774TIP3    H235264   1.430   4.844   4.991
11775TIP3   OH235265   1.312   5.923   0.833
11775TIP3    H135266   1.257   5.914   0.755
11775TIP3    H235267   1.342   5.833   0.851
11776TIP3   OH235268   7.796   7.626   0.880
11776TIP3    H135269   7.733   7.562   0.847
11776TIP3    H235270   7.802   7.608   0.974
11777TIP3   OH235271   0.288   0.275   3.059
11777TIP3    H135272   0.296   0.221   2.980
11777TIP3    H235273   0.292   0.365   3.027
11778TIP3   OH235274   0.694   7.323   0.729
11778TIP3    H135275   0.639   7.246   0.741
11778TIP3    H235276   0.762   7.295   0.668
11779TIP3   OH235277   7.182   4.764   2.365
11779TIP3    H135278   7.218   4.684   2.327
11779TIP3    H235279   7.254   4.828   2.361
11780TIP3   OH235280   4.277   0.129   2.913
11780TIP3    H135281   4.195   0.167   2.879
11780TIP3    H235282   4.345   0.191   2.886
11781TIP3   OH235283   6.805   0.692   4.024
11781TIP3    H135284   6.759   0.612   4.049
11781TIP3    H235285   6.770   0.760   4.082
11782TIP3   OH235286   7.347   7.538   1.815
11782TIP3    H135287   7.404   7.607   1.781
11782TIP3    H235288   7.295   7.582   1.883
11783TIP3   OH235289   3.901   5.310   3.210
11783TIP3    H135290   3.821   5.268   3.240
11783TIP3    H235291   3.886   5.404   3.223
11784TIP3   OH235292   5.351   0.830   1.289
11784TIP3    H135293   5.427   0.807   1.235
11784TIP3    H235294   5.296   0.751   1.287
11785TIP3   OH235295   3.787   1.801   3.425
11785TIP3    H135296   3.793   1.896   3.431
11785TIP3    H235297   3.698   1.781   3.455
11786TIP3   OH235298   0.570   2.250   0.471
11786TIP3    H135299   0.620   2.171   0.454
11786TIP3    H235300   0.512   2.227   0.544
11787TIP3   OH235301   0.683   6.390   6.480
11787TIP3    H135302   0.762   6.400   6.532
11787TIP3    H235303   0.689   6.301   6.444
11788TIP3   OH235304   2.991   6.293   4.614
11788TIP3    H135305   3.062   6.307   4.677
11788TIP3    H235306   2.911   6.310   4.663
11789TIP3   OH235307   8.135   2.682   6.075
11789TIP3    H135308   8.096   2.661   5.990
11789TIP3    H235309   8.170   2.598   6.106
11790TIP3   OH235310   7.204   4.416   1.826
11790TIP3    H135311   7.129   4.454   1.780
11790TIP3    H235312   7.262   4.490   1.843
11791TIP3   OH235313   4.364   5.013   6.775
11791TIP3    H135314   4.312   4.937   6.800
11791TIP3    H235315   4.450   4.997   6.813
11792TIP3   OH235316   2.475   5.578   5.957
11792TIP3    H135317   2.560   5.576   6.002
11792TIP3    H235318   2.411   5.574   6.028
11793TIP3   OH235319   0.987   3.932   5.450
11793TIP3    H135320   1.073   3.973   5.440
11793TIP3    H235321   1.007   3.844   5.481
11794TIP3   OH235322   3.693   0.344   0.612
11794TIP3    H135323   3.651   0.368   0.695
11794TIP3    H235324   3.663   0.255   0.595
11795TIP3   OH235325   7.481   4.058   0.259
11795TIP3    H135326   7.541   4.034   0.330
11795TIP3    H235327   7.473   4.153   0.265
11796TIP3   OH235328   0.249   2.161   4.935
11796TIP3    H135329   0.300   2.116   5.002
11796TIP3    H235330   0.278   2.121   4.853
11797TIP3   OH235331   4.755   0.594   4.305
11797TIP3    H135332   4.703   0.603   4.384
11797TIP3    H235333   4.745   0.678   4.260
11798TIP3   OH235334   3.840   4.498   1.621
11798TIP3    H135335   3.810   4.456   1.702
11798TIP3    H235336   3.891   4.573   1.651
11799TIP3   OH235337   8.143   3.442   2.717
11799TIP3    H135338   8.164   3.370   2.658
11799TIP3    H235339   8.056   3.472   2.689
11800TIP3   OH235340   2.497   5.518   1.590
11800TIP3    H135341   2.405   5.491   1.592
11800TIP3    H235342   2.544   5.439   1.565
11801TIP3   OH235343   1.248   3.271   5.026
11801TIP3    H135344   1.233   3.307   4.938
11801TIP3    H235345   1.316   3.205   5.012
11802TIP3   OH235346   6.691   0.204   1.063
11802TIP3    H135347   6.673   0.278   1.121
11802TIP3    H235348   6.620   0.142   1.081
11803TIP3   OH235349   7.262   0.659   5.702
11803TIP3    H135350   7.201   0.729   5.722
11803TIP3    H235351   7.300   0.683   5.618
11804TIP3   OH235352   5.978   7.443   1.366
11804TIP3    H135353   5.996   7.380   1.435
11804TIP3    H235354   5.964   7.389   1.288
11805TIP3   OH235355   5.420   5.891   4.715
11805TIP3    H135356   5.420   5.982   4.686
11805TIP3    H235357   5.345   5.852   4.672
11806TIP3   OH235358   5.730   2.136   3.127
11806TIP3    H135359   5.669   2.171   3.192
11806TIP3    H235360   5.688   2.055   3.096
11807TIP3   OH235361   4.967   1.932   2.246
11807TIP3    H135362   4.936   1.897   2.162
11807TIP3    H235363   4.896   1.912   2.307
11808TIP3   OH235364   1.728   6.944   5.530
11808TIP3    H135365   1.803   6.984   5.574
11808TIP3    H235366   1.668   6.920   5.600
11809TIP3   OH235367   5.684   6.747   5.127
11809TIP3    H135368   5.615   6.684   5.145
11809TIP3    H235369   5.697   6.742   5.032
11810TIP3   OH235370   2.731   3.047   5.813
11810TIP3    H135371   2.759   2.975   5.870
11810TIP3    H235372   2.663   3.092   5.863
11811TIP3   OH235373   2.590   5.167   2.727
11811TIP3    H135374   2.618   5.172   2.818
11811TIP3    H235375   2.520   5.233   2.720
11812TIP3   OH235376   2.174   1.986   1.623
11812TIP3    H135377   2.213   1.947   1.702
11812TIP3    H235378   2.237   1.966   1.554
11813TIP3   OH235379   5.496   3.220   4.888
11813TIP3    H135380   5.436   3.162   4.936
11813TIP3    H235381   5.454   3.306   4.892
11814TIP3   OH235382   0.963   0.125   2.303
11814TIP3    H135383   1.012   0.163   2.229
11814TIP3    H235384   0.876   0.164   2.297
11815TIP3   OH235385   2.338   4.184   5.899
11815TIP3    H135386   2.257   4.234   5.901
11815TIP3    H235387   2.337   4.134   5.981
11816TIP3   OH235388   1.229   4.608   5.856
11816TIP3    H135389   1.317   4.626   5.887
11816TIP3    H235390   1.241   4.576   5.767
11817TIP3   OH235391   3.571   2.099   1.468
11817TIP3    H135392   3.483   2.138   1.465
11817TIP3    H235393   3.579   2.065   1.557
11818TIP3   OH235394   6.153   7.707   5.419
11818TIP3    H135395   6.102   7.648   5.364
11818TIP3    H235396   6.120   7.794   5.398
11819TIP3   OH235397   2.931   6.619   2.249
11819TIP3    H135398   2.899   6.639   2.337
11819TIP3    H235399   2.881   6.676   2.191
11820TIP3   OH235400   2.008   6.680   3.745
11820TIP3    H135401   2.090   6.728   3.741
11820TIP3    H235402   2.021   6.604   3.688
11821TIP3   OH235403   5.333   5.053   2.626
11821TIP3    H135404   5.420   5.077   2.595
11821TIP3    H235405   5.279   5.129   2.605
11822TIP3   OH235406   7.452   0.400   5.641
11822TIP3    H135407   7.358   0.407   5.652
11822TIP3    H235408   7.471   0.443   5.558
11823TIP3   OH235409   1.458   7.447   2.644
11823TIP3    H135410   1.539   7.395   2.645
11823TIP3    H235411   1.473   7.511   2.575
11824TIP3   OH235412   0.435   7.577   3.694
11824TIP3    H135413   0.497   7.632   3.742
11824TIP3    H235414   0.491   7.517   3.643
11825TIP3   OH235415   6.016   0.887   4.745
11825TIP3    H135416   5.990   0.869   4.654
11825TIP3    H235417   5.971   0.821   4.797
11826TIP3   OH235418   2.356   7.622   4.141
11826TIP3    H135419   2.326   7.532   4.129
11826TIP3    H235420   2.387   7.649   4.055
11827TIP3   OH235421   6.289   2.239   4.506
11827TIP3    H135422   6.284   2.237   4.601
11827TIP3    H235423   6.201   2.217   4.477
11828TIP3   OH235424   1.430   1.295   4.080
11828TIP3    H135425   1.352   1.269   4.031
11828TIP3    H235426   1.412   1.385   4.107
11829TIP3   OH235427   3.080   0.535   0.519
11829TIP3    H135428   3.044   0.605   0.574
11829TIP3    H235429   3.060   0.455   0.567
11830TIP3   OH235430   5.802   5.465   5.816
11830TIP3    H135431   5.838   5.432   5.734
11830TIP3    H235432   5.876   5.512   5.856
11831TIP3   OH235433   4.618   3.055   6.532
11831TIP3    H135434   4.712   3.076   6.527
11831TIP3    H235435   4.595   3.028   6.443
11832TIP3   OH235436   1.630   2.985   6.785
11832TIP3    H135437   1.611   2.895   6.758
11832TIP3    H235438   1.680   3.022   6.712
11833TIP3   OH235439   6.466   3.297   0.537
11833TIP3    H135440   6.464   3.202   0.548
11833TIP3    H235441   6.557   3.320   0.554
11834TIP3   OH235442   4.208   7.256   4.970
11834TIP3    H135443   4.131   7.199   4.957
11834TIP3    H235444   4.237   7.236   5.059
11835TIP3   OH235445   5.221   0.667   3.442
11835TIP3    H135446   5.278   0.701   3.373
11835TIP3    H235447   5.205   0.576   3.418
11836TIP3   OH235448   4.533   2.747   2.020
11836TIP3    H135449   4.570   2.691   1.952
11836TIP3    H235450   4.439   2.731   2.018
11837TIP3   OH235451   4.709   5.099   2.760
11837TIP3    H135452   4.619   5.101   2.793
11837TIP3    H235453   4.714   5.018   2.709
11838TIP3   OH235454   7.696   4.906   5.739
11838TIP3    H135455   7.610   4.870   5.718
11838TIP3    H235456   7.751   4.882   5.664
11839TIP3   OH235457   2.477   6.060   6.723
11839TIP3    H135458   2.455   5.969   6.743
11839TIP3    H235459   2.546   6.054   6.657
11840TIP3   OH235460   2.037   4.326   1.451
11840TIP3    H135461   1.986   4.398   1.412
11840TIP3    H235462   2.126   4.359   1.455
11841TIP3   OH235463   4.939   5.385   3.504
11841TIP3    H135464   4.990   5.355   3.429
11841TIP3    H235465   4.859   5.332   3.501
11842TIP3   OH235466   6.037   4.449   1.337
11842TIP3    H135467   5.949   4.417   1.317
11842TIP3    H235468   6.025   4.541   1.359
11843TIP3   OH235469   0.715   7.844   4.044
11843TIP3    H135470   0.801   7.819   4.077
11843TIP3    H235471   0.709   7.938   4.062
11844TIP3   OH235472   2.922   5.831   6.644
11844TIP3    H135473   2.955   5.810   6.557
11844TIP3    H235474   2.920   5.748   6.691
11845TIP3   OH235475   1.026   1.799   4.810
11845TIP3    H135476   1.067   1.726   4.857
11845TIP3    H235477   1.032   1.775   4.718
11846TIP3   OH235478   3.414   2.682   5.837
11846TIP3    H135479   3.448   2.746   5.775
11846TIP3    H235480   3.431   2.720   5.923
11847TIP3   OH235481   3.585   2.466   6.286
11847TIP3    H135482   3.550   2.486   6.372
11847TIP3    H235483   3.535   2.521   6.226
11848TIP3   OH235484   1.421   7.250   6.612
11848TIP3    H135485   1.469   7.288   6.538
11848TIP3    H235486   1.332   7.285   6.602
11849TIP3   OH235487   2.985   5.962   0.594
11849TIP3    H135488   2.894   5.941   0.574
11849TIP3    H235489   2.989   6.058   0.592
11850TIP3   OH235490   1.323   2.048   5.291
11850TIP3    H135491   1.395   2.111   5.284
11850TIP3    H235492   1.345   1.995   5.368
11851TIP3   OH235493   4.729   7.268   0.116
11851TIP3    H135494   4.736   7.319   0.197
11851TIP3    H235495   4.818   7.235   0.101
11852TIP3   OH235496   5.256   1.630   4.725
11852TIP3    H135497   5.336   1.614   4.776
11852TIP3    H235498   5.185   1.616   4.788
11853TIP3   OH235499   7.290   3.034   4.822
11853TIP3    H135500   7.224   3.087   4.865
11853TIP3    H235501   7.298   3.072   4.734
11854TIP3   OH235502   2.379   0.755   0.066
11854TIP3    H135503   2.391   0.665   0.037
11854TIP3    H235504   2.285   0.763   0.082
11855TIP3   OH235505   2.023   1.029   1.194
11855TIP3    H135506   2.043   0.971   1.268
11855TIP3    H235507   2.058   1.114   1.220
11856TIP3   OH235508   2.990   7.102   1.675
11856TIP3    H135509   2.915   7.149   1.712
11856TIP3    H235510   2.960   7.076   1.588
11857TIP3   OH235511   0.681   3.719   3.965
11857TIP3    H135512   0.595   3.727   3.922
11857TIP3    H235513   0.693   3.802   4.011
11858TIP3   OH235514   5.199   5.318   2.587
11858TIP3    H135515   5.117   5.368   2.592
11858TIP3    H235516   5.264   5.375   2.629
11859TIP3   OH235517   6.749   6.522   5.676
11859TIP3    H135518   6.688   6.595   5.666
11859TIP3    H235519   6.836   6.562   5.678
11860TIP3   OH235520   7.634   7.871   2.701
11860TIP3    H135521   7.592   7.950   2.669
11860TIP3    H235522   7.640   7.814   2.625
11861TIP3   OH235523   3.726   7.183   3.038
11861TIP3    H135524   3.698   7.117   3.102
11861TIP3    H235525   3.821   7.185   3.046
11862TIP3   OH235526   4.525   1.793   2.521
11862TIP3    H135527   4.482   1.868   2.564
11862TIP3    H235528   4.493   1.717   2.569
11863TIP3   OH235529   1.154   0.276   0.485
11863TIP3    H135530   1.112   0.191   0.497
11863TIP3    H235531   1.211   0.285   0.561
11864TIP3   OH235532   1.803   4.090   6.736
11864TIP3    H135533   1.791   4.127   6.823
11864TIP3    H235534   1.820   4.166   6.680
11865TIP3   OH235535   5.266   0.670   5.016
11865TIP3    H135536   5.235   0.668   4.925
11865TIP3    H235537   5.218   0.742   5.056
11866TIP3   OH235538  -0.018   0.779   2.287
11866TIP3    H135539   0.019   0.699   2.325
11866TIP3    H235540  -0.006   0.769   2.193
11867TIP3   OH235541   3.747   1.646   4.601
11867TIP3    H135542   3.675   1.704   4.625
11867TIP3    H235543   3.745   1.577   4.666
11868TIP3   OH235544   6.909   3.128   2.151
11868TIP3    H135545   6.847   3.194   2.120
11868TIP3    H235546   6.971   3.118   2.079
11869TIP3   OH235547   4.804   4.183   3.124
11869TIP3    H135548   4.784   4.260   3.072
11869TIP3    H235549   4.773   4.110   3.071
11870TIP3   OH235550   4.062   0.638   2.962
11870TIP3    H135551   4.050   0.731   2.981
11870TIP3    H235552   4.008   0.593   3.026
11871TIP3   OH235553   3.200   3.404   4.522
11871TIP3    H135554   3.163   3.358   4.597
11871TIP3    H235555   3.240   3.335   4.469
11872TIP3   OH235556   2.131   2.974   5.671
11872TIP3    H135557   2.170   3.004   5.754
11872TIP3    H235558   2.153   3.042   5.608
11873TIP3   OH235559   3.428   7.260   2.110
11873TIP3    H135560   3.469   7.309   2.040
11873TIP3    H235561   3.427   7.320   2.185
11874TIP3   OH235562   7.650   0.469   0.032
11874TIP3    H135563   7.681   0.541   0.086
11874TIP3    H235564   7.702   0.475  -0.048
11875TIP3   OH235565   5.813   0.620   2.793
11875TIP3    H135566   5.892   0.568   2.808
11875TIP3    H235567   5.774   0.630   2.880
11876TIP3   OH235568   7.302   4.129   4.942
11876TIP3    H135569   7.297   4.188   5.016
11876TIP3    H235570   7.367   4.063   4.967
11877TIP3   OH235571   0.666   7.540   2.698
11877TIP3    H135572   0.689   7.531   2.790
11877TIP3    H235573   0.669   7.635   2.682
11878TIP3   OH235574   0.485   6.188   4.764
11878TIP3    H135575   0.548   6.231   4.706
11878TIP3    H235576   0.473   6.101   4.726
11879TIP3   OH235577   6.974   2.723   0.405
11879TIP3    H135578   7.042   2.722   0.338
11879TIP3    H235579   7.009   2.668   0.475
11880TIP3   OH235580   0.556   1.523   5.281
11880TIP3    H135581   0.652   1.527   5.286
11880TIP3    H235582   0.527   1.580   5.353
11881TIP3   OH235583   4.964   3.595   3.712
11881TIP3    H135584   4.941   3.533   3.780
11881TIP3    H235585   4.905   3.574   3.639
11882TIP3   OH235586   5.380   6.264   5.957
11882TIP3    H135587   5.307   6.315   5.923
11882TIP3    H235588   5.352   6.173   5.948
11883TIP3   OH235589   5.075   2.502   4.228
11883TIP3    H135590   5.059   2.588   4.189
11883TIP3    H235591   5.010   2.445   4.186
11884TIP3   OH235592   1.067   5.249   2.391
11884TIP3    H135593   1.021   5.267   2.474
11884TIP3    H235594   1.096   5.158   2.398
11885TIP3   OH235595   0.630   1.211   5.254
11885TIP3    H135596   0.624   1.286   5.312
11885TIP3    H235597   0.614   1.247   5.166
11886TIP3   OH235598   3.364   2.096   1.989
11886TIP3    H135599   3.435   2.094   1.925
11886TIP3    H235600   3.311   2.019   1.969
11887TIP3   OH235601   4.563   3.586   2.404
11887TIP3    H135602   4.534   3.574   2.313
11887TIP3    H235603   4.495   3.640   2.444
11888TIP3   OH235604   0.624   6.964   3.532
11888TIP3    H135605   0.529   6.963   3.525
11888TIP3    H235606   0.653   7.025   3.463
11889TIP3   OH235607   3.577   3.470   4.181
11889TIP3    H135608   3.488   3.458   4.214
11889TIP3    H235609   3.566   3.529   4.106
11890TIP3   OH235610   3.177   7.645   2.994
11890TIP3    H135611   3.147   7.575   3.052
11890TIP3    H235612   3.097   7.683   2.958
11891TIP3   OH235613   3.298   2.806   1.066
11891TIP3    H135614   3.273   2.866   0.997
11891TIP3    H235615   3.262   2.721   1.039
11892TIP3   OH235616   5.074   5.130   1.050
11892TIP3    H135617   5.073   5.193   0.978
11892TIP3    H235618   5.109   5.179   1.125
11893TIP3   OH235619   5.984   5.973   2.478
11893TIP3    H135620   6.034   5.954   2.398
11893TIP3    H235621   5.902   6.011   2.447
11894TIP3   OH235622   7.710   7.821   6.177
11894TIP3    H135623   7.724   7.732   6.211
11894TIP3    H235624   7.717   7.811   6.082
11895TIP3   OH235625   6.668   4.571   6.643
11895TIP3    H135626   6.631   4.547   6.728
11895TIP3    H235627   6.702   4.659   6.656
11896TIP3   OH235628   5.226   1.432   3.283
11896TIP3    H135629   5.321   1.445   3.288
11896TIP3    H235630   5.216   1.346   3.242
11897TIP3   OH235631   7.780   0.913   3.994
11897TIP3    H135632   7.722   0.956   3.932
11897TIP3    H235633   7.823   0.986   4.040
11898TIP3   OH235634   7.617   4.731   0.241
11898TIP3    H135635   7.632   4.825   0.241
11898TIP3    H235636   7.642   4.703   0.153
11899TIP3   OH235637   6.845   2.375   4.083
11899TIP3    H135638   6.897   2.450   4.052
11899TIP3    H235639   6.758   2.410   4.098
11900TIP3   OH235640   2.783   3.025   2.036
11900TIP3    H135641   2.729   3.014   2.114
11900TIP3    H235642   2.782   2.939   1.993
11901TIP3   OH235643   1.517   5.225   5.593
11901TIP3    H135644   1.470   5.141   5.585
11901TIP3    H235645   1.597   5.203   5.640
11902TIP3   OH235646   1.411   5.827   0.300
11902TIP3    H135647   1.423   5.808   0.207
11902TIP3    H235648   1.460   5.907   0.316
11903TIP3   OH235649   4.241   3.598   5.002
11903TIP3    H135650   4.156   3.582   4.961
11903TIP3    H235651   4.240   3.546   5.082
11904TIP3   OH235652   7.944   4.896   1.246
11904TIP3    H135653   7.967   4.804   1.240
11904TIP3    H235654   8.027   4.942   1.257
11905TIP3   OH235655   5.848   2.356   2.865
11905TIP3    H135656   5.868   2.316   2.949
11905TIP3    H235657   5.775   2.416   2.884
11906TIP3   OH235658   2.431   3.536   3.347
11906TIP3    H135659   2.507   3.490   3.382
11906TIP3    H235660   2.358   3.509   3.403
11907TIP3   OH235661   1.875   7.335   1.568
11907TIP3    H135662   1.838   7.419   1.540
11907TIP3    H235663   1.850   7.273   1.500
11908TIP3   OH235664   6.634   3.225   3.002
11908TIP3    H135665   6.686   3.151   3.034
11908TIP3    H235666   6.543   3.196   3.013
11909TIP3   OH235667   4.216   3.645   4.275
11909TIP3    H135668   4.273   3.635   4.199
11909TIP3    H235669   4.131   3.670   4.238
11910TIP3   OH235670   8.302   2.392   6.327
11910TIP3    H135671   8.297   2.481   6.361
11910TIP3    H235672   8.216   2.375   6.290
11911TIP3   OH235673   3.611   7.224   3.515
11911TIP3    H135674   3.556   7.188   3.445
11911TIP3    H235675   3.659   7.148   3.549
11912TIP3   OH235676   7.314   5.950   5.080
11912TIP3    H135677   7.221   5.968   5.088
11912TIP3    H235678   7.334   5.972   4.989
11913TIP3   OH235679   5.437   6.844   5.352
11913TIP3    H135680   5.500   6.783   5.390
11913TIP3    H235681   5.484   6.885   5.280
11914TIP3   OH235682   7.653   4.735   3.490
11914TIP3    H135683   7.746   4.757   3.482
11914TIP3    H235684   7.649   4.673   3.562
11915TIP3   OH235685   7.314   7.625   3.272
11915TIP3    H135686   7.241   7.566   3.289
11915TIP3    H235687   7.381   7.570   3.232
11916TIP3   OH235688   5.666   1.658   0.839
11916TIP3    H135689   5.649   1.735   0.894
11916TIP3    H235690   5.654   1.584   0.898
11917TIP3   OH235691   0.332   0.050   5.652
11917TIP3    H135692   0.261   0.091   5.700
11917TIP3    H235693   0.327  -0.043   5.675
11918TIP3   OH235694   3.654   5.004   2.562
11918TIP3    H135695   3.659   4.911   2.537
11918TIP3    H235696   3.738   5.040   2.536
11919TIP3   OH235697   6.880   0.600   3.098
11919TIP3    H135698   6.819   0.620   3.170
11919TIP3    H235699   6.915   0.514   3.120
11920TIP3   OH235700   5.027   3.681   5.578
11920TIP3    H135701   5.042   3.767   5.539
11920TIP3    H235702   4.984   3.700   5.662
11921TIP3   OH235703   7.269   4.816   1.899
11921TIP3    H135704   7.326   4.741   1.882
11921TIP3    H235705   7.326   4.882   1.939
11922TIP3   OH235706   0.014   4.176   4.137
11922TIP3    H135707  -0.016   4.246   4.080
11922TIP3    H235708  -0.004   4.207   4.225
11923TIP3   OH235709   0.087   2.010   5.900
11923TIP3    H135710   0.039   1.945   5.849
11923TIP3    H235711   0.140   1.958   5.960
11924TIP3   OH235712   1.743   2.717   6.315
11924TIP3    H135713   1.691   2.745   6.390
11924TIP3    H235714   1.680   2.678   6.255
11925TIP3   OH235715   1.630   7.366   0.355
11925TIP3    H135716   1.536   7.382   0.353
11925TIP3    H235717   1.656   7.364   0.263
11926TIP3   OH235718   2.835   5.219   6.445
11926TIP3    H135719   2.794   5.157   6.385
11926TIP3    H235720   2.906   5.258   6.394
11927TIP3   OH235721   8.042   5.164   4.262
11927TIP3    H135722   8.046   5.094   4.328
11927TIP3    H235723   8.113   5.143   4.201
11928TIP3   OH235724   2.515   2.854   4.484
11928TIP3    H135725   2.529   2.934   4.434
11928TIP3    H235726   2.593   2.845   4.538
11929TIP3   OH235727   4.010   6.225   3.519
11929TIP3    H135728   3.942   6.280   3.479
11929TIP3    H235729   4.090   6.277   3.512
11930TIP3   OH235730   2.355   5.976   6.195
11930TIP3    H135731   2.417   5.988   6.267
11930TIP3    H235732   2.404   5.930   6.127
11931TIP3   OH235733   1.378   7.419   4.016
11931TIP3    H135734   1.348   7.489   4.074
11931TIP3    H235735   1.335   7.439   3.932
11932TIP3   OH235736   0.153   4.817   1.630
11932TIP3    H135737   0.101   4.774   1.699
11932TIP3    H235738   0.160   4.751   1.561
11933TIP3   OH235739   4.388   2.819   6.094
11933TIP3    H135740   4.361   2.728   6.079
11933TIP3    H235741   4.373   2.862   6.010
11934TIP3   OH235742   7.811   0.997   5.265
11934TIP3    H135743   7.766   0.918   5.293
11934TIP3    H235744   7.748   1.043   5.210
11935TIP3   OH235745   6.893   4.323   1.786
11935TIP3    H135746   6.888   4.274   1.704
11935TIP3    H235747   6.941   4.266   1.846
11936TIP3   OH235748   5.458   6.288   2.426
11936TIP3    H135749   5.505   6.233   2.488
11936TIP3    H235750   5.382   6.237   2.399
11937TIP3   OH235751   1.462   7.806   6.022
11937TIP3    H135752   1.419   7.830   5.940
11937TIP3    H235753   1.415   7.856   6.090
11938TIP3   OH235754   3.919   6.858   4.083
11938TIP3    H135755   4.002   6.869   4.037
11938TIP3    H235756   3.888   6.948   4.096
11939TIP3   OH235757   1.692   7.724   5.912
11939TIP3    H135758   1.722   7.660   5.977
11939TIP3    H235759   1.600   7.739   5.933
11940TIP3   OH235760   3.382   5.465   2.347
11940TIP3    H135761   3.474   5.486   2.363
11940TIP3    H235762   3.372   5.375   2.378
11941TIP3   OH235763   7.732   1.627   5.955
11941TIP3    H135764   7.658   1.668   6.001
11941TIP3    H235765   7.807   1.643   6.011
11942TIP3   OH235766   5.719   7.682   3.844
11942TIP3    H135767   5.674   7.705   3.925
11942TIP3    H235768   5.708   7.758   3.788
11943TIP3   OH235769   4.764   1.816   2.375
11943TIP3    H135770   4.751   1.726   2.404
11943TIP3    H235771   4.693   1.865   2.417
11944TIP3   OH235772   0.629   1.001   1.266
11944TIP3    H135773   0.657   0.983   1.356
11944TIP3    H235774   0.583   0.921   1.239
11945TIP3   OH235775   2.779   1.060   2.343
11945TIP3    H135776   2.783   0.977   2.390
11945TIP3    H235777   2.716   1.045   2.273
11946TIP3   OH235778   6.170   6.071   5.164
11946TIP3    H135779   6.156   5.979   5.185
11946TIP3    H235780   6.215   6.107   5.240
11947TIP3   OH235781   4.155   7.690   3.824
11947TIP3    H135782   4.080   7.666   3.769
11947TIP3    H235783   4.230   7.646   3.783
11948TIP3   OH235784   2.988   7.794   2.856
11948TIP3    H135785   2.894   7.808   2.870
11948TIP3    H235786   3.028   7.879   2.872
11949TIP3   OH235787   1.445   5.087   3.549
11949TIP3    H135788   1.476   5.165   3.596
11949TIP3    H235789   1.431   5.022   3.618
11950TIP3   OH235790   0.891   0.149   2.614
11950TIP3    H135791   0.898   0.061   2.576
11950TIP3    H235792   0.982   0.177   2.628
11951TIP3   OH235793   8.250   3.474   6.215
11951TIP3    H135794   8.286   3.553   6.255
11951TIP3    H235795   8.186   3.442   6.280
11952TIP3   OH235796   5.208   6.241   6.787
11952TIP3    H135797   5.290   6.208   6.750
11952TIP3    H235798   5.187   6.181   6.858
11953TIP3   OH235799   1.566   1.078   4.672
11953TIP3    H135800   1.632   1.069   4.603
11953TIP3    H235801   1.604   1.033   4.747
11954TIP3   OH235802   2.091   4.631   4.420
11954TIP3    H135803   2.148   4.582   4.362
11954TIP3    H235804   2.127   4.719   4.421
11955TIP3   OH235805   0.369   3.030   0.047
11955TIP3    H135806   0.449   3.057   0.094
11955TIP3    H235807   0.342   2.950   0.091
11956TIP3   OH235808   1.765   2.863   1.681
11956TIP3    H135809   1.755   2.802   1.608
11956TIP3    H235810   1.824   2.931   1.648
11957TIP3   OH235811   6.251   7.093   0.404
11957TIP3    H135812   6.257   7.176   0.357
11957TIP3    H235813   6.297   7.108   0.487
11958TIP3   OH235814   2.323   1.873   1.887
11958TIP3    H135815   2.367   1.951   1.923
11958TIP3    H235816   2.315   1.813   1.961
11959TIP3   OH235817   2.599   6.496   5.437
11959TIP3    H135818   2.650   6.428   5.393
11959TIP3    H235819   2.508   6.477   5.413
11960TIP3   OH235820   8.245   6.726   0.712
11960TIP3    H135821   8.162   6.744   0.756
11960TIP3    H235822   8.311   6.774   0.763
11961TIP3   OH235823   6.835   7.588   2.710
11961TIP3    H135824   6.916   7.540   2.728
11961TIP3    H235825   6.864   7.665   2.662
11962TIP3   OH235826   6.074   7.201   3.994
11962TIP3    H135827   6.001   7.222   4.051
11962TIP3    H235828   6.062   7.108   3.973
11963TIP3   OH235829   3.694   0.398   4.318
11963TIP3    H135830   3.638   0.470   4.289
11963TIP3    H235831   3.780   0.437   4.329
11964TIP3   OH235832   1.180   2.682   1.586
11964TIP3    H135833   1.092   2.701   1.616
11964TIP3    H235834   1.222   2.639   1.660
11965TIP3   OH235835   7.995   5.234   2.562
11965TIP3    H135836   7.949   5.202   2.639
11965TIP3    H235837   7.932   5.223   2.490
11966TIP3   OH235838   1.932   6.372   2.446
11966TIP3    H135839   1.931   6.317   2.368
11966TIP3    H235840   1.911   6.459   2.414
11967TIP3   OH235841   0.202   1.828   5.440
11967TIP3    H135842   0.174   1.779   5.363
11967TIP3    H235843   0.158   1.913   5.432
11968TIP3   OH235844   6.932   2.080   3.250
11968TIP3    H135845   7.006   2.020   3.253
11968TIP3    H235846   6.901   2.075   3.159
11969TIP3   OH235847   3.278   3.867   3.437
11969TIP3    H135848   3.229   3.805   3.491
11969TIP3    H235849   3.308   3.934   3.498
11970TIP3   OH235850   1.180   4.982   2.349
11970TIP3    H135851   1.225   4.917   2.404
11970TIP3    H235852   1.087   4.958   2.355
11971TIP3   OH235853   1.107   0.808   5.364
11971TIP3    H135854   1.018   0.831   5.388
11971TIP3    H235855   1.149   0.785   5.448
11972TIP3   OH235856   3.479   7.291   1.666
11972TIP3    H135857   3.439   7.370   1.631
11972TIP3    H235858   3.409   7.225   1.664
11973TIP3   OH235859   0.845   6.119   3.086
11973TIP3    H135860   0.820   6.029   3.068
11973TIP3    H235861   0.763   6.168   3.080
11974TIP3   OH235862   3.371   2.883   3.486
11974TIP3    H135863   3.437   2.953   3.489
11974TIP3    H235864   3.317   2.905   3.410
11975TIP3   OH235865   3.763   5.744   3.964
11975TIP3    H135866   3.793   5.671   3.909
11975TIP3    H235867   3.667   5.741   3.957
11976TIP3   OH235868   0.325   3.601   2.246
11976TIP3    H135869   0.233   3.585   2.222
11976TIP3    H235870   0.338   3.694   2.226
11977TIP3   OH235871   2.028   1.556   2.551
11977TIP3    H135872   1.936   1.535   2.533
11977TIP3    H235873   2.070   1.470   2.561
11978TIP3   OH235874   3.971   4.842   2.228
11978TIP3    H135875   3.924   4.856   2.310
11978TIP3    H235876   4.012   4.757   2.238
11979TIP3   OH235877   5.906   6.162   3.678
11979TIP3    H135878   5.831   6.217   3.703
11979TIP3    H235879   5.903   6.088   3.738
11980TIP3   OH235880   3.109   2.395   0.386
11980TIP3    H135881   3.028   2.427   0.425
11980TIP3    H235882   3.177   2.418   0.449
11981TIP3   OH235883   3.484   7.637   4.514
11981TIP3    H135884   3.439   7.562   4.474
11981TIP3    H235885   3.574   7.631   4.481
11982TIP3   OH235886   0.449   2.708   2.360
11982TIP3    H135887   0.522   2.703   2.299
11982TIP3    H235888   0.395   2.780   2.329
11983TIP3   OH235889   0.298   6.643   4.044
11983TIP3    H135890   0.264   6.689   4.120
11983TIP3    H235891   0.295   6.550   4.068
11984TIP3   OH235892   2.785   1.859   5.121
11984TIP3    H135893   2.783   1.765   5.138
11984TIP3    H235894   2.878   1.881   5.115
11985TIP3   OH235895   4.547   1.056   1.649
11985TIP3    H135896   4.621   1.092   1.602
11985TIP3    H235897   4.566   1.074   1.741
11986TIP3   OH235898   7.168   5.033   1.198
11986TIP3    H135899   7.155   4.960   1.258
11986TIP3    H235900   7.204   4.993   1.119
11987TIP3   OH235901   0.931   6.600   3.322
11987TIP3    H135902   1.026   6.589   3.318
11987TIP3    H235903   0.918   6.689   3.354
11988TIP3   OH235904   3.851   1.716   0.980
11988TIP3    H135905   3.775   1.691   0.927
11988TIP3    H235906   3.855   1.811   0.973
11989TIP3   OH235907   1.937   6.675   1.726
11989TIP3    H135908   1.921   6.700   1.817
11989TIP3    H235909   2.032   6.660   1.722
11990TIP3   OH235910   1.159   3.325   4.517
11990TIP3    H135911   1.178   3.390   4.450
11990TIP3    H235912   1.214   3.349   4.592
11991TIP3   OH235913   7.838   0.849   5.695
11991TIP3    H135914   7.772   0.793   5.653
11991TIP3    H235915   7.827   0.934   5.651
11992TIP3   OH235916   3.992   5.334   6.336
11992TIP3    H135917   4.081   5.359   6.359
11992TIP3    H235918   3.990   5.239   6.350
11993TIP3   OH235919   6.834   5.282   1.330
11993TIP3    H135920   6.853   5.200   1.285
11993TIP3    H235921   6.903   5.291   1.396
11994TIP3   OH235922   7.067   5.857   2.701
11994TIP3    H135923   7.098   5.899   2.621
11994TIP3    H235924   6.986   5.813   2.675
11995TIP3   OH235925   3.719   3.433   0.861
11995TIP3    H135926   3.658   3.449   0.933
11995TIP3    H235927   3.799   3.402   0.905
11996TIP3   OH235928   1.279   6.386   6.525
11996TIP3    H135929   1.216   6.354   6.590
11996TIP3    H235930   1.279   6.320   6.456
11997TIP3   OH235931   7.614   0.687   3.246
11997TIP3    H135932   7.587   0.740   3.320
11997TIP3    H235933   7.566   0.724   3.171
11998TIP3   OH235934   1.198   0.768   5.103
11998TIP3    H135935   1.169   0.783   5.193
11998TIP3    H235936   1.139   0.822   5.050
11999TIP3   OH235937   2.687   7.668   2.540
11999TIP3    H135938   2.718   7.590   2.586
11999TIP3    H235939   2.611   7.697   2.590
12000TIP3   OH235940   3.447   0.547   3.251
12000TIP3    H135941   3.455   0.642   3.240
12000TIP3    H235942   3.413   0.515   3.168
12001TIP3   OH235943   2.219   2.301   4.504
12001TIP3    H135944   2.206   2.207   4.489
12001TIP3    H235945   2.195   2.315   4.595
12002TIP3   OH235946   5.303   5.154   4.758
12002TIP3    H135947   5.287   5.232   4.810
12002TIP3    H235948   5.215   5.124   4.732
12003TIP3   OH235949   7.756   1.683   5.518
12003TIP3    H135950   7.827   1.710   5.577
12003TIP3    H235951   7.768   1.738   5.440
12004TIP3   OH235952   2.554   3.390   5.641
12004TIP3    H135953   2.478   3.336   5.664
12004TIP3    H235954   2.598   3.407   5.725
12005TIP3   OH235955   0.394   6.421   3.764
12005TIP3    H135956   0.465   6.398   3.705
12005TIP3    H235957   0.423   6.390   3.850
12006TIP3   OH235958   2.223   4.124   5.585
12006TIP3    H135959   2.145   4.169   5.553
12006TIP3    H235960   2.253   4.177   5.658
12007TIP3   OH235961   5.885   5.677   5.012
12007TIP3    H135962   5.957   5.703   4.954
12007TIP3    H235963   5.818   5.745   4.999
12008TIP3   OH235964   7.759   7.286   5.919
12008TIP3    H135965   7.781   7.224   5.989
12008TIP3    H235966   7.680   7.249   5.879
12009TIP3   OH235967   4.671   3.760   6.521
12009TIP3    H135968   4.634   3.676   6.549
12009TIP3    H235969   4.731   3.737   6.450
12010TIP3   OH235970   1.084   0.297   1.748
12010TIP3    H135971   1.066   0.385   1.716
12010TIP3    H235972   0.998   0.260   1.766
12011TIP3   OH235973   7.792   3.107   5.497
12011TIP3    H135974   7.795   3.031   5.556
12011TIP3    H235975   7.857   3.086   5.430
12012TIP3   OH235976   5.698   2.860   3.911
12012TIP3    H135977   5.643   2.817   3.976
12012TIP3    H235978   5.713   2.948   3.946
12013TIP3   OH235979   6.609   0.973   0.953
12013TIP3    H135980   6.528   1.018   0.977
12013TIP3    H235981   6.665   1.042   0.916
12014TIP3   OH235982   0.623   4.366   5.039
12014TIP3    H135983   0.623   4.298   5.107
12014TIP3    H235984   0.687   4.335   4.975
12015TIP3   OH235985   4.274   4.379   1.937
12015TIP3    H135986   4.295   4.286   1.929
12015TIP3    H235987   4.182   4.386   1.910
12016TIP3   OH235988   4.677   7.762   3.597
12016TIP3    H135989   4.721   7.828   3.649
12016TIP3    H235990   4.685   7.793   3.507
12017TIP3   OH235991   6.186   2.504   3.426
12017TIP3    H135992   6.243   2.442   3.382
12017TIP3    H235993   6.204   2.491   3.519
12018TIP3   OH235994   3.797   1.605   3.149
12018TIP3    H135995   3.850   1.632   3.224
12018TIP3    H235996   3.831   1.656   3.075
12019TIP3   OH235997   1.615   6.309   2.264
12019TIP3    H135998   1.539   6.344   2.217
12019TIP3    H235999   1.611   6.352   2.349
12020TIP3   OH236000   1.590   6.096   6.442
12020TIP3    H136001   1.528   6.065   6.508
12020TIP3    H236002   1.537   6.106   6.363
12021TIP3   OH236003   7.013   7.293   6.329
12021TIP3    H136004   6.920   7.283   6.351
12021TIP3    H236005   7.018   7.273   6.235
12022TIP3   OH236006   1.487   0.885   4.098
12022TIP3    H136007   1.400   0.883   4.057
12022TIP3    H236008   1.475   0.940   4.176
12023TIP3   OH236009   6.978   2.699   2.986
12023TIP3    H136010   6.959   2.737   3.072
12023TIP3    H236011   6.960   2.606   2.997
12024TIP3   OH236012   6.416   2.006   0.644
12024TIP3    H136013   6.501   1.990   0.601
12024TIP3    H236014   6.439   2.039   0.731
12025TIP3   OH236015   2.173   5.679   0.330
12025TIP3    H136016   2.189   5.730   0.409
12025TIP3    H236017   2.091   5.632   0.349
12026TIP3   OH236018   3.014   4.420   5.150
12026TIP3    H136019   3.092   4.439   5.098
12026TIP3    H236020   2.968   4.352   5.101
12027TIP3   OH236021   3.186   5.413   1.054
12027TIP3    H136022   3.164   5.456   1.136
12027TIP3    H236023   3.112   5.354   1.037
12028TIP3   OH236024   4.197   3.068   1.905
12028TIP3    H136025   4.243   3.103   1.828
12028TIP3    H236026   4.267   3.048   1.967
12029TIP3   OH236027   4.214   6.639   1.811
12029TIP3    H136028   4.140   6.699   1.823
12029TIP3    H236029   4.275   6.663   1.882
12030TIP3   OH236030   2.539   1.050   6.806
12030TIP3    H136031   2.627   1.075   6.777
12030TIP3    H236032   2.534   0.956   6.788
12031TIP3   OH236033   3.405   2.823   5.335
12031TIP3    H136034   3.410   2.894   5.399
12031TIP3    H236035   3.319   2.783   5.349
12032TIP3   OH236036   2.640   3.167   5.109
12032TIP3    H136037   2.649   3.259   5.083
12032TIP3    H236038   2.597   3.171   5.195
12033TIP3   OH236039   5.052   4.104   2.375
12033TIP3    H136040   5.043   4.170   2.443
12033TIP3    H236041   5.089   4.027   2.420
12034TIP3   OH236042   7.349   2.973   4.124
12034TIP3    H136043   7.412   3.039   4.095
12034TIP3    H236044   7.332   2.921   4.046
12035TIP3   OH236045   6.757   7.660   2.012
12035TIP3    H136046   6.673   7.705   2.024
12035TIP3    H236047   6.757   7.632   1.921
12036TIP3   OH236048   3.452   3.036   3.848
12036TIP3    H136049   3.384   2.969   3.841
12036TIP3    H236050   3.431   3.099   3.779
12037TIP3   OH236051   3.977   6.386   0.500
12037TIP3    H136052   4.045   6.417   0.441
12037TIP3    H236053   3.909   6.351   0.443
12038TIP3   OH236054   6.212   4.705   4.930
12038TIP3    H136055   6.141   4.640   4.939
12038TIP3    H236056   6.167   4.790   4.935
12039TIP3   OH236057   2.742   6.058   0.464
12039TIP3    H136058   2.724   6.151   0.451
12039TIP3    H236059   2.658   6.021   0.490
12040TIP3   OH236060   2.945   4.056   6.291
12040TIP3    H136061   2.953   4.115   6.215
12040TIP3    H236062   2.926   3.971   6.253
12041TIP3   OH236063   3.757   3.433   6.600
12041TIP3    H136064   3.829   3.486   6.568
12041TIP3    H236065   3.786   3.403   6.687
12042TIP3   OH236066   3.043   7.867   5.768
12042TIP3    H136067   3.064   7.807   5.697
12042TIP3    H236068   2.951   7.847   5.789
12043TIP3   OH236069   2.476   2.636   5.761
12043TIP3    H136070   2.428   2.719   5.753
12043TIP3    H236071   2.408   2.569   5.767
12044TIP3   OH236072   6.251   1.714   3.336
12044TIP3    H136073   6.261   1.691   3.428
12044TIP3    H236074   6.327   1.769   3.317
12045TIP3   OH236075   4.545   5.434   4.003
12045TIP3    H136076   4.479   5.416   3.937
12045TIP3    H236077   4.533   5.366   4.069
12046TIP3   OH236078   0.822   5.650   3.282
12046TIP3    H136079   0.762   5.575   3.288
12046TIP3    H236080   0.909   5.610   3.280
12047TIP3   OH236081   2.128   0.194   2.141
12047TIP3    H136082   2.143   0.101   2.158
12047TIP3    H236083   2.189   0.240   2.199
12048TIP3   OH236084   3.783   6.945   1.052
12048TIP3    H136085   3.827   6.864   1.026
12048TIP3    H236086   3.717   6.960   0.985
12049TIP3   OH236087   0.368   3.679   2.814
12049TIP3    H136088   0.341   3.770   2.823
12049TIP3    H236089   0.366   3.644   2.903
12050TIP3   OH236090   3.911   1.191   3.880
12050TIP3    H136091   3.826   1.161   3.911
12050TIP3    H236092   3.972   1.168   3.950
12051TIP3   OH236093   3.692   0.976   6.449
12051TIP3    H136094   3.738   1.038   6.393
12051TIP3    H236095   3.633   1.030   6.501
12052TIP3   OH236096   7.769   0.424   0.358
12052TIP3    H136097   7.784   0.497   0.417
12052TIP3    H236098   7.855   0.409   0.316
12053TIP3   OH236099   8.111   1.238   1.589
12053TIP3    H136100   8.044   1.306   1.587
12053TIP3    H236101   8.152   1.246   1.675
12054TIP3   OH236102   0.622   0.971   1.851
12054TIP3    H136103   0.553   1.018   1.898
12054TIP3    H236104   0.700   0.980   1.906
12055TIP3   OH236105   5.697   7.800   1.054
12055TIP3    H136106   5.644   7.779   0.977
12055TIP3    H236107   5.759   7.866   1.023
12056TIP3   OH236108   1.583   7.306   4.728
12056TIP3    H136109   1.568   7.252   4.651
12056TIP3    H236110   1.581   7.244   4.801
12057TIP3   OH236111   4.262   7.260   5.249
12057TIP3    H136112   4.352   7.234   5.269
12057TIP3    H236113   4.234   7.309   5.326
12058TIP3   OH236114   1.201   1.676   2.821
12058TIP3    H136115   1.251   1.752   2.853
12058TIP3    H236116   1.116   1.712   2.796
12059TIP3   OH236117   2.284   6.283   5.071
12059TIP3    H136118   2.374   6.252   5.062
12059TIP3    H236119   2.233   6.204   5.088
12060TIP3   OH236120   3.883   3.153   5.533
12060TIP3    H136121   3.831   3.224   5.570
12060TIP3    H236122   3.824   3.112   5.469
12061TIP3   OH236123   6.738   4.030   0.378
12061TIP3    H136124   6.793   3.956   0.405
12061TIP3    H236125   6.798   4.090   0.334
12062TIP3   OH236126   1.262   4.010   5.448
12062TIP3    H136127   1.272   4.073   5.377
12062TIP3    H236128   1.329   4.034   5.511
12063TIP3   OH236129   1.949   6.266   0.825
12063TIP3    H136130   1.878   6.232   0.879
12063TIP3    H236131   2.026   6.263   0.882
12064TIP3   OH236132   0.762   4.578   5.188
12064TIP3    H136133   0.683   4.529   5.166
12064TIP3    H236134   0.827   4.546   5.125
12065TIP3   OH236135   7.553   7.517   3.615
12065TIP3    H136136   7.502   7.504   3.694
12065TIP3    H236137   7.499   7.576   3.562
12066TIP3   OH236138   1.545   6.991   3.482
12066TIP3    H136139   1.454   6.969   3.500
12066TIP3    H236140   1.586   6.907   3.461
12067TIP3   OH236141   3.175   0.216   1.882
12067TIP3    H136142   3.083   0.237   1.873
12067TIP3    H236143   3.192   0.150   1.815
12068TIP3   OH236144   7.634   2.501   5.415
12068TIP3    H136145   7.591   2.532   5.495
12068TIP3    H236146   7.661   2.412   5.435
12069TIP3   OH236147   4.675   0.798   4.139
12069TIP3    H136148   4.741   0.867   4.134
12069TIP3    H236149   4.614   0.819   4.068
12070TIP3   OH236150   1.992   2.558   4.695
12070TIP3    H136151   1.971   2.505   4.619
12070TIP3    H236152   2.085   2.578   4.686
12071TIP3   OH236153   1.894   2.656   3.260
12071TIP3    H136154   1.851   2.593   3.203
12071TIP3    H236155   1.831   2.728   3.269
12072TIP3   OH236156   3.226   0.535   2.736
12072TIP3    H136157   3.288   0.468   2.708
12072TIP3    H236158   3.161   0.487   2.787
12073TIP3   OH236159   7.354   3.592   6.068
12073TIP3    H136160   7.442   3.590   6.032
12073TIP3    H236161   7.300   3.625   5.997
12074TIP3   OH236162   2.053   4.039   5.090
12074TIP3    H136163   2.037   3.945   5.091
12074TIP3    H236164   1.997   4.075   5.159
12075TIP3   OH236165   2.558   1.016   3.564
12075TIP3    H136166   2.507   0.979   3.636
12075TIP3    H236167   2.647   1.023   3.598
12076TIP3   OH236168   4.009   6.659   2.709
12076TIP3    H136169   4.042   6.734   2.760
12076TIP3    H236170   3.960   6.699   2.637
12077TIP3   OH236171   2.933   7.381   5.058
12077TIP3    H136172   2.876   7.445   5.101
12077TIP3    H236173   2.990   7.434   5.002
12078TIP3   OH236174   4.625   3.535   1.075
12078TIP3    H136175   4.702   3.480   1.090
12078TIP3    H236176   4.577   3.531   1.158
12079TIP3   OH236177   3.037   5.868   2.611
12079TIP3    H136178   3.089   5.929   2.559
12079TIP3    H236179   2.975   5.830   2.549
12080TIP3   OH236180   2.614   1.696   4.958
12080TIP3    H136181   2.654   1.633   5.019
12080TIP3    H236182   2.682   1.762   4.943
12081TIP3   OH236183   3.508   4.431   3.546
12081TIP3    H136184   3.443   4.482   3.595
12081TIP3    H236185   3.543   4.493   3.481
12082TIP3   OH236186   4.295   1.343   4.838
12082TIP3    H136187   4.288   1.417   4.898
12082TIP3    H236188   4.368   1.291   4.872
12083TIP3   OH236189   7.838   1.877   2.701
12083TIP3    H136190   7.792   1.957   2.676
12083TIP3    H236191   7.774   1.827   2.750
12084TIP3   OH236192   2.522   2.392   6.488
12084TIP3    H136193   2.467   2.471   6.490
12084TIP3    H236194   2.611   2.425   6.476
12085TIP3   OH236195   1.509   2.091   0.715
12085TIP3    H136196   1.482   2.176   0.680
12085TIP3    H236197   1.572   2.113   0.784
12086TIP3   OH236198   5.483   1.982   0.100
12086TIP3    H136199   5.491   1.887   0.085
12086TIP3    H236200   5.566   2.018   0.068
12087TIP3   OH236201   3.444   7.608   0.752
12087TIP3    H136202   3.521   7.557   0.778
12087TIP3    H236203   3.479   7.685   0.708
12088TIP3   OH236204   6.991   0.081   6.433
12088TIP3    H136205   7.047   0.101   6.358
12088TIP3    H236206   6.983   0.164   6.480
12089TIP3   OH236207   4.723   4.617   6.838
12089TIP3    H136208   4.647   4.610   6.780
12089TIP3    H236209   4.688   4.599   6.925
12090TIP3   OH236210   0.384   6.130   2.604
12090TIP3    H136211   0.350   6.095   2.687
12090TIP3    H236212   0.468   6.085   2.593
12091TIP3   OH236213   3.295   2.179   1.671
12091TIP3    H136214   3.283   2.208   1.581
12091TIP3    H236215   3.316   2.086   1.665
12092TIP3   OH236216   1.370   3.727   5.623
12092TIP3    H136217   1.429   3.780   5.569
12092TIP3    H236218   1.392   3.750   5.713
12093TIP3   OH236219   1.235   4.016   2.820
12093TIP3    H136220   1.274   4.017   2.907
12093TIP3    H236221   1.178   3.939   2.820
12094TIP3   OH236222   3.085   7.214   0.034
12094TIP3    H136223   3.082   7.199   0.128
12094TIP3    H236224   3.163   7.268   0.021
12095TIP3   OH236225   1.533   2.650   3.221
12095TIP3    H136226   1.466   2.583   3.207
12095TIP3    H236227   1.507   2.722   3.164
12096TIP3   OH236228   1.438   1.194   2.057
12096TIP3    H136229   1.522   1.147   2.062
12096TIP3    H236230   1.462   1.286   2.066
12097TIP3   OH236231   3.215   6.761   0.623
12097TIP3    H136232   3.303   6.794   0.600
12097TIP3    H236233   3.225   6.666   0.623
12098TIP3   OH236234   6.597   2.731   5.559
12098TIP3    H136235   6.520   2.759   5.608
12098TIP3    H236236   6.619   2.645   5.595
12099TIP3   OH236237   1.598   0.298   1.706
12099TIP3    H136238   1.613   0.304   1.612
12099TIP3    H236239   1.583   0.389   1.733
12100TIP3   OH236240   3.199   3.490   3.853
12100TIP3    H136241   3.185   3.396   3.852
12100TIP3    H236242   3.112   3.528   3.864
12101TIP3   OH236243   4.543   3.170   3.284
12101TIP3    H136244   4.603   3.169   3.210
12101TIP3    H236245   4.556   3.086   3.327
12102TIP3   OH236246   2.046   6.000   5.598
12102TIP3    H136247   2.066   5.987   5.505
12102TIP3    H236248   1.982   6.070   5.599
12103TIP3   OH236249   7.368   4.293   0.906
12103TIP3    H136250   7.332   4.322   0.822
12103TIP3    H236251   7.323   4.210   0.924
12104TIP3   OH236252   0.416   3.977   6.788
12104TIP3    H136253   0.386   4.068   6.794
12104TIP3    H236254   0.507   3.984   6.759
12105TIP3   OH236255   6.529   1.147   2.519
12105TIP3    H136256   6.556   1.063   2.556
12105TIP3    H236257   6.541   1.209   2.591
12106TIP3   OH236258   6.799   3.330   0.280
12106TIP3    H136259   6.740   3.400   0.307
12106TIP3    H236260   6.792   3.328   0.185
12107TIP3   OH236261   7.929   2.428   4.068
12107TIP3    H136262   7.888   2.470   4.143
12107TIP3    H236263   7.883   2.344   4.059
12108TIP3   OH236264   0.979   3.037   6.155
12108TIP3    H136265   0.884   3.030   6.168
12108TIP3    H236266   0.989   3.087   6.074
12109TIP3   OH236267   5.334   7.761   4.482
12109TIP3    H136268   5.356   7.776   4.574
12109TIP3    H236269   5.363   7.841   4.438
12110TIP3   OH236270   3.993   6.149   5.052
12110TIP3    H136271   4.024   6.134   4.963
12110TIP3    H236272   3.907   6.189   5.042
12111TIP3   OH236273   2.641   5.139   5.912
12111TIP3    H136274   2.666   5.092   5.832
12111TIP3    H236275   2.579   5.080   5.956
12112TIP3   OH236276   5.899   5.395   1.865
12112TIP3    H136277   5.940   5.390   1.778
12112TIP3    H236278   5.812   5.430   1.849
12113TIP3   OH236279   5.970   1.603   5.278
12113TIP3    H136280   5.911   1.661   5.326
12113TIP3    H236281   6.010   1.659   5.211
12114TIP3   OH236282   5.919   0.431   1.583
12114TIP3    H136283   5.877   0.499   1.531
12114TIP3    H236284   5.848   0.393   1.635
12115TIP3   OH236285   6.441   0.654   4.119
12115TIP3    H136286   6.485   0.734   4.147
12115TIP3    H236287   6.503   0.583   4.139
12116TIP3   OH236288   7.422   1.883   1.355
12116TIP3    H136289   7.364   1.952   1.388
12116TIP3    H236290   7.459   1.843   1.434
12117TIP3   OH236291   6.996   1.991   4.744
12117TIP3    H136292   6.939   2.040   4.685
12117TIP3    H236293   7.036   1.924   4.689
12118TIP3   OH236294   1.671   6.970   5.253
12118TIP3    H136295   1.679   6.934   5.341
12118TIP3    H236296   1.732   7.044   5.252
12119TIP3   OH236297   5.743   0.473   2.557
12119TIP3    H136298   5.756   0.383   2.585
12119TIP3    H236299   5.783   0.526   2.625
12120TIP3   OH236300   1.462   4.924   5.883
12120TIP3    H136301   1.370   4.945   5.873
12120TIP3    H236302   1.468   4.830   5.865
12121TIP3   OH236303   0.544   1.039   4.698
12121TIP3    H136304   0.559   0.960   4.646
12121TIP3    H236305   0.451   1.056   4.689
12122TIP3   OH236306   8.146   0.666   1.772
12122TIP3    H136307   8.069   0.609   1.777
12122TIP3    H236308   8.115   0.744   1.728
12123TIP3   OH236309   0.421   5.123   0.312
12123TIP3    H136310   0.372   5.042   0.324
12123TIP3    H236311   0.378   5.186   0.371
12124TIP3   OH236312   6.727   6.744   4.131
12124TIP3    H136313   6.785   6.817   4.150
12124TIP3    H236314   6.665   6.742   4.205
12125TIP3   OH236315   0.725   5.273   4.463
12125TIP3    H136316   0.652   5.225   4.423
12125TIP3    H236317   0.790   5.204   4.482
12126TIP3   OH236318   1.683   5.888   1.261
12126TIP3    H136319   1.602   5.936   1.276
12126TIP3    H236320   1.733   5.901   1.342
12127TIP3   OH236321   2.926   5.759   6.040
12127TIP3    H136322   2.958   5.683   5.992
12127TIP3    H236323   2.888   5.816   5.973
12128TIP3   OH236324   4.559   3.080   4.958
12128TIP3    H136325   4.552   2.986   4.942
12128TIP3    H236326   4.652   3.099   4.948
12129TIP3   OH236327   0.751   0.216   3.088
12129TIP3    H136328   0.762   0.283   3.020
12129TIP3    H236329   0.789   0.137   3.050
12130TIP3   OH236330   0.317   0.093   4.576
12130TIP3    H136331   0.411   0.074   4.585
12130TIP3    H236332   0.277   0.043   4.647
12131TIP3   OH236333   0.058   3.030   5.173
12131TIP3    H136334  -0.009   2.962   5.177
12131TIP3    H236335   0.124   2.996   5.113
12132TIP3   OH236336   2.995   3.212   0.182
12132TIP3    H136337   2.905   3.184   0.163
12132TIP3    H236338   3.043   3.130   0.196
12133TIP3   OH236339   5.098   1.532   6.207
12133TIP3    H136340   5.174   1.579   6.242
12133TIP3    H236341   5.057   1.492   6.284
12134TIP3   OH236342   1.393   4.163   5.255
12134TIP3    H136343   1.341   4.208   5.189
12134TIP3    H236344   1.436   4.233   5.304
12135TIP3   OH236345   4.158   1.734   3.586
12135TIP3    H136346   4.148   1.811   3.530
12135TIP3    H236347   4.069   1.700   3.597
12136TIP3   OH236348   4.454   0.913   3.133
12136TIP3    H136349   4.416   0.882   3.051
12136TIP3    H236350   4.475   1.005   3.117
12137TIP3   OH236351   2.328   3.615   5.735
12137TIP3    H136352   2.411   3.587   5.773
12137TIP3    H236353   2.298   3.686   5.793
12138TIP3   OH236354   6.357   5.233   2.841
12138TIP3    H136355   6.377   5.213   2.932
12138TIP3    H236356   6.397   5.318   2.824
12139TIP3   OH236357   2.246   7.627   0.752
12139TIP3    H136358   2.211   7.714   0.770
12139TIP3    H236359   2.186   7.567   0.795
12140TIP3   OH236360   1.564   5.375   1.220
12140TIP3    H136361   1.547   5.466   1.242
12140TIP3    H236362   1.513   5.325   1.285
12141TIP3   OH236363   6.728   6.132   1.388
12141TIP3    H136364   6.639   6.158   1.363
12141TIP3    H236365   6.721   6.108   1.480
12142TIP3   OH236366   2.942   0.608   3.654
12142TIP3    H136367   2.861   0.558   3.641
12142TIP3    H236368   3.011   0.542   3.651
12143TIP3   OH236369   5.605   2.529   0.199
12143TIP3    H136370   5.588   2.497   0.287
12143TIP3    H236371   5.545   2.480   0.143
12144TIP3   OH236372   1.490   0.622   2.813
12144TIP3    H136373   1.512   0.592   2.901
12144TIP3    H236374   1.558   0.585   2.757
12145TIP3   OH236375   7.970   6.095   6.805
12145TIP3    H136376   8.043   6.066   6.859
12145TIP3    H236377   7.970   6.036   6.730
12146TIP3   OH236378   2.286   2.432   0.611
12146TIP3    H136379   2.329   2.380   0.679
12146TIP3    H236380   2.196   2.442   0.641
12147TIP3   OH236381   4.080   4.734   2.844
12147TIP3    H136382   4.099   4.815   2.891
12147TIP3    H236383   4.020   4.761   2.773
12148TIP3   OH236384   4.019   7.600   4.554
12148TIP3    H136385   3.933   7.586   4.514
12148TIP3    H236386   4.006   7.675   4.613
12149TIP3   OH236387   0.041   2.642   5.570
12149TIP3    H136388   0.068   2.605   5.654
12149TIP3    H236389   0.065   2.576   5.505
12150TIP3   OH236390   8.179   2.053   5.220
12150TIP3    H136391   8.156   2.043   5.128
12150TIP3    H236392   8.124   2.126   5.250
12151TIP3   OH236393   3.138   7.219   2.325
12151TIP3    H136394   3.046   7.240   2.307
12151TIP3    H236395   3.139   7.125   2.341
12152TIP3   OH236396   0.274   2.452   0.927
12152TIP3    H136397   0.195   2.505   0.920
12152TIP3    H236398   0.344   2.510   0.895
12153TIP3   OH236399   4.581   0.223   2.977
12153TIP3    H136400   4.618   0.261   2.898
12153TIP3    H236401   4.611   0.132   2.977
12154TIP3   OH236402   3.181   0.279   2.415
12154TIP3    H136403   3.106   0.221   2.414
12154TIP3    H236404   3.246   0.234   2.469
12155TIP3   OH236405   7.042   6.233   3.821
12155TIP3    H136406   6.989   6.155   3.806
12155TIP3    H236407   7.104   6.234   3.749
12156TIP3   OH236408   2.782   6.693   5.360
12156TIP3    H136409   2.717   6.628   5.386
12156TIP3    H236410   2.768   6.706   5.266
12157TIP3   OH236411   3.374   1.090   6.448
12157TIP3    H136412   3.328   1.156   6.396
12157TIP3    H236413   3.352   1.111   6.539
12158TIP3   OH236414   5.760   4.603   6.090
12158TIP3    H136415   5.753   4.698   6.101
12158TIP3    H236416   5.671   4.574   6.068
12159TIP3   OH236417   7.133   7.030   6.296
12159TIP3    H136418   7.146   7.099   6.231
12159TIP3    H236419   7.221   6.998   6.314
12160TIP3   OH236420   5.143   6.662   2.290
12160TIP3    H136421   5.153   6.634   2.381
12160TIP3    H236422   5.232   6.676   2.259
12161TIP3   OH236423   8.077   3.792   5.530
12161TIP3    H136424   7.999   3.737   5.523
12161TIP3    H236425   8.124   3.759   5.606
12162TIP3   OH236426   0.457   2.722   5.166
12162TIP3    H136427   0.480   2.655   5.229
12162TIP3    H236428   0.520   2.792   5.180
12163TIP3   OH236429   3.748   2.660   3.608
12163TIP3    H136430   3.762   2.573   3.571
12163TIP3    H236431   3.805   2.717   3.558
12164TIP3   OH236432   3.119   3.844   5.770
12164TIP3    H136433   3.153   3.756   5.784
12164TIP3    H236434   3.077   3.841   5.684
12165TIP3   OH236435   3.854   7.291   2.040
12165TIP3    H136436   3.875   7.332   1.956
12165TIP3    H236437   3.911   7.334   2.103
12166TIP3   OH236438   7.912   2.412   6.793
12166TIP3    H136439   7.987   2.364   6.758
12166TIP3    H236440   7.926   2.502   6.766
12167TIP3   OH236441   2.932   0.156   2.478
12167TIP3    H136442   2.850   0.168   2.431
12167TIP3    H236443   2.920   0.204   2.560
12168TIP3   OH236444   5.978   1.397   1.169
12168TIP3    H136445   6.003   1.404   1.076
12168TIP3    H236446   6.056   1.423   1.217
12169TIP3   OH236447   0.596   0.071   4.640
12169TIP3    H136448   0.672   0.036   4.686
12169TIP3    H236449   0.631   0.143   4.586
12170TIP3   OH236450   0.553   1.783   3.324
12170TIP3    H136451   0.511   1.697   3.336
12170TIP3    H236452   0.484   1.846   3.344
12171TIP3   OH236453   7.026   2.022   0.059
12171TIP3    H136454   6.968   1.949   0.084
12171TIP3    H236455   7.002   2.093   0.118
12172TIP3   OH236456   6.170   1.646   2.266
12172TIP3    H136457   6.076   1.637   2.281
12172TIP3    H236458   6.190   1.578   2.201
12173TIP3   OH236459   3.848   3.208   0.036
12173TIP3    H136460   3.797   3.142  -0.010
12173TIP3    H236461   3.905   3.246  -0.030
12174TIP3   OH236462   5.868   7.586   1.930
12174TIP3    H136463   5.807   7.515   1.911
12174TIP3    H236464   5.942   7.544   1.974
12175TIP3   OH236465   5.136   4.437   6.090
12175TIP3    H136466   5.145   4.404   6.179
12175TIP3    H236467   5.225   4.431   6.054
12176TIP3   OH236468   0.510   6.831   5.067
12176TIP3    H136469   0.514   6.921   5.036
12176TIP3    H236470   0.463   6.836   5.150
12177TIP3   OH236471   2.848   6.419   4.005
12177TIP3    H136472   2.764   6.447   4.042
12177TIP3    H236473   2.853   6.325   4.025
12178TIP3   OH236474   6.585   5.415   0.898
12178TIP3    H136475   6.564   5.360   0.822
12178TIP3    H236476   6.588   5.354   0.972
12179TIP3   OH236477   8.369   1.051   2.382
12179TIP3    H136478   8.283   1.094   2.386
12179TIP3    H236479   8.351   0.963   2.349
12180TIP3   OH236480   4.585   1.546   2.715
12180TIP3    H136481   4.565   1.454   2.728
12180TIP3    H236482   4.589   1.583   2.804
12181TIP3   OH236483   5.448   7.562   0.294
12181TIP3    H136484   5.485   7.596   0.375
12181TIP3    H236485   5.478   7.623   0.227
12182TIP3   OH236486   0.024   7.070   1.140
12182TIP3    H136487   0.095   7.091   1.201
12182TIP3    H236488  -0.055   7.101   1.185
12183TIP3   OH236489   0.687   1.105   3.688
12183TIP3    H136490   0.741   1.029   3.667
12183TIP3    H236491   0.605   1.068   3.721
12184TIP3   OH236492   0.713   4.463   1.201
12184TIP3    H136493   0.792   4.505   1.235
12184TIP3    H236494   0.641   4.501   1.251
12185TIP3   OH236495   1.461   6.729   5.365
12185TIP3    H136496   1.477   6.647   5.412
12185TIP3    H236497   1.455   6.796   5.434
12186TIP3   OH236498   0.706   2.697   2.211
12186TIP3    H136499   0.789   2.720   2.170
12186TIP3    H236500   0.725   2.616   2.259
12187TIP3   OH236501   0.825   1.080   0.703
12187TIP3    H136502   0.773   1.076   0.784
12187TIP3    H236503   0.910   1.045   0.728
12188TIP3   OH236504   6.711   5.848   3.008
12188TIP3    H136505   6.699   5.915   2.941
12188TIP3    H236506   6.751   5.775   2.961
12189TIP3   OH236507   4.315   0.286   6.383
12189TIP3    H136508   4.288   0.363   6.332
12189TIP3    H236509   4.238   0.262   6.434
12190TIP3   OH236510   4.731   4.041   6.563
12190TIP3    H136511   4.748   4.065   6.654
12190TIP3    H236512   4.729   3.945   6.564
12191TIP3   OH236513   7.457   3.996   4.334
12191TIP3    H136514   7.468   3.906   4.365
12191TIP3    H236515   7.545   4.022   4.305
12192TIP3   OH236516   7.265   7.318   1.669
12192TIP3    H136517   7.329   7.296   1.600
12192TIP3    H236518   7.303   7.395   1.712
12193TIP3   OH236519   3.074   1.356   2.590
12193TIP3    H136520   3.150   1.309   2.627
12193TIP3    H236521   3.047   1.302   2.516
12194TIP3   OH236522   5.819   5.069   6.239
12194TIP3    H136523   5.784   5.151   6.272
12194TIP3    H236524   5.816   5.009   6.314
12195TIP3   OH236525   5.929   5.367   1.570
12195TIP3    H136526   5.968   5.280   1.575
12195TIP3    H236527   5.841   5.353   1.534
12196TIP3   OH236528   8.288   3.346   4.974
12196TIP3    H136529   8.252   3.427   5.010
12196TIP3    H236530   8.379   3.367   4.953
12197TIP3   OH236531   5.673   2.834   4.912
12197TIP3    H136532   5.735   2.860   4.980
12197TIP3    H236533   5.651   2.916   4.867
12198TIP3   OH236534   4.378   1.180   4.385
12198TIP3    H136535   4.451   1.127   4.353
12198TIP3    H236536   4.420   1.248   4.437
12199TIP3   OH236537   8.398   1.031   3.127
12199TIP3    H136538   8.374   0.943   3.097
12199TIP3    H236539   8.442   1.070   3.052
12200TIP3   OH236540   6.724   2.518   0.423
12200TIP3    H136541   6.741   2.424   0.429
12200TIP3    H236542   6.793   2.559   0.476
12201TIP3   OH236543   4.994   0.103   4.974
12201TIP3    H136544   5.079   0.082   4.935
12201TIP3    H236545   5.015   0.135   5.062
12202TIP3   OH236546   5.822   4.561   3.556
12202TIP3    H136547   5.905   4.574   3.601
12202TIP3    H236548   5.798   4.470   3.576
12203TIP3   OH236549   7.211   5.505   5.463
12203TIP3    H136550   7.189   5.421   5.502
12203TIP3    H236551   7.241   5.483   5.375
12204TIP3   OH236552   3.939   5.942   2.061
12204TIP3    H136553   4.001   5.892   2.007
12204TIP3    H236554   3.966   6.034   2.049
12205TIP3   OH236555   5.058   4.821   3.130
12205TIP3    H136556   4.987   4.767   3.165
12205TIP3    H236557   5.016   4.876   3.064
12206TIP3   OH236558   1.845   4.598   4.544
12206TIP3    H136559   1.782   4.650   4.493
12206TIP3    H236560   1.929   4.615   4.502
12207TIP3   OH236561   0.233   4.631   1.426
12207TIP3    H136562   0.151   4.588   1.449
12207TIP3    H236563   0.298   4.561   1.425
12208TIP3   OH236564   6.966   4.615   3.505
12208TIP3    H136565   7.040   4.556   3.510
12208TIP3    H236566   6.966   4.647   3.415
12209TIP3   OH236567   3.817   5.424   6.836
12209TIP3    H136568   3.784   5.334   6.834
12209TIP3    H236569   3.838   5.444   6.745
12210TIP3   OH236570   1.069   3.288   3.384
12210TIP3    H136571   1.029   3.375   3.390
12210TIP3    H236572   1.026   3.238   3.453
12211TIP3   OH236573   3.158   7.384   6.330
12211TIP3    H136574   3.123   7.311   6.279
12211TIP3    H236575   3.235   7.348   6.374
12212TIP3   OH236576   1.968   3.078   4.116
12212TIP3    H136577   1.926   3.005   4.162
12212TIP3    H236578   2.057   3.048   4.100
12213TIP3   OH236579   0.948   7.463   1.803
12213TIP3    H136580   1.014   7.407   1.844
12213TIP3    H236581   0.873   7.405   1.789
12214TIP3   OH236582   5.969   0.952   4.496
12214TIP3    H136583   6.002   1.041   4.488
12214TIP3    H236584   5.874   0.961   4.501
12215TIP3   OH236585   2.121   2.974   4.766
12215TIP3    H136586   2.207   2.939   4.744
12215TIP3    H236587   2.138   3.060   4.803
12216TIP3   OH236588   6.179   6.459   3.347
12216TIP3    H136589   6.174   6.378   3.297
12216TIP3    H236590   6.094   6.467   3.389
12217TIP3   OH236591   1.371   2.334   4.984
12217TIP3    H136592   1.292   2.283   5.004
12217TIP3    H236593   1.442   2.270   4.986
12218TIP3   OH236594   0.222   0.951   1.762
12218TIP3    H136595   0.239   1.043   1.782
12218TIP3    H236596   0.130   0.938   1.786
12219TIP3   OH236597   2.498   0.137   2.244
12219TIP3    H136598   2.571   0.165   2.299
12219TIP3    H236599   2.423   0.130   2.304
12220TIP3   OH236600   7.867   7.658   1.757
12220TIP3    H136601   7.882   7.705   1.675
12220TIP3    H236602   7.942   7.681   1.812
12221TIP3   OH236603   3.350   2.160   4.172
12221TIP3    H136604   3.326   2.234   4.115
12221TIP3    H236605   3.432   2.187   4.212
12222TIP3   OH236606   3.571   6.784   5.678
12222TIP3    H136607   3.519   6.863   5.693
12222TIP3    H236608   3.518   6.731   5.619
12223TIP3   OH236609   0.570   1.399   0.277
12223TIP3    H136610   0.523   1.335   0.329
12223TIP3    H236611   0.635   1.348   0.229
12224TIP3   OH236612   5.944   5.447   3.157
12224TIP3    H136613   6.008   5.396   3.205
12224TIP3    H236614   5.939   5.404   3.071
12225TIP3   OH236615   4.865   7.757   4.154
12225TIP3    H136616   4.878   7.754   4.249
12225TIP3    H236617   4.781   7.802   4.142
12226TIP3   OH236618   3.303   1.071   4.489
12226TIP3    H136619   3.362   1.014   4.440
12226TIP3    H236620   3.334   1.159   4.472
12227TIP3   OH236621   5.906   4.518   0.383
12227TIP3    H136622   5.974   4.565   0.431
12227TIP3    H236623   5.824   4.545   0.425
12228TIP3   OH236624   2.997   0.134   0.523
12228TIP3    H136625   2.931   0.074   0.558
12228TIP3    H236626   3.008   0.200   0.591
12229TIP3   OH236627   7.832   1.471   5.311
12229TIP3    H136628   7.849   1.564   5.319
12229TIP3    H236629   7.766   1.464   5.242
12230TIP3   OH236630   3.162   5.471   6.504
12230TIP3    H136631   3.258   5.461   6.500
12230TIP3    H236632   3.144   5.492   6.595
12231TIP3   OH236633   1.698   2.132   0.908
12231TIP3    H136634   1.621   2.136   0.965
12231TIP3    H236635   1.746   2.213   0.928
12232TIP3   OH236636   5.116   5.921   1.660
12232TIP3    H136637   5.175   5.960   1.725
12232TIP3    H236638   5.040   5.979   1.659
12233TIP3   OH236639   5.016   2.357   4.964
12233TIP3    H136640   4.926   2.383   4.946
12233TIP3    H236641   5.038   2.400   5.046
12234TIP3   OH236642   3.798   5.040   1.405
12234TIP3    H136643   3.803   4.967   1.342
12234TIP3    H236644   3.767   5.114   1.354
12235TIP3   OH236645   5.972   4.793   1.104
12235TIP3    H136646   5.885   4.830   1.087
12235TIP3    H236647   5.968   4.705   1.068
12236TIP3   OH236648   7.000   1.830   5.406
12236TIP3    H136649   7.024   1.762   5.469
12236TIP3    H236650   6.995   1.784   5.322
12237TIP3   OH236651   1.119   6.030   6.293
12237TIP3    H136652   1.139   5.967   6.224
12237TIP3    H236653   1.085   5.976   6.365
12238TIP3   OH236654   5.330   1.913   4.534
12238TIP3    H136655   5.276   1.838   4.558
12238TIP3    H236656   5.418   1.891   4.565
12239TIP3   OH236657   8.028   3.068   2.865
12239TIP3    H136658   8.045   3.095   2.955
12239TIP3    H236659   8.114   3.051   2.828
12240TIP3   OH236660   1.725   0.587   4.559
12240TIP3    H136661   1.641   0.578   4.515
12240TIP3    H236662   1.760   0.498   4.562
12241TIP3   OH236663   1.958   7.815   2.494
12241TIP3    H136664   1.984   7.889   2.549
12241TIP3    H236665   1.942   7.743   2.555
12242TIP3   OH236666   0.064   4.895   2.426
12242TIP3    H136667   0.152   4.859   2.428
12242TIP3    H236668   0.014   4.835   2.370
12243TIP3   OH236669   2.471   0.741   4.946
12243TIP3    H136670   2.448   0.648   4.949
12243TIP3    H236671   2.541   0.750   5.012
12244TIP3   OH236672   5.765   0.036   3.172
12244TIP3    H136673   5.686  -0.017   3.163
12244TIP3    H236674   5.734   0.126   3.178
12245TIP3   OH236675   7.207   7.191   6.057
12245TIP3    H136676   7.198   7.274   6.011
12245TIP3    H236677   7.162   7.127   6.001
12246TIP3   OH236678   5.711   5.962   3.005
12246TIP3    H136679   5.759   5.900   3.060
12246TIP3    H236680   5.651   6.006   3.065
12247TIP3   OH236681   1.585   2.488   3.449
12247TIP3    H136682   1.588   2.567   3.396
12247TIP3    H236683   1.657   2.498   3.511
12248TIP3   OH236684   0.242   7.224   3.664
12248TIP3    H136685   0.154   7.186   3.661
12248TIP3    H236686   0.228   7.316   3.641
12249TIP3   OH236687   3.881   1.612   6.077
12249TIP3    H136688   3.936   1.654   6.011
12249TIP3    H236689   3.828   1.549   6.028
12250TIP3   OH236690   3.746   0.870   4.170
12250TIP3    H136691   3.791   0.827   4.097
12250TIP3    H236692   3.704   0.946   4.130
12251TIP3   OH236693   5.147   3.402   5.056
12251TIP3    H136694   5.189   3.337   5.000
12251TIP3    H236695   5.061   3.365   5.075
12252TIP3   OH236696   7.611   1.363   5.541
12252TIP3    H136697   7.538   1.343   5.601
12252TIP3    H236698   7.592   1.312   5.462
12253TIP3   OH236699   4.255   5.279   2.342
12253TIP3    H136700   4.267   5.211   2.276
12253TIP3    H236701   4.257   5.361   2.293
12254TIP3   OH236702   6.226   5.089   3.207
12254TIP3    H136703   6.228   4.994   3.204
12254TIP3    H236704   6.314   5.116   3.179
12255TIP3   OH236705   2.722   5.284   5.474
12255TIP3    H136706   2.669   5.307   5.550
12255TIP3    H236707   2.756   5.367   5.441
12256TIP3   OH236708   1.126   5.296   4.943
12256TIP3    H136709   1.071   5.370   4.919
12256TIP3    H236710   1.198   5.335   4.993
12257TIP3   OH236711   8.031   3.416   0.129
12257TIP3    H136712   8.077   3.374   0.202
12257TIP3    H236713   7.946   3.441   0.165
12258TIP3   OH236714   7.418   4.695   6.340
12258TIP3    H136715   7.475   4.629   6.381
12258TIP3    H236716   7.351   4.644   6.296
12259TIP3   OH236717   7.788   4.813   6.346
12259TIP3    H136718   7.724   4.793   6.279
12259TIP3    H236719   7.751   4.886   6.395
12260TIP3   OH236720   5.020   0.710   4.494
12260TIP3    H136721   5.041   0.726   4.401
12260TIP3    H236722   4.976   0.625   4.494
12261TIP3   OH236723   1.311   1.161   5.710
12261TIP3    H136724   1.395   1.184   5.750
12261TIP3    H236725   1.265   1.111   5.778
12262TIP3   OH236726   0.620   5.927   4.701
12262TIP3    H136727   0.639   5.837   4.726
12262TIP3    H236728   0.546   5.920   4.640
12263TIP3   OH236729   7.470   2.648   5.248
12263TIP3    H136730   7.486   2.641   5.154
12263TIP3    H236731   7.530   2.584   5.287
12264TIP3   OH236732   3.249   0.124   6.770
12264TIP3    H136733   3.193   0.144   6.694
12264TIP3    H236734   3.248   0.204   6.822
12265TIP3   OH236735   0.250   7.239   0.371
12265TIP3    H136736   0.261   7.236   0.466
12265TIP3    H236737   0.296   7.318   0.344
12266TIP3   OH236738   1.401   6.149   1.272
12266TIP3    H136739   1.462   6.215   1.240
12266TIP3    H236740   1.344   6.196   1.333
12267TIP3   OH236741   6.199   4.378   5.148
12267TIP3    H136742   6.170   4.323   5.221
12267TIP3    H236743   6.222   4.462   5.189
12268TIP3   OH236744   3.351   4.279   6.280
12268TIP3    H136745   3.296   4.224   6.335
12268TIP3    H236746   3.353   4.233   6.196
12269TIP3   OH236747   7.406   5.416   4.532
12269TIP3    H136748   7.490   5.370   4.525
12269TIP3    H236749   7.342   5.346   4.544
12270TIP3   OH236750   3.488   0.925   1.382
12270TIP3    H136751   3.403   0.884   1.363
12270TIP3    H236752   3.514   0.888   1.466
12271TIP3   OH236753   1.814   1.810   2.773
12271TIP3    H136754   1.761   1.735   2.748
12271TIP3    H236755   1.755   1.866   2.824
12272TIP3   OH236756   1.027   5.956   5.463
12272TIP3    H136757   0.996   6.024   5.522
12272TIP3    H236758   1.092   5.999   5.408
12273TIP3   OH236759   6.645   5.953   0.618
12273TIP3    H136760   6.695   5.873   0.606
12273TIP3    H236761   6.563   5.925   0.658
12274TIP3   OH236762   6.270   6.621   6.393
12274TIP3    H136763   6.266   6.593   6.301
12274TIP3    H236764   6.295   6.543   6.441
12275TIP3   OH236765   4.847   3.123   4.907
12275TIP3    H136766   4.898   3.056   4.952
12275TIP3    H236767   4.912   3.178   4.864
12276TIP3   OH236768   5.139   4.195   1.600
12276TIP3    H136769   5.139   4.134   1.673
12276TIP3    H236770   5.084   4.268   1.629
12277TIP3   OH236771   3.767   6.492   5.685
12277TIP3    H136772   3.693   6.551   5.694
12277TIP3    H236773   3.841   6.538   5.723
12278TIP3   OH236774   4.713   6.933   1.586
12278TIP3    H136775   4.741   6.967   1.671
12278TIP3    H236776   4.644   6.870   1.607
12279TIP3   OH236777   3.548   5.118   4.183
12279TIP3    H136778   3.558   5.210   4.208
12279TIP3    H236779   3.586   5.113   4.095
12280TIP3   OH236780   6.935   7.737   4.692
12280TIP3    H136781   7.009   7.701   4.742
12280TIP3    H236782   6.864   7.744   4.756
12281TIP3   OH236783   5.955   4.950   5.288
12281TIP3    H136784   5.937   4.892   5.214
12281TIP3    H236785   6.021   4.904   5.340
12282TIP3   OH236786   0.956   1.386   4.583
12282TIP3    H136787   0.995   1.330   4.650
12282TIP3    H236788   0.928   1.326   4.515
12283TIP3   OH236789   4.211   1.160   1.049
12283TIP3    H136790   4.216   1.131   1.140
12283TIP3    H236791   4.145   1.104   1.009
12284TIP3   OH236792   2.856   5.934   1.668
12284TIP3    H136793   2.913   5.857   1.681
12284TIP3    H236794   2.770   5.897   1.648
12285TIP3   OH236795   5.570   7.565   2.254
12285TIP3    H136796   5.656   7.570   2.296
12285TIP3    H236797   5.562   7.648   2.207
12286TIP3   OH236798   6.529   7.222   4.198
12286TIP3    H136799   6.548   7.144   4.251
12286TIP3    H236800   6.487   7.282   4.259
12287TIP3   OH236801   1.921   6.638   2.397
12287TIP3    H136802   1.970   6.662   2.318
12287TIP3    H236803   1.854   6.706   2.404
12288TIP3   OH236804   6.632   5.319   5.976
12288TIP3    H136805   6.607   5.227   5.967
12288TIP3    H236806   6.557   5.367   5.941
12289TIP3   OH236807   2.235   3.764   2.412
12289TIP3    H136808   2.316   3.723   2.381
12289TIP3    H236809   2.264   3.828   2.477
12290TIP3   OH236810   2.532   7.422   3.629
12290TIP3    H136811   2.623   7.416   3.598
12290TIP3    H236812   2.516   7.338   3.672
12291TIP3   OH236813   4.206   1.629   2.807
12291TIP3    H136814   4.129   1.584   2.771
12291TIP3    H236815   4.173   1.672   2.886
12292TIP3   OH236816   5.532   1.391   1.442
12292TIP3    H136817   5.602   1.342   1.399
12292TIP3    H236818   5.458   1.330   1.444
12293TIP3   OH236819   4.455   3.886   0.061
12293TIP3    H136820   4.535   3.889   0.113
12293TIP3    H236821   4.396   3.948   0.103
12294TIP3   OH236822   2.683   3.458   5.876
12294TIP3    H136823   2.720   3.473   5.963
12294TIP3    H236824   2.755   3.472   5.816
12295TIP3   OH236825   7.670   6.175   2.279
12295TIP3    H136826   7.706   6.240   2.340
12295TIP3    H236827   7.729   6.178   2.203
12296TIP3   OH236828   2.297   0.646   3.801
12296TIP3    H136829   2.230   0.585   3.833
12296TIP3    H236830   2.323   0.694   3.879
12297TIP3   OH236831   4.917   5.070   5.984
12297TIP3    H136832   5.004   5.076   6.023
12297TIP3    H236833   4.924   5.119   5.902
12298TIP3   OH236834   2.671   6.910   6.445
12298TIP3    H136835   2.579   6.936   6.437
12298TIP3    H236836   2.682   6.841   6.379
12299TIP3   OH236837   7.750   5.835   6.199
12299TIP3    H136838   7.794   5.883   6.268
12299TIP3    H236839   7.797   5.860   6.119
12300TIP3   OH236840   1.748   1.203   4.254
12300TIP3    H136841   1.779   1.145   4.184
12300TIP3    H236842   1.680   1.256   4.213
12301TIP3   OH236843   2.170   5.557   1.618
12301TIP3    H136844   2.105   5.489   1.597
12301TIP3    H236845   2.129   5.608   1.688
12302TIP3   OH236846   0.564   1.203   4.998
12302TIP3    H136847   0.583   1.109   4.998
12302TIP3    H236848   0.637   1.243   4.952
12303TIP3   OH236849   6.026   6.445   5.171
12303TIP3    H136850   5.998   6.377   5.233
12303TIP3    H236851   6.009   6.527   5.216
12304TIP3   OH236852   6.131   6.736   4.393
12304TIP3    H136853   6.059   6.751   4.332
12304TIP3    H236854   6.121   6.805   4.459
12305TIP3   OH236855   4.590   3.446   0.034
12305TIP3    H136856   4.540   3.525   0.012
12305TIP3    H236857   4.600   3.450   0.129
12306TIP3   OH236858   1.486   2.127   5.637
12306TIP3    H136859   1.434   2.148   5.715
12306TIP3    H236860   1.426   2.076   5.582
12307TIP3   OH236861   0.104   6.348   2.942
12307TIP3    H136862   0.080   6.322   2.853
12307TIP3    H236863   0.021   6.347   2.990
12308TIP3   OH236864   6.997   0.167   6.145
12308TIP3    H136865   7.008   0.257   6.179
12308TIP3    H236866   6.987   0.178   6.051
12309TIP3   OH236867   6.160   5.243   5.425
12309TIP3    H136868   6.067   5.252   5.402
12309TIP3    H236869   6.184   5.328   5.461
12310TIP3   OH236870   2.966   0.825   2.419
12310TIP3    H136871   2.997   0.743   2.457
12310TIP3    H236872   3.003   0.828   2.331
12311TIP3   OH236873   3.983   3.422   3.535
12311TIP3    H136874   4.058   3.399   3.590
12311TIP3    H236875   3.935   3.340   3.526
12312TIP3   OH236876   6.750   0.081   4.025
12312TIP3    H136877   6.809   0.106   3.954
12312TIP3    H236878   6.664   0.113   3.998
12313TIP3   OH236879   3.905   4.201   5.955
12313TIP3    H136880   3.942   4.286   5.976
12313TIP3    H236881   3.810   4.214   5.961
12314TIP3   OH236882   8.197   1.456   1.803
12314TIP3    H136883   8.201   1.415   1.889
12314TIP3    H236884   8.167   1.545   1.820
12315TIP3   OH236885   7.506   4.800   0.793
12315TIP3    H136886   7.505   4.750   0.712
12315TIP3    H236887   7.504   4.734   0.862
12316TIP3   OH236888   3.469   7.327   2.616
12316TIP3    H136889   3.477   7.367   2.530
12316TIP3    H236890   3.397   7.374   2.658
12317TIP3   OH236891   6.067   0.535   2.911
12317TIP3    H136892   6.105   0.447   2.908
12317TIP3    H236893   6.132   0.590   2.868
12318TIP3   OH236894   7.100   6.925   5.001
12318TIP3    H136895   7.162   6.853   4.988
12318TIP3    H236896   7.077   6.954   4.913
12319TIP3   OH236897   1.695   5.796   6.001
12319TIP3    H136898   1.629   5.728   6.014
12319TIP3    H236899   1.650   5.864   5.951
12320TIP3   OH236900   5.986   4.208   1.105
12320TIP3    H136901   5.993   4.300   1.078
12320TIP3    H236902   5.897   4.182   1.082
12321TIP3   OH236903   0.906   7.206   4.107
12321TIP3    H136904   0.874   7.296   4.115
12321TIP3    H236905   0.935   7.183   4.196
12322TIP3   OH236906   0.320   2.178   0.961
12322TIP3    H136907   0.312   2.273   0.948
12322TIP3    H236908   0.358   2.169   1.048
12323TIP3   OH236909   5.844   7.638   6.377
12323TIP3    H136910   5.831   7.698   6.303
12323TIP3    H236911   5.773   7.659   6.437
12324TIP3   OH236912   5.543   6.472   6.761
12324TIP3    H136913   5.500   6.393   6.791
12324TIP3    H236914   5.636   6.448   6.754
12325TIP3   OH236915   0.126   0.358   5.936
12325TIP3    H136916   0.103   0.391   6.023
12325TIP3    H236917   0.170   0.432   5.893
12326TIP3   OH236918   4.564   4.524   2.699
12326TIP3    H136919   4.504   4.597   2.712
12326TIP3    H236920   4.510   4.456   2.658
12327TIP3   OH236921   6.812   1.642   1.145
12327TIP3    H136922   6.718   1.626   1.150
12327TIP3    H236923   6.820   1.736   1.128
12328TIP3   OH236924   4.902   1.832   6.212
12328TIP3    H136925   4.903   1.740   6.238
12328TIP3    H236926   4.880   1.831   6.118
12329TIP3   OH236927   3.112   2.947   5.957
12329TIP3    H136928   3.095   2.937   6.051
12329TIP3    H236929   3.030   2.922   5.915
12330TIP3   OH236930   2.717  -0.005   5.460
12330TIP3    H136931   2.785  -0.010   5.392
12330TIP3    H236932   2.661  -0.081   5.444
12331TIP3   OH236933   5.563   0.220   6.780
12331TIP3    H136934   5.534   0.169   6.855
12331TIP3    H236935   5.538   0.310   6.801
12332TIP3   OH236936   2.437   3.789   1.926
12332TIP3    H136937   2.404   3.843   1.998
12332TIP3    H236938   2.465   3.852   1.859
12333TIP3   OH236939   0.969   6.191   2.654
12333TIP3    H136940   1.027   6.215   2.726
12333TIP3    H236941   0.952   6.098   2.667
12334TIP3   OH236942   7.497   6.909   2.144
12334TIP3    H136943   7.470   6.831   2.192
12334TIP3    H236944   7.426   6.926   2.083
12335TIP3   OH236945   7.296   0.867   0.778
12335TIP3    H136946   7.348   0.798   0.737
12335TIP3    H236947   7.228   0.887   0.714
12336TIP3   OH236948   3.888   4.802   5.416
12336TIP3    H136949   3.834   4.877   5.391
12336TIP3    H236950   3.844   4.727   5.375
12337TIP3   OH236951   5.559   0.774   2.746
12337TIP3    H136952   5.533   0.808   2.661
12337TIP3    H236953   5.650   0.746   2.734
12338TIP3   OH236954   7.328   5.335   5.264
12338TIP3    H136955   7.338   5.361   5.172
12338TIP3    H236956   7.270   5.259   5.261
12339TIP3   OH236957   2.868   1.814   4.221
12339TIP3    H136958   2.781   1.845   4.196
12339TIP3    H236959   2.910   1.890   4.261
12340TIP3   OH236960   6.207   0.589   4.752
12340TIP3    H136961   6.259   0.588   4.671
12340TIP3    H236962   6.138   0.653   4.735
12341TIP3   OH236963   5.796   7.447   6.730
12341TIP3    H136964   5.852   7.384   6.685
12341TIP3    H236965   5.715   7.399   6.748
12342TIP3   OH236966   2.014   6.527   0.265
12342TIP3    H136967   2.064   6.583   0.325
12342TIP3    H236968   1.949   6.484   0.321
12343TIP3   OH236969   6.298   6.455   5.841
12343TIP3    H136970   6.260   6.377   5.880
12343TIP3    H236971   6.250   6.468   5.759
12344TIP3   OH236972   2.910   6.869   6.570
12344TIP3    H136973   2.840   6.919   6.528
12344TIP3    H236974   2.940   6.808   6.502
12345TIP3   OH236975   6.094   5.119   1.585
12345TIP3    H136976   6.116   5.053   1.652
12345TIP3    H236977   6.158   5.103   1.515
12346TIP3   OH236978   5.030   0.478   1.507
12346TIP3    H136979   5.106   0.511   1.556
12346TIP3    H236980   5.058   0.394   1.472
12347TIP3   OH236981   0.052   3.180   4.031
12347TIP3    H136982   0.074   3.273   4.042
12347TIP3    H236983  -0.022   3.165   4.090
12348TIP3   OH236984   1.123   3.495   2.055
12348TIP3    H136985   1.172   3.450   1.985
12348TIP3    H236986   1.049   3.437   2.073
12349TIP3   OH236987   5.041   4.271   4.628
12349TIP3    H136988   4.950   4.301   4.636
12349TIP3    H236989   5.035   4.187   4.583
12350TIP3   OH236990   8.004   4.840   1.732
12350TIP3    H136991   7.944   4.884   1.672
12350TIP3    H236992   8.026   4.906   1.797
12351TIP3   OH236993   2.887   4.823   6.294
12351TIP3    H136994   2.977   4.820   6.325
12351TIP3    H236995   2.849   4.900   6.335
12352TIP3   OH236996   6.302   3.560   1.576
12352TIP3    H136997   6.355   3.481   1.582
12352TIP3    H236998   6.253   3.549   1.494
12353TIP3   OH236999   3.137   6.787   4.119
12353TIP3    H137000   3.131   6.870   4.071
12353TIP3    H237001   3.202   6.737   4.071
12354TIP3   OH237002   3.227   0.763   3.090
12354TIP3    H137003   3.251   0.759   2.997
12354TIP3    H237004   3.306   0.794   3.134
12355TIP3   OH237005   6.512   4.646   6.148
12355TIP3    H137006   6.488   4.554   6.136
12355TIP3    H237007   6.568   4.645   6.226
12356TIP3   OH237008   1.225   0.400   3.674
12356TIP3    H137009   1.180   0.485   3.668
12356TIP3    H237010   1.158   0.340   3.706
12357TIP3   OH237011   7.885   6.206   6.040
12357TIP3    H137012   7.974   6.230   6.066
12357TIP3    H237013   7.833   6.213   6.120
12358TIP3   OH237014   2.092   6.629   1.426
12358TIP3    H137015   2.055   6.700   1.374
12358TIP3    H237016   2.088   6.552   1.368
12359TIP3   OH237017   7.176   5.511   2.689
12359TIP3    H137018   7.219   5.591   2.720
12359TIP3    H237019   7.240   5.442   2.707
12360TIP3   OH237020   7.908   1.080   5.551
12360TIP3    H137021   7.925   1.174   5.549
12360TIP3    H237022   7.868   1.061   5.466
12361TIP3   OH237023   0.671   4.508   3.298
12361TIP3    H137024   0.580   4.523   3.320
12361TIP3    H237025   0.669   4.435   3.236
12362TIP3   OH237026   8.039   3.529   3.922
12362TIP3    H137027   8.110   3.582   3.960
12362TIP3    H237028   7.967   3.536   3.985
12363TIP3   OH237029   7.621   7.364   6.743
12363TIP3    H137030   7.695   7.422   6.761
12363TIP3    H237031   7.549   7.403   6.793
12364TIP3   OH237032   8.159   3.221   2.581
12364TIP3    H137033   8.150   3.139   2.630
12364TIP3    H237034   8.109   3.207   2.501
12365TIP3   OH237035   2.976   3.718   6.438
12365TIP3    H137036   3.067   3.709   6.466
12365TIP3    H237037   2.974   3.678   6.351
12366TIP3   OH237038   1.611   1.296   2.736
12366TIP3    H137039   1.668   1.242   2.792
12366TIP3    H237040   1.551   1.234   2.696
12367TIP3   OH237041   7.943   4.378   1.180
12367TIP3    H137042   7.850   4.364   1.197
12367TIP3    H237043   7.987   4.315   1.238
12368TIP3   OH237044   4.371   1.944   1.899
12368TIP3    H137045   4.336   1.873   1.952
12368TIP3    H237046   4.345   1.923   1.810
12369TIP3   OH237047   5.167   5.630   1.792
12369TIP3    H137048   5.106   5.579   1.738
12369TIP3    H237049   5.242   5.644   1.735
12370TIP3   OH237050   1.856   7.136   2.379
12370TIP3    H137051   1.829   7.168   2.465
12370TIP3    H237052   1.887   7.215   2.333
12371TIP3   OH237053   8.323   7.242   0.934
12371TIP3    H137054   8.270   7.311   0.976
12371TIP3    H237055   8.340   7.179   1.004
12372TIP3   OH237056   5.089   5.331   0.855
12372TIP3    H137057   5.161   5.384   0.890
12372TIP3    H237058   5.075   5.364   0.766
12373TIP3   OH237059   3.986   3.422   0.993
12373TIP3    H137060   4.061   3.455   0.944
12373TIP3    H237061   3.967   3.491   1.058
12374TIP3   OH237062   4.685   5.341   2.528
12374TIP3    H137063   4.591   5.339   2.546
12374TIP3    H237064   4.707   5.251   2.504
12375TIP3   OH237065   4.315   5.224   6.040
12375TIP3    H137066   4.294   5.144   6.089
12375TIP3    H237067   4.321   5.194   5.949
12376TIP3   OH237068   3.670   5.200   3.328
12376TIP3    H137069   3.645   5.282   3.370
12376TIP3    H237070   3.677   5.137   3.400
12377TIP3   OH237071   2.900   3.748   4.416
12377TIP3    H137072   2.843   3.787   4.350
12377TIP3    H237073   2.971   3.811   4.428
12378TIP3   OH237074   2.558   0.112   5.178
12378TIP3    H137075   2.565   0.022   5.210
12378TIP3    H237076   2.567   0.166   5.256
12379TIP3   OH237077   5.205   4.689   4.894
12379TIP3    H137078   5.242   4.601   4.885
12379TIP3    H237079   5.244   4.723   4.975
12380TIP3   OH237080   0.497   7.248   6.089
12380TIP3    H137081   0.421   7.210   6.132
12380TIP3    H237082   0.535   7.307   6.154
12381TIP3   OH237083   0.245   2.079   4.667
12381TIP3    H137084   0.287   1.995   4.646
12381TIP3    H237085   0.159   2.073   4.627
12382TIP3   OH237086   0.883   3.500   1.436
12382TIP3    H137087   0.859   3.495   1.343
12382TIP3    H237088   0.971   3.462   1.440
12383TIP3   OH237089   1.186   7.003   0.680
12383TIP3    H137090   1.252   7.053   0.728
12383TIP3    H237091   1.235   6.955   0.614
12384TIP3   OH237092   8.159   3.318   0.338
12384TIP3    H137093   8.175   3.227   0.362
12384TIP3    H237094   8.140   3.362   0.421
12385TIP3   OH237095   0.761   5.497   2.011
12385TIP3    H137096   0.808   5.470   2.090
12385TIP3    H237097   0.675   5.456   2.019
12386TIP3   OH237098   7.441   2.900   5.718
12386TIP3    H137099   7.522   2.945   5.743
12386TIP3    H237100   7.412   2.856   5.797
12387TIP3   OH237101   6.474   6.160   4.835
12387TIP3    H137102   6.499   6.128   4.749
12387TIP3    H237103   6.498   6.253   4.834
12388TIP3   OH237104   7.959   6.634   2.313
12388TIP3    H137105   7.967   6.695   2.240
12388TIP3    H237106   7.882   6.663   2.361
12389TIP3   OH237107   5.360   6.148   3.741
12389TIP3    H137108   5.330   6.144   3.832
12389TIP3    H237109   5.282   6.171   3.691
12390TIP3   OH237110   0.138   0.551   0.365
12390TIP3    H137111   0.051   0.573   0.398
12390TIP3    H237112   0.174   0.491   0.431
12391TIP3   OH237113   2.035   3.825   1.484
12391TIP3    H137114   2.101   3.894   1.486
12391TIP3    H237115   1.990   3.832   1.568
12392TIP3   OH237116   4.313   1.461   4.567
12392TIP3    H137117   4.307   1.392   4.633
12392TIP3    H237118   4.247   1.525   4.593
12393TIP3   OH237119   2.739   2.461   6.221
12393TIP3    H137120   2.706   2.392   6.163
12393TIP3    H237121   2.776   2.413   6.296
12394TIP3   OH237122   3.342   4.954   0.868
12394TIP3    H137123   3.283   4.988   0.936
12394TIP3    H237124   3.388   4.882   0.910
12395TIP3   OH237125   5.155   2.563   1.581
12395TIP3    H137126   5.224   2.558   1.514
12395TIP3    H237127   5.126   2.654   1.579
12396TIP3   OH237128   5.903   0.300   6.445
12396TIP3    H137129   5.824   0.350   6.423
12396TIP3    H237130   5.932   0.264   6.361
12397TIP3   OH237131   4.359   4.881   0.067
12397TIP3    H137132   4.325   4.970   0.053
12397TIP3    H237133   4.285   4.833   0.105
12398TIP3   OH237134   5.016   6.976   1.819
12398TIP3    H137135   5.081   6.978   1.749
12398TIP3    H237136   5.065   6.998   1.898
12399TIP3   OH237137   1.257   2.676   4.299
12399TIP3    H137138   1.266   2.716   4.213
12399TIP3    H237139   1.239   2.584   4.280
12400TIP3   OH237140   7.139   0.859   5.148
12400TIP3    H137141   7.068   0.923   5.145
12400TIP3    H237142   7.162   0.844   5.057
12401TIP3   OH237143   7.137   1.980   4.971
12401TIP3    H137144   7.212   2.039   4.966
12401TIP3    H237145   7.094   1.989   4.886
12402TIP3   OH237146   7.219   0.350   4.147
12402TIP3    H137147   7.164   0.319   4.075
12402TIP3    H237148   7.244   0.270   4.194
12403TIP3   OH237149   1.456   1.693   4.950
12403TIP3    H137150   1.544   1.654   4.952
12403TIP3    H237151   1.451   1.737   4.865
12404TIP3   OH237152   4.610   1.369   4.415
12404TIP3    H137153   4.661   1.445   4.442
12404TIP3    H237154   4.645   1.345   4.329
12405TIP3   OH237155   4.510   1.605   2.974
12405TIP3    H137156   4.418   1.588   2.955
12405TIP3    H237157   4.509   1.652   3.057
12406TIP3   OH237158   6.129   6.883   5.093
12406TIP3    H137159   6.156   6.968   5.129
12406TIP3    H237160   6.211   6.843   5.064
12407TIP3   OH237161   2.143   3.657   4.386
12407TIP3    H137162   2.149   3.743   4.343
12407TIP3    H237163   2.226   3.615   4.366
12408TIP3   OH237164   5.905   1.563   3.862
12408TIP3    H137165   5.913   1.624   3.789
12408TIP3    H237166   5.851   1.491   3.828
12409TIP3   OH237167   6.138   3.527   5.161
12409TIP3    H137168   6.093   3.604   5.127
12409TIP3    H237169   6.182   3.559   5.241
12410TIP3   OH237170   0.579   7.393   4.040
12410TIP3    H137171   0.652   7.422   4.095
12410TIP3    H237172   0.557   7.470   3.987
12411TIP3   OH237173   7.751   6.510   3.309
12411TIP3    H137174   7.816   6.482   3.244
12411TIP3    H237175   7.709   6.428   3.337
12412TIP3   OH237176   0.680   7.906   0.045
12412TIP3    H137177   0.622   7.975   0.011
12412TIP3    H237178   0.640   7.825   0.013
12413TIP3   OH237179   2.525   1.987   1.718
12413TIP3    H137180   2.455   2.010   1.657
12413TIP3    H237181   2.586   2.061   1.715
12414TIP3   OH237182   1.600   3.278   5.846
12414TIP3    H137183   1.590   3.329   5.765
12414TIP3    H237184   1.647   3.337   5.906
12415TIP3   OH237185   3.301   0.365   3.414
12415TIP3    H137186   3.344   0.438   3.369
12415TIP3    H237187   3.308   0.292   3.352
12416TIP3   OH237188   0.329   7.215   0.628
12416TIP3    H137189   0.408   7.178   0.667
12416TIP3    H237190   0.259   7.196   0.691
12417TIP3   OH237191   7.405   6.922   6.685
12417TIP3    H137192   7.497   6.945   6.699
12417TIP3    H237193   7.359   7.005   6.686
12418TIP3   OH237194   5.778   2.353   0.904
12418TIP3    H137195   5.715   2.331   0.836
12418TIP3    H237196   5.851   2.293   0.889
12419TIP3   OH237197   1.058   4.015   3.883
12419TIP3    H137198   1.118   4.042   3.814
12419TIP3    H237199   1.065   3.919   3.884
12420TIP3   OH237200   4.624   0.467   1.789
12420TIP3    H137201   4.545   0.520   1.780
12420TIP3    H237202   4.673   0.483   1.708
12421TIP3   OH237203   3.607   0.078   0.546
12421TIP3    H137204   3.546   0.052   0.478
12421TIP3    H237205   3.688   0.030   0.527
12422TIP3   OH237206   7.272   6.833   4.753
12422TIP3    H137207   7.204   6.772   4.726
12422TIP3    H237208   7.262   6.908   4.695
12423TIP3   OH237209   3.672   7.292   5.086
12423TIP3    H137210   3.588   7.296   5.131
12423TIP3    H237211   3.683   7.199   5.065
12424TIP3   OH237212   5.533   5.992   1.350
12424TIP3    H137213   5.615   5.944   1.344
12424TIP3    H237214   5.509   5.986   1.442
12425TIP3   OH237215   1.068   6.792   0.838
12425TIP3    H137216   0.973   6.790   0.825
12425TIP3    H237217   1.101   6.847   0.766
12426TIP3   OH237218   7.692   3.294   1.558
12426TIP3    H137219   7.763   3.356   1.574
12426TIP3    H237220   7.736   3.212   1.535
12427TIP3   OH237221   2.835   4.034   3.334
12427TIP3    H137222   2.785   4.113   3.359
12427TIP3    H237223   2.912   4.068   3.288
12428TIP3   OH237224   0.290   3.702   4.819
12428TIP3    H137225   0.263   3.659   4.900
12428TIP3    H237226   0.222   3.680   4.756
12429TIP3   OH237227   6.190   2.811   1.089
12429TIP3    H137228   6.213   2.872   1.019
12429TIP3    H237229   6.240   2.840   1.165
12430TIP3   OH237230   6.389   4.185   3.736
12430TIP3    H137231   6.365   4.236   3.814
12430TIP3    H237232   6.469   4.226   3.704
12431TIP3   OH237233   2.123   2.468   0.981
12431TIP3    H137234   2.208   2.427   0.998
12431TIP3    H237235   2.074   2.402   0.932
12432TIP3   OH237236   3.871   6.695   3.492
12432TIP3    H137237   3.812   6.769   3.507
12432TIP3    H237238   3.933   6.697   3.565
12433TIP3   OH237239   1.446   7.150   5.729
12433TIP3    H137240   1.467   7.162   5.821
12433TIP3    H237241   1.434   7.056   5.718
12434TIP3   OH237242   5.510   1.789   4.700
12434TIP3    H137243   5.527   1.696   4.713
12434TIP3    H237244   5.591   1.822   4.660
12435TIP3   OH237245   1.573   7.018   2.346
12435TIP3    H137246   1.575   7.054   2.435
12435TIP3    H237247   1.548   6.926   2.358
12436TIP3   OH237248   3.756   6.479   6.685
12436TIP3    H137249   3.671   6.459   6.725
12436TIP3    H237250   3.817   6.420   6.729
12437TIP3   OH237251   5.606   1.444   0.992
12437TIP3    H137252   5.535   1.398   1.037
12437TIP3    H237253   5.677   1.381   0.988
12438TIP3   OH237254   7.903   3.378   1.083
12438TIP3    H137255   7.844   3.307   1.108
12438TIP3    H237256   7.949   3.346   1.006
12439TIP3   OH237257   5.021   5.542   4.932
12439TIP3    H137258   5.046   5.491   5.009
12439TIP3    H237259   4.964   5.484   4.882
12440TIP3   OH237260   4.978   0.045   5.942
12440TIP3    H137261   5.017   0.093   5.868
12440TIP3    H237262   5.022  -0.040   5.942
12441TIP3   OH237263   3.344   2.457   4.175
12441TIP3    H137264   3.408   2.482   4.242
12441TIP3    H237265   3.273   2.519   4.185
12442TIP3   OH237266   0.930   5.490   4.951
12442TIP3    H137267   0.938   5.585   4.943
12442TIP3    H237268   0.853   5.477   5.005
12443TIP3   OH237269   7.344   3.921   2.769
12443TIP3    H137270   7.342   3.929   2.674
12443TIP3    H237271   7.253   3.903   2.794
12444TIP3   OH237272   7.471   5.680   4.589
12444TIP3    H137273   7.556   5.716   4.562
12444TIP3    H237274   7.462   5.599   4.538
12445TIP3   OH237275   4.176   2.628   3.146
12445TIP3    H137276   4.198   2.538   3.122
12445TIP3    H237277   4.093   2.620   3.193
12446TIP3   OH237278   1.388   5.895   2.477
12446TIP3    H137279   1.424   5.825   2.421
12446TIP3    H237280   1.448   5.900   2.551
12447TIP3   OH237281   0.879   6.217   6.622
12447TIP3    H137282   0.901   6.138   6.672
12447TIP3    H237283   0.963   6.258   6.602
12448TIP3   OH237284   7.856   3.660   5.201
12448TIP3    H137285   7.809   3.595   5.149
12448TIP3    H237286   7.818   3.744   5.174
12449TIP3   OH237287   1.923   2.609   2.637
12449TIP3    H137288   1.953   2.636   2.724
12449TIP3    H237289   1.977   2.533   2.615
12450TIP3   OH237290   0.775   3.346   2.269
12450TIP3    H137291   0.723   3.422   2.295
12450TIP3    H237292   0.786   3.295   2.349
12451TIP3   OH237293   7.694   7.041   4.653
12451TIP3    H137294   7.787   7.042   4.674
12451TIP3    H237295   7.689   6.992   4.570
12452TIP3   OH237296   6.576   7.195   3.173
12452TIP3    H137297   6.638   7.139   3.219
12452TIP3    H237298   6.513   7.135   3.133
12453TIP3   OH237299   5.238   5.179   4.232
12453TIP3    H137300   5.227   5.253   4.172
12453TIP3    H237301   5.267   5.219   4.314
12454TIP3   OH237302   0.047   6.211   4.543
12454TIP3    H137303  -0.037   6.238   4.580
12454TIP3    H237304   0.113   6.259   4.594
12455TIP3   OH237305   5.518   6.781   1.098
12455TIP3    H137306   5.522   6.706   1.157
12455TIP3    H237307   5.425   6.793   1.081
12456TIP3   OH237308   0.628   0.480   5.500
12456TIP3    H137309   0.695   0.427   5.543
12456TIP3    H237310   0.548   0.427   5.507
12457TIP3   OH237311   4.297   3.614   0.344
12457TIP3    H137312   4.234   3.640   0.277
12457TIP3    H237313   4.246   3.606   0.424
12458TIP3   OH237314   7.021   4.256   4.093
12458TIP3    H137315   6.937   4.277   4.132
12458TIP3    H237316   7.015   4.162   4.074
12459TIP3   OH237317   7.947   4.283   2.069
12459TIP3    H137318   7.853   4.300   2.072
12459TIP3    H237319   7.982   4.329   2.146
12460TIP3   OH237320   4.044   0.574   5.096
12460TIP3    H137321   4.071   0.614   5.013
12460TIP3    H237322   4.068   0.639   5.163
12461TIP3   OH237323   0.280   1.162   4.922
12461TIP3    H137324   0.231   1.137   5.000
12461TIP3    H237325   0.372   1.151   4.946
12462TIP3   OH237326   4.060   6.385   1.358
12462TIP3    H137327   4.037   6.455   1.297
12462TIP3    H237328   4.012   6.308   1.326
12463TIP3   OH237329   1.869   0.270   1.337
12463TIP3    H137330   1.946   0.320   1.363
12463TIP3    H237331   1.878   0.259   1.242
12464TIP3   OH237332   3.356   2.565   0.367
12464TIP3    H137333   3.293   2.630   0.399
12464TIP3    H237334   3.434   2.616   0.346
12465TIP3   OH237335   6.714   7.332   5.630
12465TIP3    H137336   6.763   7.339   5.712
12465TIP3    H237337   6.778   7.353   5.562
12466TIP3   OH237338   6.533   3.993   1.808
12466TIP3    H137339   6.573   4.074   1.839
12466TIP3    H237340   6.440   4.012   1.804
12467TIP3   OH237341   5.676   3.870   0.884
12467TIP3    H137342   5.614   3.922   0.935
12467TIP3    H237343   5.621   3.810   0.834
12468TIP3   OH237344   2.606   0.932   5.325
12468TIP3    H137345   2.595   1.017   5.281
12468TIP3    H237346   2.520   0.891   5.319
12469TIP3   OH237347   4.167   1.239   2.431
12469TIP3    H137348   4.124   1.309   2.381
12469TIP3    H237349   4.210   1.284   2.503
12470TIP3   OH237350   7.379   1.636   0.759
12470TIP3    H137351   7.347   1.546   0.767
12470TIP3    H237352   7.321   1.687   0.816
12471TIP3   OH237353   7.447   2.554   0.493
12471TIP3    H137354   7.429   2.466   0.461
12471TIP3    H237355   7.393   2.562   0.572
12472TIP3   OH237356   0.296   3.026   0.996
12472TIP3    H137357   0.258   3.112   0.978
12472TIP3    H237358   0.264   2.970   0.926
12473TIP3   OH237359   8.364   3.069   4.286
12473TIP3    H137360   8.335   3.143   4.340
12473TIP3    H237361   8.352   2.992   4.343
12474TIP3   OH237362   1.937   6.627   4.086
12474TIP3    H137363   1.861   6.682   4.108
12474TIP3    H237364   1.903   6.538   4.087
12475TIP3   OH237365   5.402   6.863   1.524
12475TIP3    H137366   5.329   6.910   1.484
12475TIP3    H237367   5.448   6.930   1.575
12476TIP3   OH237368   7.558   5.731   1.577
12476TIP3    H137369   7.576   5.641   1.551
12476TIP3    H237370   7.506   5.724   1.657
12477TIP3   OH237371   3.588   5.817   5.277
12477TIP3    H137372   3.605   5.725   5.299
12477TIP3    H237373   3.563   5.857   5.360
12478TIP3   OH237374   7.350   7.452   2.854
12478TIP3    H137375   7.404   7.436   2.777
12478TIP3    H237376   7.262   7.466   2.819
12479TIP3   OH237377   6.775   7.936   1.311
12479TIP3    H137378   6.712   7.972   1.374
12479TIP3    H237379   6.858   7.938   1.358
12480TIP3   OH237380   4.395   2.565   6.500
12480TIP3    H137381   4.438   2.528   6.577
12480TIP3    H237382   4.420   2.658   6.500
12481TIP3   OH237383   1.077   0.991   0.865
12481TIP3    H137384   1.111   0.986   0.955
12481TIP3    H237385   1.077   1.084   0.844
12482TIP3   OH237386   1.324   6.339   5.284
12482TIP3    H137387   1.252   6.328   5.345
12482TIP3    H237388   1.296   6.409   5.226
12483TIP3   OH237389   6.028   7.649   2.922
12483TIP3    H137390   6.102   7.627   2.865
12483TIP3    H237391   5.991   7.729   2.884
12484TIP3   OH237392   3.022   7.490   5.719
12484TIP3    H137393   3.093   7.440   5.679
12484TIP3    H237394   3.008   7.563   5.659
12485TIP3   OH237395   7.783   5.058   3.011
12485TIP3    H137396   7.791   4.968   3.042
12485TIP3    H237397   7.853   5.106   3.055
12486TIP3   OH237398   3.489   5.357   5.374
12486TIP3    H137399   3.454   5.270   5.392
12486TIP3    H237400   3.442   5.386   5.296
12487TIP3   OH237401   3.685   4.446   4.348
12487TIP3    H137402   3.741   4.441   4.426
12487TIP3    H237403   3.703   4.365   4.300
12488TIP3   OH237404   4.270   2.825   4.613
12488TIP3    H137405   4.234   2.883   4.546
12488TIP3    H237406   4.236   2.859   4.696
12489TIP3   OH237407   3.376   7.156   4.845
12489TIP3    H137408   3.287   7.193   4.843
12489TIP3    H237409   3.367   7.070   4.803
12490TIP3   OH237410   7.923   5.200   0.866
12490TIP3    H137411   7.874   5.225   0.787
12490TIP3    H237412   7.912   5.105   0.872
12491TIP3   OH237413   0.312   2.510   4.968
12491TIP3    H137414   0.408   2.517   4.973
12491TIP3    H237415   0.285   2.500   5.059
12492TIP3   OH237416   2.551   4.197   2.860
12492TIP3    H137417   2.615   4.127   2.874
12492TIP3    H237418   2.476   4.172   2.914
12493TIP3   OH237419   6.106   1.068   4.237
12493TIP3    H137420   6.199   1.090   4.248
12493TIP3    H237421   6.106   1.001   4.169
12494TIP3   OH237422   3.598   3.849   0.692
12494TIP3    H137423   3.592   3.909   0.767
12494TIP3    H237424   3.691   3.825   0.688
12495TIP3   OH237425   0.318   5.833   6.507
12495TIP3    H137426   0.223   5.822   6.499
12495TIP3    H237427   0.329   5.892   6.582
12496TIP3   OH237428   0.419   3.988   3.297
12496TIP3    H137429   0.459   3.944   3.222
12496TIP3    H237430   0.480   4.059   3.319
12497TIP3   OH237431   7.999   4.564   6.155
12497TIP3    H137432   8.052   4.627   6.205
12497TIP3    H237433   7.948   4.518   6.222
12498TIP3   OH237434   3.990   4.280   0.414
12498TIP3    H137435   4.028   4.313   0.333
12498TIP3    H237436   4.043   4.203   0.436
12499TIP3   OH237437   0.861   6.954   4.322
12499TIP3    H137438   0.941   6.927   4.277
12499TIP3    H237439   0.877   7.045   4.348
12500TIP3   OH237440   5.705   2.458   4.002
12500TIP3    H137441   5.652   2.465   3.923
12500TIP3    H237442   5.787   2.420   3.972
12501TIP3   OH237443   6.690   6.173   6.589
12501TIP3    H137444   6.755   6.190   6.657
12501TIP3    H237445   6.732   6.110   6.530
12502TIP3   OH237446   5.720   5.716   1.839
12502TIP3    H137447   5.683   5.630   1.859
12502TIP3    H237448   5.749   5.709   1.748
12503TIP3   OH237449   6.515   0.066   5.460
12503TIP3    H137450   6.547  -0.024   5.452
12503TIP3    H237451   6.435   0.069   5.408
12504TIP3   OH237452   6.413   5.728   1.139
12504TIP3    H137453   6.482   5.734   1.205
12504TIP3    H237454   6.331   5.735   1.188
12505TIP3   OH237455   3.344   1.742   0.352
12505TIP3    H137456   3.400   1.725   0.276
12505TIP3    H237457   3.349   1.662   0.404
12506TIP3   OH237458   2.985   1.916   6.396
12506TIP3    H137459   3.020   1.839   6.441
12506TIP3    H237460   2.890   1.905   6.399
12507TIP3   OH237461   6.407   4.315   0.551
12507TIP3    H137462   6.456   4.235   0.536
12507TIP3    H237463   6.340   4.316   0.484
12508TIP3   OH237464   0.899   3.819   2.464
12508TIP3    H137465   0.928   3.745   2.411
12508TIP3    H237466   0.945   3.895   2.427
12509TIP3   OH237467   7.181   0.045   6.773
12509TIP3    H137468   7.139  -0.015   6.711
12509TIP3    H237469   7.251  -0.007   6.813
12510TIP3   OH237470   3.500   5.365   1.474
12510TIP3    H137471   3.529   5.441   1.524
12510TIP3    H237472   3.437   5.401   1.411
12511TIP3   OH237473   8.295   4.891   1.416
12511TIP3    H137474   8.290   4.807   1.462
12511TIP3    H237475   8.318   4.955   1.484
12512TIP3   OH237476   4.576   1.660   0.527
12512TIP3    H137477   4.619   1.710   0.597
12512TIP3    H237478   4.529   1.727   0.476
12513TIP3   OH237479   1.527   4.515   0.803
12513TIP3    H137480   1.494   4.583   0.744
12513TIP3    H237481   1.482   4.532   0.886
12514TIP3   OH237482   2.203   6.657   1.677
12514TIP3    H137483   2.171   6.646   1.588
12514TIP3    H237484   2.231   6.748   1.682
12515TIP3   OH237485   3.118  -0.001   5.941
12515TIP3    H137486   3.049   0.053   5.981
12515TIP3    H237487   3.094  -0.004   5.848
12516TIP3   OH237488   7.186   5.814   1.643
12516TIP3    H137489   7.230   5.860   1.571
12516TIP3    H237490   7.224   5.726   1.642
12517TIP3   OH237491   6.122   3.679   5.446
12517TIP3    H137492   6.030   3.669   5.470
12517TIP3    H237493   6.124   3.757   5.391
12518TIP3   OH237494   7.893   1.716   0.413
12518TIP3    H137495   7.910   1.636   0.462
12518TIP3    H237496   7.955   1.780   0.449
12519TIP3   OH237497   8.247   0.965   0.002
12519TIP3    H137498   8.258   0.879   0.041
12519TIP3    H237499   8.336   1.000  -0.005
12520TIP3   OH237500   1.694   0.769   5.509
12520TIP3    H137501   1.657   0.821   5.437
12520TIP3    H237502   1.783   0.750   5.481
12521TIP3   OH237503   0.993   6.534   4.930
12521TIP3    H137504   1.062   6.470   4.947
12521TIP3    H237505   0.996   6.547   4.835
12522TIP3   OH237506   5.437   1.357   5.307
12522TIP3    H137507   5.530   1.342   5.292
12522TIP3    H237508   5.407   1.279   5.354
12523TIP3   OH237509   1.199   3.929   5.805
12523TIP3    H137510   1.266   3.997   5.805
12523TIP3    H237511   1.243   3.850   5.836
12524TIP3   OH237512   0.449   7.541   5.014
12524TIP3    H137513   0.486   7.485   5.082
12524TIP3    H237514   0.478   7.629   5.037
12525TIP3   OH237515   4.642   7.052   1.108
12525TIP3    H137516   4.696   7.001   1.168
12525TIP3    H237517   4.608   7.124   1.161
12526TIP3   OH237518   8.162   7.475   5.086
12526TIP3    H137519   8.173   7.422   5.165
12526TIP3    H237520   8.085   7.529   5.104
12527TIP3   OH237521   3.504   5.566   0.706
12527TIP3    H137522   3.574   5.565   0.771
12527TIP3    H237523   3.437   5.622   0.744
12528TIP3   OH237524   1.537   6.279   1.968
12528TIP3    H137525   1.498   6.330   2.038
12528TIP3    H237526   1.470   6.276   1.900
12529TIP3   OH237527   1.136   7.630   0.671
12529TIP3    H137528   1.066   7.655   0.732
12529TIP3    H237529   1.150   7.537   0.688
12530TIP3   OH237530   6.707   5.400   6.238
12530TIP3    H137531   6.791   5.436   6.209
12530TIP3    H237532   6.676   5.348   6.164
12531TIP3   OH237533   1.737   0.335   6.546
12531TIP3    H137534   1.689   0.328   6.629
12531TIP3    H237535   1.672   0.318   6.479
12532TIP3   OH237536   4.888   7.564   5.054
12532TIP3    H137537   4.799   7.595   5.038
12532TIP3    H237538   4.899   7.490   4.995
12533TIP3   OH237539   2.948   6.926   6.177
12533TIP3    H137540   2.884   6.969   6.121
12533TIP3    H237541   3.029   6.974   6.162
12534TIP3   OH237542   3.366   1.692   2.516
12534TIP3    H137543   3.433   1.758   2.536
12534TIP3    H237544   3.304   1.699   2.588
12535TIP3   OH237545   1.449   2.464   4.077
12535TIP3    H137546   1.365   2.428   4.047
12535TIP3    H237547   1.482   2.512   4.001
12536TIP3   OH237548   6.229   7.558   1.206
12536TIP3    H137549   6.206   7.473   1.244
12536TIP3    H237550   6.315   7.543   1.165
12537TIP3   OH237551   5.760   1.972   5.386
12537TIP3    H137552   5.787   2.052   5.430
12537TIP3    H237553   5.707   2.001   5.312
12538TIP3   OH237554   4.780   0.515   6.369
12538TIP3    H137555   4.844   0.460   6.325
12538TIP3    H237556   4.698   0.499   6.322
12539TIP3   OH237557   6.435   0.551   2.885
12539TIP3    H137558   6.428   0.643   2.908
12539TIP3    H237559   6.488   0.549   2.805
12540TIP3   OH237560   5.554   1.624   1.209
12540TIP3    H137561   5.572   1.586   1.123
12540TIP3    H237562   5.537   1.549   1.266
12541TIP3   OH237563   1.334   2.802   3.777
12541TIP3    H137564   1.327   2.711   3.748
12541TIP3    H237565   1.413   2.834   3.733
12542TIP3   OH237566   8.238   7.359   1.842
12542TIP3    H137567   8.213   7.345   1.933
12542TIP3    H237568   8.160   7.333   1.792
12543TIP3   OH237569   7.880   7.769   0.413
12543TIP3    H137570   7.920   7.760   0.327
12543TIP3    H237571   7.912   7.853   0.446
12544TIP3   OH237572   1.735   1.413   0.235
12544TIP3    H137573   1.809   1.357   0.213
12544TIP3    H237574   1.661   1.374   0.189
12545TIP3   OH237575   5.863   6.840   1.739
12545TIP3    H137576   5.939   6.896   1.759
12545TIP3    H237577   5.848   6.854   1.646
12546TIP3   OH237578   4.596   7.605   0.328
12546TIP3    H137579   4.648   7.674   0.286
12546TIP3    H237580   4.513   7.605   0.279
12547TIP3   OH237581   4.038   3.757   4.104
12547TIP3    H137582   4.059   3.838   4.058
12547TIP3    H237583   4.065   3.687   4.043
12548TIP3   OH237584   2.386   4.355   1.499
12548TIP3    H137585   2.421   4.444   1.493
12548TIP3    H237586   2.393   4.320   1.410
12549TIP3   OH237587   3.526   4.150   1.744
12549TIP3    H137588   3.437   4.122   1.764
12549TIP3    H237589   3.565   4.077   1.696
12550TIP3   OH237590   1.201   5.192   6.555
12550TIP3    H137591   1.164   5.274   6.524
12550TIP3    H237592   1.243   5.154   6.478
12551TIP3   OH237593   6.233   5.196   5.958
12551TIP3    H137594   6.213   5.184   5.865
12551TIP3    H237595   6.163   5.149   6.004
12552TIP3   OH237596   2.868   7.828   3.745
12552TIP3    H137597   2.822   7.744   3.747
12552TIP3    H237598   2.958   7.806   3.769
12553TIP3   OH237599   3.253   6.248   0.378
12553TIP3    H137600   3.212   6.172   0.421
12553TIP3    H237601   3.179   6.303   0.352
12554TIP3   OH237602   3.469   6.378   1.010
12554TIP3    H137603   3.557   6.351   0.985
12554TIP3    H237604   3.482   6.449   1.073
12555TIP3   OH237605   4.091   6.022   5.749
12555TIP3    H137606   4.082   6.068   5.832
12555TIP3    H237607   4.095   5.930   5.773
12556TIP3   OH237608   7.898   5.192   5.764
12556TIP3    H137609   7.829   5.206   5.699
12556TIP3    H237610   7.947   5.117   5.731
12557TIP3   OH237611   0.824   6.081   4.806
12557TIP3    H137612   0.749   6.034   4.769
12557TIP3    H237613   0.786   6.135   4.875
12558TIP3   OH237614   6.141   3.644   6.869
12558TIP3    H137615   6.149   3.626   6.775
12558TIP3    H237616   6.221   3.608   6.907
12559TIP3   OH237617   6.433   3.021   4.409
12559TIP3    H137618   6.361   3.079   4.383
12559TIP3    H237619   6.406   2.934   4.381
12560TIP3   OH237620   1.955   5.794   6.659
12560TIP3    H137621   1.862   5.814   6.658
12560TIP3    H237622   1.993   5.856   6.596
12561TIP3   OH237623   4.248   4.651   1.898
12561TIP3    H137624   4.264   4.557   1.883
12561TIP3    H237625   4.290   4.668   1.982
12562TIP3   OH237626   8.035   4.307   5.195
12562TIP3    H137627   8.009   4.274   5.109
12562TIP3    H237628   8.130   4.301   5.196
12563TIP3   OH237629   2.594   6.562   2.869
12563TIP3    H137630   2.675   6.534   2.911
12563TIP3    H237631   2.578   6.497   2.801
12564TIP3   OH237632   3.901   5.675   5.421
12564TIP3    H137633   3.808   5.651   5.412
12564TIP3    H237634   3.929   5.631   5.501
12565TIP3   OH237635   4.228   1.419   0.986
12565TIP3    H137636   4.156   1.472   1.019
12565TIP3    H237637   4.207   1.330   1.012
12566TIP3   OH237638   5.860   3.326   1.850
12566TIP3    H137639   5.848   3.319   1.945
12566TIP3    H237640   5.772   3.322   1.814
12567TIP3   OH237641   3.757   6.826   0.732
12567TIP3    H137642   3.702   6.894   0.770
12567TIP3    H237643   3.753   6.842   0.637
12568TIP3   OH237644   0.819   0.707   6.521
12568TIP3    H137645   0.875   0.677   6.592
12568TIP3    H237646   0.880   0.739   6.454
12569TIP3   OH237647   4.873   4.867   5.192
12569TIP3    H137648   4.920   4.906   5.118
12569TIP3    H237649   4.942   4.826   5.245
12570TIP3   OH237650   7.054   1.655   5.627
12570TIP3    H137651   7.067   1.561   5.641
12570TIP3    H237652   6.973   1.675   5.674
12571TIP3   OH237653   1.600   3.950   2.524
12571TIP3    H137654   1.508   3.972   2.535
12571TIP3    H237655   1.645   3.995   2.595
12572TIP3   OH237656   1.425   7.761   2.995
12572TIP3    H137657   1.393   7.849   2.974
12572TIP3    H237658   1.378   7.736   3.074
12573TIP3   OH237659   2.931   5.421   1.920
12573TIP3    H137660   2.904   5.467   1.999
12573TIP3    H237661   2.904   5.478   1.848
12574TIP3   OH237662   7.716   0.970   6.118
12574TIP3    H137663   7.688   0.883   6.090
12574TIP3    H237664   7.792   0.954   6.174
12575TIP3   OH237665   4.334   7.626   2.289
12575TIP3    H137666   4.320   7.613   2.196
12575TIP3    H237667   4.419   7.669   2.296
12576TIP3   OH237668   0.329   6.649   5.849
12576TIP3    H137669   0.393   6.669   5.917
12576TIP3    H237670   0.246   6.679   5.886
12577TIP3   OH237671   1.835   4.234   3.475
12577TIP3    H137672   1.808   4.254   3.564
12577TIP3    H237673   1.885   4.153   3.482
12578TIP3   OH237674   3.007   4.185   5.757
12578TIP3    H137675   2.936   4.191   5.693
12578TIP3    H237676   3.020   4.091   5.771
12579TIP3   OH237677   2.436   5.953   2.857
12579TIP3    H137678   2.377   6.009   2.908
12579TIP3    H237679   2.523   5.985   2.877
12580TIP3   OH237680   8.331   3.095   1.372
12580TIP3    H137681   8.383   3.127   1.298
12580TIP3    H237682   8.383   3.023   1.408
12581TIP3   OH237683   6.613   4.278   3.959
12581TIP3    H137684   6.586   4.186   3.965
12581TIP3    H237685   6.659   4.285   3.876
12582TIP3   OH237686   2.896   3.286   1.816
12582TIP3    H137687   2.892   3.244   1.730
12582TIP3    H237688   2.953   3.362   1.802
12583TIP3   OH237689   1.948   6.833   6.370
12583TIP3    H137690   1.938   6.865   6.460
12583TIP3    H237691   1.977   6.742   6.380
12584TIP3   OH237692   0.954   4.004   5.913
12584TIP3    H137693   0.953   3.917   5.952
12584TIP3    H237694   1.031   4.004   5.855
12585TIP3   OH237695   2.345   7.012   4.877
12585TIP3    H137696   2.432   7.049   4.860
12585TIP3    H237697   2.361   6.918   4.890
12586TIP3   OH237698   2.281   0.844   3.626
12586TIP3    H137699   2.258   0.910   3.690
12586TIP3    H237700   2.285   0.762   3.676
12587TIP3   OH237701   5.595   7.897   3.373
12587TIP3    H137702   5.542   7.818   3.385
12587TIP3    H237703   5.685   7.866   3.375
12588TIP3   OH237704   0.092   7.519   3.840
12588TIP3    H137705   0.165   7.579   3.856
12588TIP3    H237706   0.115   7.476   3.757
12589TIP3   OH237707   6.713   1.879   4.177
12589TIP3    H137708   6.795   1.873   4.227
12589TIP3    H237709   6.690   1.787   4.160
12590TIP3   OH237710   4.666   1.770   4.318
12590TIP3    H137711   4.761   1.768   4.311
12590TIP3    H237712   4.637   1.698   4.262
12591TIP3   OH237713   3.397   2.433   3.764
12591TIP3    H137714   3.402   2.504   3.828
12591TIP3    H237715   3.403   2.476   3.679
12592TIP3   OH237716   7.932   3.302   3.513
12592TIP3    H137717   8.002   3.337   3.569
12592TIP3    H237718   7.944   3.348   3.430
12593TIP3   OH237719   7.391   2.048   0.310
12593TIP3    H137720   7.411   1.972   0.363
12593TIP3    H237721   7.434   2.031   0.226
12594TIP3   OH237722   1.776   7.621   4.113
12594TIP3    H137723   1.740   7.555   4.054
12594TIP3    H237724   1.733   7.702   4.087
12595TIP3   OH237725   4.080   5.912   3.383
12595TIP3    H137726   4.000   5.965   3.384
12595TIP3    H237727   4.088   5.882   3.293
12596TIP3   OH237728   7.638   4.972   4.627
12596TIP3    H137729   7.548   4.969   4.594
12596TIP3    H237730   7.684   5.029   4.566
12597TIP3   OH237731   4.222   1.863   5.231
12597TIP3    H137732   4.128   1.849   5.218
12597TIP3    H237733   4.246   1.799   5.298
12598TIP3   OH237734   3.920   6.292   6.143
12598TIP3    H137735   3.884   6.377   6.119
12598TIP3    H237736   3.938   6.299   6.236
12599TIP3   OH237737   6.884   2.264   2.562
12599TIP3    H137738   6.945   2.337   2.575
12599TIP3    H237739   6.851   2.245   2.650
12600TIP3   OH237740   7.399   7.739   6.156
12600TIP3    H137741   7.464   7.689   6.107
12600TIP3    H237742   7.335   7.674   6.184
12601TIP3   OH237743   1.885   6.124   5.133
12601TIP3    H137744   1.907   6.218   5.131
12601TIP3    H237745   1.820   6.117   5.203
12602TIP3   OH237746   5.819   4.862   2.597
12602TIP3    H137747   5.867   4.898   2.671
12602TIP3    H237748   5.872   4.885   2.521
12603TIP3   OH237749   3.343   4.258   2.104
12603TIP3    H137750   3.386   4.191   2.051
12603TIP3    H237751   3.251   4.232   2.106
12604TIP3   OH237752   1.133   3.371   1.409
12604TIP3    H137753   1.107   3.352   1.318
12604TIP3    H237754   1.172   3.289   1.440
12605TIP3   OH237755   7.478   6.454   5.459
12605TIP3    H137756   7.399   6.408   5.486
12605TIP3    H237757   7.447   6.535   5.419
12606TIP3   OH237758   7.284   3.773   4.791
12606TIP3    H137759   7.315   3.806   4.875
12606TIP3    H237760   7.210   3.718   4.813
12607TIP3   OH237761   3.660   1.631   4.962
12607TIP3    H137762   3.680   1.547   4.923
12607TIP3    H237763   3.741   1.682   4.952
12608TIP3   OH237764   1.313   2.107   2.478
12608TIP3    H137765   1.252   2.034   2.487
12608TIP3    H237766   1.275   2.163   2.410
12609TIP3   OH237767   6.767   7.100   0.949
12609TIP3    H137768   6.832   7.163   0.918
12609TIP3    H237769   6.803   7.068   1.032
12610TIP3   OH237770   4.210   5.102   0.035
12610TIP3    H137771   4.202   5.096  -0.060
12610TIP3    H237772   4.222   5.196   0.052
12611TIP3   OH237773   3.975   6.958   5.636
12611TIP3    H137774   4.001   6.866   5.628
12611TIP3    H237775   4.053   7.006   5.609
12612TIP3   OH237776   5.819   5.519   3.687
12612TIP3    H137777   5.848   5.542   3.598
12612TIP3    H237778   5.892   5.471   3.724
12613TIP3   OH237779   3.568   5.205   2.339
12613TIP3    H137780   3.624   5.165   2.272
12613TIP3    H237781   3.601   5.170   2.422
12614TIP3   OH237782   5.497   6.521   3.943
12614TIP3    H137783   5.465   6.580   4.011
12614TIP3    H237784   5.425   6.516   3.880
12615TIP3   OH237785   8.082   0.765   5.064
12615TIP3    H137786   8.104   0.821   4.989
12615TIP3    H237787   8.162   0.764   5.117
12616TIP3   OH237788   3.621   4.287   0.281
12616TIP3    H137789   3.574   4.209   0.312
12616TIP3    H237790   3.630   4.342   0.359
12617TIP3   OH237791   6.726   0.091   6.261
12617TIP3    H137792   6.720  -0.004   6.254
12617TIP3    H237793   6.815   0.111   6.231
12618TIP3   OH237794   0.679   4.827   5.678
12618TIP3    H137795   0.686   4.819   5.773
12618TIP3    H237796   0.676   4.737   5.646
12619TIP3   OH237797   6.849   3.789   2.343
12619TIP3    H137798   6.802   3.869   2.319
12619TIP3    H237799   6.938   3.804   2.311
12620TIP3   OH237800   3.777   4.815   1.235
12620TIP3    H137801   3.792   4.774   1.150
12620TIP3    H237802   3.820   4.756   1.298
12621TIP3   OH237803   5.584   2.901   3.608
12621TIP3    H137804   5.558   2.861   3.524
12621TIP3    H237805   5.677   2.918   3.598
12622TIP3   OH237806   6.901   1.269   1.042
12622TIP3    H137807   6.832   1.240   1.101
12622TIP3    H237808   6.953   1.330   1.094
12623TIP3   OH237809   1.167   5.751   5.629
12623TIP3    H137810   1.083   5.766   5.585
12623TIP3    H237811   1.148   5.764   5.722
12624TIP3   OH237812   4.237   0.605   0.871
12624TIP3    H137813   4.204   0.558   0.795
12624TIP3    H237814   4.186   0.572   0.944
12625TIP3   OH237815   0.492   6.630   1.258
12625TIP3    H137816   0.566   6.687   1.238
12625TIP3    H237817   0.434   6.684   1.312
12626TIP3   OH237818   3.772   5.598   6.609
12626TIP3    H137819   3.810   5.686   6.610
12626TIP3    H237820   3.687   5.608   6.652
12627TIP3   OH237821   0.184   4.238   2.902
12627TIP3    H137822   0.163   4.182   2.977
12627TIP3    H237823   0.100   4.254   2.860
12628TIP3   OH237824   3.852   7.560   0.560
12628TIP3    H137825   3.760   7.563   0.533
12628TIP3    H237826   3.867   7.469   0.585
12629TIP3   OH237827   4.244   7.749   1.239
12629TIP3    H137828   4.167   7.805   1.228
12629TIP3    H237829   4.299   7.770   1.164
12630TIP3   OH237830   0.790   7.057   3.743
12630TIP3    H137831   0.741   7.043   3.824
12630TIP3    H237832   0.727   7.037   3.674
12631TIP3   OH237833   0.436   2.613   1.312
12631TIP3    H137834   0.357   2.566   1.284
12631TIP3    H237835   0.444   2.686   1.251
12632TIP3   OH237836   2.490  -0.018   3.455
12632TIP3    H137837   2.404   0.007   3.421
12632TIP3    H237838   2.551   0.004   3.384
12633TIP3   OH237839   0.655   1.428   1.201
12633TIP3    H137840   0.664   1.411   1.295
12633TIP3    H237841   0.745   1.447   1.172
12634TIP3   OH237842   6.386   2.146   1.296
12634TIP3    H137843   6.382   2.053   1.319
12634TIP3    H237844   6.320   2.187   1.351
12635TIP3   OH237845   5.885   1.253   4.428
12635TIP3    H137846   5.825   1.307   4.478
12635TIP3    H237847   5.971   1.272   4.465
12636TIP3   OH237848   0.553   0.864   3.371
12636TIP3    H137849   0.639   0.825   3.390
12636TIP3    H237850   0.492   0.816   3.427
12637TIP3   OH237851   6.068   7.950   6.735
12637TIP3    H137852   6.089   7.888   6.665
12637TIP3    H237853   6.083   7.902   6.816
12638TIP3   OH237854   7.991   6.366   2.550
12638TIP3    H137855   8.032   6.420   2.617
12638TIP3    H237856   8.050   6.370   2.475
12639TIP3   OH237857   6.502   0.907   3.494
12639TIP3    H137858   6.556   0.982   3.469
12639TIP3    H237859   6.565   0.839   3.518
12640TIP3   OH237860   2.234   4.068   2.584
12640TIP3    H137861   2.230   4.044   2.676
12640TIP3    H237862   2.192   4.155   2.580
12641TIP3   OH237863   2.303   3.012   0.331
12641TIP3    H137864   2.220   2.989   0.289
12641TIP3    H237865   2.341   2.927   0.354
12642TIP3   OH237866   0.331   7.435   0.129
12642TIP3    H137867   0.315   7.498   0.199
12642TIP3    H237868   0.378   7.484   0.062
12643TIP3   OH237869   7.559   6.356   5.923
12643TIP3    H137870   7.542   6.297   5.997
12643TIP3    H237871   7.600   6.300   5.857
12644TIP3   OH237872   0.276   2.064   1.765
12644TIP3    H137873   0.226   2.055   1.683
12644TIP3    H237874   0.216   2.033   1.833
12645TIP3   OH237875   4.375   2.640   4.109
12645TIP3    H137876   4.318   2.603   4.041
12645TIP3    H237877   4.455   2.664   4.063
12646TIP3   OH237878   7.925   1.763   0.123
12646TIP3    H137879   7.935   1.767   0.219
12646TIP3    H237880   7.831   1.777   0.109
12647TIP3   OH237881   4.596   2.676   3.960
12647TIP3    H137882   4.593   2.727   3.879
12647TIP3    H237883   4.670   2.712   4.009
12648TIP3   OH237884   6.104   6.415   4.604
12648TIP3    H137885   6.165   6.450   4.670
12648TIP3    H237886   6.037   6.369   4.654
12649TIP3   OH237887   0.388   1.288   3.411
12649TIP3    H137888   0.398   1.250   3.498
12649TIP3    H237889   0.450   1.240   3.356
12650TIP3   OH237890   7.018   7.485   1.888
12650TIP3    H137891   7.045   7.490   1.796
12650TIP3    H237892   7.094   7.446   1.932
12651TIP3   OH237893   6.792   5.065   3.842
12651TIP3    H137894   6.729   5.051   3.771
12651TIP3    H237895   6.877   5.058   3.799
12652TIP3   OH237896   1.201   4.980   5.893
12652TIP3    H137897   1.151   4.942   5.965
12652TIP3    H237898   1.137   4.988   5.822
12653TIP3   OH237899   8.179   6.648   3.060
12653TIP3    H137900   8.238   6.599   3.116
12653TIP3    H237901   8.100   6.660   3.113
12654TIP3   OH237902   5.587   6.757   5.576
12654TIP3    H137903   5.573   6.678   5.628
12654TIP3    H237904   5.559   6.829   5.633
12655TIP3   OH237905   3.766   6.308   0.353
12655TIP3    H137906   3.672   6.290   0.347
12655TIP3    H237907   3.805   6.260   0.280
12656TIP3   OH237908   2.116   0.857   2.327
12656TIP3    H137909   2.145   0.823   2.242
12656TIP3    H237910   2.196   0.862   2.379
12657TIP3   OH237911   2.547   4.043   6.409
12657TIP3    H137912   2.604   4.008   6.476
12657TIP3    H237913   2.552   4.138   6.420
12658TIP3   OH237914   4.241   6.630   6.497
12658TIP3    H137915   4.234   6.626   6.592
12658TIP3    H237916   4.209   6.718   6.475
12659TIP3   OH237917   6.812   2.621   0.139
12659TIP3    H137918   6.746   2.686   0.165
12659TIP3    H237919   6.880   2.628   0.206
12660TIP3   OH237920   0.063   7.168   1.699
12660TIP3    H137921   0.153   7.172   1.666
12660TIP3    H237922   0.061   7.231   1.770
12661TIP3   OH237923   3.833   3.628   5.493
12661TIP3    H137924   3.748   3.671   5.488
12661TIP3    H237925   3.891   3.681   5.439
12662TIP3   OH237926   0.271   7.711   6.342
12662TIP3    H137927   0.198   7.673   6.391
12662TIP3    H237928   0.311   7.773   6.404
12663TIP3   OH237929   6.569   2.993   5.003
12663TIP3    H137930   6.519   3.069   4.973
12663TIP3    H237931   6.620   2.967   4.927
12664TIP3   OH237932   5.360   4.239   4.235
12664TIP3    H137933   5.404   4.161   4.269
12664TIP3    H237934   5.405   4.312   4.276
12665TIP3   OH237935   2.478   7.620   0.609
12665TIP3    H137936   2.505   7.711   0.616
12665TIP3    H237937   2.403   7.612   0.668
12666TIP3   OH237938   4.898   0.962   0.812
12666TIP3    H137939   4.906   0.901   0.884
12666TIP3    H237940   4.835   1.027   0.843
12667TIP3   OH237941   3.067   6.987   1.911
12667TIP3    H137942   3.046   7.028   1.827
12667TIP3    H237943   3.103   7.058   1.964
12668TIP3   OH237944   3.493   6.247   6.557
12668TIP3    H137945   3.588   6.235   6.568
12668TIP3    H237946   3.461   6.161   6.528
12669TIP3   OH237947   5.049   7.579   0.223
12669TIP3    H137948   4.964   7.621   0.232
12669TIP3    H237949   5.037   7.514   0.154
12670TIP3   OH237950   6.126   5.225   4.960
12670TIP3    H137951   6.032   5.232   4.943
12670TIP3    H237952   6.147   5.133   4.941
12671TIP3   OH237953   0.422   4.521   1.629
12671TIP3    H137954   0.360   4.468   1.680
12671TIP3    H237955   0.468   4.573   1.695
12672TIP3   OH237956   5.988   2.011   5.846
12672TIP3    H137957   5.903   2.050   5.832
12672TIP3    H237958   5.970   1.932   5.898
12673TIP3   OH237959   7.347   6.468   5.805
12673TIP3    H137960   7.434   6.432   5.817
12673TIP3    H237961   7.310   6.473   5.893
12674TIP3   OH237962   0.439   3.885   2.029
12674TIP3    H137963   0.449   3.979   2.047
12674TIP3    H237964   0.350   3.876   1.996
12675TIP3   OH237965   0.827   7.836   6.546
12675TIP3    H137966   0.758   7.836   6.480
12675TIP3    H237967   0.835   7.927   6.573
12676TIP3   OH237968   3.527   6.458   6.790
12676TIP3    H137969   3.452   6.453   6.730
12676TIP3    H237970   3.488   6.476   6.875
12677TIP3   OH237971   2.318   6.239   3.505
12677TIP3    H137972   2.408   6.269   3.519
12677TIP3    H237973   2.299   6.264   3.415
12678TIP3   OH237974   3.233   2.051   2.661
12678TIP3    H137975   3.323   2.082   2.674
12678TIP3    H237976   3.179   2.115   2.707
12679TIP3   OH237977   8.392   7.732   1.959
12679TIP3    H137978   8.319   7.756   2.016
12679TIP3    H237979   8.463   7.709   2.019
12680TIP3   OH237980   1.553   1.896   5.782
12680TIP3    H137981   1.637   1.852   5.795
12680TIP3    H237982   1.572   1.967   5.720
12681TIP3   OH237983   2.300   4.608   1.297
12681TIP3    H137984   2.347   4.648   1.370
12681TIP3    H237985   2.210   4.637   1.306
12682TIP3   OH237986   7.136   1.719   1.744
12682TIP3    H137987   7.153   1.639   1.695
12682TIP3    H237988   7.191   1.785   1.702
12683TIP3   OH237989   4.611   4.816   1.899
12683TIP3    H137990   4.647   4.836   1.986
12683TIP3    H237991   4.678   4.846   1.838
12684TIP3   OH237992   7.528   6.669   2.956
12684TIP3    H137993   7.472   6.661   3.033
12684TIP3    H237994   7.580   6.589   2.956
12685TIP3   OH237995   2.672   4.331   0.860
12685TIP3    H137996   2.603   4.352   0.797
12685TIP3    H237997   2.743   4.391   0.839
12686TIP3   OH237998   4.085   6.670   3.680
12686TIP3    H137999   4.123   6.593   3.638
12686TIP3    H238000   4.148   6.693   3.749
12687TIP3   OH238001   5.983   2.227   3.098
12687TIP3    H138002   5.906   2.171   3.104
12687TIP3    H238003   6.038   2.201   3.173
12688TIP3   OH238004   4.129   6.185   0.972
12688TIP3    H138005   4.129   6.280   0.956
12688TIP3    H238006   4.202   6.172   1.033
12689TIP3   OH238007   5.652   6.308   2.241
12689TIP3    H138008   5.665   6.393   2.200
12689TIP3    H238009   5.586   6.324   2.308
12690TIP3   OH238010   3.296   3.879   6.125
12690TIP3    H138011   3.329   3.896   6.214
12690TIP3    H238012   3.273   3.787   6.126
12691TIP3   OH238013   0.911   2.432   1.554
12691TIP3    H138014   0.898   2.342   1.582
12691TIP3    H238015   0.860   2.485   1.616
12692TIP3   OH238016   6.485   6.610   3.762
12692TIP3    H138017   6.565   6.559   3.765
12692TIP3    H238018   6.417   6.546   3.741
12693TIP3   OH238019   1.926   1.624   5.150
12693TIP3    H138020   1.932   1.707   5.104
12693TIP3    H238021   1.898   1.647   5.238
12694TIP3   OH238022   0.173   2.115   5.591
12694TIP3    H138023   0.151   2.202   5.624
12694TIP3    H238024   0.112   2.101   5.518
12695TIP3   OH238025   7.214   2.483   6.528
12695TIP3    H138026   7.291   2.431   6.504
12695TIP3    H238027   7.227   2.566   6.482
12696TIP3   OH238028   6.831   4.700   3.734
12696TIP3    H138029   6.893   4.726   3.803
12696TIP3    H238030   6.887   4.682   3.658
12697TIP3   OH238031   7.407   5.447   6.379
12697TIP3    H138032   7.483   5.412   6.334
12697TIP3    H238033   7.421   5.542   6.380
12698TIP3   OH238034   8.267   5.450   4.762
12698TIP3    H138035   8.325   5.382   4.726
12698TIP3    H238036   8.285   5.528   4.709
12699TIP3   OH238037   6.938   3.635   0.337
12699TIP3    H138038   6.856   3.636   0.385
12699TIP3    H238039   6.912   3.623   0.245
12700TIP3   OH238040   3.453   1.095   6.756
12700TIP3    H138041   3.404   1.169   6.793
12700TIP3    H238042   3.530   1.087   6.813
12701TIP3   OH238043   1.315   4.395   0.578
12701TIP3    H138044   1.231   4.425   0.543
12701TIP3    H238045   1.369   4.474   0.580
12702TIP3   OH238046   3.224   3.560   5.806
12702TIP3    H138047   3.236   3.465   5.813
12702TIP3    H238048   3.215   3.590   5.896
12703TIP3   OH238049   1.431   5.289   1.460
12703TIP3    H138050   1.356   5.348   1.452
12703TIP3    H238051   1.407   5.230   1.532
12704TIP3   OH238052   7.829   0.498   3.177
12704TIP3    H138053   7.748   0.548   3.180
12704TIP3    H238054   7.885   0.538   3.244
12705TIP3   OH238055   2.753   2.695   2.374
12705TIP3    H138056   2.681   2.632   2.379
12705TIP3    H238057   2.831   2.641   2.365
12706TIP3   OH238058   4.268   2.600   5.942
12706TIP3    H138059   4.225   2.516   5.958
12706TIP3    H238060   4.322   2.585   5.865
12707TIP3   OH238061   6.387   2.028   6.605
12707TIP3    H138062   6.432   2.106   6.637
12707TIP3    H238063   6.457   1.966   6.585
12708TIP3   OH238064   0.693   6.582   6.305
12708TIP3    H138065   0.686   6.519   6.377
12708TIP3    H238066   0.621   6.643   6.320
12709TIP3   OH238067   2.411   0.811   2.948
12709TIP3    H138068   2.362   0.759   3.012
12709TIP3    H238069   2.367   0.896   2.947
12710TIP3   OH238070   6.629   0.695   0.825
12710TIP3    H138071   6.627   0.730   0.736
12710TIP3    H238072   6.663   0.768   0.878
12711TIP3   OH238073   2.863   4.176   1.282
12711TIP3    H138074   2.768   4.178   1.272
12711TIP3    H238075   2.896   4.235   1.214
12712TIP3   OH238076   3.548   0.431   2.789
12712TIP3    H138077   3.554   0.496   2.719
12712TIP3    H238078   3.621   0.451   2.848
12713TIP3   OH238079   7.304   4.274   1.613
12713TIP3    H138080   7.290   4.335   1.685
12713TIP3    H238081   7.217   4.237   1.596
12714TIP3   OH238082   8.054   0.770   2.294
12714TIP3    H138083   8.052   0.689   2.344
12714TIP3    H238084   8.070   0.742   2.204
12715TIP3   OH238085   1.550   6.728   6.022
12715TIP3    H138086   1.622   6.718   6.084
12715TIP3    H238087   1.560   6.655   5.962
12716TIP3   OH238088   5.159   1.577   0.695
12716TIP3    H138089   5.070   1.543   0.708
12716TIP3    H238090   5.160   1.659   0.744
12717TIP3   OH238091   6.367   4.371   1.999
12717TIP3    H138092   6.388   4.436   2.067
12717TIP3    H238093   6.397   4.288   2.037
12718TIP3   OH238094   0.285   2.123   3.058
12718TIP3    H138095   0.217   2.130   2.991
12718TIP3    H238096   0.243   2.076   3.130
12719TIP3   OH238097   1.186   1.615   6.767
12719TIP3    H138098   1.238   1.575   6.697
12719TIP3    H238099   1.096   1.590   6.746
12720TIP3   OH238100   2.595   3.770   6.298
12720TIP3    H138101   2.545   3.850   6.314
12720TIP3    H238102   2.562   3.708   6.362
12721TIP3   OH238103   7.710   3.126   5.208
12721TIP3    H138104   7.743   3.042   5.239
12721TIP3    H238105   7.689   3.110   5.116
12722TIP3   OH238106   2.568   6.396   2.642
12722TIP3    H138107   2.543   6.310   2.608
12722TIP3    H238108   2.564   6.454   2.567
12723TIP3   OH238109   6.672   1.169   1.170
12723TIP3    H138110   6.694   1.163   1.263
12723TIP3    H238111   6.579   1.148   1.166
12724TIP3   OH238112   1.765   7.769   5.064
12724TIP3    H138113   1.809   7.792   5.147
12724TIP3    H238114   1.683   7.729   5.091
12725TIP3   OH238115   5.762   4.743   5.456
12725TIP3    H138116   5.830   4.807   5.475
12725TIP3    H238117   5.759   4.686   5.533
12726TIP3   OH238118   2.839   1.805   4.764
12726TIP3    H138119   2.856   1.899   4.762
12726TIP3    H238120   2.856   1.775   4.675
12727TIP3   OH238121   3.135   1.805   3.666
12727TIP3    H138122   3.071   1.844   3.606
12727TIP3    H238123   3.174   1.734   3.615
12728TIP3   OH238124   7.884   6.303   6.577
12728TIP3    H138125   7.822   6.303   6.650
12728TIP3    H238126   7.965   6.270   6.616
12729TIP3   OH238127   7.071   0.659   5.309
12729TIP3    H138128   7.109   0.739   5.273
12729TIP3    H238129   6.992   0.689   5.353
12730TIP3   OH238130   7.537   2.799   0.396
12730TIP3    H138131   7.494   2.717   0.418
12730TIP3    H238132   7.594   2.777   0.322
12731TIP3   OH238133   1.678   4.389   2.862
12731TIP3    H138134   1.586   4.364   2.851
12731TIP3    H238135   1.701   4.359   2.949
12732TIP3   OH238136   3.757   3.257   3.859
12732TIP3    H138137   3.764   3.165   3.834
12732TIP3    H238138   3.834   3.273   3.915
12733TIP3   OH238139   7.624   4.553   2.230
12733TIP3    H138140   7.710   4.595   2.221
12733TIP3    H238141   7.644   4.459   2.235
12734TIP3   OH238142   2.947   5.697   1.796
12734TIP3    H138143   3.033   5.733   1.775
12734TIP3    H238144   2.940   5.704   1.891
12735TIP3   OH238145   6.382   2.445   5.563
12735TIP3    H138146   6.429   2.366   5.536
12735TIP3    H238147   6.428   2.475   5.642
12736TIP3   OH238148   2.851   2.366   5.276
12736TIP3    H138149   2.813   2.282   5.252
12736TIP3    H238150   2.889   2.400   5.195
12737TIP3   OH238151   4.240   0.147   1.950
12737TIP3    H138152   4.312   0.196   1.911
12737TIP3    H238153   4.168   0.155   1.887
12738TIP3   OH238154   5.823   6.096   2.288
12738TIP3    H138155   5.747   6.152   2.267
12738TIP3    H238156   5.896   6.157   2.294
12739TIP3   OH238157   0.290   6.906   1.859
12739TIP3    H138158   0.324   6.882   1.945
12739TIP3    H238159   0.199   6.931   1.875
12740TIP3   OH238160   2.547   2.247   4.518
12740TIP3    H138161   2.634   2.209   4.504
12740TIP3    H238162   2.488   2.190   4.468
12741TIP3   OH238163   0.077   4.156   5.889
12741TIP3    H138164   0.110   4.142   5.801
12741TIP3    H238165   0.093   4.074   5.935
12742TIP3   OH238166   2.483   2.929   0.905
12742TIP3    H138167   2.400   2.945   0.860
12742TIP3    H238168   2.506   2.839   0.882
12743TIP3   OH238169   7.062   7.438   6.664
12743TIP3    H138170   7.051   7.404   6.575
12743TIP3    H238171   7.111   7.370   6.710
12744TIP3   OH238172   5.953   0.932   1.479
12744TIP3    H138173   6.013   1.006   1.479
12744TIP3    H238174   5.961   0.895   1.567
12745TIP3   OH238175   3.461   7.226   0.931
12745TIP3    H138176   3.507   7.306   0.905
12745TIP3    H238177   3.387   7.220   0.870
12746TIP3   OH238178   3.339   1.453   0.304
12746TIP3    H138179   3.289   1.380   0.340
12746TIP3    H238180   3.430   1.433   0.327
12747TIP3   OH238181   0.328   7.570   1.108
12747TIP3    H138182   0.298   7.481   1.093
12747TIP3    H238183   0.255   7.613   1.152
12748TIP3   OH238184   4.078   5.978   0.804
12748TIP3    H138185   4.091   6.045   0.871
12748TIP3    H238186   4.045   6.025   0.728
12749TIP3   OH238187   4.544   3.086   2.716
12749TIP3    H138188   4.456   3.054   2.735
12749TIP3    H238189   4.581   3.105   2.803
12750TIP3   OH238190   6.763   5.593   2.406
12750TIP3    H138191   6.735   5.661   2.344
12750TIP3    H238192   6.681   5.553   2.435
12751TIP3   OH238193   4.431   7.329   4.856
12751TIP3    H138194   4.502   7.304   4.915
12751TIP3    H238195   4.353   7.288   4.895
12752TIP3   OH238196   4.936   0.954   3.824
12752TIP3    H138197   4.893   0.938   3.740
12752TIP3    H238198   4.943   1.050   3.829
12753TIP3   OH238199   6.386   1.059   6.212
12753TIP3    H138200   6.355   1.112   6.138
12753TIP3    H238201   6.471   1.025   6.182
12754TIP3   OH238202   1.445   6.586   6.266
12754TIP3    H138203   1.438   6.557   6.175
12754TIP3    H238204   1.467   6.679   6.259
12755TIP3   OH238205   7.664   6.677   2.721
12755TIP3    H138206   7.723   6.619   2.770
12755TIP3    H238207   7.582   6.674   2.770
12756TIP3   OH238208   8.348   5.102   1.637
12756TIP3    H138209   8.430   5.142   1.609
12756TIP3    H238210   8.281   5.168   1.619
12757TIP3   OH238211   6.991   6.637   5.715
12757TIP3    H138212   6.972   6.724   5.680
12757TIP3    H238213   7.010   6.653   5.808
12758TIP3   OH238214   5.397   0.155   4.517
12758TIP3    H138215   5.474   0.152   4.574
12758TIP3    H238216   5.402   0.240   4.475
12759TIP3   OH238217   5.548   4.306   3.180
12759TIP3    H138218   5.479   4.258   3.225
12759TIP3    H238219   5.629   4.262   3.208
12760TIP3   OH238220   4.623   4.955   6.017
12760TIP3    H138221   4.716   4.978   6.019
12760TIP3    H238222   4.621   4.862   5.994
12761TIP3   OH238223   6.586   5.757   3.218
12761TIP3    H138224   6.634   5.791   3.143
12761TIP3    H238225   6.525   5.828   3.241
12762TIP3   OH238226   6.557   4.755   1.939
12762TIP3    H138227   6.557   4.825   2.004
12762TIP3    H238228   6.489   4.780   1.876
12763TIP3   OH238229   6.530   3.801   4.941
12763TIP3    H138230   6.569   3.882   4.908
12763TIP3    H238231   6.554   3.799   5.034
12764TIP3   OH238232   2.696   4.855   4.581
12764TIP3    H138233   2.776   4.871   4.531
12764TIP3    H238234   2.692   4.927   4.644
12765TIP3   OH238235   1.461   3.598   5.318
12765TIP3    H138236   1.525   3.534   5.349
12765TIP3    H238237   1.395   3.546   5.273
12766TIP3   OH238238   3.136   0.907   4.312
12766TIP3    H138239   3.204   0.960   4.271
12766TIP3    H238240   3.056   0.960   4.303
12767TIP3   OH238241   2.415   6.936   6.346
12767TIP3    H138242   2.396   6.843   6.339
12767TIP3    H238243   2.340   6.980   6.307
12768TIP3   OH238244   7.494   6.174   0.622
12768TIP3    H138245   7.582   6.152   0.652
12768TIP3    H238246   7.439   6.161   0.699
12769TIP3   OH238247   1.009   5.667   5.338
12769TIP3    H138248   1.097   5.653   5.304
12769TIP3    H238249   1.011   5.754   5.376
12770TIP3   OH238250   8.308   5.583   1.867
12770TIP3    H138251   8.320   5.554   1.957
12770TIP3    H238252   8.222   5.550   1.843
12771TIP3   OH238253   4.044   3.759   3.171
12771TIP3    H138254   4.130   3.717   3.166
12771TIP3    H238255   3.996   3.707   3.236
12772TIP3   OH238256   1.554   4.772   1.856
12772TIP3    H138257   1.463   4.757   1.881
12772TIP3    H238258   1.596   4.686   1.863
12773TIP3   OH238259   0.594   3.425   6.432
12773TIP3    H138260   0.566   3.505   6.478
12773TIP3    H238261   0.561   3.354   6.487
12774TIP3   OH238262   7.268   2.630   0.999
12774TIP3    H138263   7.262   2.639   0.904
12774TIP3    H238264   7.360   2.608   1.015
12775TIP3   OH238265   3.644   7.130   4.078
12775TIP3    H138266   3.726   7.116   4.124
12775TIP3    H238267   3.588   7.058   4.106
12776TIP3   OH238268   4.273   4.069   1.698
12776TIP3    H138269   4.308   4.090   1.784
12776TIP3    H238270   4.314   4.134   1.640
12777TIP3   OH238271   5.146   7.882   4.137
12777TIP3    H138272   5.062   7.858   4.099
12777TIP3    H238273   5.139   7.856   4.229
12778TIP3   OH238274   6.440   2.748   4.993
12778TIP3    H138275   6.352   2.750   5.032
12778TIP3    H238276   6.479   2.831   5.020
12779TIP3   OH238277   1.935   4.548   1.307
12779TIP3    H138278   1.967   4.625   1.260
12779TIP3    H238279   1.842   4.545   1.287
12780TIP3   OH238280   6.406   0.756   2.517
12780TIP3    H138281   6.420   0.806   2.436
12780TIP3    H238282   6.476   0.691   2.518
12781TIP3   OH238283   4.978   1.938   5.806
12781TIP3    H138284   5.067   1.908   5.827
12781TIP3    H238285   4.979   2.032   5.825
12782TIP3   OH238286   3.352   0.732   3.639
12782TIP3    H138287   3.336   0.732   3.544
12782TIP3    H238288   3.324   0.819   3.667
12783TIP3   OH238289   4.049   4.514   2.646
12783TIP3    H138290   4.077   4.581   2.708
12783TIP3    H238291   3.958   4.494   2.671
12784TIP3   OH238292   2.673   4.737   6.131
12784TIP3    H138293   2.703   4.756   6.042
12784TIP3    H238294   2.749   4.753   6.186
12785TIP3   OH238295   0.984   0.633   6.739
12785TIP3    H138296   0.936   0.578   6.801
12785TIP3    H238297   1.037   0.690   6.795
12786TIP3   OH238298   8.182   1.326   6.786
12786TIP3    H138299   8.097   1.311   6.827
12786TIP3    H238300   8.243   1.335   6.859
12787TIP3   OH238301   7.453   1.204   6.717
12787TIP3    H138302   7.371   1.174   6.678
12787TIP3    H238303   7.432   1.289   6.754
12788TIP3   OH238304   5.034   2.190   2.167
12788TIP3    H138305   5.023   2.096   2.178
12788TIP3    H238306   4.951   2.228   2.196
12789TIP3   OH238307   1.149   2.542   1.234
12789TIP3    H138308   1.105   2.525   1.317
12789TIP3    H238309   1.243   2.538   1.255
12790TIP3   OH238310   2.089   3.617   6.193
12790TIP3    H138311   2.176   3.589   6.164
12790TIP3    H238312   2.105   3.696   6.244
12791TIP3   OH238313   2.225   7.055   5.515
12791TIP3    H138314   2.212   7.150   5.518
12791TIP3    H238315   2.137   7.018   5.517
12792TIP3   OH238316   6.246   6.476   0.081
12792TIP3    H138317   6.293   6.437   0.008
12792TIP3    H238318   6.230   6.566   0.055
12793TIP3   OH238319   1.246   1.340   2.689
12793TIP3    H138320   1.257   1.253   2.650
12793TIP3    H238321   1.299   1.398   2.635
12794TIP3   OH238322   2.345   5.691   5.597
12794TIP3    H138323   2.273   5.693   5.660
12794TIP3    H238324   2.323   5.618   5.539
12795TIP3   OH238325   4.630   1.643   1.512
12795TIP3    H138326   4.667   1.666   1.598
12795TIP3    H238327   4.658   1.552   1.499
12796TIP3   OH238328   2.222   7.337   5.473
12796TIP3    H138329   2.129   7.353   5.456
12796TIP3    H238330   2.255   7.420   5.508
12797TIP3   OH238331   6.918   6.749   0.541
12797TIP3    H138332   6.905   6.843   0.554
12797TIP3    H238333   6.836   6.719   0.502
12798TIP3   OH238334   6.705   2.620   6.628
12798TIP3    H138335   6.695   2.630   6.722
12798TIP3    H238336   6.799   2.633   6.613
12799TIP3   OH238337   7.367   1.413   1.815
12799TIP3    H138338   7.406   1.329   1.839
12799TIP3    H238339   7.277   1.407   1.845
12800TIP3   OH238340   2.496   4.221   0.449
12800TIP3    H138341   2.527   4.251   0.363
12800TIP3    H238342   2.404   4.198   0.436
12801TIP3   OH238343   2.474   2.650   4.260
12801TIP3    H138344   2.528   2.711   4.309
12801TIP3    H238345   2.442   2.588   4.326
12802TIP3   OH238346   4.138   0.491   4.521
12802TIP3    H138347   4.215   0.446   4.487
12802TIP3    H238348   4.140   0.577   4.478
12803TIP3   OH238349   7.089   7.598   6.096
12803TIP3    H138350   6.994   7.595   6.109
12803TIP3    H238351   7.100   7.620   6.003
12804TIP3   OH238352   0.630   3.344   4.951
12804TIP3    H138353   0.546   3.333   4.907
12804TIP3    H238354   0.607   3.371   5.040
12805TIP3   OH238355   3.247   4.495   3.702
12805TIP3    H138356   3.196   4.538   3.633
12805TIP3    H238357   3.313   4.560   3.727
12806TIP3   OH238358   5.517   3.862   0.147
12806TIP3    H138359   5.461   3.896   0.217
12806TIP3    H238360   5.586   3.928   0.137
12807TIP3   OH238361   4.586   4.568   0.577
12807TIP3    H138362   4.534   4.516   0.638
12807TIP3    H238363   4.529   4.582   0.501
12808TIP3   OH238364   8.139   6.107   6.166
12808TIP3    H138365   8.208   6.107   6.234
12808TIP3    H238366   8.064   6.064   6.209
12809TIP3   OH238367   5.640   6.847   4.293
12809TIP3    H138368   5.620   6.756   4.314
12809TIP3    H238369   5.584   6.898   4.351
12810TIP3   OH238370   3.871   6.016   3.652
12810TIP3    H138371   3.899   5.999   3.742
12810TIP3    H238372   3.931   6.083   3.621
12811TIP3   OH238373   6.878   1.062   2.372
12811TIP3    H138374   6.867   1.090   2.463
12811TIP3    H238375   6.841   1.134   2.320
12812TIP3   OH238376   1.075   2.459   4.356
12812TIP3    H138377   1.038   2.420   4.435
12812TIP3    H238378   1.053   2.397   4.286
12813TIP3   OH238379   7.174   1.514   2.153
12813TIP3    H138380   7.088   1.530   2.191
12813TIP3    H238381   7.231   1.578   2.196
12814TIP3   OH238382   7.077   4.369   1.149
12814TIP3    H138383   7.070   4.276   1.168
12814TIP3    H238384   7.029   4.381   1.068
12815TIP3   OH238385   0.119   4.569   3.696
12815TIP3    H138386   0.031   4.538   3.677
12815TIP3    H238387   0.134   4.641   3.635
12816TIP3   OH238388   4.057   3.281   5.710
12816TIP3    H138389   4.034   3.205   5.656
12816TIP3    H238390   3.980   3.338   5.704
12817TIP3   OH238391   0.454   0.611   6.168
12817TIP3    H138392   0.443   0.617   6.262
12817TIP3    H238393   0.385   0.666   6.131
12818TIP3   OH238394   6.345   6.177   2.445
12818TIP3    H138395   6.344   6.271   2.466
12818TIP3    H238396   6.434   6.160   2.414
12819TIP3   OH238397   2.269   2.096   1.179
12819TIP3    H138398   2.194   2.153   1.158
12819TIP3    H238399   2.244   2.010   1.145
12820TIP3   OH238400   6.968   2.134   3.959
12820TIP3    H138401   6.930   2.205   4.011
12820TIP3    H238402   6.979   2.172   3.872
12821TIP3   OH238403   1.654   4.844   1.355
12821TIP3    H138404   1.624   4.875   1.270
12821TIP3    H238405   1.734   4.895   1.372
12822TIP3   OH238406   4.511   0.962   5.965
12822TIP3    H138407   4.459   0.883   5.982
12822TIP3    H238408   4.445   1.029   5.944
12823TIP3   OH238409   7.635   4.967   5.404
12823TIP3    H138410   7.638   4.873   5.387
12823TIP3    H238411   7.705   5.004   5.349
12824TIP3   OH238412   2.414   6.035   0.848
12824TIP3    H138413   2.402   6.128   0.867
12824TIP3    H238414   2.329   5.995   0.865
12825TIP3   OH238415   2.534   1.517   3.571
12825TIP3    H138416   2.609   1.572   3.591
12825TIP3    H238417   2.558   1.430   3.601
12826TIP3   OH238418   6.446   5.056   4.247
12826TIP3    H138419   6.475   5.050   4.156
12826TIP3    H238420   6.527   5.067   4.298
12827TIP3   OH238421   2.985   6.227   0.618
12827TIP3    H138422   2.925   6.293   0.583
12827TIP3    H238423   2.997   6.251   0.710
12828TIP3   OH238424   1.690   2.282   2.716
12828TIP3    H138425   1.687   2.241   2.630
12828TIP3    H238426   1.757   2.233   2.763
12829TIP3   OH238427   3.337   0.150   4.918
12829TIP3    H138428   3.422   0.162   4.961
12829TIP3    H238429   3.348   0.189   4.832
12830TIP3   OH238430   5.483   3.294   5.198
12830TIP3    H138431   5.512   3.241   5.272
12830TIP3    H238432   5.487   3.235   5.122
12831TIP3   OH238433   0.205   3.299   5.267
12831TIP3    H138434   0.138   3.240   5.233
12831TIP3    H238435   0.261   3.243   5.321
12832TIP3   OH238436   3.443   4.850   5.771
12832TIP3    H138437   3.499   4.887   5.839
12832TIP3    H238438   3.385   4.790   5.817
12833TIP3   OH238439   4.976   1.355   2.456
12833TIP3    H138440   4.932   1.356   2.541
12833TIP3    H238441   4.995   1.447   2.437
12834TIP3   OH238442   3.774   1.258   3.151
12834TIP3    H138443   3.823   1.300   3.081
12834TIP3    H238444   3.825   1.277   3.230
12835TIP3   OH238445   6.938   4.742   6.294
12835TIP3    H138446   6.860   4.687   6.306
12835TIP3    H238447   6.948   4.748   6.199
12836TIP3   OH238448   0.318   2.760   0.102
12836TIP3    H138449   0.286   2.804   0.181
12836TIP3    H238450   0.331   2.669   0.128
12837TIP3   OH238451   4.334   3.787   1.262
12837TIP3    H138452   4.422   3.803   1.226
12837TIP3    H238453   4.305   3.706   1.219
12838TIP3   OH238454   6.254   4.594   4.196
12838TIP3    H138455   6.177   4.568   4.145
12838TIP3    H238456   6.328   4.558   4.147
12839TIP3   OH238457   2.094   0.064   5.424
12839TIP3    H138458   2.175   0.016   5.441
12839TIP3    H238459   2.061   0.088   5.510
12840TIP3   OH238460   4.609   5.678   1.479
12840TIP3    H138461   4.517   5.672   1.507
12840TIP3    H238462   4.658   5.687   1.561
12841TIP3   OH238463   6.660   0.277   6.456
12841TIP3    H138464   6.671   0.234   6.371
12841TIP3    H238465   6.699   0.363   6.445
12842TIP3   OH238466   3.440   6.948   4.146
12842TIP3    H138467   3.420   6.965   4.238
12842TIP3    H238468   3.367   6.987   4.098
12843TIP3   OH238469   3.915   2.101   4.555
12843TIP3    H138470   3.997   2.122   4.509
12843TIP3    H238471   3.856   2.070   4.487
12844TIP3   OH238472   5.413   7.554   1.553
12844TIP3    H138473   5.458   7.596   1.480
12844TIP3    H238474   5.347   7.617   1.580
12845TIP3   OH238475   6.161   7.835   5.150
12845TIP3    H138476   6.122   7.760   5.106
12845TIP3    H238477   6.088   7.882   5.188
12846TIP3   OH238478   0.260   4.531   0.409
12846TIP3    H138479   0.352   4.520   0.387
12846TIP3    H238480   0.212   4.496   0.333
12847TIP3   OH238481   3.091   1.690   6.195
12847TIP3    H138482   3.133   1.776   6.207
12847TIP3    H238483   2.997   1.709   6.201
12848TIP3   OH238484   5.510   7.568   6.855
12848TIP3    H138485   5.481   7.618   6.932
12848TIP3    H238486   5.429   7.535   6.816
12849TIP3   OH238487   6.371   0.109   1.843
12849TIP3    H138488   6.398   0.197   1.869
12849TIP3    H238489   6.444   0.077   1.789
12850TIP3   OH238490   7.820   6.245   5.029
12850TIP3    H138491   7.806   6.171   4.970
12850TIP3    H238492   7.745   6.243   5.089
12851TIP3   OH238493   2.719   5.560   6.081
12851TIP3    H138494   2.737   5.471   6.110
12851TIP3    H238495   2.795   5.610   6.110
12852TIP3   OH238496   8.016   5.402   6.805
12852TIP3    H138497   8.069   5.364   6.875
12852TIP3    H238498   7.991   5.489   6.839
12853TIP3   OH238499   1.873   7.102   1.906
12853TIP3    H138500   1.816   7.036   1.866
12853TIP3    H238501   1.838   7.114   1.994
12854TIP3   OH238502   6.226   5.743   6.112
12854TIP3    H138503   6.273   5.662   6.131
12854TIP3    H238504   6.292   5.812   6.121
12855TIP3   OH238505   3.439   3.817   6.614
12855TIP3    H138506   3.482   3.902   6.605
12855TIP3    H238507   3.471   3.765   6.541
12856TIP3   OH238508   5.842   5.581   0.852
12856TIP3    H138509   5.888   5.633   0.918
12856TIP3    H238510   5.849   5.632   0.771
12857TIP3   OH238511   0.945   2.110   6.853
12857TIP3    H138512   0.915   2.029   6.894
12857TIP3    H238513   1.019   2.138   6.907
12858TIP3   OH238514   4.127  -0.025   4.656
12858TIP3    H138515   4.205   0.006   4.610
12858TIP3    H238516   4.081  -0.080   4.592
12859TIP3   OH238517   0.668   4.999   4.715
12859TIP3    H138518   0.723   4.995   4.636
12859TIP3    H238519   0.728   5.026   4.785
12860TIP3   OH238520   5.800   0.453   4.215
12860TIP3    H138521   5.824   0.453   4.123
12860TIP3    H238522   5.776   0.362   4.234
12861TIP3   OH238523   2.288   0.647   1.660
12861TIP3    H138524   2.347   0.693   1.720
12861TIP3    H238525   2.222   0.606   1.717
12862TIP3   OH238526   1.823   1.999   5.510
12862TIP3    H138527   1.790   2.015   5.598
12862TIP3    H238528   1.913   2.033   5.512
12863TIP3   OH238529   1.413   3.582   3.655
12863TIP3    H138530   1.416   3.629   3.738
12863TIP3    H238531   1.320   3.566   3.640
12864TIP3   OH238532   5.852   2.627   0.238
12864TIP3    H138533   5.766   2.585   0.241
12864TIP3    H238534   5.833   2.719   0.219
12865TIP3   OH238535   4.034   0.495   4.760
12865TIP3    H138536   4.065   0.510   4.671
12865TIP3    H238537   4.014   0.582   4.793
12866TIP3   OH238538   0.139   7.337   3.333
12866TIP3    H138539   0.163   7.409   3.275
12866TIP3    H238540   0.176   7.259   3.291
12867TIP3   OH238541   2.727   2.015   2.391
12867TIP3    H138542   2.744   1.924   2.365
12867TIP3    H238543   2.791   2.067   2.343
12868TIP3   OH238544   5.519   0.347   1.315
12868TIP3    H138545   5.607   0.372   1.287
12868TIP3    H238546   5.524   0.346   1.411
12869TIP3   OH238547   1.166   2.360   0.250
12869TIP3    H138548   1.201   2.275   0.279
12869TIP3    H238549   1.139   2.404   0.330
12870TIP3   OH238550   5.521   2.255   5.654
12870TIP3    H138551   5.494   2.329   5.709
12870TIP3    H238552   5.464   2.183   5.681
12871TIP3   OH238553   2.970   1.881   0.099
12871TIP3    H138554   3.012   1.808   0.145
12871TIP3    H238555   2.951   1.945   0.168
12872TIP3   OH238556   6.246   7.927   1.843
12872TIP3    H138557   6.245   7.832   1.831
12872TIP3    H238558   6.154   7.953   1.835
12873TIP3   OH238559   6.733   1.975   3.919
12873TIP3    H138560   6.828   1.987   3.927
12873TIP3    H238561   6.704   1.953   4.007
12874TIP3   OH238562   2.247   0.720   1.183
12874TIP3    H138563   2.298   0.787   1.139
12874TIP3    H238564   2.224   0.759   1.268
12875TIP3   OH238565   7.247   2.323   3.568
12875TIP3    H138566   7.304   2.293   3.497
12875TIP3    H238567   7.190   2.388   3.528
12876TIP3   OH238568   7.606   1.221   5.102
12876TIP3    H138569   7.540   1.190   5.039
12876TIP3    H238570   7.564   1.210   5.187
12877TIP3   OH238571   0.743   0.996   0.219
12877TIP3    H138572   0.657   0.962   0.198
12877TIP3    H238573   0.756   1.068   0.158
12878TIP3   OH238574   0.592   3.875   0.555
12878TIP3    H138575   0.497   3.865   0.551
12878TIP3    H238576   0.626   3.802   0.504
12879TIP3   OH238577   5.419   1.530   4.514
12879TIP3    H138578   5.369   1.544   4.434
12879TIP3    H238579   5.354   1.535   4.584
12880TIP3   OH238580   5.463   3.048   5.934
12880TIP3    H138581   5.526   3.011   5.872
12880TIP3    H238582   5.398   3.092   5.879
12881TIP3   OH238583   1.072   6.103   5.000
12881TIP3    H138584   0.982   6.101   4.967
12881TIP3    H238585   1.066   6.076   5.091
12882TIP3   OH238586   4.139   1.652   1.312
12882TIP3    H138587   4.131   1.605   1.395
12882TIP3    H238588   4.079   1.607   1.253
12883TIP3   OH238589   0.524   0.180   5.021
12883TIP3    H138590   0.500   0.090   4.997
12883TIP3    H238591   0.572   0.171   5.103
12884TIP3   OH238592   3.198   3.150   4.288
12884TIP3    H138593   3.263   3.104   4.341
12884TIP3    H238594   3.250   3.196   4.221
12885TIP3   OH238595   0.558   5.301   1.402
12885TIP3    H138596   0.500   5.229   1.378
12885TIP3    H238597   0.567   5.294   1.497
12886TIP3   OH238598   0.671   3.030   2.289
12886TIP3    H138599   0.737   2.961   2.287
12886TIP3    H238600   0.704   3.093   2.352
12887TIP3   OH238601   7.752   7.575   1.160
12887TIP3    H138602   7.708   7.536   1.236
12887TIP3    H238603   7.840   7.598   1.193
12888TIP3   OH238604   1.324   3.052   2.511
12888TIP3    H138605   1.283   3.013   2.589
12888TIP3    H238606   1.319   3.146   2.526
12889TIP3   OH238607   8.163   5.801   3.770
12889TIP3    H138608   8.077   5.815   3.809
12889TIP3    H238609   8.180   5.881   3.720
12890TIP3   OH238610   3.978   1.902   1.462
12890TIP3    H138611   4.005   1.847   1.536
12890TIP3    H238612   3.921   1.845   1.410
12891TIP3   OH238613   3.216   0.734   6.097
12891TIP3    H138614   3.184   0.647   6.119
12891TIP3    H238615   3.144   0.775   6.050
12892TIP3   OH238616   0.801   3.599   6.294
12892TIP3    H138617   0.745   3.521   6.300
12892TIP3    H238618   0.842   3.606   6.380
12893TIP3   OH238619   5.892   6.988   4.906
12893TIP3    H138620   5.939   7.047   4.847
12893TIP3    H238621   5.960   6.935   4.947
12894TIP3   OH238622   2.569   1.850   2.836
12894TIP3    H138623   2.481   1.889   2.841
12894TIP3    H238624   2.556   1.769   2.787
12895TIP3   OH238625   1.712   3.750   2.401
12895TIP3    H138626   1.654   3.817   2.438
12895TIP3    H238627   1.797   3.768   2.441
12896TIP3   OH238628   1.651   2.087   6.031
12896TIP3    H138629   1.567   2.055   6.063
12896TIP3    H238630   1.631   2.170   5.989
12897TIP3   OH238631   3.209   5.704   2.390
12897TIP3    H138632   3.261   5.628   2.365
12897TIP3    H238633   3.135   5.669   2.439
12898TIP3   OH238634   0.225   5.348   5.249
12898TIP3    H138635   0.137   5.386   5.251
12898TIP3    H238636   0.253   5.346   5.340
12899TIP3   OH238637   6.365   2.785   3.690
12899TIP3    H138638   6.304   2.858   3.696
12899TIP3    H238639   6.434   2.805   3.753
12900TIP3   OH238640   1.902   6.816   1.279
12900TIP3    H138641   1.856   6.773   1.351
12900TIP3    H238642   1.850   6.895   1.261
12901TIP3   OH238643   6.903   6.277   3.191
12901TIP3    H138644   6.889   6.188   3.159
12901TIP3    H238645   6.890   6.333   3.114
12902TIP3   OH238646   3.296   4.233   3.794
12902TIP3    H138647   3.296   4.323   3.761
12902TIP3    H238648   3.329   4.241   3.884
12903TIP3   OH238649   4.186   6.131   1.428
12903TIP3    H138650   4.239   6.139   1.348
12903TIP3    H238651   4.137   6.213   1.433
12904TIP3   OH238652   0.778   7.255   1.796
12904TIP3    H138653   0.712   7.290   1.856
12904TIP3    H238654   0.748   7.165   1.779
12905TIP3   OH238655   7.787   3.824   1.374
12905TIP3    H138656   7.822   3.777   1.298
12905TIP3    H238657   7.748   3.755   1.428
12906TIP3   OH238658   3.460   0.477   4.813
12906TIP3    H138659   3.408   0.539   4.762
12906TIP3    H238660   3.534   0.455   4.757
12907TIP3   OH238661   5.382   7.351   6.688
12907TIP3    H138662   5.461   7.386   6.647
12907TIP3    H238663   5.311   7.373   6.627
12908TIP3   OH238664   5.268   7.127   4.282
12908TIP3    H138665   5.238   7.212   4.251
12908TIP3    H238666   5.196   7.096   4.339
12909TIP3   OH238667   3.472   5.346   2.855
12909TIP3    H138668   3.524   5.315   2.930
12909TIP3    H238669   3.463   5.270   2.799
12910TIP3   OH238670   3.600   0.060   1.491
12910TIP3    H138671   3.617  -0.033   1.472
12910TIP3    H238672   3.527   0.058   1.553
12911TIP3   OH238673   1.450   1.318   6.389
12911TIP3    H138674   1.435   1.262   6.313
12911TIP3    H238675   1.501   1.392   6.355
12912TIP3   OH238676   0.115   3.677   2.501
12912TIP3    H138677   0.205   3.658   2.526
12912TIP3    H238678   0.072   3.591   2.499
12913TIP3   OH238679   5.573   6.492   2.810
12913TIP3    H138680   5.587   6.398   2.814
12913TIP3    H238681   5.656   6.531   2.836
12914TIP3   OH238682   0.334   3.300   1.664
12914TIP3    H138683   0.417   3.254   1.649
12914TIP3    H238684   0.340   3.333   1.753
12915TIP3   OH238685   6.017   5.635   4.235
12915TIP3    H138686   6.028   5.542   4.257
12915TIP3    H238687   5.935   5.660   4.277
12916TIP3   OH238688   1.413   1.116   2.654
12916TIP3    H138689   1.405   1.122   2.559
12916TIP3    H238690   1.367   1.035   2.677
12917TIP3   OH238691   4.103   2.169   5.237
12917TIP3    H138692   4.187   2.126   5.256
12917TIP3    H238693   4.060   2.176   5.322
12918TIP3   OH238694   7.716   3.565   6.451
12918TIP3    H138695   7.631   3.521   6.461
12918TIP3    H238696   7.694   3.653   6.421
12919TIP3   OH238697   2.513   0.148   3.194
12919TIP3    H138698   2.507   0.128   3.101
12919TIP3    H238699   2.432   0.193   3.215
12920TIP3   OH238700   5.656   4.866   0.015
12920TIP3    H138701   5.684   4.949  -0.024
12920TIP3    H238702   5.719   4.802  -0.017
12921TIP3   OH238703   7.973   6.556   4.990
12921TIP3    H138704   7.883   6.583   4.969
12921TIP3    H238705   8.015   6.636   5.021
12922TIP3   OH238706   3.950   3.959   4.640
12922TIP3    H138707   3.967   4.039   4.690
12922TIP3    H238708   4.020   3.958   4.574
12923TIP3   OH238709   2.489   7.109   4.369
12923TIP3    H138710   2.461   7.199   4.355
12923TIP3    H238711   2.512   7.077   4.281
12924TIP3   OH238712   8.178   2.266   4.947
12924TIP3    H138713   8.085   2.252   4.968
12924TIP3    H238714   8.180   2.348   4.898
12925TIP3   OH238715   8.257   2.020   1.789
12925TIP3    H138716   8.183   2.062   1.834
12925TIP3    H238717   8.217   1.980   1.711
12926TIP3   OH238718   1.620   2.259   4.003
12926TIP3    H138719   1.575   2.273   3.919
12926TIP3    H238720   1.704   2.220   3.979
12927TIP3   OH238721   5.819   5.697   3.939
12927TIP3    H138722   5.842   5.608   3.911
12927TIP3    H238723   5.772   5.684   4.021
12928TIP3   OH238724   7.036   2.269   1.345
12928TIP3    H138725   6.961   2.310   1.302
12928TIP3    H238726   7.060   2.196   1.289
12929TIP3   OH238727   1.483   3.043   0.504
12929TIP3    H138728   1.421   2.985   0.548
12929TIP3    H238729   1.457   3.041   0.412
12930TIP3   OH238730   4.944   7.616   1.865
12930TIP3    H138731   4.921   7.553   1.932
12930TIP3    H238732   5.040   7.612   1.860
12931TIP3   OH238733   1.649   6.923   0.095
12931TIP3    H138734   1.604   6.842   0.118
12931TIP3    H238735   1.702   6.900   0.019
12932TIP3   OH238736   0.648   3.230   3.367
12932TIP3    H138737   0.705   3.184   3.306
12932TIP3    H238738   0.602   3.295   3.313
12933TIP3   OH238739   2.238   5.236   1.104
12933TIP3    H138740   2.284   5.219   1.022
12933TIP3    H238741   2.236   5.332   1.110
12934TIP3   OH238742   6.961   2.651   4.625
12934TIP3    H138743   6.986   2.725   4.681
12934TIP3    H238744   6.925   2.587   4.685
12935TIP3   OH238745   1.968   5.779   3.033
12935TIP3    H138746   1.970   5.863   3.079
12935TIP3    H238747   2.051   5.775   2.986
12936TIP3   OH238748   3.529   4.551   2.644
12936TIP3    H138749   3.562   4.488   2.580
12936TIP3    H238750   3.512   4.499   2.722
12937TIP3   OH238751   5.196   5.443   4.600
12937TIP3    H138752   5.234   5.484   4.522
12937TIP3    H238753   5.266   5.448   4.665
12938TIP3   OH238754   5.948   6.123   3.237
12938TIP3    H138755   5.953   6.035   3.199
12938TIP3    H238756   6.008   6.175   3.184
12939TIP3   OH238757   7.401   2.530   0.168
12939TIP3    H138758   7.439   2.470   0.232
12939TIP3    H238759   7.458   2.523   0.092
12940TIP3   OH238760   3.362   0.548   3.818
12940TIP3    H138761   3.427   0.592   3.871
12940TIP3    H238762   3.354   0.602   3.739
12941TIP3   OH238763   5.034   1.985   2.709
12941TIP3    H138764   5.052   2.046   2.780
12941TIP3    H238765   5.047   1.898   2.747
12942TIP3   OH238766   7.724   1.389   0.630
12942TIP3    H138767   7.665   1.329   0.585
12942TIP3    H238768   7.675   1.417   0.707
12943TIP3   OH238769   8.162   0.536   4.459
12943TIP3    H138770   8.208   0.598   4.515
12943TIP3    H238771   8.197   0.450   4.485
12944TIP3   OH238772   3.490   3.408   1.526
12944TIP3    H138773   3.513   3.480   1.468
12944TIP3    H238774   3.414   3.438   1.575
12945TIP3   OH238775   1.557   3.071   3.817
12945TIP3    H138776   1.648   3.102   3.823
12945TIP3    H238777   1.523   3.080   3.906
12946TIP3   OH238778   8.121   2.194   6.717
12946TIP3    H138779   8.204   2.230   6.684
12946TIP3    H238780   8.148   2.122   6.774
12947TIP3   OH238781   0.346   7.410   6.344
12947TIP3    H138782   0.263   7.443   6.379
12947TIP3    H238783   0.387   7.487   6.304
12948TIP3   OH238784   6.717   1.631   1.445
12948TIP3    H138785   6.743   1.621   1.536
12948TIP3    H238786   6.792   1.672   1.402
12949TIP3   OH238787   7.269   6.175   3.632
12949TIP3    H138788   7.285   6.138   3.545
12949TIP3    H238789   7.334   6.245   3.640
12950TIP3   OH238790   1.031   6.300   1.352
12950TIP3    H138791   0.952   6.293   1.298
12950TIP3    H238792   1.054   6.209   1.373
12951TIP3   OH238793   5.301   5.970   1.209
12951TIP3    H138794   5.250   5.976   1.289
12951TIP3    H238795   5.392   5.979   1.238
12952TIP3   OH238796   3.450   7.763   1.861
12952TIP3    H138797   3.438   7.697   1.929
12952TIP3    H238798   3.449   7.713   1.779
12953TIP3   OH238799   1.038   6.688   1.090
12953TIP3    H138800   1.086   6.746   1.149
12953TIP3    H238801   1.046   6.729   1.004
12954TIP3   OH238802   5.090   0.735   1.781
12954TIP3    H138803   5.015   0.677   1.798
12954TIP3    H238804   5.159   0.675   1.752
12955TIP3   OH238805   8.162   6.276   2.900
12955TIP3    H138806   8.141   6.195   2.854
12955TIP3    H238807   8.152   6.254   2.992
12956TIP3   OH238808   0.414   2.760   1.537
12956TIP3    H138809   0.466   2.836   1.509
12956TIP3    H238810   0.440   2.691   1.477
12957TIP3   OH238811   5.269   1.001   3.037
12957TIP3    H138812   5.251   0.916   2.998
12957TIP3    H238813   5.362   1.016   3.020
12958TIP3   OH238814   0.550   3.677   4.493
12958TIP3    H138815   0.463   3.666   4.532
12958TIP3    H238816   0.537   3.656   4.401
12959TIP3   OH238817   0.740   0.422   4.718
12959TIP3    H138818   0.692   0.503   4.701
12959TIP3    H238819   0.790   0.440   4.798
12960TIP3   OH238820   0.528   6.315   3.306
12960TIP3    H138821   0.545   6.240   3.248
12960TIP3    H238822   0.614   6.355   3.319
12961TIP3   OH238823   8.058   7.387   2.995
12961TIP3    H138824   8.066   7.397   2.900
12961TIP3    H238825   8.135   7.336   3.021
12962TIP3   OH238826   7.270   2.552   4.910
12962TIP3    H138827   7.207   2.484   4.885
12962TIP3    H238828   7.221   2.610   4.968
12963TIP3   OH238829   2.314   6.329   2.445
12963TIP3    H138830   2.249   6.326   2.374
12963TIP3    H238831   2.380   6.390   2.414
12964TIP3   OH238832   1.975   3.159   1.849
12964TIP3    H138833   2.070   3.162   1.862
12964TIP3    H238834   1.941   3.115   1.927
12965TIP3   OH238835   2.233   6.949   1.682
12965TIP3    H138836   2.171   6.991   1.621
12965TIP3    H238837   2.256   7.018   1.744
12966TIP3   OH238838   5.684   0.713   4.745
12966TIP3    H138839   5.664   0.620   4.736
12966TIP3    H238840   5.710   0.723   4.837
12967TIP3   OH238841   2.557   1.006   2.165
12967TIP3    H138842   2.464   1.024   2.172
12967TIP3    H238843   2.564   0.911   2.171
12968TIP3   OH238844   7.579   3.633   0.354
12968TIP3    H138845   7.532   3.675   0.426
12968TIP3    H238846   7.533   3.551   0.340
12969TIP3   OH238847   2.942   0.344   5.864
12969TIP3    H138848   2.904   0.281   5.925
12969TIP3    H238849   2.946   0.297   5.781
12970TIP3   OH238850   6.939   7.218   4.280
12970TIP3    H138851   6.954   7.245   4.371
12970TIP3    H238852   6.962   7.126   4.278
12971TIP3   OH238853   8.054   2.861   4.302
12971TIP3    H138854   8.068   2.768   4.286
12971TIP3    H238855   8.126   2.887   4.359
12972TIP3   OH238856   1.560   6.724   2.319
12972TIP3    H138857   1.468   6.697   2.315
12972TIP3    H238858   1.594   6.680   2.397
12973TIP3   OH238859  -0.040   3.184   6.314
12973TIP3    H138860  -0.062   3.095   6.341
12973TIP3    H238861   0.006   3.174   6.231
12974TIP3   OH238862   4.700   4.471   5.196
12974TIP3    H138863   4.780   4.487   5.147
12974TIP3    H238864   4.654   4.403   5.147
12975TIP3   OH238865   5.712   7.355   4.893
12975TIP3    H138866   5.798   7.339   4.932
12975TIP3    H238867   5.662   7.275   4.912
12976TIP3   OH238868   0.035   6.252   2.309
12976TIP3    H138869   0.052   6.172   2.259
12976TIP3    H238870   0.120   6.276   2.345
12977TIP3   OH238871   7.483   6.920   4.039
12977TIP3    H138872   7.502   6.993   4.097
12977TIP3    H238873   7.524   6.945   3.956
12978TIP3   OH238874   4.442   6.835   1.625
12978TIP3    H138875   4.388   6.889   1.568
12978TIP3    H238876   4.391   6.754   1.637
12979TIP3   OH238877   3.417   2.452   2.760
12979TIP3    H138878   3.417   2.393   2.835
12979TIP3    H238879   3.510   2.467   2.741
12980TIP3   OH238880   5.002   0.938   5.932
12980TIP3    H138881   5.060   0.996   5.882
12980TIP3    H238882   5.052   0.913   6.009
12981TIP3   OH238883   7.514   5.646   4.188
12981TIP3    H138884   7.501   5.728   4.141
12981TIP3    H238885   7.545   5.585   4.121
12982TIP3   OH238886   7.506   1.547   6.805
12982TIP3    H138887   7.538   1.457   6.816
12982TIP3    H238888   7.420   1.536   6.765
12983TIP3   OH238889   4.510   6.397   5.243
12983TIP3    H138890   4.454   6.415   5.167
12983TIP3    H238891   4.485   6.464   5.307
12984TIP3   OH238892   5.892   6.218   1.299
12984TIP3    H138893   5.918   6.274   1.373
12984TIP3    H238894   5.879   6.280   1.227
12985TIP3   OH238895   0.479   6.074   4.281
12985TIP3    H138896   0.575   6.069   4.279
12985TIP3    H238897   0.460   6.168   4.273
12986TIP3   OH238898   2.695   2.957   1.643
12986TIP3    H138899   2.694   2.862   1.645
12986TIP3    H238900   2.786   2.980   1.663
12987TIP3   OH238901   5.781   4.022   2.644
12987TIP3    H138902   5.697   3.989   2.610
12987TIP3    H238903   5.846   3.964   2.607
12988TIP3   OH238904   7.793   3.202   6.891
12988TIP3    H138905   7.754   3.180   6.806
12988TIP3    H238906   7.858   3.269   6.871
12989TIP3   OH238907   6.726   4.938   0.314
12989TIP3    H138908   6.660   5.008   0.316
12989TIP3    H238909   6.681   4.864   0.274
12990TIP3   OH238910   6.082   5.694   4.816
12990TIP3    H138911   6.140   5.626   4.851
12990TIP3    H238912   6.133   5.775   4.823
12991TIP3   OH238913   1.854   1.239   1.435
12991TIP3    H138914   1.798   1.168   1.405
12991TIP3    H238915   1.832   1.313   1.378
12992TIP3   OH238916   0.942   2.367   4.581
12992TIP3    H138917   0.868   2.422   4.609
12992TIP3    H238918   0.996   2.360   4.660
12993TIP3   OH238919   5.004   1.197   3.731
12993TIP3    H138920   4.966   1.281   3.757
12993TIP3    H238921   5.018   1.205   3.636
12994TIP3   OH238922   5.175   7.553   3.857
12994TIP3    H138923   5.106   7.529   3.919
12994TIP3    H238924   5.245   7.588   3.913
12995TIP3   OH238925   6.616   5.877   4.135
12995TIP3    H138926   6.597   5.877   4.041
12995TIP3    H238927   6.709   5.855   4.141
12996TIP3   OH238928   0.373   3.027   0.536
12996TIP3    H138929   0.466   3.042   0.555
12996TIP3    H238930   0.344   2.967   0.605
12997TIP3   OH238931   4.719   6.983  -0.037
12997TIP3    H138932   4.696   7.054   0.024
12997TIP3    H238933   4.794   6.940   0.005
12998TIP3   OH238934   2.539   3.115   5.352
12998TIP3    H138935   2.526   3.127   5.446
12998TIP3    H238936   2.539   3.020   5.339
12999TIP3   OH238937   3.218   1.184   1.916
12999TIP3    H138938   3.248   1.117   1.976
12999TIP3    H238939   3.125   1.167   1.904
13000TIP3   OH238940   1.114   3.638   4.754
13000TIP3    H138941   1.129   3.635   4.660
13000TIP3    H238942   1.201   3.626   4.793
13001TIP3   OH238943   6.630   0.469   4.184
13001TIP3    H138944   6.724   0.456   4.195
13001TIP3    H238945   6.590   0.408   4.247
13002TIP3   OH238946   1.835   4.888   2.960
13002TIP3    H138947   1.800   4.964   3.007
13002TIP3    H238948   1.814   4.904   2.868
13003TIP3   OH238949   5.423   7.320   0.466
13003TIP3    H138950   5.497   7.355   0.515
13003TIP3    H238951   5.366   7.395   0.449
13004TIP3   OH238952   3.232   0.649   4.262
13004TIP3    H138953   3.185   0.724   4.298
13004TIP3    H238954   3.212   0.650   4.168
13005TIP3   OH238955   8.270   3.724   1.650
13005TIP3    H138956   8.247   3.794   1.589
13005TIP3    H238957   8.365   3.717   1.645
13006TIP3   OH238958   6.451   1.638   1.397
13006TIP3    H138959   6.544   1.656   1.414
13006TIP3    H238960   6.410   1.639   1.484
13007TIP3   OH238961   6.907   5.357   1.639
13007TIP3    H138962   6.814   5.370   1.651
13007TIP3    H238963   6.921   5.263   1.657
13008TIP3   OH238964   0.495   7.649   3.360
13008TIP3    H138965   0.509   7.567   3.312
13008TIP3    H238966   0.408   7.640   3.398
13009TIP3   OH238967   8.052   1.674   3.677
13009TIP3    H138968   8.019   1.655   3.589
13009TIP3    H238969   7.999   1.747   3.708
13010TIP3   OH238970   8.243   6.963   1.734
13010TIP3    H138971   8.159   6.939   1.693
13010TIP3    H238972   8.267   7.045   1.691
13011TIP3   OH238973   2.302   4.157   5.186
13011TIP3    H138974   2.260   4.238   5.215
13011TIP3    H238975   2.229   4.101   5.158
13012TIP3   OH238976   0.503   7.476   3.130
13012TIP3    H138977   0.461   7.409   3.075
13012TIP3    H238978   0.577   7.506   3.078
13013TIP3   OH238979   5.097   6.343   4.611
13013TIP3    H138980   5.025   6.380   4.560
13013TIP3    H238981   5.133   6.417   4.660
13014TIP3   OH238982   2.284   7.034   0.257
13014TIP3    H138983   2.310   7.110   0.309
13014TIP3    H238984   2.268   7.069   0.169
13015TIP3   OH238985   0.026   4.115   3.685
13015TIP3    H138986   0.107   4.098   3.636
13015TIP3    H238987   0.045   4.086   3.774
13016TIP3   OH238988   1.376   4.848   2.520
13016TIP3    H138989   1.457   4.882   2.559
13016TIP3    H238990   1.352   4.774   2.576
13017TIP3   OH238991   6.677   0.854   1.206
13017TIP3    H138992   6.678   0.885   1.115
13017TIP3    H238993   6.599   0.894   1.244
13018TIP3   OH238994   0.149   3.894   2.362
13018TIP3    H138995   0.097   3.873   2.284
13018TIP3    H238996   0.140   3.818   2.419
13019TIP3   OH238997   0.123   2.461   6.846
13019TIP3    H138998   0.149   2.491   6.759
13019TIP3    H238999   0.138   2.537   6.903
13020TIP3   OH239000   2.409   5.599   4.387
13020TIP3    H139001   2.348   5.648   4.333
13020TIP3    H239002   2.384   5.619   4.477
13021TIP3   OH239003   6.139   1.419   5.670
13021TIP3    H139004   6.110   1.352   5.732
13021TIP3    H239005   6.088   1.496   5.693
13022TIP3   OH239006   3.422   2.997   2.245
13022TIP3    H139007   3.489   2.966   2.185
13022TIP3    H239008   3.465   3.068   2.294
13023TIP3   OH239009   7.659   2.145   5.371
13023TIP3    H139010   7.585   2.086   5.384
13023TIP3    H239011   7.690   2.164   5.459
13024TIP3   OH239012   4.451   7.041   1.877
13024TIP3    H139013   4.389   6.983   1.922
13024TIP3    H239014   4.443   7.017   1.785
13025TIP3   OH239015   0.576   3.196   0.145
13025TIP3    H139016   0.542   3.270   0.095
13025TIP3    H239017   0.658   3.228   0.182
13026TIP3   OH239018   2.308   1.897   5.446
13026TIP3    H139019   2.315   1.811   5.488
13026TIP3    H239020   2.308   1.878   5.352
13027TIP3   OH239021   1.402   0.561   1.481
13027TIP3    H139022   1.476   0.594   1.532
13027TIP3    H239023   1.325   0.593   1.527
13028TIP3   OH239024   4.868   5.631   5.376
13028TIP3    H139025   4.922   5.616   5.298
13028TIP3    H239026   4.778   5.635   5.344
13029TIP3   OH239027   2.501   3.769   5.505
13029TIP3    H139028   2.501   3.804   5.594
13029TIP3    H239029   2.424   3.711   5.502
13030TIP3   OH239030   2.369   4.397   4.548
13030TIP3    H139031   2.370   4.349   4.631
13030TIP3    H239032   2.350   4.487   4.573
13031TIP3   OH239033   3.896   1.837   6.832
13031TIP3    H139034   3.955   1.826   6.758
13031TIP3    H239035   3.819   1.881   6.795
13032TIP3   OH239036   5.085   7.603   3.159
13032TIP3    H139037   5.038   7.534   3.111
13032TIP3    H239038   5.040   7.608   3.243
13033TIP3   OH239039   1.599   7.401   1.080
13033TIP3    H139040   1.512   7.439   1.085
13033TIP3    H239041   1.584   7.307   1.067
13034TIP3   OH239042   2.579   3.125   6.249
13034TIP3    H139043   2.563   3.035   6.278
13034TIP3    H239044   2.674   3.136   6.256
13035TIP3   OH239045   5.732   0.507   0.548
13035TIP3    H139046   5.692   0.451   0.615
13035TIP3    H239047   5.826   0.502   0.566
13036TIP3   OH239048   2.147   4.602   5.606
13036TIP3    H139049   2.172   4.593   5.514
13036TIP3    H239050   2.130   4.695   5.618
13037TIP3   OH239051   6.472   1.160   2.246
13037TIP3    H139052   6.498   1.155   2.338
13037TIP3    H239053   6.529   1.227   2.209
13038TIP3   OH239054   3.810   5.363   0.410
13038TIP3    H139055   3.775   5.280   0.443
13038TIP3    H239056   3.734   5.421   0.407
13039TIP3   OH239057   5.801   3.386   1.251
13039TIP3    H139058   5.886   3.390   1.207
13039TIP3    H239059   5.760   3.306   1.217
13040TIP3   OH239060   2.051   1.524   5.531
13040TIP3    H139061   2.033   1.432   5.515
13040TIP3    H239062   2.001   1.571   5.464
13041TIP3   OH239063   6.790   3.612   4.468
13041TIP3    H139064   6.788   3.625   4.563
13041TIP3    H239065   6.701   3.587   4.445
13042TIP3   OH239066   0.424   4.633   2.946
13042TIP3    H139067   0.402   4.540   2.954
13042TIP3    H239068   0.362   4.666   2.881
13043TIP3   OH239069   4.725   1.559   1.920
13043TIP3    H139070   4.687   1.631   1.870
13043TIP3    H239071   4.716   1.483   1.863
13044TIP3   OH239072   6.962   1.852   4.256
13044TIP3    H139073   7.010   1.929   4.225
13044TIP3    H239074   7.027   1.781   4.256
13045TIP3   OH239075   5.138   3.211   5.432
13045TIP3    H139076   5.103   3.281   5.487
13045TIP3    H239077   5.114   3.236   5.343
13046TIP3   OH239078   6.031   4.308   1.654
13046TIP3    H139079   6.016   4.264   1.570
13046TIP3    H239080   6.056   4.238   1.714
13047TIP3   OH239081   5.189   1.481   1.339
13047TIP3    H139082   5.240   1.556   1.370
13047TIP3    H239083   5.189   1.489   1.244
13048TIP3   OH239084   3.458   2.131   4.881
13048TIP3    H139085   3.491   2.218   4.903
13048TIP3    H239086   3.537   2.076   4.878
13049TIP3   OH239087   3.091   0.454   2.225
13049TIP3    H139088   3.115   0.371   2.266
13049TIP3    H239089   3.019   0.432   2.166
13050TIP3   OH239090   1.490   3.204   4.058
13050TIP3    H139091   1.502   3.145   4.133
13050TIP3    H239092   1.543   3.281   4.079
13051TIP3   OH239093   2.768   6.322   2.245
13051TIP3    H139094   2.833   6.386   2.273
13051TIP3    H239095   2.764   6.332   2.150
13052TIP3   OH239096   1.651   5.823   3.160
13052TIP3    H139097   1.682   5.759   3.095
13052TIP3    H239098   1.663   5.779   3.244
13053TIP3   OH239099   1.238   3.759   5.297
13053TIP3    H139100   1.265   3.826   5.359
13053TIP3    H239101   1.308   3.693   5.300
13054TIP3   OH239102   7.668   3.225   6.658
13054TIP3    H139103   7.670   3.182   6.573
13054TIP3    H239104   7.619   3.306   6.643
13055TIP3   OH239105   7.147   5.889   5.762
13055TIP3    H139106   7.174   5.959   5.702
13055TIP3    H239107   7.166   5.809   5.714
13056TIP3   OH239108   1.297   0.876   6.707
13056TIP3    H139109   1.278   0.839   6.793
13056TIP3    H239110   1.255   0.962   6.708
13057TIP3   OH239111   2.885   4.178   6.679
13057TIP3    H139112   2.961   4.121   6.666
13057TIP3    H239113   2.918   4.249   6.733
13058TIP3   OH239114   3.106   2.957   5.503
13058TIP3    H139115   3.157   2.875   5.500
13058TIP3    H239116   3.172   3.026   5.502
13059TIP3   OH239117   2.967   5.240   0.969
13059TIP3    H139118   2.924   5.318   0.933
13059TIP3    H239119   2.919   5.222   1.050
13060TIP3   OH239120   7.446   1.925   5.230
13060TIP3    H139121   7.417   2.000   5.179
13060TIP3    H239122   7.430   1.951   5.321
13061TIP3   OH239123   2.936   0.600   4.407
13061TIP3    H139124   2.882   0.676   4.430
13061TIP3    H239125   2.882   0.550   4.346
13062TIP3   OH239126   0.076   3.558   5.288
13062TIP3    H139127   0.070   3.612   5.367
13062TIP3    H239128   0.139   3.490   5.310
13063TIP3   OH239129   5.056   2.601   1.845
13063TIP3    H139130   5.104   2.589   1.763
13063TIP3    H239131   5.118   2.573   1.913
13064TIP3   OH239132   6.875   1.372   2.222
13064TIP3    H139133   6.926   1.321   2.159
13064TIP3    H239134   6.784   1.349   2.204
13065TIP3   OH239135   1.112   7.582   6.278
13065TIP3    H139136   1.096   7.659   6.224
13065TIP3    H239137   1.049   7.589   6.349
13066TIP3   OH239138   5.591   2.705   6.356
13066TIP3    H139139   5.601   2.661   6.440
13066TIP3    H239140   5.582   2.634   6.292
13067TIP3   OH239141   0.248   4.257   1.315
13067TIP3    H139142   0.317   4.259   1.249
13067TIP3    H239143   0.203   4.174   1.301
13068TIP3   OH239144   5.570   6.671   2.479
13068TIP3    H139145   5.664   6.681   2.463
13068TIP3    H239146   5.559   6.689   2.572
13069TIP3   OH239147   4.821   5.173   6.251
13069TIP3    H139148   4.835   5.171   6.157
13069TIP3    H239149   4.842   5.084   6.281
13070TIP3   OH239150   1.938   5.520   6.620
13070TIP3    H139151   2.019   5.490   6.663
13070TIP3    H239152   1.930   5.611   6.646
13071TIP3   OH239153   1.629   5.031   1.780
13071TIP3    H139154   1.598   4.951   1.821
13071TIP3    H239155   1.572   5.042   1.703
13072TIP3   OH239156   2.211   2.846   5.121
13072TIP3    H139157   2.290   2.838   5.068
13072TIP3    H239158   2.140   2.820   5.063
13073TIP3   OH239159   2.263   1.861   4.042
13073TIP3    H139160   2.227   1.932   4.096
13073TIP3    H239161   2.225   1.782   4.080
13074TIP3   OH239162   5.821   4.249   0.312
13074TIP3    H139163   5.726   4.261   0.316
13074TIP3    H239164   5.858   4.325   0.356
13075TIP3   OH239165   4.689   0.268   5.991
13075TIP3    H139166   4.596   0.266   6.011
13075TIP3    H239167   4.696   0.228   5.904
13076TIP3   OH239168   7.471   7.543   4.577
13076TIP3    H139169   7.462   7.470   4.638
13076TIP3    H239170   7.438   7.619   4.624
13077TIP3   OH239171   3.232   6.868   0.325
13077TIP3    H139172   3.210   6.943   0.381
13077TIP3    H239173   3.311   6.896   0.279
13078TIP3   OH239174   0.917   4.417   5.703
13078TIP3    H139175   0.966   4.374   5.773
13078TIP3    H239176   0.915   4.353   5.632
13079TIP3   OH239177   7.713   4.023   4.208
13079TIP3    H139178   7.749   4.005   4.121
13079TIP3    H239179   7.759   3.963   4.266
13080TIP3   OH239180   3.328   4.471   5.425
13080TIP3    H139181   3.326   4.385   5.468
13080TIP3    H239182   3.372   4.455   5.342
13081TIP3   OH239183   0.810   2.775   0.230
13081TIP3    H139184   0.820   2.753   0.138
13081TIP3    H239185   0.722   2.812   0.237
13082TIP3   OH239186   1.172   3.648   1.504
13082TIP3    H139187   1.177   3.570   1.450
13082TIP3    H239188   1.151   3.615   1.592
13083TIP3   OH239189   6.550   2.229   2.089
13083TIP3    H139190   6.502   2.247   2.008
13083TIP3    H239191   6.520   2.295   2.151
13084TIP3   OH239192   6.842   3.673   4.739
13084TIP3    H139193   6.935   3.652   4.744
13084TIP3    H239194   6.803   3.628   4.814
13085TIP3   OH239195   2.123   2.529   2.117
13085TIP3    H139196   2.100   2.622   2.116
13085TIP3    H239197   2.117   2.504   2.209
13086TIP3   OH239198   5.497   6.582   5.256
13086TIP3    H139199   5.508   6.505   5.313
13086TIP3    H239200   5.402   6.592   5.248
13087TIP3   OH239201   2.159   4.119   4.117
13087TIP3    H139202   2.238   4.065   4.130
13087TIP3    H239203   2.150   4.126   4.022
13088TIP3   OH239204   3.932   5.745   0.723
13088TIP3    H139205   3.976   5.822   0.759
13088TIP3    H239206   3.981   5.671   0.758
13089TIP3   OH239207   0.230   1.305   6.350
13089TIP3    H139208   0.171   1.300   6.425
13089TIP3    H239209   0.284   1.227   6.356
13090TIP3   OH239210   3.905   0.224   2.765
13090TIP3    H139211   3.988   0.249   2.725
13090TIP3    H239212   3.873   0.151   2.711
13091TIP3   OH239213   1.205   6.616   3.549
13091TIP3    H139214   1.153   6.659   3.617
13091TIP3    H239215   1.270   6.566   3.598
13092TIP3   OH239216   1.645   1.455   6.669
13092TIP3    H139217   1.643   1.449   6.764
13092TIP3    H239218   1.667   1.366   6.640
13093TIP3   OH239219   3.820   0.118   0.312
13093TIP3    H139220   3.819   0.050   0.245
13093TIP3    H239221   3.820   0.071   0.395
13094TIP3   OH239222   3.273   1.665   0.906
13094TIP3    H139223   3.181   1.689   0.920
13094TIP3    H239224   3.317   1.749   0.889
13095TIP3   OH239225   6.286   7.740   0.923
13095TIP3    H139226   6.308   7.688   1.000
13095TIP3    H239227   6.253   7.823   0.960
13096TIP3   OH239228   0.145   4.311   5.385
13096TIP3    H139229   0.100   4.389   5.420
13096TIP3    H239230   0.229   4.344   5.354
13097TIP3   OH239231   1.508   6.812   5.065
13097TIP3    H139232   1.582   6.831   5.008
13097TIP3    H239233   1.531   6.853   5.149
13098TIP3   OH239234   5.059   0.091   3.419
13098TIP3    H139235   5.000   0.087   3.344
13098TIP3    H239236   5.001   0.095   3.495
13099TIP3   OH239237   7.576   4.912   4.914
13099TIP3    H139238   7.549   4.984   4.972
13099TIP3    H239239   7.510   4.844   4.927
13100TIP3   OH239240   5.395   4.492   4.302
13100TIP3    H139241   5.414   4.586   4.298
13100TIP3    H239242   5.319   4.480   4.246
13101TIP3   OH239243   0.925   0.426   0.484
13101TIP3    H139244   0.863   0.393   0.419
13101TIP3    H239245   1.001   0.369   0.475
13102TIP3   OH239246   1.260   5.104   2.114
13102TIP3    H139247   1.354   5.124   2.112
13102TIP3    H239248   1.247   5.059   2.198
13103TIP3   OH239249   7.722   3.400   1.963
13103TIP3    H139250   7.671   3.329   2.002
13103TIP3    H239251   7.797   3.356   1.923
13104TIP3   OH239252   0.786   1.997  -0.002
13104TIP3    H139253   0.812   1.934  -0.068
13104TIP3    H239254   0.793   1.950   0.081
13105TIP3   OH239255   1.882   1.098   2.008
13105TIP3    H139256   1.883   1.042   2.086
13105TIP3    H239257   1.970   1.136   2.004
13106TIP3   OH239258   7.313   7.075   1.251
13106TIP3    H139259   7.341   6.984   1.259
13106TIP3    H239260   7.261   7.090   1.330
13107TIP3   OH239261   7.817   6.316   5.466
13107TIP3    H139262   7.871   6.284   5.393
13107TIP3    H239263   7.877   6.316   5.541
13108TIP3   OH239264   2.626   5.835   3.742
13108TIP3    H139265   2.534   5.851   3.764
13108TIP3    H239266   2.671   5.916   3.764
13109TIP3   OH239267   0.681   0.919   1.518
13109TIP3    H139268   0.735   0.864   1.575
13109TIP3    H239269   0.597   0.873   1.514
13110TIP3   OH239270   6.181   1.996   5.673
13110TIP3    H139271   6.107   2.012   5.732
13110TIP3    H239272   6.233   1.929   5.716
13111TIP3   OH239273   0.333   2.484   5.985
13111TIP3    H139274   0.282   2.555   5.948
13111TIP3    H239275   0.287   2.405   5.959
13112TIP3   OH239276   1.621   5.321   5.979
13112TIP3    H139277   1.605   5.408   6.015
13112TIP3    H239278   1.543   5.301   5.928
13113TIP3   OH239279   5.429   5.598   2.426
13113TIP3    H139280   5.341   5.604   2.464
13113TIP3    H239281   5.488   5.615   2.499
13114TIP3   OH239282   7.568   0.993   5.532
13114TIP3    H139283   7.500   1.021   5.470
13114TIP3    H239284   7.598   0.909   5.498
13115TIP3   OH239285   8.015   7.259   5.007
13115TIP3    H139286   8.063   7.342   4.998
13115TIP3    H239287   7.983   7.241   4.919
13116TIP3   OH239288   6.813   5.878   1.911
13116TIP3    H139289   6.786   5.944   1.975
13116TIP3    H239290   6.908   5.888   1.905
13117TIP3   OH239291   0.716   1.717   0.702
13117TIP3    H139292   0.794   1.759   0.738
13117TIP3    H239293   0.711   1.749   0.612
13118TIP3   OH239294   4.174   0.015   1.261
13118TIP3    H139295   4.248   0.043   1.208
13118TIP3    H239296   4.214  -0.025   1.339
13119TIP3   OH239297   0.322   1.074   3.938
13119TIP3    H139298   0.401   1.025   3.916
13119TIP3    H239299   0.347   1.128   4.013
13120TIP3   OH239300   4.195   0.009   2.524
13120TIP3    H139301   4.285  -0.022   2.535
13120TIP3    H239302   4.195   0.053   2.439
13121TIP3   OH239303   2.610   4.787   0.171
13121TIP3    H139304   2.657   4.791   0.254
13121TIP3    H239305   2.523   4.755   0.194
13122TIP3   OH239306   5.703   5.142   3.680
13122TIP3    H139307   5.743   5.158   3.595
13122TIP3    H239308   5.776   5.140   3.741
13123TIP3   OH239309   8.098   6.412   3.362
13123TIP3    H139310   8.068   6.408   3.453
13123TIP3    H239311   8.066   6.497   3.331
13124TIP3   OH239312   4.337   7.541   5.583
13124TIP3    H139313   4.332   7.510   5.674
13124TIP3    H239314   4.428   7.526   5.558
13125TIP3   OH239315   6.455   0.369   6.107
13125TIP3    H139316   6.488   0.457   6.088
13125TIP3    H239317   6.361   0.375   6.088
13126TIP3   OH239318   4.603   3.135   5.898
13126TIP3    H139319   4.584   3.175   5.983
13126TIP3    H239320   4.698   3.123   5.899
13127TIP3   OH239321   1.622   2.501   6.186
13127TIP3    H139322   1.537   2.458   6.178
13127TIP3    H239323   1.686   2.431   6.170
13128TIP3   OH239324   6.206   1.633   3.594
13128TIP3    H139325   6.197   1.661   3.685
13128TIP3    H239326   6.245   1.545   3.600
13129TIP3   OH239327   2.358   3.532   6.020
13129TIP3    H139328   2.379   3.483   6.099
13129TIP3    H239329   2.423   3.602   6.017
13130TIP3   OH239330   6.944   0.583   2.367
13130TIP3    H139331   6.888   0.650   2.329
13130TIP3    H239332   6.884   0.516   2.400
13131TIP3   OH239333   2.162   4.380   4.247
13131TIP3    H139334   2.199   4.291   4.240
13131TIP3    H239335   2.079   4.375   4.201
13132TIP3   OH239336   5.979   2.633   2.476
13132TIP3    H139337   6.012   2.668   2.558
13132TIP3    H239338   6.055   2.595   2.433
13133TIP3   OH239339   2.450   2.209   3.147
13133TIP3    H139340   2.539   2.177   3.156
13133TIP3    H239341   2.445   2.285   3.206
13134TIP3   OH239342   2.351   7.259   2.099
13134TIP3    H139343   2.438   7.263   2.058
13134TIP3    H239344   2.369   7.268   2.193
13135TIP3   OH239345   7.657   2.329   3.741
13135TIP3    H139346   7.711   2.407   3.735
13135TIP3    H239347   7.684   2.287   3.823
13136TIP3   OH239348   6.898   0.536   3.515
13136TIP3    H139349   6.883   0.443   3.535
13136TIP3    H239350   6.972   0.561   3.571
13137TIP3   OH239351   4.662   1.511   0.947
13137TIP3    H139352   4.648   1.459   1.026
13137TIP3    H239353   4.573   1.529   0.915
13138TIP3   OH239354   6.257   1.227   6.739
13138TIP3    H139355   6.293   1.295   6.682
13138TIP3    H239356   6.320   1.220   6.811
13139TIP3   OH239357   4.873   0.949   4.475
13139TIP3    H139358   4.846   0.963   4.566
13139TIP3    H239359   4.930   0.871   4.480
13140TIP3   OH239360   3.505   7.800   3.420
13140TIP3    H139361   3.457   7.760   3.493
13140TIP3    H239362   3.441   7.860   3.379
13141TIP3   OH239363   3.158   0.202   1.084
13141TIP3    H139364   3.110   0.221   1.004
13141TIP3    H239365   3.114   0.254   1.151
13142TIP3   OH239366   5.399   4.819   5.080
13142TIP3    H139367   5.424   4.910   5.068
13142TIP3    H239368   5.409   4.804   5.174
13143TIP3   OH239369   5.637   6.042   5.904
13143TIP3    H139370   5.558   5.993   5.929
13143TIP3    H239371   5.707   6.002   5.956
13144TIP3   OH239372   4.236   6.015   4.779
13144TIP3    H139373   4.322   6.012   4.737
13144TIP3    H239374   4.203   5.926   4.774
13145TIP3   OH239375   0.090   4.887   6.726
13145TIP3    H139376   0.114   4.893   6.633
13145TIP3    H239377   0.135   4.959   6.768
13146TIP3   OH239378   3.175   0.058   5.698
13146TIP3    H139379   3.265   0.090   5.689
13146TIP3    H239380   3.178  -0.030   5.659
13147TIP3   OH239381   5.920   6.088   6.803
13147TIP3    H139382   5.878   6.055   6.724
13147TIP3    H239383   5.848   6.120   6.857
13148TIP3   OH239384   6.822   4.391   3.519
13148TIP3    H139385   6.785   4.375   3.432
13148TIP3    H239386   6.870   4.474   3.510
13149TIP3   OH239387   3.916   2.024   2.225
13149TIP3    H139388   3.987   2.026   2.289
13149TIP3    H239389   3.919   1.936   2.189
13150TIP3   OH239390   5.958   1.207   3.584
13150TIP3    H139391   5.974   1.275   3.519
13150TIP3    H239392   5.976   1.125   3.538
13151TIP3   OH239393   7.462   2.357   6.441
13151TIP3    H139394   7.508   2.317   6.515
13151TIP3    H239395   7.450   2.285   6.378
13152TIP3   OH239396   0.210   6.730   1.039
13152TIP3    H139397   0.219   6.678   0.959
13152TIP3    H239398   0.118   6.754   1.042
13153TIP3   OH239399   6.686   4.724   4.739
13153TIP3    H139400   6.604   4.718   4.788
13153TIP3    H239401   6.737   4.790   4.786
13154TIP3   OH239402   4.366   6.761   0.512
13154TIP3    H139403   4.353   6.855   0.499
13154TIP3    H239404   4.336   6.744   0.601
13155TIP3   OH239405   7.015   7.258   0.124
13155TIP3    H139406   7.055   7.175   0.100
13155TIP3    H239407   7.019   7.260   0.220
13156TIP3   OH239408   1.077   7.027   6.667
13156TIP3    H139409   0.993   7.032   6.712
13156TIP3    H239410   1.126   7.103   6.700
13157TIP3   OH239411   3.728   7.673   4.391
13157TIP3    H139412   3.766   7.747   4.344
13157TIP3    H239413   3.719   7.604   4.325
13158TIP3   OH239414   4.303   7.297   3.813
13158TIP3    H139415   4.305   7.230   3.881
13158TIP3    H239416   4.217   7.339   3.824
13159TIP3   OH239417   6.666   4.446   0.965
13159TIP3    H139418   6.645   4.539   0.958
13159TIP3    H239419   6.624   4.406   0.889
13160TIP3   OH239420   7.021   4.788   2.810
13160TIP3    H139421   7.075   4.722   2.765
13160TIP3    H239422   7.065   4.802   2.893
13161TIP3   OH239423   0.566   4.714   0.312
13161TIP3    H139424   0.599   4.791   0.266
13161TIP3    H239425   0.482   4.695   0.271
13162TIP3   OH239426   5.687   4.848   4.737
13162TIP3    H139427   5.730   4.801   4.666
13162TIP3    H239428   5.622   4.786   4.770
13163TIP3   OH239429   1.362   5.276   5.885
13163TIP3    H139430   1.297   5.338   5.916
13163TIP3    H239431   1.315   5.194   5.875
13164TIP3   OH239432   0.946   4.467   2.774
13164TIP3    H139433   0.908   4.544   2.731
13164TIP3    H239434   0.876   4.402   2.773
13165TIP3   OH239435   1.504   2.911   0.042
13165TIP3    H139436   1.498   2.823   0.005
13165TIP3    H239437   1.597   2.934   0.037
13166TIP3   OH239438   8.299   5.585   4.390
13166TIP3    H139439   8.338   5.536   4.317
13166TIP3    H239440   8.211   5.548   4.400
13167TIP3   OH239441   2.116   1.933   0.970
13167TIP3    H139442   2.133   1.845   1.006
13167TIP3    H239443   2.066   1.917   0.890
13168TIP3   OH239444   1.877   1.707   5.398
13168TIP3    H139445   1.872   1.802   5.410
13168TIP3    H239446   1.811   1.673   5.458
13169TIP3   OH239447   1.816   1.461   1.273
13169TIP3    H139448   1.731   1.476   1.316
13169TIP3    H239449   1.822   1.530   1.207
13170TIP3   OH239450   7.271   1.109   0.898
13170TIP3    H139451   7.324   1.036   0.865
13170TIP3    H239452   7.183   1.091   0.866
13171TIP3   OH239453   6.123   1.128   1.808
13171TIP3    H139454   6.172   1.130   1.890
13171TIP3    H239455   6.095   1.219   1.795
13172TIP3   OH239456   6.750   7.757   6.266
13172TIP3    H139457   6.760   7.663   6.248
13172TIP3    H239458   6.761   7.799   6.181
13173TIP3   OH239459   6.995   0.411   6.248
13173TIP3    H139460   6.962   0.482   6.193
13173TIP3    H239461   7.037   0.456   6.322
13174TIP3   OH239462   2.184   5.607   0.040
13174TIP3    H139463   2.162   5.650   0.123
13174TIP3    H239464   2.102   5.564   0.014
13175TIP3   OH239465   0.155   3.981   4.579
13175TIP3    H139466   0.118   4.016   4.660
13175TIP3    H239467   0.142   3.886   4.586
13176TIP3   OH239468   7.599   4.046   6.594
13176TIP3    H139469   7.510   4.082   6.599
13176TIP3    H239470   7.617   4.015   6.683
13177TIP3   OH239471   3.986   1.781   5.147
13177TIP3    H139472   3.918   1.828   5.098
13177TIP3    H239473   3.986   1.693   5.110
13178TIP3   OH239474   1.528   6.500   5.872
13178TIP3    H139475   1.618   6.530   5.856
13178TIP3    H239476   1.533   6.404   5.866
13179TIP3   OH239477   3.093   2.522   6.712
13179TIP3    H139478   3.140   2.439   6.718
13179TIP3    H239479   3.078   2.534   6.618
13180TIP3   OH239480   5.307   1.322   4.844
13180TIP3    H139481   5.228   1.344   4.795
13180TIP3    H239482   5.276   1.302   4.932
13181TIP3   OH239483   4.258   1.035   6.626
13181TIP3    H139484   4.272   0.980   6.703
13181TIP3    H239485   4.310   1.114   6.643
13182TIP3   OH239486   2.162   6.648   0.437
13182TIP3    H139487   2.174   6.589   0.511
13182TIP3    H239488   2.238   6.708   0.441
13183TIP3   OH239489   1.543   2.347   2.394
13183TIP3    H139490   1.542   2.414   2.326
13183TIP3    H239491   1.476   2.284   2.365
13184TIP3   OH239492   7.218   0.380   3.744
13184TIP3    H139493   7.188   0.407   3.830
13184TIP3    H239494   7.236   0.462   3.698
13185TIP3   OH239495   6.111   4.786   2.095
13185TIP3    H139496   6.164   4.754   2.022
13185TIP3    H239497   6.164   4.857   2.133
13186TIP3   OH239498   0.915   1.088   3.470
13186TIP3    H139499   0.887   1.001   3.500
13186TIP3    H239500   0.837   1.143   3.483
13187TIP3   OH239501   4.149   7.336   1.934
13187TIP3    H139502   4.147   7.296   1.847
13187TIP3    H239503   4.221   7.292   1.979
13188TIP3   OH239504   1.096   6.986   2.457
13188TIP3    H139505   1.064   6.898   2.436
13188TIP3    H239506   1.114   6.982   2.551
13189TIP3   OH239507   3.979   6.266   4.019
13189TIP3    H139508   3.897   6.231   4.054
13189TIP3    H239509   3.953   6.320   3.945
13190TIP3   OH239510   0.443   7.358   5.835
13190TIP3    H139511   0.467   7.311   5.915
13190TIP3    H239512   0.430   7.448   5.864
13191TIP3   OH239513   0.571   1.363   6.500
13191TIP3    H139514   0.595   1.279   6.539
13191TIP3    H239515   0.615   1.428   6.554
13192TIP3   OH239516   8.153   1.922   6.533
13192TIP3    H139517   8.163   1.974   6.613
13192TIP3    H239518   8.097   1.849   6.559
13193TIP3   OH239519   0.280   4.679   2.399
13193TIP3    H139520   0.299   4.594   2.437
13193TIP3    H239521   0.255   4.661   2.309
13194TIP3   OH239522   6.561   3.673   3.079
13194TIP3    H139523   6.535   3.636   2.995
13194TIP3    H239524   6.486   3.727   3.105
13195TIP3   OH239525   0.744   1.256   0.091
13195TIP3    H139526   0.835   1.241   0.067
13195TIP3    H239527   0.699   1.271   0.008
13196TIP3   OH239528   2.181   6.953   1.227
13196TIP3    H139529   2.270   6.921   1.243
13196TIP3    H239530   2.130   6.875   1.208
13197TIP3   OH239531   0.479   4.040   4.416
13197TIP3    H139532   0.462   4.055   4.509
13197TIP3    H239533   0.394   4.014   4.380
13198TIP3   OH239534   7.261   3.529   1.421
13198TIP3    H139535   7.305   3.470   1.482
13198TIP3    H239536   7.317   3.606   1.417
13199TIP3   OH239537   5.340   5.760   2.841
13199TIP3    H139538   5.255   5.725   2.815
13199TIP3    H239539   5.378   5.692   2.897
13200TIP3   OH239540   5.487   7.682   6.303
13200TIP3    H139541   5.523   7.742   6.369
13200TIP3    H239542   5.413   7.641   6.347
13201TIP3   OH239543   8.239   2.499   4.820
13201TIP3    H139544   8.178   2.514   4.747
13201TIP3    H239545   8.318   2.464   4.779
13202TIP3   OH239546   0.445   3.063   3.935
13202TIP3    H139547   0.375   2.998   3.926
13202TIP3    H239548   0.475   3.077   3.845
13203TIP3   OH239549   1.907   2.458   4.459
13203TIP3    H139550   1.928   2.369   4.434
13203TIP3    H239551   1.890   2.503   4.377
13204TIP3   OH239552   3.385   7.357   6.579
13204TIP3    H139553   3.357   7.358   6.671
13204TIP3    H239554   3.481   7.362   6.583
13205TIP3   OH239555   8.014   7.756   0.171
13205TIP3    H139556   8.040   7.676   0.126
13205TIP3    H239557   8.082   7.819   0.147
13206TIP3   OH239558   3.272   7.600   6.207
13206TIP3    H139559   3.246   7.522   6.256
13206TIP3    H239560   3.229   7.591   6.122
13207TIP3   OH239561   2.677   7.141   5.672
13207TIP3    H139562   2.650   7.173   5.758
13207TIP3    H239563   2.663   7.046   5.676
13208TIP3   OH239564   1.381   2.884   5.451
13208TIP3    H139565   1.290   2.913   5.448
13208TIP3    H239566   1.390   2.840   5.535
13209TIP3   OH239567   7.151   2.344   2.173
13209TIP3    H139568   7.126   2.274   2.233
13209TIP3    H239569   7.105   2.323   2.091
13210TIP3   OH239570   7.377   4.607   5.376
13210TIP3    H139571   7.396   4.535   5.436
13210TIP3    H239572   7.282   4.602   5.363
13211TIP3   OH239573   6.699   7.046   5.656
13211TIP3    H139574   6.700   7.141   5.644
13211TIP3    H239575   6.627   7.016   5.602
13212TIP3   OH239576   4.396   5.303   3.771
13212TIP3    H139577   4.425   5.246   3.700
13212TIP3    H239578   4.391   5.390   3.732
13213TIP3   OH239579   2.653   6.471   6.378
13213TIP3    H139580   2.717   6.537   6.403
13213TIP3    H239581   2.577   6.521   6.348
13214TIP3   OH239582   3.421   7.138   6.240
13214TIP3    H139583   3.500   7.183   6.208
13214TIP3    H239584   3.448   7.099   6.323
13215TIP3   OH239585   1.242   4.146   6.093
13215TIP3    H139586   1.200   4.171   6.010
13215TIP3    H239587   1.257   4.229   6.139
13216TIP3   OH239588   4.518   0.448   6.483
13216TIP3    H139589   4.441   0.396   6.461
13216TIP3    H239590   4.508   0.469   6.576
13217TIP3   OH239591   4.133   1.610   5.920
13217TIP3    H139592   4.142   1.521   5.955
13217TIP3    H239593   4.212   1.655   5.948
13218TIP3   OH239594   1.774   0.378   3.708
13218TIP3    H139595   1.711   0.438   3.749
13218TIP3    H239596   1.848   0.434   3.685
13219TIP3   OH239597   1.453   3.108   4.563
13219TIP3    H139598   1.521   3.119   4.497
13219TIP3    H239599   1.501   3.083   4.642
13220TIP3   OH239600   8.023   2.783   3.493
13220TIP3    H139601   8.024   2.701   3.541
13220TIP3    H239602   7.938   2.822   3.513
13221TIP3   OH239603   6.103   5.164   0.399
13221TIP3    H139604   6.100   5.238   0.459
13221TIP3    H239605   6.102   5.203   0.312
13222TIP3   OH239606   6.132   6.842   0.782
13222TIP3    H139607   6.066   6.911   0.783
13222TIP3    H239608   6.083   6.761   0.791
13223TIP3   OH239609   6.637   3.570   1.580
13223TIP3    H139610   6.648   3.551   1.487
13223TIP3    H239611   6.584   3.650   1.582
13224TIP3   OH239612   2.854   0.872   6.130
13224TIP3    H139613   2.903   0.867   6.048
13224TIP3    H239614   2.882   0.795   6.179
13225TIP3   OH239615   2.533   3.953   4.682
13225TIP3    H139616   2.515   3.896   4.757
13225TIP3    H239617   2.626   3.941   4.665
13226TIP3   OH239618   7.588   3.832   6.416
13226TIP3    H139619   7.505   3.835   6.368
13226TIP3    H239620   7.591   3.914   6.465
13227TIP3   OH239621   6.882   6.482   3.909
13227TIP3    H139622   6.950   6.538   3.947
13227TIP3    H239623   6.931   6.408   3.871
13228TIP3   OH239624   1.962   7.812   2.149
13228TIP3    H139625   1.975   7.886   2.089
13228TIP3    H239626   1.912   7.849   2.222
13229TIP3   OH239627   5.951   7.471   4.081
13229TIP3    H139628   5.939   7.393   4.135
13229TIP3    H239629   5.973   7.437   3.994
13230TIP3   OH239630   3.194   3.775   4.470
13230TIP3    H139631   3.225   3.751   4.557
13230TIP3    H239632   3.274   3.795   4.420
13231TIP3   OH239633   7.050   2.464   3.449
13231TIP3    H139634   6.967   2.486   3.491
13231TIP3    H239635   7.092   2.548   3.434
13232TIP3   OH239636   5.427   5.347   3.427
13232TIP3    H139637   5.406   5.345   3.521
13232TIP3    H239638   5.518   5.377   3.424
13233TIP3   OH239639   3.192   3.661   4.130
13233TIP3    H139640   3.205   3.755   4.131
13233TIP3    H239641   3.097   3.650   4.133
13234TIP3   OH239642   3.948   3.356   5.024
13234TIP3    H139643   3.982   3.273   4.991
13234TIP3    H239644   3.971   3.420   4.957
13235TIP3   OH239645   6.141   0.334   4.821
13235TIP3    H139646   6.141   0.430   4.819
13235TIP3    H239647   6.049   0.310   4.830
13236TIP3   OH239648   0.699   3.654   5.177
13236TIP3    H139649   0.652   3.610   5.106
13236TIP3    H239650   0.653   3.628   5.257
13237TIP3   OH239651   5.330   4.013   0.285
13237TIP3    H139652   5.261   4.046   0.343
13237TIP3    H239653   5.320   4.063   0.204
13238TIP3   OH239654   1.078   2.730   4.575
13238TIP3    H139655   1.061   2.640   4.603
13238TIP3    H239656   1.052   2.784   4.650
13239TIP3   OH239657   1.817   3.404   1.670
13239TIP3    H139658   1.801   3.333   1.608
13239TIP3    H239659   1.755   3.472   1.644
13240TIP3   OH239660   5.758   2.490   2.560
13240TIP3    H139661   5.708   2.503   2.480
13240TIP3    H239662   5.826   2.558   2.557
13241TIP3   OH239663   0.293   0.457   3.873
13241TIP3    H139664   0.344   0.386   3.912
13241TIP3    H239665   0.208   0.452   3.918
13242TIP3   OH239666   1.511   2.153   1.093
13242TIP3    H139667   1.444   2.184   1.154
13242TIP3    H239668   1.473   2.074   1.055
13243TIP3   OH239669   4.329   3.842   0.545
13243TIP3    H139670   4.271   3.794   0.487
13243TIP3    H239671   4.300   3.933   0.538
13244TIP3   OH239672   4.624   5.242   0.186
13244TIP3    H139673   4.597   5.174   0.249
13244TIP3    H239674   4.692   5.201   0.133
13245TIP3   OH239675   2.584   6.648   1.591
13245TIP3    H139676   2.672   6.681   1.572
13245TIP3    H239677   2.525   6.719   1.565
13246TIP3   OH239678   3.117   7.255   6.097
13246TIP3    H139679   3.080   7.243   6.010
13246TIP3    H239680   3.173   7.178   6.110
13247TIP3   OH239681   4.260   5.368   6.262
13247TIP3    H139682   4.311   5.310   6.319
13247TIP3    H239683   4.282   5.339   6.173
13248TIP3   OH239684   1.554   1.896   1.361
13248TIP3    H139685   1.584   1.971   1.309
13248TIP3    H239686   1.532   1.829   1.296
13249TIP3   OH239687   5.528   4.396   0.770
13249TIP3    H139688   5.571   4.430   0.849
13249TIP3    H239689   5.437   4.380   0.797
13250TIP3   OH239690   7.816   1.407   1.848
13250TIP3    H139691   7.822   1.476   1.781
13250TIP3    H239692   7.876   1.435   1.916
13251TIP3   OH239693   2.341   3.909   2.163
13251TIP3    H139694   2.256   3.881   2.197
13251TIP3    H239695   2.370   3.978   2.224
13252TIP3   OH239696   6.995   1.355   1.346
13252TIP3    H139697   7.002   1.360   1.441
13252TIP3    H239698   6.947   1.273   1.330
13253TIP3   OH239699   5.494   5.917   3.689
13253TIP3    H139700   5.451   5.998   3.715
13253TIP3    H239701   5.509   5.927   3.595
13254TIP3   OH239702   4.041   7.156   1.099
13254TIP3    H139703   4.047   7.251   1.106
13254TIP3    H239704   3.950   7.136   1.123
13255TIP3   OH239705   3.724   2.463   3.925
13255TIP3    H139706   3.690   2.399   3.863
13255TIP3    H239707   3.651   2.524   3.938
13256TIP3   OH239708   6.134   5.861   5.480
13256TIP3    H139709   6.121   5.832   5.389
13256TIP3    H239710   6.227   5.845   5.497
13257TIP3   OH239711   6.589   1.127   3.305
13257TIP3    H139712   6.584   1.155   3.213
13257TIP3    H239713   6.672   1.163   3.336
13258TIP3   OH239714   7.048   5.381   5.889
13258TIP3    H139715   7.086   5.330   5.961
13258TIP3    H239716   7.117   5.385   5.823
13259TIP3   OH239717   8.311   7.963   2.633
13259TIP3    H139718   8.384   7.939   2.691
13259TIP3    H239719   8.310   7.895   2.566
13260TIP3   OH239720   3.498   6.901   2.579
13260TIP3    H139721   3.456   6.956   2.513
13260TIP3    H239722   3.428   6.879   2.640
13261TIP3   OH239723   2.929   7.450   0.076
13261TIP3    H139724   2.837   7.463   0.100
13261TIP3    H239725   2.943   7.356   0.088
13262TIP3   OH239726   6.624   6.230   5.625
13262TIP3    H139727   6.713   6.245   5.593
13262TIP3    H239728   6.570   6.295   5.581
13263TIP3   OH239729   6.147   3.637   2.591
13263TIP3    H139730   6.076   3.581   2.621
13263TIP3    H239731   6.201   3.580   2.536
13264TIP3   OH239732   6.899   6.020   3.802
13264TIP3    H139733   6.896   5.939   3.750
13264TIP3    H239734   6.827   6.011   3.865
13265TIP3   OH239735   6.085   1.561   0.944
13265TIP3    H139736   6.166   1.540   0.897
13265TIP3    H239737   6.050   1.637   0.897
13266TIP3   OH239738   5.702   5.331   6.458
13266TIP3    H139739   5.696   5.413   6.506
13266TIP3    H239740   5.793   5.328   6.426
13267TIP3   OH239741   3.992   4.683   6.701
13267TIP3    H139742   3.967   4.705   6.611
13267TIP3    H239743   3.980   4.588   6.707
13268TIP3   OH239744   1.900   5.002   1.406
13268TIP3    H139745   1.973   5.055   1.374
13268TIP3    H239746   1.918   4.991   1.499
13269TIP3   OH239747   6.888   0.374   4.195
13269TIP3    H139748   6.876   0.298   4.252
13269TIP3    H239749   6.927   0.337   4.115
13270TIP3   OH239750   2.940   1.086   4.248
13270TIP3    H139751   2.874   1.106   4.315
13270TIP3    H239752   2.953   1.168   4.201
13271TIP3   OH239753   5.951   5.104   3.192
13271TIP3    H139754   5.942   5.024   3.140
13271TIP3    H239755   6.046   5.115   3.202
13272TIP3   OH239756   5.683   7.332   1.356
13272TIP3    H139757   5.718   7.266   1.296
13272TIP3    H239758   5.694   7.415   1.309
13273TIP3   OH239759   1.982   1.099   5.390
13273TIP3    H139760   1.897   1.142   5.396
13273TIP3    H239761   2.019   1.107   5.478
13274TIP3   OH239762   6.110   3.009   4.834
13274TIP3    H139763   6.030   2.982   4.789
13274TIP3    H239764   6.147   3.079   4.780
13275TIP3   OH239765   1.385   1.032   3.715
13275TIP3    H139766   1.465   1.039   3.767
13275TIP3    H239767   1.384   0.940   3.686
13276TIP3   OH239768   7.422   1.124   3.115
13276TIP3    H139769   7.381   1.053   3.065
13276TIP3    H239770   7.377   1.203   3.087
13277TIP3   OH239771   3.155   2.922   6.810
13277TIP3    H139772   3.096   2.996   6.825
13277TIP3    H239773   3.099   2.844   6.822
13278TIP3   OH239774   2.390   0.484   1.220
13278TIP3    H139775   2.452   0.486   1.147
13278TIP3    H239776   2.324   0.550   1.196
13279TIP3   OH239777   3.085   1.148   5.691
13279TIP3    H139778   3.042   1.063   5.685
13279TIP3    H239779   3.163   1.132   5.743
13280TIP3   OH239780   0.896   3.242   6.532
13280TIP3    H139781   0.967   3.224   6.471
13280TIP3    H239782   0.816   3.223   6.483
13281TIP3   OH239783   3.428   5.823   2.054
13281TIP3    H139784   3.336   5.849   2.051
13281TIP3    H239785   3.448   5.816   2.147
13282TIP3   OH239786   8.050   3.454   3.340
13282TIP3    H139787   8.133   3.489   3.373
13282TIP3    H239788   8.056   3.463   3.245
13283TIP3   OH239789   1.594   6.455   1.371
13283TIP3    H139790   1.640   6.372   1.387
13283TIP3    H239791   1.645   6.520   1.421
13284TIP3   OH239792   5.060   7.103   2.997
13284TIP3    H139793   5.143   7.059   2.978
13284TIP3    H239794   5.074   7.145   3.082
13285TIP3   OH239795   8.452   7.611   0.658
13285TIP3    H139796   8.366   7.569   0.656
13285TIP3    H239797   8.437   7.699   0.623
13286TIP3   OH239798   3.825   5.576   4.714
13286TIP3    H139799   3.802   5.484   4.725
13286TIP3    H239800   3.794   5.618   4.794
13287TIP3   OH239801   1.859   4.175   0.891
13287TIP3    H139802   1.859   4.118   0.969
13287TIP3    H239803   1.786   4.144   0.838
13288TIP3   OH239804   0.777   2.685   4.289
13288TIP3    H139805   0.746   2.677   4.379
13288TIP3    H239806   0.854   2.743   4.295
13289TIP3   OH239807   5.282   4.782   3.770
13289TIP3    H139808   5.211   4.725   3.742
13289TIP3    H239809   5.303   4.834   3.693
13290TIP3   OH239810   0.753   0.926   2.369
13290TIP3    H139811   0.848   0.913   2.367
13290TIP3    H239812   0.725   0.885   2.451
13291TIP3   OH239813   3.474   1.143   5.540
13291TIP3    H139814   3.401   1.205   5.541
13291TIP3    H239815   3.465   1.097   5.457
13292TIP3   OH239816   1.219   4.562   4.058
13292TIP3    H139817   1.185   4.480   4.023
13292TIP3    H239818   1.159   4.629   4.024
13293TIP3   OH239819   6.472   3.890   6.086
13293TIP3    H139820   6.489   3.961   6.025
13293TIP3    H239821   6.378   3.895   6.104
13294TIP3   OH239822   2.097   7.201   1.785
13294TIP3    H139823   2.009   7.188   1.821
13294TIP3    H239824   2.090   7.171   1.694
13295TIP3   OH239825   4.489   5.418   5.718
13295TIP3    H139826   4.544   5.353   5.761
13295TIP3    H239827   4.419   5.366   5.677
13296TIP3   OH239828   2.763   4.429   5.849
13296TIP3    H139829   2.721   4.343   5.842
13296TIP3    H239830   2.856   4.410   5.844
13297TIP3   OH239831   2.407   3.969   0.952
13297TIP3    H139832   2.353   3.892   0.937
13297TIP3    H239833   2.497   3.936   0.950
13298TIP3   OH239834   7.312   2.942   4.382
13298TIP3    H139835   7.260   2.864   4.402
13298TIP3    H239836   7.305   2.953   4.287
13299TIP3   OH239837   6.140   3.624   3.434
13299TIP3    H139838   6.149   3.551   3.372
13299TIP3    H239839   6.084   3.687   3.388
13300TIP3   OH239840   0.164   3.914   0.221
13300TIP3    H139841   0.235   3.865   0.180
13300TIP3    H239842   0.181   4.005   0.197
13301TIP3   OH239843   4.020   5.568   1.849
13301TIP3    H139844   4.052   5.654   1.875
13301TIP3    H239845   3.950   5.585   1.787
13302TIP3   OH239846   8.282   1.918   3.869
13302TIP3    H139847   8.340   1.994   3.875
13302TIP3    H239848   8.316   1.868   3.794
13303TIP3   OH239849   4.520   7.530   4.689
13303TIP3    H139850   4.431   7.552   4.715
13303TIP3    H239851   4.544   7.456   4.745
13304TIP3   OH239852   4.040   6.952   0.343
13304TIP3    H139853   4.042   6.920   0.433
13304TIP3    H239854   4.104   6.898   0.297
13305TIP3   OH239855   3.928   4.645   4.721
13305TIP3    H139856   4.006   4.639   4.777
13305TIP3    H239857   3.929   4.734   4.687
13306TIP3   OH239858   3.257   2.273   4.460
13306TIP3    H139859   3.282   2.256   4.369
13306TIP3    H239860   3.176   2.323   4.453
13307TIP3   OH239861   3.672   5.338   4.905
13307TIP3    H139862   3.606   5.270   4.920
13307TIP3    H239863   3.723   5.339   4.986
13308TIP3   OH239864   2.728   1.177   0.108
13308TIP3    H139865   2.782   1.105   0.075
13308TIP3    H239866   2.677   1.139   0.179
13309TIP3   OH239867   8.272   2.457   5.948
13309TIP3    H139868   8.309   2.371   5.970
13309TIP3    H239869   8.260   2.454   5.853
13310TIP3   OH239870   4.229   7.565   5.322
13310TIP3    H139871   4.148   7.607   5.351
13310TIP3    H239872   4.280   7.554   5.403
13311TIP3   OH239873   4.072   5.569   2.486
13311TIP3    H139874   4.047   5.661   2.484
13311TIP3    H239875   4.038   5.533   2.404
13312TIP3   OH239876   8.310   3.475   5.601
13312TIP3    H139877   8.261   3.393   5.609
13312TIP3    H239878   8.257   3.540   5.647
13313TIP3   OH239879   7.542   2.756   3.623
13313TIP3    H139880   7.563   2.683   3.681
13313TIP3    H239881   7.579   2.730   3.538
13314TIP3   OH239882   3.324   6.088   4.766
13314TIP3    H139883   3.381   6.011   4.773
13314TIP3    H239884   3.383   6.163   4.775
13315TIP3   OH239885   5.583   7.153   2.738
13315TIP3    H139886   5.540   7.152   2.823
13315TIP3    H239887   5.551   7.232   2.695
13316TIP3   OH239888   4.015   0.739   4.894
13316TIP3    H139889   4.028   0.821   4.848
13316TIP3    H239890   3.922   0.736   4.914
13317TIP3   OH239891   4.091   6.905   0.619
13317TIP3    H139892   4.047   6.961   0.683
13317TIP3    H239893   4.157   6.858   0.670
13318TIP3   OH239894   3.810   0.997   0.359
13318TIP3    H139895   3.816   0.915   0.408
13318TIP3    H239896   3.831   1.065   0.422
13319TIP3   OH239897   3.226   2.710   5.538
13319TIP3    H139898   3.214   2.696   5.632
13319TIP3    H239899   3.143   2.682   5.499
13320TIP3   OH239900   6.062   1.864   1.910
13320TIP3    H139901   6.004   1.838   1.982
13320TIP3    H239902   6.086   1.783   1.867
13321TIP3   OH239903   8.420   7.027   4.833
13321TIP3    H139904   8.459   7.014   4.920
13321TIP3    H239905   8.387   6.941   4.809
13322TIP3   OH239906   1.564   1.735   2.519
13322TIP3    H139907   1.599   1.729   2.430
13322TIP3    H239908   1.556   1.829   2.535
13323TIP3   OH239909   1.926   4.160   2.856
13323TIP3    H139910   1.850   4.177   2.912
13323TIP3    H239911   1.917   4.221   2.783
13324TIP3   OH239912   4.630   2.761   1.496
13324TIP3    H139913   4.592   2.848   1.509
13324TIP3    H239914   4.557   2.701   1.512
13325TIP3   OH239915   2.745   5.259   0.210
13325TIP3    H139916   2.814   5.256   0.277
13325TIP3    H239917   2.744   5.170   0.174
13326TIP3   OH239918   6.485   6.106   4.574
13326TIP3    H139919   6.416   6.171   4.563
13326TIP3    H239920   6.487   6.059   4.491
13327TIP3   OH239921   3.705   5.438   6.393
13327TIP3    H139922   3.733   5.506   6.454
13327TIP3    H239923   3.787   5.402   6.358
13328TIP3   OH239924   3.247   1.667   6.780
13328TIP3    H139925   3.155   1.655   6.754
13328TIP3    H239926   3.270   1.586   6.824
13329TIP3   OH239927   6.646   3.771   0.241
13329TIP3    H139928   6.633   3.799   0.150
13329TIP3    H239929   6.703   3.838   0.279
13330TIP3   OH239930   2.403   6.740   5.182
13330TIP3    H139931   2.390   6.747   5.087
13330TIP3    H239932   2.489   6.699   5.191
13331TIP3   OH239933   6.753   1.218   6.818
13331TIP3    H139934   6.801   1.178   6.746
13331TIP3    H239935   6.755   1.312   6.798
13332TIP3   OH239936   8.189   3.622   0.269
13332TIP3    H139937   8.162   3.704   0.228
13332TIP3    H239938   8.127   3.557   0.236
13333TIP3   OH239939   5.258   1.084   3.754
13333TIP3    H139940   5.173   1.126   3.760
13333TIP3    H239941   5.319   1.145   3.795
13334TIP3   OH239942   2.330   6.569   1.148
13334TIP3    H139943   2.352   6.652   1.188
13334TIP3    H239944   2.400   6.510   1.174
13335TIP3   OH239945   6.964   6.733   2.153
13335TIP3    H139946   6.904   6.804   2.175
13335TIP3    H239947   6.911   6.671   2.103
13336TIP3   OH239948   6.953   6.916   5.603
13336TIP3    H139949   6.875   6.967   5.626
13336TIP3    H239950   7.009   6.921   5.680
13337TIP3   OH239951   4.984   2.648   2.589
13337TIP3    H139952   5.072   2.680   2.569
13337TIP3    H239953   4.951   2.615   2.505
13338TIP3   OH239954   8.037   3.839   0.145
13338TIP3    H139955   8.032   3.822   0.051
13338TIP3    H239956   8.043   3.934   0.152
13339TIP3   OH239957   7.659   1.789   3.983
13339TIP3    H139958   7.686   1.830   3.901
13339TIP3    H239959   7.589   1.729   3.958
13340TIP3   OH239960   0.536   4.201   0.249
13340TIP3    H139961   0.553   4.131   0.185
13340TIP3    H239962   0.619   4.247   0.257
13341TIP3   OH239963   6.369   2.383   4.228
13341TIP3    H139964   6.309   2.363   4.156
13341TIP3    H239965   6.344   2.322   4.297
13342TIP3   OH239966   8.108   3.952   3.540
13342TIP3    H139967   8.025   3.907   3.558
13342TIP3    H239968   8.102   4.033   3.590
13343TIP3   OH239969   8.037   6.512   1.354
13343TIP3    H139970   8.042   6.446   1.285
13343TIP3    H239971   8.090   6.584   1.321
13344TIP3   OH239972   2.994   1.922   3.440
13344TIP3    H139973   2.924   1.969   3.486
13344TIP3    H239974   2.950   1.884   3.363
13345TIP3   OH239975   3.145   6.590   1.585
13345TIP3    H139976   3.107   6.587   1.673
13345TIP3    H239977   3.153   6.498   1.559
13346TIP3   OH239978   6.623   3.785   3.443
13346TIP3    H139979   6.546   3.728   3.441
13346TIP3    H239980   6.613   3.842   3.366
13347TIP3   OH239981   2.507   0.497   5.169
13347TIP3    H139982   2.597   0.528   5.169
13347TIP3    H239983   2.465   0.546   5.240
13348TIP3   OH239984   0.260   6.060   1.632
13348TIP3    H139985   0.299   5.979   1.664
13348TIP3    H239986   0.335   6.119   1.617
13349TIP3   OH239987   8.385   5.496   4.127
13349TIP3    H139988   8.301   5.499   4.082
13349TIP3    H239989   8.438   5.433   4.078
13350TIP3   OH239990   7.418   4.478   6.763
13350TIP3    H139991   7.482   4.516   6.823
13350TIP3    H239992   7.389   4.398   6.806
13351TIP3   OH239993   2.129   6.356   6.559
13351TIP3    H139994   2.123   6.281   6.500
13351TIP3    H239995   2.216   6.393   6.543
13352TIP3   OH239996   2.076   5.977   1.273
13352TIP3    H139997   2.046   6.065   1.250
13352TIP3    H239998   2.108   5.985   1.363
13353TIP3   OH239999   7.997   2.289   5.314
13353TIP3    H140000   7.970   2.303   5.405
13353TIP3    H240001   7.940   2.218   5.283
13354TIP3   OH240002   5.363   2.956   4.627
13354TIP3    H140003   5.323   2.876   4.662
13354TIP3    H240004   5.411   2.927   4.550
13355TIP3   OH240005   0.839   1.025   5.161
13355TIP3    H140006   0.837   0.929   5.166
13355TIP3    H240007   0.749   1.051   5.178
13356TIP3   OH240008   6.959   5.247   0.553
13356TIP3    H140009   6.928   5.169   0.598
13356TIP3    H240010   6.918   5.320   0.599
13357TIP3   OH240011   4.636   7.769   6.851
13357TIP3    H140012   4.638   7.701   6.783
13357TIP3    H240013   4.715   7.820   6.836
13358TIP3   OH240014   4.528   6.258   6.726
13358TIP3    H140015   4.455   6.297   6.679
13358TIP3    H240016   4.499   6.256   6.817
13359TIP3   OH240017   7.907   0.361   6.131
13359TIP3    H140018   7.920   0.427   6.063
13359TIP3    H240019   7.876   0.284   6.084
13360TIP3   OH240020   8.176   6.240   3.185
13360TIP3    H140021   8.149   6.311   3.244
13360TIP3    H240022   8.173   6.162   3.240
13361TIP3   OH240023   5.050   2.531   6.552
13361TIP3    H140024   5.100   2.612   6.561
13361TIP3    H240025   5.082   2.492   6.470
13362TIP3   OH240026   4.548   2.034   6.506
13362TIP3    H140027   4.591   2.090   6.570
13362TIP3    H240028   4.464   2.078   6.488
13363TIP3   OH240029   0.596   0.251   5.276
13363TIP3    H140030   0.512   0.234   5.319
13363TIP3    H240031   0.661   0.214   5.335
13364TIP3   OH240032   6.967   1.078   1.659
13364TIP3    H140033   6.959   1.034   1.575
13364TIP3    H240034   6.947   1.011   1.724
13365TIP3   OH240035   5.129   0.665   6.708
13365TIP3    H140036   5.177   0.591   6.672
13365TIP3    H240037   5.191   0.707   6.768
13366TIP3   OH240038   4.944   7.068   3.794
13366TIP3    H140039   4.865   7.038   3.750
13366TIP3    H240040   4.981   7.134   3.735
13367TIP3   OH240041   1.567   3.165   3.119
13367TIP3    H140042   1.517   3.245   3.099
13367TIP3    H240043   1.657   3.196   3.131
13368TIP3   OH240044   1.853   5.600   5.805
13368TIP3    H140045   1.789   5.615   5.875
13368TIP3    H240046   1.845   5.507   5.786
13369TIP3   OH240047   0.362   7.831   2.237
13369TIP3    H140048   0.388   7.847   2.328
13369TIP3    H240049   0.397   7.905   2.188
13370TIP3   OH240050   0.504   1.661   1.979
13370TIP3    H140051   0.429   1.690   2.031
13370TIP3    H240052   0.507   1.722   1.905
13371TIP3   OH240053   1.984   5.008   0.035
13371TIP3    H140054   1.916   5.067   0.001
13371TIP3    H240055   1.992   4.940  -0.032
13372TIP3   OH240056   2.171   3.338   1.674
13372TIP3    H140057   2.153   3.422   1.633
13372TIP3    H240058   2.084   3.302   1.693
13373TIP3   OH240059   3.520   3.501   2.896
13373TIP3    H140060   3.514   3.564   2.967
13373TIP3    H240061   3.430   3.485   2.869
13374TIP3   OH240062   3.342   1.427   5.782
13374TIP3    H140063   3.260   1.398   5.821
13374TIP3    H240064   3.358   1.513   5.822
13375TIP3   OH240065   3.372   3.411   3.212
13375TIP3    H140066   3.445   3.349   3.210
13375TIP3    H240067   3.408   3.489   3.255
13376TIP3   OH240068   2.899   0.951   5.313
13376TIP3    H140069   2.815   0.935   5.357
13376TIP3    H240070   2.961   0.965   5.384
13377TIP3   OH240071   1.980   5.636   4.266
13377TIP3    H140072   2.017   5.606   4.349
13377TIP3    H240073   1.942   5.557   4.227
13378TIP3   OH240074   0.279   1.987   3.786
13378TIP3    H140075   0.353   2.043   3.761
13378TIP3    H240076   0.248   1.951   3.703
13379TIP3   OH240077   3.279   0.039   2.966
13379TIP3    H140078   3.242   0.055   2.879
13379TIP3    H240079   3.216  -0.019   3.008
13380TIP3   OH240080   5.359   4.469   5.302
13380TIP3    H140081   5.292   4.429   5.248
13380TIP3    H240082   5.311   4.531   5.358
13381TIP3   OH240083   2.345   6.419   2.115
13381TIP3    H140084   2.354   6.408   2.020
13381TIP3    H240085   2.294   6.499   2.126
13382TIP3   OH240086   0.277   4.878   1.120
13382TIP3    H140087   0.185   4.871   1.093
13382TIP3    H240088   0.326   4.863   1.039
13383TIP3   OH240089   5.133   3.833   5.280
13383TIP3    H140090   5.224   3.853   5.303
13383TIP3    H240091   5.081   3.885   5.342
13384TIP3   OH240092   3.520   3.461   5.953
13384TIP3    H140093   3.606   3.432   5.984
13384TIP3    H240094   3.538   3.540   5.903
13385TIP3   OH240095   5.507   7.735   0.091
13385TIP3    H140096   5.571   7.803   0.070
13385TIP3    H240097   5.488   7.693   0.008
13386TIP3   OH240098   7.483   3.520   3.685
13386TIP3    H140099   7.483   3.424   3.683
13386TIP3    H240100   7.468   3.541   3.778
13387TIP3   OH240101   7.547   1.394   0.830
13387TIP3    H140102   7.552   1.481   0.872
13387TIP3    H240103   7.454   1.385   0.807
13388TIP3   OH240104   0.221   2.925   3.858
13388TIP3    H140105   0.155   2.991   3.878
13388TIP3    H240106   0.171   2.844   3.846
13389TIP3   OH240107   4.948   1.296   2.169
13389TIP3    H140108   4.959   1.317   2.261
13389TIP3    H240109   4.887   1.223   2.168
13390TIP3   OH240110   8.074   1.792   5.913
13390TIP3    H140111   8.029   1.861   5.961
13390TIP3    H240112   8.036   1.711   5.947
13391TIP3   OH240113   5.558   2.311   2.929
13391TIP3    H140114   5.500   2.294   2.854
13391TIP3    H240115   5.522   2.257   3.000
13392TIP3   OH240116   6.165   3.687   6.372
13392TIP3    H140117   6.137   3.631   6.300
13392TIP3    H240118   6.240   3.642   6.411
13393TIP3   OH240119   7.252   5.785   4.367
13393TIP3    H140120   7.299   5.852   4.415
13393TIP3    H240121   7.320   5.734   4.324
13394TIP3   OH240122   6.014   2.220   0.836
13394TIP3    H140123   6.045   2.259   0.919
13394TIP3    H240124   6.015   2.126   0.852
13395TIP3   OH240125   3.042   4.386   3.039
13395TIP3    H140126   3.044   4.481   3.032
13395TIP3    H240127   3.041   4.355   2.948
13396TIP3   OH240128   7.025   7.617   2.201
13396TIP3    H140129   6.988   7.594   2.286
13396TIP3    H240130   6.949   7.636   2.146
13397TIP3   OH240131   2.076   3.306   3.291
13397TIP3    H140132   2.084   3.373   3.223
13397TIP3    H240133   2.014   3.243   3.254
13398TIP3   OH240134   0.130   3.142   1.188
13398TIP3    H140135   0.167   3.220   1.230
13398TIP3    H240136   0.202   3.079   1.189
13399TIP3   OH240137   7.717   3.949   0.454
13399TIP3    H140138   7.688   3.911   0.537
13399TIP3    H240139   7.782   3.888   0.421
13400TIP3   OH240140   5.012   6.145   4.756
13400TIP3    H140141   5.051   6.216   4.705
13400TIP3    H240142   4.991   6.078   4.691
13401TIP3   OH240143   1.741   4.439   3.986
13401TIP3    H140144   1.652   4.463   3.961
13401TIP3    H240145   1.733   4.353   4.027
13402TIP3   OH240146   2.311   0.965   5.501
13402TIP3    H140147   2.296   0.993   5.591
13402TIP3    H240148   2.314   1.046   5.451
13403TIP3   OH240149   4.971   4.458   3.400
13403TIP3    H140150   5.067   4.459   3.391
13403TIP3    H240151   4.956   4.477   3.493
13404TIP3   OH240152   4.876   2.646   2.054
13404TIP3    H140153   4.797   2.606   2.018
13404TIP3    H240154   4.937   2.647   1.980
13405TIP3   OH240155   0.372   3.384   1.947
13405TIP3    H140156   0.349   3.475   1.961
13405TIP3    H240157   0.392   3.351   2.035
13406TIP3   OH240158   3.164   3.251   5.521
13406TIP3    H140159   3.084   3.222   5.476
13406TIP3    H240160   3.214   3.297   5.453
13407TIP3   OH240161   1.054   6.314   6.256
13407TIP3    H140162   1.018   6.382   6.312
13407TIP3    H240163   1.054   6.235   6.310
13408TIP3   OH240164   8.093   5.864   5.154
13408TIP3    H140165   8.108   5.947   5.199
13408TIP3    H240166   8.099   5.886   5.061
13409TIP3   OH240167   0.620   3.270   6.749
13409TIP3    H140168   0.566   3.246   6.674
13409TIP3    H240169   0.566   3.329   6.800
13410TIP3   OH240170   1.629   7.439   3.964
13410TIP3    H140171   1.635   7.443   3.868
13410TIP3    H240172   1.535   7.451   3.982
13411TIP3   OH240173   0.785   1.326   4.885
13411TIP3    H140174   0.758   1.351   4.797
13411TIP3    H240175   0.849   1.392   4.911
13412TIP3   OH240176   3.279   6.221   3.226
13412TIP3    H140177   3.238   6.304   3.202
13412TIP3    H240178   3.285   6.173   3.144
13413TIP3   OH240179   4.322   2.825   5.230
13413TIP3    H140180   4.391   2.763   5.252
13413TIP3    H240181   4.310   2.878   5.309
13414TIP3   OH240182   4.081   5.921   1.204
13414TIP3    H140183   4.099   5.982   1.276
13414TIP3    H240184   4.053   5.976   1.132
13415TIP3   OH240185   6.627   2.357   1.654
13415TIP3    H140186   6.620   2.436   1.601
13415TIP3    H240187   6.546   2.355   1.704
13416TIP3   OH240188   2.149   1.165   2.112
13416TIP3    H140189   2.229   1.218   2.101
13416TIP3    H240190   2.111   1.197   2.194
13417TIP3   OH240191   6.856   1.215   2.931
13417TIP3    H140192   6.765   1.185   2.928
13417TIP3    H240193   6.856   1.282   2.999
13418TIP3   OH240194   5.180   7.033   2.031
13418TIP3    H140195   5.157   7.053   2.122
13418TIP3    H240196   5.241   7.103   2.006
13419TIP3   OH240197   4.442   1.045   2.485
13419TIP3    H140198   4.498   0.989   2.538
13419TIP3    H240199   4.467   1.134   2.510
13420TIP3   OH240200   5.510   3.727   1.964
13420TIP3    H140201   5.547   3.815   1.968
13420TIP3    H240202   5.461   3.725   1.882
13421TIP3   OH240203   4.468   3.350   2.913
13421TIP3    H140204   4.498   3.431   2.954
13421TIP3    H240205   4.481   3.364   2.819
13422TIP3   OH240206   4.307   1.475   4.096
13422TIP3    H140207   4.249   1.482   4.020
13422TIP3    H240208   4.369   1.405   4.072
13423TIP3   OH240209   3.543   5.097   6.190
13423TIP3    H140210   3.624   5.053   6.168
13423TIP3    H240211   3.491   5.094   6.109
13424TIP3   OH240212   3.644   5.553   6.138
13424TIP3    H140213   3.568   5.496   6.126
13424TIP3    H240214   3.676   5.531   6.226
13425TIP3   OH240215   2.383   5.374   3.701
13425TIP3    H140216   2.307   5.396   3.648
13425TIP3    H240217   2.417   5.293   3.663
13426TIP3   OH240218   6.344   3.894   4.781
13426TIP3    H140219   6.351   3.989   4.788
13426TIP3    H240220   6.410   3.861   4.842
13427TIP3   OH240221   4.374   0.455   4.848
13427TIP3    H140222   4.381   0.360   4.855
13427TIP3    H240223   4.299   0.469   4.790
13428TIP3   OH240224   7.157   7.327   0.724
13428TIP3    H140225   7.170   7.233   0.733
13428TIP3    H240226   7.106   7.337   0.643
13429TIP3   OH240227   5.458   4.097   3.656
13429TIP3    H140228   5.373   4.070   3.621
13429TIP3    H240229   5.459   4.192   3.646
13430TIP3   OH240230   3.764   2.790   1.729
13430TIP3    H140231   3.784   2.740   1.808
13430TIP3    H240232   3.796   2.736   1.657
13431TIP3   OH240233   4.842   5.736   1.097
13431TIP3    H140234   4.907   5.671   1.125
13431TIP3    H240235   4.760   5.688   1.091
13432TIP3   OH240236   1.573   5.925   2.696
13432TIP3    H140237   1.606   5.977   2.623
13432TIP3    H240238   1.652   5.902   2.746
13433TIP3   OH240239   8.377   6.059   3.878
13433TIP3    H140240   8.451   6.055   3.939
13433TIP3    H240241   8.299   6.062   3.935
13434TIP3   OH240242   3.976   5.596   5.682
13434TIP3    H140243   3.996   5.673   5.736
13434TIP3    H240244   3.931   5.536   5.741
13435TIP3   OH240245   1.447   1.697   1.184
13435TIP3    H140246   1.469   1.649   1.104
13435TIP3    H240247   1.356   1.674   1.201
13436TIP3   OH240248   4.504   4.079   2.300
13436TIP3    H140249   4.574   4.015   2.291
13436TIP3    H240250   4.424   4.027   2.311
13437TIP3   OH240251   2.870   4.154   2.487
13437TIP3    H140252   2.931   4.130   2.557
13437TIP3    H240253   2.898   4.103   2.411
13438TIP3   OH240254   0.988   3.648   2.256
13438TIP3    H140255   0.944   3.718   2.208
13438TIP3    H240256   1.036   3.599   2.189
13439TIP3   OH240257   6.895   5.086   2.505
13439TIP3    H140258   6.902   5.131   2.589
13439TIP3    H240259   6.985   5.081   2.473
13440TIP3   OH240260   8.129   1.237   2.259
13440TIP3    H140261   8.069   1.296   2.213
13440TIP3    H240262   8.120   1.153   2.215
13441TIP3   OH240263   0.406   6.339   4.343
13441TIP3    H140264   0.401   6.435   4.344
13441TIP3    H240265   0.364   6.312   4.424
13442TIP3   OH240266   3.557   6.618   5.159
13442TIP3    H140267   3.469   6.626   5.196
13442TIP3    H240268   3.615   6.626   5.235
13443TIP3   OH240269   5.354   5.952   3.119
13443TIP3    H140270   5.318   5.913   3.199
13443TIP3    H240271   5.307   5.907   3.048
13444TIP3   OH240272   6.248   5.542   3.602
13444TIP3    H140273   6.287   5.624   3.571
13444TIP3    H240274   6.228   5.494   3.522
13445TIP3   OH240275   6.148   6.977   2.712
13445TIP3    H140276   6.180   6.889   2.696
13445TIP3    H240277   6.054   6.967   2.727
13446TIP3   OH240278   7.078   1.677   5.995
13446TIP3    H140279   7.037   1.603   6.040
13446TIP3    H240280   7.007   1.715   5.944
13447TIP3   OH240281   4.440   4.387   5.801
13447TIP3    H140282   4.374   4.443   5.841
13447TIP3    H240283   4.513   4.389   5.863
13448TIP3   OH240284   4.630   0.439   5.486
13448TIP3    H140285   4.651   0.504   5.553
13448TIP3    H240286   4.541   0.461   5.458
13449TIP3   OH240287   0.880   3.701   3.276
13449TIP3    H140288   0.815   3.649   3.228
13449TIP3    H240289   0.896   3.651   3.356
13450TIP3   OH240290   5.147   5.142   6.080
13450TIP3    H140291   5.173   5.227   6.045
13450TIP3    H240292   5.185   5.139   6.168
13451TIP3   OH240293   0.175   7.627   5.133
13451TIP3    H140294   0.141   7.600   5.048
13451TIP3    H240295   0.264   7.591   5.136
13452TIP3   OH240296   3.955   3.007   3.430
13452TIP3    H140297   3.889   2.938   3.423
13452TIP3    H240298   3.973   3.032   3.339
13453TIP3   OH240299   5.105   4.726   6.482
13453TIP3    H140300   5.085   4.641   6.522
13453TIP3    H240301   5.108   4.787   6.556
13454TIP3   OH240302   4.726   6.186   3.549
13454TIP3    H140303   4.764   6.237   3.478
13454TIP3    H240304   4.632   6.184   3.530
13455TIP3   OH240305   1.842   2.454   0.219
13455TIP3    H140306   1.881   2.367   0.228
13455TIP3    H240307   1.916   2.514   0.220
13456TIP3   OH240308   6.900   4.660   1.248
13456TIP3    H140309   6.902   4.706   1.164
13456TIP3    H240310   6.978   4.692   1.294
13457TIP3   OH240311   4.161   6.999   5.209
13457TIP3    H140312   4.068   7.020   5.216
13457TIP3    H240313   4.205   7.079   5.237
13458TIP3   OH240314   0.165   7.362   6.771
13458TIP3    H140315   0.243   7.415   6.756
13458TIP3    H240316   0.094   7.426   6.776
13459TIP3   OH240317   4.636   2.661   6.123
13459TIP3    H140318   4.619   2.620   6.038
13459TIP3    H240319   4.612   2.752   6.111
13460TIP3   OH240320   8.360   7.939   0.965
13460TIP3    H140321   8.270   7.940   0.935
13460TIP3    H240322   8.391   7.850   0.947
13461TIP3   OH240323   1.310   3.970   6.672
13461TIP3    H140324   1.400   3.983   6.642
13461TIP3    H240325   1.260   4.038   6.628
13462TIP3   OH240326   4.844   3.628   2.266
13462TIP3    H140327   4.890   3.545   2.267
13462TIP3    H240328   4.758   3.609   2.303
13463TIP3   OH240329   7.617   4.945   1.683
13463TIP3    H140330   7.626   4.856   1.649
13463TIP3    H240331   7.547   4.985   1.631
13464TIP3   OH240332   2.431   1.931   4.659
13464TIP3    H140333   2.503   1.932   4.722
13464TIP3    H240334   2.352   1.926   4.712
13465TIP3   OH240335   0.392   2.166   0.671
13465TIP3    H140336   0.399   2.074   0.695
13465TIP3    H240337   0.300   2.188   0.687
13466TIP3   OH240338   5.402   5.009   2.005
13466TIP3    H140339   5.343   5.085   2.004
13466TIP3    H240340   5.396   4.975   2.094
13467TIP3   OH240341   1.495   1.740   3.645
13467TIP3    H140342   1.497   1.651   3.681
13467TIP3    H240343   1.404   1.754   3.619
13468TIP3   OH240344   2.878   1.344   1.562
13468TIP3    H140345   2.920   1.259   1.559
13468TIP3    H240346   2.816   1.338   1.636
13469TIP3   OH240347   4.890   3.435   1.917
13469TIP3    H140348   4.961   3.485   1.958
13469TIP3    H240349   4.906   3.443   1.823
13470TIP3   OH240350   0.946   7.605   2.631
13470TIP3    H140351   0.968   7.529   2.687
13470TIP3    H240352   0.925   7.567   2.546
13471TIP3   OH240353   6.704   7.169   1.993
13471TIP3    H140354   6.724   7.165   1.900
13471TIP3    H240355   6.740   7.253   2.022
13472TIP3   OH240356   1.500   0.904   1.554
13472TIP3    H140357   1.454   0.915   1.637
13472TIP3    H240358   1.571   0.842   1.574
13473TIP3   OH240359   1.942   1.823   3.926
13473TIP3    H140360   2.015   1.763   3.936
13473TIP3    H240361   1.936   1.838   3.832
13474TIP3   OH240362   1.850   2.235   2.390
13474TIP3    H140363   1.762   2.240   2.352
13474TIP3    H240364   1.896   2.170   2.336
13475TIP3   OH240365   0.879   4.010   4.730
13475TIP3    H140366   0.957   3.958   4.710
13475TIP3    H240367   0.807   3.947   4.731
13476TIP3   OH240368   6.676   4.964   1.220
13476TIP3    H140369   6.725   4.963   1.138
13476TIP3    H240370   6.721   4.902   1.277
13477TIP3   OH240371   1.589   7.149   4.008
13477TIP3    H140372   1.585   7.234   3.964
13477TIP3    H240373   1.674   7.113   3.983
13478TIP3   OH240374   0.590   5.188   1.128
13478TIP3    H140375   0.637   5.157   1.051
13478TIP3    H240376   0.520   5.243   1.094
13479TIP3   OH240377   2.850   0.153   1.566
13479TIP3    H140378   2.811   0.068   1.546
13479TIP3    H240379   2.942   0.144   1.542
13480TIP3   OH240380   2.245   6.967   6.696
13480TIP3    H140381   2.331   7.007   6.714
13480TIP3    H240382   2.266   6.884   6.653
13481TIP3   OH240383   0.944  -0.031   6.810
13481TIP3    H140384   0.984  -0.095   6.869
13481TIP3    H240385   1.010   0.037   6.801
13482TIP3   OH240386   4.745   3.627   5.153
13482TIP3    H140387   4.763   3.706   5.102
13482TIP3    H240388   4.817   3.621   5.216
13483TIP3   OH240389   5.113   2.662   4.456
13483TIP3    H140390   5.093   2.612   4.376
13483TIP3    H240391   5.059   2.741   4.448
13484TIP3   OH240392   6.527   5.003   4.674
13484TIP3    H140393   6.461   4.988   4.742
13484TIP3    H240394   6.511   4.934   4.610
13485TIP3   OH240395   5.924   4.060   3.135
13485TIP3    H140396   5.943   4.082   3.044
13485TIP3    H240397   5.874   4.135   3.168
13486TIP3   OH240398   4.779   7.454   2.216
13486TIP3    H140399   4.732   7.491   2.142
13486TIP3    H240400   4.797   7.530   2.273
13487TIP3   OH240401   1.628   1.557   1.901
13487TIP3    H140402   1.635   1.569   1.996
13487TIP3    H240403   1.658   1.468   1.886
13488TIP3   OH240404   8.179   2.280   0.988
13488TIP3    H140405   8.150   2.196   0.953
13488TIP3    H240406   8.274   2.273   0.994
13489TIP3   OH240407   5.633   1.006   4.732
13489TIP3    H140408   5.637   0.910   4.727
13489TIP3    H240409   5.721   1.032   4.760
13490TIP3   OH240410   2.392   0.798   6.017
13490TIP3    H140411   2.373   0.724   5.959
13490TIP3    H240412   2.485   0.789   6.037
13491TIP3   OH240413   3.165   1.874   1.932
13491TIP3    H140414   3.071   1.853   1.929
13491TIP3    H240415   3.193   1.846   2.019
13492TIP3   OH240416   5.214   4.602   0.403
13492TIP3    H140417   5.263   4.524   0.429
13492TIP3    H240418   5.222   4.604   0.307
13493TIP3   OH240419   7.040   6.224   0.039
13493TIP3    H140420   6.956   6.194   0.075
13493TIP3    H240421   7.102   6.217   0.112
13494TIP3   OH240422   8.125   4.205   4.764
13494TIP3    H140423   8.050   4.226   4.820
13494TIP3    H240424   8.196   4.185   4.825
13495TIP3   OH240425   7.301   5.541   1.550
13495TIP3    H140426   7.296   5.463   1.606
13495TIP3    H240427   7.391   5.573   1.561
13496TIP3   OH240428   3.038   5.321   6.268
13496TIP3    H140429   3.065   5.382   6.337
13496TIP3    H240430   3.116   5.269   6.250
13497TIP3   OH240431   4.396   1.036   5.473
13497TIP3    H140432   4.354   1.122   5.471
13497TIP3    H240433   4.327   0.975   5.445
13498TIP3   OH240434   5.226   2.411   0.296
13498TIP3    H140435   5.264   2.340   0.244
13498TIP3    H240436   5.133   2.389   0.302
13499TIP3   OH240437   2.277   1.633   2.448
13499TIP3    H140438   2.319   1.719   2.444
13499TIP3    H240439   2.191   1.650   2.486
13500TIP3   OH240440   2.820   2.200   3.525
13500TIP3    H140441   2.908   2.212   3.558
13500TIP3    H240442   2.791   2.117   3.563
13501TIP3   OH240443   7.658   3.481   4.039
13501TIP3    H140444   7.712   3.402   4.040
13501TIP3    H240445   7.717   3.550   4.066
13502TIP3   OH240446   8.135   5.073   3.412
13502TIP3    H140447   8.185   4.992   3.402
13502TIP3    H240448   8.082   5.060   3.491
13503TIP3   OH240449   5.144   2.361   5.970
13503TIP3    H140450   5.163   2.431   5.907
13503TIP3    H240451   5.080   2.400   6.030
13504TIP3   OH240452   3.980   2.550   6.798
13504TIP3    H140453   3.962   2.578   6.888
13504TIP3    H240454   3.901   2.574   6.750
13505TIP3   OH240455   6.042   4.821   3.286
13505TIP3    H140456   6.004   4.849   3.370
13505TIP3    H240457   6.121   4.772   3.311
13506TIP3   OH240458   0.725   0.804   2.611
13506TIP3    H140459   0.789   0.736   2.588
13506TIP3    H240460   0.751   0.831   2.699
13507TIP3   OH240461   5.553   3.508   6.335
13507TIP3    H140462   5.538   3.423   6.376
13507TIP3    H240463   5.514   3.500   6.247
13508TIP3   OH240464   6.263   4.446   5.624
13508TIP3    H140465   6.244   4.537   5.645
13508TIP3    H240466   6.291   4.447   5.532
13509TIP3   OH240467   0.068   0.989   4.310
13509TIP3    H140468   0.090   1.058   4.372
13509TIP3    H240469   0.060   1.033   4.226
13510TIP3   OH240470   1.794   4.653   5.825
13510TIP3    H140471   1.804   4.672   5.918
13510TIP3    H240472   1.788   4.739   5.783
13511TIP3   OH240473   7.933   6.848   5.450
13511TIP3    H140474   7.891   6.764   5.470
13511TIP3    H240475   7.873   6.891   5.389
13512TIP3   OH240476   5.982   5.591   1.394
13512TIP3    H140477   5.952   5.576   1.305
13512TIP3    H240478   5.968   5.507   1.438
13513TIP3   OH240479   3.332   1.259   1.477
13513TIP3    H140480   3.381   1.340   1.492
13513TIP3    H240481   3.355   1.203   1.550
13514TIP3   OH240482   1.404   1.463   3.748
13514TIP3    H140483   1.313   1.440   3.764
13514TIP3    H240484   1.435   1.399   3.684
13515TIP3   OH240485   4.721   2.129   4.971
13515TIP3    H140486   4.730   2.222   4.994
13515TIP3    H240487   4.771   2.119   4.891
13516TIP3   OH240488   3.896   1.251   1.833
13516TIP3    H140489   3.883   1.190   1.761
13516TIP3    H240490   3.969   1.214   1.883
13517TIP3   OH240491   7.797   0.697   0.421
13517TIP3    H140492   7.770   0.673   0.332
13517TIP3    H240493   7.779   0.791   0.426
13518TIP3   OH240494   6.271   7.666   1.461
13518TIP3    H140495   6.241   7.653   1.371
13518TIP3    H240496   6.354   7.619   1.466
13519TIP3   OH240497   8.414   3.748   4.286
13519TIP3    H140498   8.382   3.691   4.356
13519TIP3    H240499   8.371   3.832   4.302
13520TIP3   OH240500   7.208   5.914   4.706
13520TIP3    H140501   7.279   5.970   4.738
13520TIP3    H240502   7.229   5.899   4.614
13521TIP3   OH240503   5.873   2.567   1.765
13521TIP3    H140504   5.867   2.550   1.671
13521TIP3    H240505   5.923   2.493   1.800
13522TIP3   OH240506   6.002   5.897   3.093
13522TIP3    H140507   6.022   5.917   3.002
13522TIP3    H240508   6.056   5.820   3.114
13523TIP3   OH240509   0.953   4.329   6.567
13523TIP3    H140510   1.004   4.380   6.630
13523TIP3    H240511   0.924   4.393   6.502
13524TIP3   OH240512   7.067   2.067   1.130
13524TIP3    H140513   7.014   2.026   1.061
13524TIP3    H240514   7.045   2.018   1.209
13525TIP3   OH240515   5.663   2.739   5.957
13525TIP3    H140516   5.742   2.785   5.928
13525TIP3    H240517   5.693   2.650   5.977
13526TIP3   OH240518   3.350   7.514   2.790
13526TIP3    H140519   3.368   7.506   2.883
13526TIP3    H240520   3.271   7.567   2.785
13527TIP3   OH240521   3.238   2.326   5.178
13527TIP3    H140522   3.228   2.318   5.273
13527TIP3    H240523   3.332   2.332   5.164
13528TIP3   OH240524   5.912   3.161   5.048
13528TIP3    H140525   5.901   3.182   4.955
13528TIP3    H240526   5.927   3.066   5.049
13529TIP3   OH240527   1.694   6.774   4.174
13529TIP3    H140528   1.618   6.717   4.163
13529TIP3    H240529   1.678   6.818   4.258
13530TIP3   OH240530   2.193   7.139   5.152
13530TIP3    H140531   2.251   7.072   5.115
13530TIP3    H240532   2.249   7.216   5.164
13531TIP3   OH240533   7.959   3.637   4.373
13531TIP3    H140534   7.867   3.623   4.393
13531TIP3    H240535   7.963   3.726   4.338
13532TIP3   OH240536   0.920   2.852   5.445
13532TIP3    H140537   0.926   2.798   5.366
13532TIP3    H240538   0.992   2.914   5.438
13533TIP3   OH240539   7.317   1.240   1.358
13533TIP3    H140540   7.261   1.303   1.313
13533TIP3    H240541   7.390   1.292   1.391
13534TIP3   OH240542   2.161   6.238   2.708
13534TIP3    H140543   2.201   6.280   2.632
13534TIP3    H240544   2.069   6.261   2.702
13535TIP3   OH240545   5.215   7.604   1.901
13535TIP3    H140546   5.229   7.561   1.985
13535TIP3    H240547   5.288   7.574   1.847
13536TIP3   OH240548   7.364   6.424   3.983
13536TIP3    H140549   7.413   6.355   3.938
13536TIP3    H240550   7.399   6.505   3.948
13537TIP3   OH240551   8.365   2.426   2.331
13537TIP3    H140552   8.454   2.392   2.326
13537TIP3    H240553   8.376   2.517   2.361
13538TIP3   OH240554   7.444   0.919   0.532
13538TIP3    H140555   7.458   0.940   0.625
13538TIP3    H240556   7.530   0.932   0.492
13539TIP3   OH240557   1.842   4.580   4.221
13539TIP3    H140558   1.846   4.505   4.281
13539TIP3    H240559   1.814   4.544   4.138
13540TIP3   OH240560   6.692   2.867   3.368
13540TIP3    H140561   6.634   2.825   3.431
13540TIP3    H240562   6.647   2.948   3.344
13541TIP3   OH240563   2.434   4.033   6.832
13541TIP3    H140564   2.515   4.080   6.852
13541TIP3    H240565   2.447   3.947   6.870
13542TIP3   OH240566   6.849   3.689   4.204
13542TIP3    H140567   6.842   3.638   4.285
13542TIP3    H240568   6.888   3.772   4.232
13543TIP3   OH240569   3.956   6.758   0.917
13543TIP3    H140570   3.941   6.814   0.841
13543TIP3    H240571   3.926   6.671   0.890
13544TIP3   OH240572   2.822   2.078   1.982
13544TIP3    H140573   2.869   2.038   2.056
13544TIP3    H240574   2.767   2.007   1.948
13545TIP3   OH240575   4.848   6.895   3.035
13545TIP3    H140576   4.915   6.894   2.967
13545TIP3    H240577   4.767   6.918   2.989
13546TIP3   OH240578   1.321   0.430   0.643
13546TIP3    H140579   1.314   0.503   0.582
13546TIP3    H240580   1.412   0.399   0.634
13547TIP3   OH240581   7.349   0.161   4.304
13547TIP3    H140582   7.358   0.067   4.315
13547TIP3    H240583   7.416   0.198   4.362
13548TIP3   OH240584   3.875   3.775   0.731
13548TIP3    H140585   3.855   3.772   0.824
13548TIP3    H240586   3.961   3.816   0.726
13549TIP3   OH240587   5.801   6.196   0.896
13549TIP3    H140588   5.784   6.222   0.987
13549TIP3    H240589   5.719   6.159   0.866
13550TIP3   OH240590   7.140   1.407   0.188
13550TIP3    H140591   7.118   1.429   0.097
13550TIP3    H240592   7.195   1.479   0.218
13551TIP3   OH240593   5.631   5.416   4.396
13551TIP3    H140594   5.543   5.401   4.362
13551TIP3    H240595   5.617   5.460   4.480
13552TIP3   OH240596   1.521   4.244   0.287
13552TIP3    H140597   1.564   4.262   0.371
13552TIP3    H240598   1.573   4.174   0.248
13553TIP3   OH240599   1.602   1.286   0.738
13553TIP3    H140600   1.586   1.295   0.644
13553TIP3    H240601   1.548   1.212   0.764
13554TIP3   OH240602   5.427   2.835   1.047
13554TIP3    H140603   5.344   2.795   1.023
13554TIP3    H240604   5.404   2.924   1.074
13555TIP3   OH240605   3.595   0.077   1.924
13555TIP3    H140606   3.665   0.013   1.940
13555TIP3    H240607   3.621   0.153   1.976
13556TIP3   OH240608   3.428   0.060   2.317
13556TIP3    H140609   3.387   0.041   2.233
13556TIP3    H240610   3.497   0.123   2.296
13557TIP3   OH240611   5.830   2.006   6.266
13557TIP3    H140612   5.796   1.938   6.324
13557TIP3    H240613   5.832   2.085   6.319
13558TIP3   OH240614   2.375   3.046   3.108
13558TIP3    H140615   2.395   2.957   3.136
13558TIP3    H240616   2.355   3.038   3.015
13559TIP3   OH240617   7.530   2.127   0.046
13559TIP3    H140618   7.436   2.115   0.031
13559TIP3    H240619   7.550   2.211   0.004
13560TIP3   OH240620   3.114   6.455   2.123
13560TIP3    H140621   3.208   6.474   2.130
13560TIP3    H240622   3.071   6.529   2.165
13561TIP3   OH240623   6.010   2.131   1.847
13561TIP3    H140624   6.002   2.108   1.755
13561TIP3    H240625   6.036   2.050   1.891
13562TIP3   OH240626   3.130   5.175   1.720
13562TIP3    H140627   3.179   5.242   1.767
13562TIP3    H240628   3.149   5.192   1.627
13563TIP3   OH240629   1.593   0.498   6.139
13563TIP3    H140630   1.679   0.460   6.121
13563TIP3    H240631   1.557   0.442   6.208
13564TIP3   OH240632   6.760   4.536   2.715
13564TIP3    H140633   6.784   4.617   2.670
13564TIP3    H240634   6.843   4.494   2.735
13565TIP3   OH240635   3.842   1.822   4.867
13565TIP3    H140636   3.901   1.893   4.843
13565TIP3    H240637   3.774   1.823   4.800
13566TIP3   OH240638   1.786   0.835   1.298
13566TIP3    H140639   1.800   0.747   1.332
13566TIP3    H240640   1.842   0.840   1.221
13567TIP3   OH240641   4.959   4.865   6.263
13567TIP3    H140642   5.015   4.827   6.330
13567TIP3    H240643   5.007   4.851   6.181
13568TIP3   OH240644   3.173   7.044   3.644
13568TIP3    H140645   3.243   6.995   3.602
13568TIP3    H240646   3.123   6.978   3.693
13569TIP3   OH240647   6.722   4.311   5.690
13569TIP3    H140648   6.682   4.361   5.618
13569TIP3    H240649   6.734   4.223   5.654
13570TIP3   OH240650   6.713   4.127   1.048
13570TIP3    H140651   6.759   4.091   1.123
13570TIP3    H240652   6.740   4.071   0.974
13571TIP3   OH240653   0.820   0.270   1.455
13571TIP3    H140654   0.861   0.223   1.527
13571TIP3    H240655   0.771   0.203   1.408
13572TIP3   OH240656   0.260   7.223   5.298
13572TIP3    H140657   0.251   7.230   5.203
13572TIP3    H240658   0.281   7.131   5.313
13573TIP3   OH240659   4.225   5.551   3.754
13573TIP3    H140660   4.175   5.498   3.816
13573TIP3    H240661   4.159   5.594   3.699
13574TIP3   OH240662   2.503   7.218   5.416
13574TIP3    H140663   2.420   7.246   5.379
13574TIP3    H240664   2.508   7.125   5.395
13575TIP3   OH240665   3.464   4.366   5.223
13575TIP3    H140666   3.533   4.303   5.239
13575TIP3    H240667   3.407   4.324   5.158
13576TIP3   OH240668   0.846   1.503   5.241
13576TIP3    H140669   0.878   1.414   5.258
13576TIP3    H240670   0.878   1.523   5.154
13577TIP3   OH240671   6.823   6.173   0.578
13577TIP3    H140672   6.752   6.109   0.567
13577TIP3    H240673   6.798   6.245   0.520
13578TIP3   OH240674   6.777   6.061   2.475
13578TIP3    H140675   6.812   6.024   2.394
13578TIP3    H240676   6.768   5.987   2.535
13579TIP3   OH240677   7.252   0.971   0.339
13579TIP3    H140678   7.251   0.876   0.322
13579TIP3    H240679   7.297   0.979   0.423
13580TIP3   OH240680   5.717   6.216   6.373
13580TIP3    H140681   5.626   6.230   6.346
13580TIP3    H240682   5.760   6.177   6.297
13581TIP3   OH240683   2.699   2.235   4.180
13581TIP3    H140684   2.745   2.308   4.139
13581TIP3    H240685   2.607   2.250   4.160
13582TIP3   OH240686   1.222   2.291   0.954
13582TIP3    H140687   1.208   2.287   1.049
13582TIP3    H240688   1.315   2.310   0.944
13583TIP3   OH240689   2.311   6.033   5.682
13583TIP3    H140690   2.220   6.014   5.660
13583TIP3    H240691   2.318   6.013   5.775
13584TIP3   OH240692   5.922   3.746   1.678
13584TIP3    H140693   5.890   3.797   1.753
13584TIP3    H240694   5.843   3.726   1.627
13585TIP3   OH240695   0.096   3.927   4.845
13585TIP3    H140696   0.171   3.875   4.872
13585TIP3    H240697   0.028   3.863   4.823
13586TIP3   OH240698   2.440   3.589   2.301
13586TIP3    H140699   2.454   3.554   2.213
13586TIP3    H240700   2.526   3.623   2.327
13587TIP3   OH240701   6.756   7.581   1.735
13587TIP3    H140702   6.829   7.568   1.676
13587TIP3    H240703   6.711   7.658   1.701
13588TIP3   OH240704   2.893   0.113   5.050
13588TIP3    H140705   2.806   0.142   5.023
13588TIP3    H240706   2.946   0.118   4.970
13589TIP3   OH240707   4.660   2.265   2.556
13589TIP3    H140708   4.654   2.295   2.647
13589TIP3    H240709   4.713   2.186   2.561
13590TIP3   OH240710   2.629   1.071   0.612
13590TIP3    H140711   2.696   1.066   0.679
13590TIP3    H240712   2.676   1.101   0.534
13591TIP3   OH240713   7.624   3.385   5.053
13591TIP3    H140714   7.690   3.392   4.984
13591TIP3    H240715   7.542   3.406   5.010
13592TIP3   OH240716   8.173   5.252   6.118
13592TIP3    H140717   8.201   5.344   6.118
13592TIP3    H240718   8.245   5.204   6.078
13593TIP3   OH240719   0.484   1.801   6.784
13593TIP3    H140720   0.527   1.821   6.701
13593TIP3    H240721   0.518   1.866   6.845
13594TIP3   OH240722   3.876   6.894   5.031
13594TIP3    H140723   3.898   6.953   5.104
13594TIP3    H240724   3.893   6.946   4.953
13595TIP3   OH240725   0.611   6.361   3.635
13595TIP3    H140726   0.632   6.388   3.545
13595TIP3    H240727   0.671   6.289   3.653
13596TIP3   OH240728   2.033   7.121   4.382
13596TIP3    H140729   2.097   7.178   4.338
13596TIP3    H240730   2.040   7.038   4.336
13597TIP3   OH240731   3.695   3.937   4.973
13597TIP3    H140732   3.677   3.922   5.066
13597TIP3    H240733   3.609   3.957   4.936
13598TIP3   OH240734   8.297   1.295   1.013
13598TIP3    H140735   8.335   1.207   1.010
13598TIP3    H240736   8.332   1.333   1.094
13599TIP3   OH240737   2.767   6.905   2.313
13599TIP3    H140738   2.682   6.946   2.326
13599TIP3    H240739   2.781   6.909   2.219
13600TIP3   OH240740   4.537   4.951   6.281
13600TIP3    H140741   4.542   5.047   6.283
13600TIP3    H240742   4.545   4.928   6.188
13601TIP3   OH240743   3.455   3.172   4.787
13601TIP3    H140744   3.478   3.104   4.851
13601TIP3    H240745   3.538   3.216   4.768
13602TIP3   OH240746   2.503   4.969   6.065
13602TIP3    H140747   2.426   4.970   6.122
13602TIP3    H240748   2.555   4.894   6.096
13603TIP3   OH240749   4.081   7.241   4.688
13603TIP3    H140750   4.154   7.178   4.683
13603TIP3    H240751   4.121   7.325   4.667
13604TIP3   OH240752   6.686   7.033   4.344
13604TIP3    H140753   6.746   6.962   4.366
13604TIP3    H240754   6.741   7.111   4.341
13605TIP3   OH240755   7.189   0.914   2.078
13605TIP3    H140756   7.245   0.851   2.123
13605TIP3    H240757   7.242   0.946   2.005
13606TIP3   OH240758   5.264   5.398   4.874
13606TIP3    H140759   5.218   5.475   4.906
13606TIP3    H240760   5.356   5.425   4.867
13607TIP3   OH240761   0.881   6.808   4.826
13607TIP3    H140762   0.842   6.725   4.799
13607TIP3    H240763   0.904   6.795   4.918
13608TIP3   OH240764   0.871   2.744   5.174
13608TIP3    H140765   0.810   2.699   5.115
13608TIP3    H240766   0.950   2.756   5.121
13609TIP3   OH240767   0.705   3.435   1.754
13609TIP3    H140768   0.774   3.449   1.819
13609TIP3    H240769   0.681   3.523   1.725
13610TIP3   OH240770   5.244   3.301   0.280
13610TIP3    H140771   5.168   3.244   0.276
13610TIP3    H240772   5.210   3.386   0.306
13611TIP3   OH240773   3.520   3.082   6.050
13611TIP3    H140774   3.473   3.056   6.129
13611TIP3    H240775   3.612   3.083   6.077
13612TIP3   OH240776   0.799   4.317   0.284
13612TIP3    H140777   0.878   4.272   0.313
13612TIP3    H240778   0.819   4.410   0.292
13613TIP3   OH240779   1.369   4.588   3.059
13613TIP3    H140780   1.404   4.662   3.009
13613TIP3    H240781   1.275   4.588   3.040
13614TIP3   OH240782   3.009   1.036   3.110
13614TIP3    H140783   2.937   1.071   3.161
13614TIP3    H240784   3.088   1.071   3.152
13615TIP3   OH240785   5.328   7.529   2.399
13615TIP3    H140786   5.285   7.593   2.341
13615TIP3    H240787   5.421   7.541   2.383
13616TIP3   OH240788   7.252   1.017   1.538
13616TIP3    H140789   7.163   1.017   1.573
13616TIP3    H240790   7.261   1.101   1.494
13617TIP3   OH240791   1.274   6.390  -0.012
13617TIP3    H140792   1.189   6.431   0.004
13617TIP3    H240793   1.267   6.305   0.032
13618TIP3   OH240794   1.710   2.621   5.934
13618TIP3    H140795   1.645   2.552   5.949
13618TIP3    H240796   1.664   2.686   5.882
13619TIP3   OH240797   3.795   5.769   0.097
13619TIP3    H140798   3.735   5.800   0.164
13619TIP3    H240799   3.873   5.740   0.145
13620TIP3   OH240800   4.088   2.311   3.703
13620TIP3    H140801   4.145   2.324   3.627
13620TIP3    H240802   4.135   2.249   3.759
13621TIP3   OH240803   3.528   4.248   1.420
13621TIP3    H140804   3.461   4.184   1.394
13621TIP3    H240805   3.577   4.205   1.489
13622TIP3   OH240806   1.037   4.401   5.293
13622TIP3    H140807   1.011   4.460   5.222
13622TIP3    H240808   0.960   4.397   5.350
13623TIP3   OH240809   8.172   5.067   1.224
13623TIP3    H140810   8.242   5.025   1.274
13623TIP3    H240811   8.191   5.160   1.230
13624TIP3   OH240812   4.531   5.147   5.605
13624TIP3    H140813   4.616   5.107   5.585
13624TIP3    H240814   4.474   5.120   5.534
13625TIP3   OH240815   4.365   2.647   1.439
13625TIP3    H140816   4.316   2.622   1.361
13625TIP3    H240817   4.310   2.714   1.481
13626TIP3   OH240818   8.261   0.009   0.386
13626TIP3    H140819   8.234   0.079   0.445
13626TIP3    H240820   8.212  -0.068   0.415
13627TIP3   OH240821   5.917   6.171   3.982
13627TIP3    H140822   5.850   6.113   3.947
13627TIP3    H240823   5.982   6.113   4.021
13628TIP3   OH240824   0.542   7.649   3.947
13628TIP3    H140825   0.457   7.660   3.990
13628TIP3    H240826   0.596   7.720   3.981
13629TIP3   OH240827   2.721   5.050   3.497
13629TIP3    H140828   2.721   4.954   3.490
13629TIP3    H240829   2.779   5.069   3.570
13630TIP3   OH240830   7.462   2.980   2.144
13630TIP3    H140831   7.402   2.906   2.152
13630TIP3    H240832   7.545   2.941   2.119
13631TIP3   OH240833   0.348   6.259   0.398
13631TIP3    H140834   0.410   6.327   0.425
13631TIP3    H240835   0.310   6.227   0.480
13632TIP3   OH240836   0.601   6.205   2.965
13632TIP3    H140837   0.508   6.191   2.979
13632TIP3    H240838   0.606   6.257   2.885
13633TIP3   OH240839   7.928   6.112   4.290
13633TIP3    H140840   7.882   6.092   4.209
13633TIP3    H240841   8.021   6.100   4.268
13634TIP3   OH240842   0.720   0.424   0.237
13634TIP3    H140843   0.656   0.490   0.265
13634TIP3    H240844   0.668   0.360   0.189
13635TIP3   OH240845   0.685   6.301   5.317
13635TIP3    H140846   0.761   6.358   5.326
13635TIP3    H240847   0.612   6.361   5.302
13636TIP3   OH240848   8.271   3.258   6.665
13636TIP3    H140849   8.204   3.207   6.620
13636TIP3    H240850   8.248   3.349   6.647
13637TIP3   OH240851   6.837   6.240   5.176
13637TIP3    H140852   6.854   6.270   5.265
13637TIP3    H240853   6.750   6.201   5.180
13638TIP3   OH240854   0.276   0.326   3.632
13638TIP3    H140855   0.288   0.388   3.704
13638TIP3    H240856   0.188   0.290   3.646
13639TIP3   OH240857   1.130   7.813   6.642
13639TIP3    H140858   1.222   7.815   6.614
13639TIP3    H240859   1.111   7.904   6.665
13640TIP3   OH240860   0.385   5.068   4.626
13640TIP3    H140861   0.460   5.049   4.683
13640TIP3    H240862   0.332   5.129   4.676
13641TIP3   OH240863   4.750   6.634   3.753
13641TIP3    H140864   4.671   6.653   3.803
13641TIP3    H240865   4.754   6.538   3.751
13642TIP3   OH240866   3.952   1.602   3.380
13642TIP3    H140867   4.032   1.655   3.380
13642TIP3    H240868   3.886   1.658   3.420
13643TIP3   OH240869   3.723   6.607   1.133
13643TIP3    H140870   3.660   6.561   1.189
13643TIP3    H240871   3.760   6.538   1.078
13644TIP3   OH240872   7.870   2.571   4.706
13644TIP3    H140873   7.801   2.599   4.645
13644TIP3    H240874   7.904   2.652   4.742
13645TIP3   OH240875   6.736   1.313   3.578
13645TIP3    H140876   6.762   1.331   3.488
13645TIP3    H240877   6.818   1.316   3.628
13646TIP3   OH240878   5.189   4.282   6.351
13646TIP3    H140879   5.113   4.331   6.383
13646TIP3    H240880   5.184   4.198   6.398
13647TIP3   OH240881   4.554   6.078   0.051
13647TIP3    H140882   4.600   6.065  -0.032
13647TIP3    H240883   4.614   6.045   0.118
13648TIP3   OH240884   5.407   6.211   3.175
13648TIP3    H140885   5.397   6.117   3.165
13648TIP3    H240886   5.501   6.225   3.183
13649TIP3   OH240887   5.491   2.476   1.319
13649TIP3    H140888   5.548   2.442   1.251
13649TIP3    H240889   5.546   2.480   1.397
13650TIP3   OH240890   5.356   4.223   1.177
13650TIP3    H140891   5.365   4.315   1.204
13650TIP3    H240892   5.360   4.174   1.259
13651TIP3   OH240893   7.873   7.855   1.561
13651TIP3    H140894   7.942   7.915   1.533
13651TIP3    H240895   7.793   7.890   1.522
13652TIP3   OH240896   4.163   4.093   5.054
13652TIP3    H140897   4.150   4.039   4.976
13652TIP3    H240898   4.169   4.030   5.126
13653TIP3   OH240899   1.076   0.794   0.326
13653TIP3    H140900   1.095   0.887   0.319
13653TIP3    H240901   1.036   0.770   0.242
13654TIP3   OH240902   2.362   0.457   1.491
13654TIP3    H140903   2.339   0.538   1.536
13654TIP3    H240904   2.395   0.484   1.406
13655TIP3   OH240905   2.340   6.783   0.116
13655TIP3    H140906   2.342   6.852   0.182
13655TIP3    H240907   2.339   6.701   0.166
13656TIP3   OH240908   6.511   1.383   4.085
13656TIP3    H140909   6.531   1.307   4.030
13656TIP3    H240910   6.432   1.357   4.133
13657TIP3   OH240911   4.819   0.890   1.411
13657TIP3    H140912   4.759   0.839   1.465
13657TIP3    H240913   4.793   0.872   1.321
13658TIP3   OH240914   6.155   2.795   4.564
13658TIP3    H140915   6.163   2.820   4.472
13658TIP3    H240916   6.068   2.825   4.590
13659TIP3   OH240917   7.300   5.573   4.775
13659TIP3    H140918   7.290   5.505   4.709
13659TIP3    H240919   7.361   5.637   4.736
13660TIP3   OH240920   5.903   7.236   3.546
13660TIP3    H140921   5.866   7.179   3.614
13660TIP3    H240922   5.952   7.176   3.489
13661TIP3   OH240923   8.290   1.370   4.061
13661TIP3    H140924   8.220   1.371   3.995
13661TIP3    H240925   8.245   1.391   4.143
13662TIP3   OH240926   8.110   4.348   4.504
13662TIP3    H140927   8.099   4.293   4.582
13662TIP3    H240928   8.094   4.437   4.535
13663TIP3   OH240929   2.130   0.358   2.474
13663TIP3    H140930   2.182   0.400   2.542
13663TIP3    H240931   2.099   0.431   2.419
13664TIP3   OH240932   7.436   0.673   0.657
13664TIP3    H140933   7.455   0.713   0.572
13664TIP3    H240934   7.522   0.655   0.695
13665TIP3   OH240935   5.274   2.296   4.915
13665TIP3    H140936   5.185   2.306   4.946
13665TIP3    H240937   5.265   2.272   4.823
13666TIP3   OH240938   2.613   7.147   3.686
13666TIP3    H140939   2.694   7.191   3.711
13666TIP3    H240940   2.640   7.082   3.621
13667TIP3   OH240941   5.651   4.872   0.291
13667TIP3    H140942   5.660   4.866   0.196
13667TIP3    H240943   5.735   4.906   0.322
13668TIP3   OH240944   3.046   4.946   1.832
13668TIP3    H140945   2.957   4.974   1.856
13668TIP3    H240946   3.080   5.018   1.779
13669TIP3   OH240947   3.138   2.200   2.142
13669TIP3    H140948   3.146   2.295   2.147
13669TIP3    H240949   3.214   2.172   2.091
13670TIP3   OH240950   0.528   6.109   1.448
13670TIP3    H140951   0.526   6.014   1.460
13670TIP3    H240952   0.619   6.128   1.424
13671TIP3   OH240953   1.311   4.613   1.442
13671TIP3    H140954   1.268   4.560   1.510
13671TIP3    H240955   1.307   4.557   1.364
13672TIP3   OH240956   4.690   3.011   0.222
13672TIP3    H140957   4.713   3.041   0.134
13672TIP3    H240958   4.601   3.043   0.236
13673TIP3   OH240959   6.758   2.245   4.674
13673TIP3    H140960   6.794   2.176   4.618
13673TIP3    H240961   6.683   2.279   4.625
13674TIP3   OH240962   6.641   6.514   0.665
13674TIP3    H140963   6.666   6.601   0.634
13674TIP3    H240964   6.545   6.514   0.661
13675TIP3   OH240965   0.262   0.581   0.843
13675TIP3    H140966   0.335   0.521   0.832
13675TIP3    H240967   0.282   0.655   0.786
13676TIP3   OH240968   1.071   3.691   5.592
13676TIP3    H140969   1.025   3.706   5.675
13676TIP3    H240970   1.163   3.706   5.612
13677TIP3   OH240971   5.602   1.992   4.270
13677TIP3    H140972   5.534   1.929   4.246
13677TIP3    H240973   5.635   2.024   4.186
13678TIP3   OH240974   5.259   7.350   5.656
13678TIP3    H140975   5.236   7.403   5.732
13678TIP3    H240976   5.189   7.367   5.593
13679TIP3   OH240977   4.339   6.811   2.024
13679TIP3    H140978   4.416   6.768   1.987
13679TIP3    H240979   4.375   6.882   2.078
13680TIP3   OH240980   1.073   3.778   2.894
13680TIP3    H140981   1.010   3.727   2.945
13680TIP3    H240982   1.131   3.818   2.959
13681TIP3   OH240983   4.166   5.670   0.082
13681TIP3    H140984   4.245   5.684   0.029
13681TIP3    H240985   4.098   5.646   0.019
13682TIP3   OH240986   5.039   6.534   0.552
13682TIP3    H140987   5.100   6.591   0.597
13682TIP3    H240988   4.987   6.494   0.622
13683TIP3   OH240989   7.258   2.380   6.175
13683TIP3    H140990   7.164   2.386   6.159
13683TIP3    H240991   7.268   2.309   6.239
13684TIP3   OH240992   1.422   5.230   4.731
13684TIP3    H140993   1.454   5.263   4.815
13684TIP3    H240994   1.469   5.283   4.666
13685TIP3   OH240995   6.031   0.500   0.899
13685TIP3    H140996   6.018   0.440   0.973
13685TIP3    H240997   5.977   0.576   0.919
13686TIP3   OH240998   3.858   0.887   6.693
13686TIP3    H140999   3.882   0.796   6.711
13686TIP3    H241000   3.770   0.882   6.656
13687TIP3   OH241001   0.083   2.706   6.574
13687TIP3    H141002   0.163   2.653   6.567
13687TIP3    H241003   0.095   2.757   6.654
13688TIP3   OH241004   3.785   7.659   4.869
13688TIP3    H141005   3.707   7.706   4.839
13688TIP3    H241006   3.790   7.679   4.962
13689TIP3   OH241007   1.000   7.327   0.083
13689TIP3    H141008   1.041   7.412   0.067
13689TIP3    H241009   1.032   7.271   0.012
13690TIP3   OH241010  -0.012   6.058   1.295
13690TIP3    H141011   0.018   6.001   1.366
13690TIP3    H241012   0.069   6.090   1.255
13691TIP3   OH241013   0.800   5.839   6.581
13691TIP3    H141014   0.851   5.863   6.504
13691TIP3    H241015   0.828   5.900   6.649
13692TIP3   OH241016   1.936   0.996   3.606
13692TIP3    H141017   1.865   1.060   3.603
13692TIP3    H241018   1.893   0.915   3.633
13693TIP3   OH241019   3.272   5.235   4.194
13693TIP3    H141020   3.346   5.195   4.148
13693TIP3    H241021   3.312   5.282   4.267
13694TIP3   OH241022   5.753   4.178   3.347
13694TIP3    H141023   5.731   4.215   3.432
13694TIP3    H241024   5.740   4.084   3.357
13695TIP3   OH241025   5.361   3.998   1.895
13695TIP3    H141026   5.314   4.006   1.978
13695TIP3    H241027   5.399   4.084   1.880
13696TIP3   OH241028   1.267   4.290   5.053
13696TIP3    H141029   1.195   4.310   4.994
13696TIP3    H241030   1.346   4.307   5.002
13697TIP3   OH241031   2.097   4.949   3.341
13697TIP3    H141032   2.129   4.991   3.421
13697TIP3    H241033   2.170   4.953   3.280
13698TIP3   OH241034   5.482   0.710   5.383
13698TIP3    H141035   5.394   0.735   5.352
13698TIP3    H241036   5.537   0.717   5.305
13699TIP3   OH241037   4.943   0.886   1.983
13699TIP3    H141038   5.014   0.850   1.930
13699TIP3    H241039   4.986   0.930   2.056
13700TIP3   OH241040   2.467   3.411   5.379
13700TIP3    H141041   2.380   3.371   5.375
13700TIP3    H241042   2.485   3.420   5.472
13701TIP3   OH241043   0.107   5.407   3.230
13701TIP3    H141044   0.092   5.391   3.323
13701TIP3    H241045   0.069   5.330   3.186
13702TIP3   OH241046   6.213   3.023   5.643
13702TIP3    H141047   6.172   3.042   5.559
13702TIP3    H241048   6.224   3.108   5.684
13703TIP3   OH241049   2.975   3.385   5.146
13703TIP3    H141050   2.901   3.430   5.186
13703TIP3    H241051   2.968   3.295   5.178
13704TIP3   OH241052   5.270   7.869   5.822
13704TIP3    H141053   5.279   7.804   5.892
13704TIP3    H241054   5.275   7.954   5.867
13705TIP3   OH241055   7.262   4.810   6.552
13705TIP3    H141056   7.309   4.768   6.481
13705TIP3    H241057   7.172   4.777   6.544
13706TIP3   OH241058   1.532   1.531   3.198
13706TIP3    H141059   1.562   1.571   3.116
13706TIP3    H241060   1.439   1.553   3.202
13707TIP3   OH241061   0.897   0.608   3.120
13707TIP3    H141062   0.954   0.684   3.113
13707TIP3    H241063   0.935   0.544   3.060
13708TIP3   OH241064   7.382   1.324   4.881
13708TIP3    H141065   7.360   1.243   4.926
13708TIP3    H241066   7.333   1.321   4.799
13709TIP3   OH241067   5.290   0.072   1.023
13709TIP3    H141068   5.379   0.106   1.023
13709TIP3    H241069   5.255   0.093   0.936
13710TIP3   OH241070   8.271   3.971   6.122
13710TIP3    H141071   8.322   4.008   6.194
13710TIP3    H241072   8.185   3.954   6.160
13711TIP3   OH241073   7.670   3.468   6.171
13711TIP3    H141074   7.639   3.381   6.148
13711TIP3    H241075   7.649   3.522   6.095
13712TIP3   OH241076   6.099   3.726   0.738
13712TIP3    H141077   6.079   3.809   0.780
13712TIP3    H241078   6.073   3.738   0.647
13713TIP3   OH241079   4.567   4.948   4.062
13713TIP3    H141080   4.572   4.992   3.977
13713TIP3    H241081   4.578   4.856   4.041
13714TIP3   OH241082   1.120   5.415   6.439
13714TIP3    H141083   1.158   5.499   6.466
13714TIP3    H241084   1.029   5.419   6.468
13715TIP3   OH241085   4.782   4.128   6.848
13715TIP3    H141086   4.847   4.184   6.891
13715TIP3    H241087   4.698   4.163   6.878
13716TIP3   OH241088   5.186   3.739   0.320
13716TIP3    H141089   5.189   3.816   0.263
13716TIP3    H241090   5.275   3.731   0.354
13717TIP3   OH241091   5.435   1.618   5.420
13717TIP3    H141092   5.521   1.659   5.436
13717TIP3    H241093   5.455   1.526   5.404
13718TIP3   OH241094   5.195   4.468   4.085
13718TIP3    H141095   5.246   4.421   4.019
13718TIP3    H241096   5.144   4.400   4.130
13719TIP3   OH241097   6.111   6.552   1.592
13719TIP3    H141098   6.105   6.642   1.562
13719TIP3    H241099   6.127   6.501   1.513
13720TIP3   OH241100   5.935   5.740   1.983
13720TIP3    H141101   5.996   5.791   1.930
13720TIP3    H241102   5.864   5.717   1.923
13721TIP3   OH241103   7.018   3.827   2.731
13721TIP3    H141104   6.968   3.787   2.802
13721TIP3    H241105   7.080   3.760   2.704
13722TIP3   OH241106   4.101   2.942   5.683
13722TIP3    H141107   4.018   2.966   5.723
13722TIP3    H241108   4.091   2.849   5.661
13723TIP3   OH241109   0.254   1.599   6.871
13723TIP3    H141110   0.326   1.655   6.900
13723TIP3    H241111   0.230   1.634   6.785
13724TIP3   OH241112   1.535   3.060   6.422
13724TIP3    H141113   1.524   2.965   6.428
13724TIP3    H241114   1.570   3.085   6.507
13725TIP3   OH241115   8.365   0.726   3.541
13725TIP3    H141116   8.312   0.732   3.461
13725TIP3    H241117   8.399   0.814   3.554
13726TIP3   OH241118   1.535   7.054   1.565
13726TIP3    H141119   1.521   7.147   1.583
13726TIP3    H241120   1.464   7.010   1.611
13727TIP3   OH241121   4.985   2.325   0.017
13727TIP3    H141122   5.041   2.250  -0.001
13727TIP3    H241123   4.974   2.326   0.112
13728TIP3   OH241124   1.217   5.324   3.098
13728TIP3    H141125   1.233   5.295   3.188
13728TIP3    H241126   1.301   5.312   3.054
13729TIP3   OH241127   6.011   0.102   1.155
13729TIP3    H141128   6.044   0.042   1.222
13729TIP3    H241129   6.015   0.051   1.074
13730TIP3   OH241130   4.629   7.648   0.957
13730TIP3    H141131   4.606   7.572   1.010
13730TIP3    H241132   4.549   7.701   0.955
13731TIP3   OH241133   1.788   5.800   6.280
13731TIP3    H141134   1.737   5.778   6.203
13731TIP3    H241135   1.848   5.726   6.292
13732TIP3   OH241136   5.433   1.695   0.193
13732TIP3    H141137   5.365   1.705   0.259
13732TIP3    H241138   5.487   1.623   0.224
13733TIP3   OH241139   1.347   4.303   4.305
13733TIP3    H141140   1.360   4.396   4.285
13733TIP3    H241141   1.355   4.259   4.221
13734TIP3   OH241142   2.957   5.148   4.720
13734TIP3    H141143   2.971   5.163   4.627
13734TIP3    H241144   2.929   5.233   4.755
13735TIP3   OH241145   7.378   6.668   0.722
13735TIP3    H141146   7.331   6.591   0.754
13735TIP3    H241147   7.470   6.650   0.741
13736TIP3   OH241148   7.667   4.826   4.249
13736TIP3    H141149   7.605   4.889   4.287
13736TIP3    H241150   7.623   4.741   4.257
13737TIP3   OH241151   0.982   0.217   5.096
13737TIP3    H141152   0.940   0.301   5.113
13737TIP3    H241153   0.910   0.158   5.072
13738TIP3   OH241154   1.061   1.276   1.707
13738TIP3    H141155   1.156   1.267   1.706
13738TIP3    H241156   1.042   1.313   1.794
13739TIP3   OH241157   2.975   5.117   6.016
13739TIP3    H141158   2.942   5.158   5.936
13739TIP3    H241159   3.040   5.054   5.986
13740TIP3   OH241160   2.159   3.562   4.107
13740TIP3    H141161   2.172   3.474   4.143
13740TIP3    H241162   2.243   3.606   4.121
13741TIP3   OH241163   0.164   3.683   1.672
13741TIP3    H141164   0.252   3.666   1.703
13741TIP3    H241165   0.138   3.602   1.628
13742TIP3   OH241166   6.774   2.728   6.339
13742TIP3    H141167   6.714   2.736   6.414
13742TIP3    H241168   6.717   2.714   6.264
13743TIP3   OH241169   1.535   3.030   4.824
13743TIP3    H141170   1.614   2.979   4.844
13743TIP3    H241171   1.510   3.068   4.908
13744TIP3   OH241172   1.697   7.664   0.330
13744TIP3    H141173   1.780   7.628   0.300
13744TIP3    H241174   1.708   7.759   0.321
13745TIP3   OH241175   0.259   5.154   4.093
13745TIP3    H141176   0.183   5.163   4.036
13745TIP3    H241177   0.251   5.066   4.130
13746TIP3   OH241178   4.204   3.974   2.110
13746TIP3    H141179   4.227   3.968   2.203
13746TIP3    H241180   4.164   3.890   2.090
13747TIP3   OH241181   2.280   4.559   2.100
13747TIP3    H141182   2.302   4.589   2.189
13747TIP3    H241183   2.196   4.514   2.110
13748TIP3   OH241184   2.191   5.957   0.975
13748TIP3    H141185   2.188   5.862   0.968
13748TIP3    H241186   2.162   5.975   1.065
13749TIP3   OH241187   5.710   5.248   1.435
13749TIP3    H141188   5.689   5.187   1.505
13749TIP3    H241189   5.697   5.198   1.355
13750TIP3   OH241190   8.357   5.189   3.122
13750TIP3    H141191   8.337   5.139   3.043
13750TIP3    H241192   8.373   5.123   3.190
13751TIP3   OH241193   6.994   4.416   2.525
13751TIP3    H141194   7.007   4.451   2.438
13751TIP3    H241195   7.063   4.350   2.535
13752TIP3   OH241196   1.308   6.651   6.569
13752TIP3    H141197   1.218   6.668   6.540
13752TIP3    H241198   1.315   6.556   6.569
13753TIP3   OH241199   0.377   0.509   5.302
13753TIP3    H141200   0.372   0.603   5.316
13753TIP3    H241201   0.455   0.481   5.351
13754TIP3   OH241202   4.843   1.800   3.893
13754TIP3    H141203   4.774   1.859   3.925
13754TIP3    H241204   4.919   1.820   3.949
13755TIP3   OH241205   6.883   4.258   5.925
13755TIP3    H141206   6.830   4.277   5.847
13755TIP3    H241207   6.834   4.297   5.997
13756TIP3   OH241208   2.230   1.719   1.101
13756TIP3    H141209   2.224   1.730   1.196
13756TIP3    H241210   2.210   1.626   1.086
13757TIP3   OH241211   7.978   5.444   5.832
13757TIP3    H141212   7.928   5.376   5.787
13757TIP3    H241213   8.054   5.459   5.776
13758TIP3   OH241214   2.535   0.127   4.439
13758TIP3    H141215   2.609   0.145   4.496
13758TIP3    H241216   2.473   0.079   4.494
13759TIP3   OH241217   2.457   7.853   4.536
13759TIP3    H141218   2.522   7.790   4.567
13759TIP3    H241219   2.506   7.913   4.481
13760TIP3   OH241220   3.642   4.968   3.490
13760TIP3    H141221   3.565   4.922   3.523
13760TIP3    H241222   3.715   4.910   3.509
13761TIP3   OH241223   6.442   0.431   3.163
13761TIP3    H141224   6.456   0.339   3.139
13761TIP3    H241225   6.427   0.476   3.080
13762TIP3   OH241226   3.779   4.344   5.504
13762TIP3    H141227   3.766   4.367   5.596
13762TIP3    H241228   3.778   4.249   5.502
13763TIP3   OH241229   5.002   4.189   4.047
13763TIP3    H141230   4.973   4.280   4.043
13763TIP3    H241231   5.018   4.172   4.139
13764TIP3   OH241232   3.641   2.890   4.734
13764TIP3    H141233   3.731   2.908   4.761
13764TIP3    H241234   3.647   2.877   4.639
13765TIP3   OH241235   1.574   6.295   0.725
13765TIP3    H141236   1.540   6.209   0.750
13765TIP3    H241237   1.668   6.289   0.739
13766TIP3   OH241238   5.668   1.477   2.187
13766TIP3    H141239   5.639   1.391   2.218
13766TIP3    H241240   5.591   1.532   2.197
13767TIP3   OH241241   4.852   6.363   6.834
13767TIP3    H141242   4.758   6.371   6.817
13767TIP3    H241243   4.883   6.302   6.767
13768TIP3   OH241244   6.165   1.126   0.402
13768TIP3    H141245   6.170   1.096   0.493
13768TIP3    H241246   6.249   1.169   0.386
13769TIP3   OH241247   1.539   1.264   0.112
13769TIP3    H141248   1.530   1.212   0.032
13769TIP3    H241249   1.516   1.204   0.183
13770TIP3   OH241250   0.420   4.008   4.700
13770TIP3    H141251   0.337   3.984   4.658
13770TIP3    H241252   0.395   4.060   4.776
13771TIP3   OH241253   7.408   0.740   0.155
13771TIP3    H141254   7.416   0.669   0.219
13771TIP3    H241255   7.466   0.809   0.188
13772TIP3   OH241256   4.510   5.531   2.101
13772TIP3    H141257   4.593   5.579   2.101
13772TIP3    H241258   4.531   5.449   2.144
13773TIP3   OH241259   6.413   3.272   6.361
13773TIP3    H141260   6.454   3.188   6.342
13773TIP3    H241261   6.451   3.298   6.445
13774TIP3   OH241262   3.491   1.234   2.105
13774TIP3    H141263   3.504   1.257   2.197
13774TIP3    H241264   3.434   1.157   2.107
13775TIP3   OH241265   8.415   5.389   0.723
13775TIP3    H141266   8.337   5.365   0.774
13775TIP3    H241267   8.412   5.485   0.720
13776TIP3   OH241268   0.504   6.917   0.143
13776TIP3    H141269   0.442   6.860   0.188
13776TIP3    H241270   0.471   7.006   0.159
13777TIP3   OH241271   0.473   1.795   5.418
13777TIP3    H141272   0.395   1.781   5.472
13777TIP3    H241273   0.498   1.886   5.436
13778TIP3   OH241274   3.126   1.012   0.223
13778TIP3    H141275   3.108   1.034   0.132
13778TIP3    H241276   3.151   0.919   0.220
13779TIP3   OH241277   0.903   1.125   2.618
13779TIP3    H141278   0.939   1.102   2.532
13779TIP3    H241279   0.891   1.041   2.662
13780TIP3   OH241280   4.936   0.569   1.262
13780TIP3    H141281   4.945   0.488   1.211
13780TIP3    H241282   4.985   0.552   1.343
13781TIP3   OH241283   2.934   0.875   3.485
13781TIP3    H141284   3.008   0.821   3.455
13781TIP3    H241285   2.919   0.936   3.413
13782TIP3   OH241286   4.108   2.136   1.584
13782TIP3    H141287   4.063   2.073   1.527
13782TIP3    H241288   4.058   2.134   1.666
13783TIP3   OH241289   6.827   5.775   2.598
13783TIP3    H141290   6.754   5.778   2.661
13783TIP3    H241291   6.808   5.699   2.544
13784TIP3   OH241292   6.029   4.486   1.032
13784TIP3    H141293   5.991   4.505   0.947
13784TIP3    H241294   6.122   4.472   1.015
13785TIP3   OH241295   2.043   4.965   2.423
13785TIP3    H141296   1.959   4.937   2.388
13785TIP3    H241297   2.105   4.951   2.352
13786TIP3   OH241298   4.866   7.456   3.084
13786TIP3    H141299   4.839   7.531   3.136
13786TIP3    H241300   4.811   7.383   3.115
13787TIP3   OH241301   6.410   1.010   2.842
13787TIP3    H141302   6.469   0.953   2.792
13787TIP3    H241303   6.355   0.950   2.892
13788TIP3   OH241304   0.909   5.391   5.461
13788TIP3    H141305   0.962   5.311   5.455
13788TIP3    H241306   0.968   5.461   5.434
13789TIP3   OH241307   1.458   1.237   2.358
13789TIP3    H141308   1.453   1.313   2.300
13789TIP3    H241309   1.493   1.167   2.304
13790TIP3   OH241310   8.083   1.543   5.641
13790TIP3    H141311   8.176   1.547   5.662
13790TIP3    H241312   8.060   1.631   5.612
13791TIP3   OH241313   4.032   6.639   0.125
13791TIP3    H141314   4.083   6.703   0.174
13791TIP3    H241315   4.058   6.651   0.034
13792TIP3   OH241316   6.247   6.350   5.064
13792TIP3    H141317   6.241   6.256   5.084
13792TIP3    H241318   6.176   6.390   5.115
13793TIP3   OH241319   1.816   0.802   6.019
13793TIP3    H141320   1.778   0.845   5.943
13793TIP3    H241321   1.894   0.757   5.986
13794TIP3   OH241322   5.417   6.535   3.619
13794TIP3    H141323   5.394   6.526   3.527
13794TIP3    H241324   5.356   6.478   3.665
13795TIP3   OH241325   1.076   0.741   3.454
13795TIP3    H141326   1.093   0.647   3.461
13795TIP3    H241327   1.129   0.780   3.523
13796TIP3   OH241328   2.286   3.934   4.301
13796TIP3    H141329   2.339   4.013   4.307
13796TIP3    H241330   2.344   3.863   4.328
13797TIP3   OH241331   2.369   1.167   6.382
13797TIP3    H141332   2.455   1.194   6.415
13797TIP3    H241333   2.322   1.137   6.459
13798TIP3   OH241334   3.525   4.820   1.056
13798TIP3    H141335   3.479   4.766   1.120
13798TIP3    H241336   3.595   4.862   1.106
13799TIP3   OH241337   5.350   6.933   4.098
13799TIP3    H141338   5.360   6.996   4.170
13799TIP3    H241339   5.256   6.920   4.090
13800TIP3   OH241340   7.455   4.230   3.967
13800TIP3    H141341   7.467   4.138   3.945
13800TIP3    H241342   7.544   4.263   3.981
13801TIP3   OH241343   1.758   3.272   2.085
13801TIP3    H141344   1.794   3.347   2.037
13801TIP3    H241345   1.835   3.222   2.111
13802TIP3   OH241346   4.614   6.464   4.526
13802TIP3    H141347   4.559   6.398   4.485
13802TIP3    H241348   4.596   6.544   4.477
13803TIP3   OH241349   1.324   6.959   1.710
13803TIP3    H141350   1.269   6.880   1.710
13803TIP3    H241351   1.264   7.030   1.732
13804TIP3   OH241352   2.421   4.113   3.127
13804TIP3    H141353   2.487   4.053   3.092
13804TIP3    H241354   2.346   4.057   3.147
13805TIP3   OH241355   0.880   0.563   5.755
13805TIP3    H141356   0.955   0.623   5.754
13805TIP3    H241357   0.808   0.615   5.793
13806TIP3   OH241358   5.247   2.382   2.376
13806TIP3    H141359   5.174   2.376   2.315
13806TIP3    H241360   5.206   2.388   2.462
13807TIP3   OH241361   4.076   3.599   5.624
13807TIP3    H141362   3.988   3.575   5.594
13807TIP3    H241363   4.124   3.617   5.543
13808TIP3   OH241364   0.173   5.720   2.927
13808TIP3    H141365   0.124   5.646   2.890
13808TIP3    H241366   0.135   5.732   3.014
13809TIP3   OH241367   3.660   2.826   2.598
13809TIP3    H141368   3.666   2.919   2.620
13809TIP3    H241369   3.647   2.824   2.504
13810TIP3   OH241370   0.808   7.588   3.564
13810TIP3    H141371   0.748   7.662   3.581
13810TIP3    H241372   0.750   7.513   3.554
13811TIP3   OH241373   3.435   6.910   3.549
13811TIP3    H141374   3.426   6.943   3.460
13811TIP3    H241375   3.485   6.829   3.539
13812TIP3   OH241376   5.819   5.728   1.595
13812TIP3    H141377   5.766   5.799   1.559
13812TIP3    H241378   5.864   5.691   1.519
13813TIP3   OH241379   7.218   2.649   2.483
13813TIP3    H141380   7.187   2.676   2.570
13813TIP3    H241381   7.299   2.697   2.470
13814TIP3   OH241382   4.144   5.142   3.161
13814TIP3    H141383   4.121   5.051   3.183
13814TIP3    H241384   4.086   5.195   3.216
13815TIP3   OH241385   4.793   3.890   1.308
13815TIP3    H141386   4.765   3.979   1.329
13815TIP3    H241387   4.811   3.849   1.392
13816TIP3   OH241388   8.072   7.267   6.525
13816TIP3    H141389   7.980   7.276   6.548
13816TIP3    H241390   8.072   7.210   6.448
13817TIP3   OH241391   0.706   1.211   2.339
13817TIP3    H141392   0.704   1.118   2.314
13817TIP3    H241393   0.695   1.209   2.435
13818TIP3   OH241394   5.737   2.146   5.813
13818TIP3    H141395   5.656   2.158   5.764
13818TIP3    H241396   5.713   2.092   5.888
13819TIP3   OH241397   8.376   5.486   5.880
13819TIP3    H141398   8.395   5.452   5.967
13819TIP3    H241399   8.357   5.579   5.894
13820TIP3   OH241400   1.833   6.431   6.249
13820TIP3    H141401   1.808   6.512   6.205
13820TIP3    H241402   1.925   6.442   6.270
13821TIP3   OH241403   3.458   6.714   4.355
13821TIP3    H141404   3.541   6.758   4.371
13821TIP3    H241405   3.482   6.624   4.335
13822TIP3   OH241406   7.525   6.988   3.777
13822TIP3    H141407   7.482   7.069   3.804
13822TIP3    H241408   7.479   6.961   3.698
13823TIP3   OH241409   1.640   5.659   2.061
13823TIP3    H141410   1.724   5.614   2.065
13823TIP3    H241411   1.660   5.742   2.017
13824TIP3   OH241412   7.669   3.786   1.812
13824TIP3    H141413   7.663   3.828   1.726
13824TIP3    H241414   7.757   3.749   1.814
13825TIP3   OH241415   4.883   0.695   3.629
13825TIP3    H141416   4.916   0.771   3.582
13825TIP3    H241417   4.793   0.684   3.597
13826TIP3   OH241418   5.721   5.652   2.438
13826TIP3    H141419   5.754   5.692   2.357
13826TIP3    H241420   5.663   5.718   2.475
13827TIP3   OH241421   0.148   5.604   1.747
13827TIP3    H141422   0.141   5.587   1.653
13827TIP3    H241423   0.058   5.596   1.779
13828TIP3   OH241424   1.371   4.715   2.103
13828TIP3    H141425   1.327   4.671   2.176
13828TIP3    H241426   1.302   4.725   2.037
13829TIP3   OH241427   3.098   2.663   4.146
13829TIP3    H141428   3.140   2.705   4.221
13829TIP3    H241429   3.033   2.726   4.115
13830TIP3   OH241430   6.793   2.538   5.910
13830TIP3    H141431   6.847   2.496   5.977
13830TIP3    H241432   6.846   2.531   5.830
13831TIP3   OH241433   5.525   1.550   4.809
13831TIP3    H141434   5.603   1.550   4.864
13831TIP3    H241435   5.509   1.458   4.790
13832TIP3   OH241436   8.000   1.381   5.842
13832TIP3    H141437   8.082   1.382   5.890
13832TIP3    H241438   8.016   1.435   5.765
13833TIP3   OH241439   7.136   3.609   4.575
13833TIP3    H141440   7.121   3.703   4.585
13833TIP3    H241441   7.231   3.600   4.574
13834TIP3   OH241442   2.812   0.343   3.521
13834TIP3    H141443   2.810   0.304   3.433
13834TIP3    H241444   2.849   0.274   3.576
13835TIP3   OH241445   4.356   1.930   5.732
13835TIP3    H141446   4.269   1.899   5.706
13835TIP3    H241447   4.339   2.010   5.782
13836TIP3   OH241448   7.291   0.483   0.828
13836TIP3    H141449   7.328   0.427   0.896
13836TIP3    H241450   7.351   0.557   0.822
13837TIP3   OH241451   2.384   0.563   2.548
13837TIP3    H141452   2.375   0.656   2.570
13837TIP3    H241453   2.421   0.563   2.460
13838TIP3   OH241454   6.009   0.226   6.702
13838TIP3    H141455   6.094   0.268   6.712
13838TIP3    H241456   5.979   0.251   6.614
13839TIP3   OH241457   6.613   6.972   5.183
13839TIP3    H141458   6.703   6.946   5.160
13839TIP3    H241459   6.579   6.898   5.233
13840TIP3   OH241460   3.551   0.414   0.851
13840TIP3    H141461   3.523   0.361   0.926
13840TIP3    H241462   3.587   0.493   0.891
13841TIP3   OH241463   7.245   2.082   1.426
13841TIP3    H141464   7.162   2.043   1.398
13841TIP3    H241465   7.228   2.176   1.423
13842TIP3   OH241466   7.978   4.572   5.254
13842TIP3    H141467   8.003   4.479   5.256
13842TIP3    H241468   7.883   4.570   5.265
13843TIP3   OH241469   7.739   6.208   3.126
13843TIP3    H141470   7.672   6.195   3.059
13843TIP3    H241471   7.689   6.219   3.207
13844TIP3   OH241472   5.558   1.785   3.891
13844TIP3    H141473   5.478   1.837   3.887
13844TIP3    H241474   5.623   1.839   3.847
13845TIP3   OH241475   7.527   5.432   0.513
13845TIP3    H141476   7.577   5.383   0.448
13845TIP3    H241477   7.446   5.383   0.523
13846TIP3   OH241478   7.746   3.754   6.179
13846TIP3    H141479   7.680   3.823   6.185
13846TIP3    H241480   7.703   3.677   6.217
13847TIP3   OH241481   4.926   3.591   5.344
13847TIP3    H141482   5.013   3.552   5.347
13847TIP3    H241483   4.931   3.666   5.404
13848TIP3   OH241484   5.050   6.887   3.953
13848TIP3    H141485   5.091   6.838   3.882
13848TIP3    H241486   4.996   6.952   3.909
13849TIP3   OH241487   2.612   0.865   2.637
13849TIP3    H141488   2.691   0.914   2.615
13849TIP3    H241489   2.553   0.882   2.563
13850TIP3   OH241490   7.529   2.195   5.864
13850TIP3    H141491   7.561   2.119   5.913
13850TIP3    H241492   7.493   2.254   5.931
13851TIP3   OH241493   5.701   1.423   4.587
13851TIP3    H141494   5.665   1.358   4.647
13851TIP3    H241495   5.627   1.481   4.567
13852TIP3   OH241496   6.656   5.606   0.539
13852TIP3    H141497   6.684   5.634   0.452
13852TIP3    H241498   6.561   5.600   0.533
13853TIP3   OH241499   3.559   1.822   4.698
13853TIP3    H141500   3.467   1.844   4.681
13853TIP3    H241501   3.602   1.907   4.711
13854TIP3   OH241502   3.893   5.024   4.281
13854TIP3    H141503   3.908   4.931   4.298
13854TIP3    H241504   3.822   5.026   4.217
13855TIP3   OH241505   6.100   2.697   4.235
13855TIP3    H141506   6.022   2.675   4.184
13855TIP3    H241507   6.105   2.629   4.302
13856TIP3   OH241508   5.138   6.306   0.883
13856TIP3    H141509   5.147   6.250   0.807
13856TIP3    H241510   5.058   6.274   0.926
13857TIP3   OH241511   1.288   2.669   6.452
13857TIP3    H141512   1.224   2.700   6.388
13857TIP3    H241513   1.274   2.574   6.455
13858TIP3   OH241514   7.718   0.423   6.364
13858TIP3    H141515   7.769   0.376   6.430
13858TIP3    H241516   7.725   0.370   6.285
13859TIP3   OH241517   7.101   2.684   5.569
13859TIP3    H141518   7.162   2.638   5.511
13859TIP3    H241519   7.027   2.707   5.514
13860TIP3   OH241520   0.753   3.185   1.011
13860TIP3    H141521   0.803   3.145   0.940
13860TIP3    H241522   0.818   3.225   1.068
13861TIP3   OH241523   5.338   5.091   3.273
13861TIP3    H141524   5.316   5.005   3.237
13861TIP3    H241525   5.387   5.134   3.203
13862TIP3   OH241526   5.113   5.897   2.120
13862TIP3    H141527   5.208   5.910   2.122
13862TIP3    H241528   5.080   5.976   2.077
13863TIP3   OH241529   5.830   6.974   3.241
13863TIP3    H141530   5.923   6.957   3.251
13863TIP3    H241531   5.821   7.069   3.255
13864TIP3   OH241532   7.425   0.305   0.101
13864TIP3    H141533   7.463   0.279   0.184
13864TIP3    H241534   7.492   0.360   0.060
13865TIP3   OH241535   3.206   1.784   5.281
13865TIP3    H141536   3.178   1.710   5.335
13865TIP3    H241537   3.124   1.823   5.250
13866TIP3   OH241538   2.140   3.306   4.241
13866TIP3    H141539   2.082   3.247   4.192
13866TIP3    H241540   2.197   3.247   4.291
13867TIP3   OH241541   3.499   2.326   0.320
13867TIP3    H141542   3.432   2.266   0.290
13867TIP3    H241543   3.458   2.412   0.319
13868TIP3   OH241544   6.846   6.864   5.134
13868TIP3    H141545   6.926   6.903   5.099
13868TIP3    H241546   6.874   6.815   5.211
13869TIP3   OH241547   2.390   6.649   0.841
13869TIP3    H141548   2.394   6.642   0.937
13869TIP3    H241549   2.307   6.693   0.824
13870TIP3   OH241550   1.187   4.182   2.277
13870TIP3    H141551   1.105   4.229   2.291
13870TIP3    H241552   1.215   4.208   2.190
13871TIP3   OH241553   5.941   3.019   2.522
13871TIP3    H141554   5.858   3.016   2.473
13871TIP3    H241555   6.008   2.996   2.457
13872TIP3   OH241556   0.538   4.736   1.110
13872TIP3    H141557   0.518   4.791   1.186
13872TIP3    H241558   0.465   4.674   1.107
13873TIP3   OH241559   6.991   6.962   2.949
13873TIP3    H141560   7.079   6.959   2.911
13873TIP3    H241561   7.002   6.928   3.038
13874TIP3   OH241562   6.512   6.469   1.750
13874TIP3    H141563   6.551   6.554   1.730
13874TIP3    H241564   6.572   6.405   1.713
13875TIP3   OH241565   4.891   0.683   6.843
13875TIP3    H141566   4.843   0.722   6.770
13875TIP3    H241567   4.982   0.682   6.813
13876TIP3   OH241568   6.682   3.162   6.762
13876TIP3    H141569   6.774   3.136   6.755
13876TIP3    H241570   6.635   3.104   6.702
13877TIP3   OH241571   7.445   4.377   5.218
13877TIP3    H141572   7.454   4.472   5.213
13877TIP3    H241573   7.519   4.349   5.271
13878TIP3   OH241574   2.215   5.552   2.660
13878TIP3    H141575   2.123   5.576   2.649
13878TIP3    H241576   2.263   5.634   2.647
13879TIP3   OH241577   4.224   1.188   6.238
13879TIP3    H141578   4.209   1.094   6.231
13879TIP3    H241579   4.136   1.225   6.248
13880TIP3   OH241580   0.682   3.350   4.291
13880TIP3    H141581   0.648   3.350   4.380
13880TIP3    H241582   0.605   3.333   4.236
13881TIP3   OH241583   4.027   7.209   6.225
13881TIP3    H141584   4.106   7.190   6.276
13881TIP3    H241585   4.021   7.305   6.225
13882TIP3   OH241586   0.924   6.752   1.867
13882TIP3    H141587   0.861   6.729   1.936
13882TIP3    H241588   0.995   6.796   1.913
13883TIP3   OH241589   2.682   6.888   1.115
13883TIP3    H141590   2.756   6.839   1.079
13883TIP3    H241591   2.658   6.950   1.047
13884TIP3   OH241592   4.334   5.772   2.726
13884TIP3    H141593   4.283   5.692   2.714
13884TIP3    H241594   4.387   5.778   2.646
13885TIP3   OH241595   0.773   7.771   4.818
13885TIP3    H141596   0.862   7.756   4.785
13885TIP3    H241597   0.768   7.866   4.831
13886TIP3   OH241598   7.418   5.258   1.627
13886TIP3    H141599   7.335   5.244   1.672
13886TIP3    H241600   7.430   5.180   1.573
13887TIP3   OH241601   3.427   3.687   2.100
13887TIP3    H141602   3.434   3.592   2.087
13887TIP3    H241603   3.460   3.701   2.188
13888TIP3   OH241604   4.695   5.770   3.845
13888TIP3    H141605   4.779   5.744   3.808
13888TIP3    H241606   4.717   5.807   3.931
13889TIP3   OH241607   6.505   5.510   1.869
13889TIP3    H141608   6.451   5.581   1.835
13889TIP3    H241609   6.567   5.553   1.928
13890TIP3   OH241610   7.719   0.169   3.705
13890TIP3    H141611   7.761   0.250   3.733
13890TIP3    H241612   7.639   0.198   3.660
13891TIP3   OH241613   7.676   3.102   2.729
13891TIP3    H141614   7.636   3.021   2.761
13891TIP3    H241615   7.747   3.073   2.672
13892TIP3   OH241616   1.916   1.088   6.705
13892TIP3    H141617   1.932   1.118   6.795
13892TIP3    H241618   1.893   0.996   6.715
13893TIP3   OH241619   5.682   4.590   2.582
13893TIP3    H141620   5.629   4.544   2.517
13893TIP3    H241621   5.688   4.529   2.656
13894TIP3   OH241622   1.182   4.351   0.804
13894TIP3    H141623   1.139   4.277   0.762
13894TIP3    H241624   1.256   4.372   0.746
13895TIP3   OH241625   1.121   6.386   2.225
13895TIP3    H141626   1.135   6.473   2.188
13895TIP3    H241627   1.027   6.369   2.212
13896TIP3   OH241628   0.990   7.657   0.233
13896TIP3    H141629   0.916   7.599   0.217
13896TIP3    H241630   1.064   7.616   0.189
13897TIP3   OH241631   4.743   2.949   6.265
13897TIP3    H141632   4.748   3.042   6.285
13897TIP3    H241633   4.814   2.933   6.203
13898TIP3   OH241634   8.162   3.040   0.169
13898TIP3    H141635   8.113   3.064   0.247
13898TIP3    H241636   8.105   3.064   0.096
13899TIP3   OH241637   4.431   1.790   2.232
13899TIP3    H141638   4.453   1.720   2.170
13899TIP3    H241639   4.479   1.768   2.312
13900TIP3   OH241640   5.299   6.475   1.206
13900TIP3    H141641   5.394   6.466   1.205
13900TIP3    H241642   5.268   6.406   1.146
13901TIP3   OH241643   7.503   1.453   0.276
13901TIP3    H141644   7.523   1.546   0.287
13901TIP3    H241645   7.523   1.435   0.184
13902TIP3   OH241646   1.515   3.130   1.899
13902TIP3    H141647   1.600   3.174   1.906
13902TIP3    H241648   1.530   3.043   1.937
13903TIP3   OH241649   7.677   2.924   0.958
13903TIP3    H141650   7.700   3.014   0.935
13903TIP3    H241651   7.713   2.871   0.887
13904TIP3   OH241652   3.592   4.517   6.779
13904TIP3    H141653   3.525   4.572   6.739
13904TIP3    H241654   3.543   4.443   6.816
13905TIP3   OH241655   5.381   6.664   4.153
13905TIP3    H141656   5.354   6.659   4.244
13905TIP3    H241657   5.372   6.756   4.129
13906TIP3   OH241658   4.283   7.289   3.057
13906TIP3    H141659   4.285   7.193   3.052
13906TIP3    H241660   4.349   7.311   3.123
13907TIP3   OH241661   6.173   6.244   3.117
13907TIP3    H141662   6.218   6.168   3.080
13907TIP3    H241663   6.176   6.310   3.048
13908TIP3   OH241664   0.339   7.147   3.277
13908TIP3    H141665   0.336   7.072   3.337
13908TIP3    H241666   0.413   7.128   3.219
13909TIP3   OH241667   3.841   2.689   1.966
13909TIP3    H141668   3.751   2.720   1.980
13909TIP3    H241669   3.846   2.608   2.018
13910TIP3   OH241670   7.563   7.813   6.421
13910TIP3    H141671   7.568   7.839   6.329
13910TIP3    H241672   7.549   7.718   6.417
13911TIP3   OH241673   5.321   7.113   1.198
13911TIP3    H141674   5.242   7.166   1.193
13911TIP3    H241675   5.356   7.129   1.286
13912TIP3   OH241676   6.755   2.814   5.180
13912TIP3    H141677   6.813   2.823   5.104
13912TIP3    H241678   6.678   2.867   5.158
13913TIP3   OH241679   6.610   6.268   2.410
13913TIP3    H141680   6.665   6.200   2.449
13913TIP3    H241681   6.669   6.342   2.397
13914TIP3   OH241682   4.934   4.953   2.933
13914TIP3    H141683   4.949   4.937   2.840
13914TIP3    H241684   4.840   4.939   2.944
13915TIP3   OH241685   8.257   0.517   4.199
13915TIP3    H141686   8.207   0.510   4.280
13915TIP3    H241687   8.224   0.447   4.143
13916TIP3   OH241688   3.345   6.281   5.366
13916TIP3    H141689   3.259   6.294   5.324
13916TIP3    H241690   3.338   6.329   5.448
13917TIP3   OH241691   4.148   1.638   4.717
13917TIP3    H141692   4.105   1.603   4.795
13917TIP3    H241693   4.182   1.723   4.744
13918TIP3   OH241694   7.426   6.042   4.826
13918TIP3    H141695   7.475   5.963   4.849
13918TIP3    H241696   7.492   6.111   4.825
13919TIP3   OH241697   3.461   2.687   0.824
13919TIP3    H141698   3.440   2.716   0.735
13919TIP3    H241699   3.424   2.599   0.829
13920TIP3   OH241700   3.601   7.561   0.485
13920TIP3    H141701   3.558   7.641   0.514
13920TIP3    H241702   3.590   7.561   0.390
13921TIP3   OH241703   7.043   4.459   4.656
13921TIP3    H141704   7.052   4.416   4.571
13921TIP3    H241705   7.090   4.542   4.647
13922TIP3   OH241706   2.217   0.660   2.126
13922TIP3    H141707   2.187   0.622   2.043
13922TIP3    H241708   2.299   0.704   2.104
13923TIP3   OH241709   2.870   4.426   5.404
13923TIP3    H141710   2.795   4.466   5.361
13923TIP3    H241711   2.944   4.448   5.348
13924TIP3   OH241712   3.876   2.658   5.620
13924TIP3    H141713   3.905   2.676   5.709
13924TIP3    H241714   3.957   2.637   5.573
13925TIP3   OH241715   0.294   6.736   0.274
13925TIP3    H141716   0.204   6.756   0.299
13925TIP3    H241717   0.323   6.672   0.339
13926TIP3   OH241718   3.936   1.821   5.404
13926TIP3    H141719   3.841   1.816   5.408
13926TIP3    H241720   3.958   1.794   5.315
13927TIP3   OH241721   4.495   5.954   3.766
13927TIP3    H141722   4.546   5.877   3.791
13927TIP3    H241723   4.438   5.970   3.842
13928TIP3   OH241724   3.593   7.417   3.704
13928TIP3    H141725   3.580   7.374   3.619
13928TIP3    H241726   3.677   7.383   3.735
13929TIP3   OH241727   3.331   0.951   2.065
13929TIP3    H141728   3.325   0.948   2.160
13929TIP3    H241729   3.383   0.874   2.041
13930TIP3   OH241730   0.674   6.609   4.754
13930TIP3    H141731   0.722   6.562   4.685
13930TIP3    H241732   0.627   6.540   4.801
13931TIP3   OH241733   5.020   1.807   1.976
13931TIP3    H141734   5.102   1.833   1.934
13931TIP3    H241735   4.958   1.875   1.951
13932TIP3   OH241736   7.662   0.543   4.835
13932TIP3    H141737   7.743   0.592   4.852
13932TIP3    H241738   7.692   0.464   4.790
13933TIP3   OH241739   3.751   6.503   2.282
13933TIP3    H141740   3.820   6.565   2.261
13933TIP3    H241741   3.689   6.553   2.336
13934TIP3   OH241742   1.543   7.173   5.389
13934TIP3    H141743   1.533   7.112   5.463
13934TIP3    H241744   1.628   7.214   5.403
13935TIP3   OH241745   3.295   4.974   4.250
13935TIP3    H141746   3.382   5.015   4.252
13935TIP3    H241747   3.239   5.038   4.207
13936TIP3   OH241748   2.681   6.303   0.724
13936TIP3    H141749   2.610   6.297   0.660
13936TIP3    H241750   2.696   6.212   0.751
13937TIP3   OH241751   5.424   4.395   6.288
13937TIP3    H141752   5.341   4.349   6.300
13937TIP3    H241753   5.416   4.475   6.340
13938TIP3   OH241754   2.037   2.670   1.527
13938TIP3    H141755   2.007   2.585   1.559
13938TIP3    H241756   2.059   2.655   1.435
13939TIP3   OH241757   2.854   4.690   6.667
13939TIP3    H141758   2.907   4.627   6.619
13939TIP3    H241759   2.783   4.639   6.705
13940TIP3   OH241760   0.459   1.591   5.682
13940TIP3    H141761   0.364   1.588   5.695
13940TIP3    H241762   0.490   1.653   5.748
13941TIP3   OH241763   4.473   5.505   4.911
13941TIP3    H141764   4.400   5.565   4.897
13941TIP3    H241765   4.461   5.436   4.846
13942TIP3   OH241766   6.022   6.304   2.291
13942TIP3    H141767   6.065   6.325   2.208
13942TIP3    H241768   6.075   6.348   2.357
13943TIP3   OH241769   1.192   1.564   1.278
13943TIP3    H141770   1.159   1.626   1.212
13943TIP3    H241771   1.123   1.497   1.283
13944TIP3   OH241772   8.093   5.866   1.954
13944TIP3    H141773   8.126   5.938   1.899
13944TIP3    H241774   8.002   5.854   1.925
13945TIP3   OH241775   6.692   7.269   1.459
13945TIP3    H141776   6.634   7.262   1.383
13945TIP3    H241777   6.768   7.317   1.426
13946TIP3   OH241778   4.143   1.787   4.284
13946TIP3    H141779   4.116   1.875   4.260
13946TIP3    H241780   4.092   1.767   4.363
13947TIP3   OH241781   8.033   0.633   0.048
13947TIP3    H141782   8.127   0.633   0.030
13947TIP3    H241783   8.002   0.547   0.018
13948TIP3   OH241784   5.699   5.525   6.112
13948TIP3    H141785   5.697   5.508   6.018
13948TIP3    H241786   5.630   5.590   6.126
13949TIP3   OH241787   1.650   3.613   3.528
13949TIP3    H141788   1.694   3.683   3.575
13949TIP3    H241789   1.561   3.612   3.564
13950TIP3   OH241790   6.267   6.277   6.235
13950TIP3    H141791   6.179   6.291   6.198
13950TIP3    H241792   6.252   6.229   6.316
13951TIP3   OH241793   7.361  -0.001   0.201
13951TIP3    H141794   7.384   0.090   0.220
13951TIP3    H241795   7.268  -0.007   0.222
13952TIP3   OH241796   3.448   2.389   1.774
13952TIP3    H141797   3.541   2.370   1.765
13952TIP3    H241798   3.405   2.318   1.726
13953TIP3   OH241799   7.696   0.005   5.534
13953TIP3    H141800   7.775  -0.011   5.483
13953TIP3    H241801   7.638   0.052   5.474
13954TIP3   OH241802   3.893   0.309   2.240
13954TIP3    H141803   3.944   0.390   2.241
13954TIP3    H241804   3.834   0.318   2.315
13955TIP3   OH241805   8.172   4.203   3.693
13955TIP3    H141806   8.184   4.293   3.661
13955TIP3    H241807   8.248   4.156   3.659
13956TIP3   OH241808   7.436   1.164   6.326
13956TIP3    H141809   7.421   1.148   6.233
13956TIP3    H241810   7.516   1.216   6.329
13957TIP3   OH241811   7.487   3.228   4.041
13957TIP3    H141812   7.511   3.318   4.060
13957TIP3    H241813   7.569   3.179   4.053
13958TIP3   OH241814   6.798   7.501   1.346
13958TIP3    H141815   6.856   7.574   1.328
13958TIP3    H241816   6.762   7.477   1.261
13959TIP3   OH241817   7.033   2.491   5.024
13959TIP3    H141818   7.067   2.435   5.093
13959TIP3    H241819   6.948   2.521   5.057
13960TIP3   OH241820   1.528   2.386   5.625
13960TIP3    H141821   1.462   2.399   5.558
13960TIP3    H241822   1.514   2.296   5.655
13961TIP3   OH241823   0.445   2.919   4.726
13961TIP3    H141824   0.460   3.005   4.687
13961TIP3    H241825   0.360   2.892   4.692
13962TIP3   OH241826   0.614   4.225   1.383
13962TIP3    H141827   0.710   4.230   1.378
13962TIP3    H241828   0.584   4.308   1.345
13963TIP3   OH241829   3.542   0.715   2.678
13963TIP3    H141830   3.614   0.776   2.696
13963TIP3    H241831   3.468   0.771   2.657
13964TIP3   OH241832   4.573   7.056   3.647
13964TIP3    H141833   4.625   6.986   3.609
13964TIP3    H241834   4.499   7.011   3.689
13965TIP3   OH241835   7.743   7.701   0.109
13965TIP3    H141836   7.675   7.753   0.154
13965TIP3    H241837   7.825   7.728   0.151
13966TIP3   OH241838   1.840   0.921   2.342
13966TIP3    H141839   1.933   0.902   2.338
13966TIP3    H241840   1.812   0.893   2.429
13967TIP3   OH241841   2.399   5.470   6.802
13967TIP3    H141842   2.488   5.490   6.832
13967TIP3    H241843   2.377   5.542   6.743
13968TIP3   OH241844   0.521   2.963   0.822
13968TIP3    H141845   0.451   2.900   0.807
13968TIP3    H241846   0.530   2.967   0.917
13969TIP3   OH241847   0.717   5.063   1.356
13969TIP3    H141848   0.802   5.089   1.321
13969TIP3    H241849   0.656   5.126   1.319
13970TIP3   OH241850   6.422   0.506   5.694
13970TIP3    H141851   6.421   0.411   5.680
13970TIP3    H241852   6.338   0.536   5.657
13971TIP3   OH241853   0.176   0.838   1.340
13971TIP3    H141854   0.231   0.878   1.407
13971TIP3    H241855   0.100   0.896   1.334
13972TIP3   OH241856   1.259   3.295   5.699
13972TIP3    H141857   1.305   3.354   5.640
13972TIP3    H241858   1.220   3.353   5.765
13973TIP3   OH241859   2.836   7.235   1.864
13973TIP3    H141860   2.805   7.314   1.820
13973TIP3    H241861   2.926   7.256   1.890
13974TIP3   OH241862   3.507   2.127   6.610
13974TIP3    H141863   3.568   2.053   6.609
13974TIP3    H241864   3.421   2.086   6.616
13975TIP3   OH241865   3.750   3.502   2.229
13975TIP3    H141866   3.706   3.455   2.158
13975TIP3    H241867   3.775   3.586   2.191
13976TIP3   OH241868   5.109   7.351   5.140
13976TIP3    H141869   5.173   7.313   5.199
13976TIP3    H241870   5.033   7.371   5.196
13977TIP3   OH241871   1.210   2.056   2.807
13977TIP3    H141872   1.298   2.092   2.792
13977TIP3    H241873   1.180   2.030   2.720
13978TIP3   OH241874   0.260   2.862   5.646
13978TIP3    H141875   0.339   2.840   5.695
13978TIP3    H241876   0.268   2.814   5.564
13979TIP3   OH241877   0.061   1.789   4.822
13979TIP3    H141878   0.033   1.878   4.798
13979TIP3    H241879   0.110   1.801   4.904
13980TIP3   OH241880   6.427   5.124   5.399
13980TIP3    H141881   6.344   5.167   5.381
13980TIP3    H241882   6.427   5.110   5.493
13981TIP3   OH241883   5.047   7.970   1.620
13981TIP3    H141884   5.000   7.979   1.703
13981TIP3    H241885   4.978   7.959   1.555
13982TIP3   OH241886   7.997   0.363   1.338
13982TIP3    H141887   7.929   0.420   1.302
13982TIP3    H241888   7.962   0.333   1.422
13983TIP3   OH241889   3.506   5.750   3.959
13983TIP3    H141890   3.477   5.660   3.946
13983TIP3    H241891   3.425   5.800   3.971
13984TIP3   OH241892   3.728   3.387   3.191
13984TIP3    H141893   3.654   3.331   3.169
13984TIP3    H241894   3.746   3.436   3.111
13985TIP3   OH241895   4.054   4.647   1.703
13985TIP3    H141896   4.107   4.634   1.624
13985TIP3    H241897   4.116   4.641   1.775
13986TIP3   OH241898   1.132   3.961   2.396
13986TIP3    H141899   1.144   4.049   2.360
13986TIP3    H241900   1.170   3.904   2.330
13987TIP3   OH241901   6.734   4.386   6.136
13987TIP3    H141902   6.732   4.418   6.046
13987TIP3    H241903   6.739   4.464   6.190
13988TIP3   OH241904   3.857  -0.001   6.364
13988TIP3    H141905   3.853  -0.057   6.442
13988TIP3    H241906   3.834   0.086   6.396
13989TIP3   OH241907   1.558   1.645   0.173
13989TIP3    H141908   1.468   1.625   0.148
13989TIP3    H241909   1.597   1.560   0.192
13990TIP3   OH241910   7.090   1.202   3.194
13990TIP3    H141911   7.101   1.110   3.170
13990TIP3    H241912   7.142   1.250   3.130
13991TIP3   OH241913   5.048   6.358   6.284
13991TIP3    H141914   4.975   6.342   6.343
13991TIP3    H241915   5.029   6.304   6.207
13992TIP3   OH241916   6.618   7.481   0.310
13992TIP3    H141917   6.684   7.417   0.282
13992TIP3    H241918   6.535   7.445   0.279
13993TIP3   OH241919   6.954   1.896   0.852
13993TIP3    H141920   6.934   1.805   0.874
13993TIP3    H241921   6.914   1.910   0.766
13994TIP3   OH241922   7.144   0.619   3.613
13994TIP3    H141923   7.170   0.711   3.615
13994TIP3    H241924   7.186   0.584   3.534
13995TIP3   OH241925   4.460   6.989   2.184
13995TIP3    H141926   4.380   7.007   2.234
13995TIP3    H241927   4.518   7.063   2.203
13996TIP3   OH241928   7.867   5.933   5.977
13996TIP3    H141929   7.901   5.887   5.900
13996TIP3    H241930   7.879   6.025   5.956
13997TIP3   OH241931   7.372   5.644   5.805
13997TIP3    H141932   7.412   5.639   5.718
13997TIP3    H241933   7.375   5.737   5.828
13998TIP3   OH241934   3.715   3.852   2.665
13998TIP3    H141935   3.711   3.756   2.668
13998TIP3    H241936   3.806   3.873   2.686
13999TIP3   OH241937   5.295   0.735   4.585
13999TIP3    H141938   5.224   0.715   4.524
13999TIP3    H241939   5.338   0.812   4.548
14000TIP3   OH241940   5.802   5.253   1.099
14000TIP3    H141941   5.871   5.299   1.147
14000TIP3    H241942   5.834   5.247   1.009
14001TIP3   OH241943   3.087   7.683   0.838
14001TIP3    H141944   3.021   7.690   0.907
14001TIP3    H241945   3.100   7.589   0.827
14002TIP3   OH241946   7.451   4.631   1.776
14002TIP3    H141947   7.465   4.668   1.690
14002TIP3    H241948   7.509   4.555   1.780
14003TIP3   OH241949   1.923   3.382   0.607
14003TIP3    H141950   1.958   3.370   0.519
14003TIP3    H241951   1.913   3.293   0.641
14004TIP3   OH241952   5.593   1.272   2.344
14004TIP3    H141953   5.550   1.313   2.419
14004TIP3    H241954   5.525   1.218   2.304
14005TIP3   OH241955   1.020   5.258   0.311
14005TIP3    H141956   0.928   5.276   0.332
14005TIP3    H241957   1.018   5.172   0.268
14006TIP3   OH241958   4.810   0.498   3.917
14006TIP3    H141959   4.833   0.405   3.917
14006TIP3    H241960   4.893   0.543   3.900
14007TIP3   OH241961   2.198   0.359   0.919
14007TIP3    H141962   2.214   0.281   0.867
14007TIP3    H241963   2.281   0.408   0.915
14008TIP3   OH241964   2.380   1.227   2.412
14008TIP3    H141965   2.394   1.134   2.430
14008TIP3    H241966   2.468   1.264   2.406
14009TIP3   OH241967   0.544   4.214   3.384
14009TIP3    H141968   0.595   4.207   3.465
14009TIP3    H241969   0.609   4.236   3.317
14010TIP3   OH241970   4.810   6.871   3.618
14010TIP3    H141971   4.885   6.828   3.577
14010TIP3    H241972   4.779   6.808   3.684
14011TIP3   OH241973   7.505   1.356   3.842
14011TIP3    H141974   7.483   1.407   3.920
14011TIP3    H241975   7.570   1.408   3.795
14012TIP3   OH241976   1.478   6.167   5.049
14012TIP3    H141977   1.415   6.098   5.069
14012TIP3    H241978   1.542   6.163   5.119
14013TIP3   OH241979   2.188   5.148   5.960
14013TIP3    H141980   2.169   5.171   5.869
14013TIP3    H241981   2.262   5.203   5.984
14014TIP3   OH241982   1.683   1.850   4.130
14014TIP3    H141983   1.739   1.796   4.074
14014TIP3    H241984   1.640   1.787   4.188
14015TIP3   OH241985   8.394   6.519   6.227
14015TIP3    H141986   8.331   6.585   6.200
14015TIP3    H241987   8.403   6.530   6.321
14016TIP3   OH241988   4.446   3.898   5.804
14016TIP3    H141989   4.490   3.973   5.764
14016TIP3    H241990   4.496   3.822   5.773
14017TIP3   OH241991   0.293   6.596   3.516
14017TIP3    H141992   0.379   6.626   3.488
14017TIP3    H241993   0.240   6.676   3.518
14018TIP3   OH241994   2.636   4.088   6.143
14018TIP3    H141995   2.642   4.183   6.140
14018TIP3    H241996   2.588   4.069   6.224
14019TIP3   OH241997   3.543   5.528   0.200
14019TIP3    H141998   3.577   5.554   0.285
14019TIP3    H241999   3.482   5.456   0.220
14020TIP3   OH242000   5.610   7.734   3.018
14020TIP3    H142001   5.671   7.717   2.946
14020TIP3    H242002   5.529   7.692   2.990
14021TIP3   OH242003   4.561   0.005   0.379
14021TIP3    H142004   4.487   0.061   0.403
14021TIP3    H242005   4.593  -0.029   0.462
14022TIP3   OH242006   3.810   0.877   2.246
14022TIP3    H142007   3.805   0.813   2.174
14022TIP3    H242008   3.878   0.842   2.304
14023TIP3   OH242009   2.800   7.010   5.924
14023TIP3    H142010   2.870   7.067   5.892
14023TIP3    H242011   2.725   7.068   5.933
14024TIP3   OH242012   6.955   5.381   6.846
14024TIP3    H142013   6.969   5.344   6.759
14024TIP3    H242014   6.907   5.463   6.830
14025TIP3   OH242015   2.641   7.042   0.089
14025TIP3    H142016   2.716   7.048   0.030
14025TIP3    H242017   2.603   7.130   0.090
14026TIP3   OH242018   8.269   2.141   4.129
14026TIP3    H142019   8.258   2.112   4.038
14026TIP3    H242020   8.341   2.204   4.125
14027TIP3   OH242021   5.722   5.841   1.201
14027TIP3    H142022   5.785   5.843   1.129
14027TIP3    H242023   5.678   5.756   1.194
14028TIP3   OH242024   8.301   5.089   2.331
14028TIP3    H142025   8.367   5.158   2.342
14028TIP3    H242026   8.347   5.008   2.354
14029TIP3   OH242027   4.536   3.654   4.988
14029TIP3    H142028   4.468   3.594   5.019
14029TIP3    H242029   4.618   3.615   5.018
14030TIP3   OH242030   0.832   0.385   1.783
14030TIP3    H142031   0.744   0.348   1.770
14030TIP3    H242032   0.831   0.466   1.732
14031TIP3   OH242033   7.047   5.472   2.466
14031TIP3    H142034   6.963   5.445   2.503
14031TIP3    H242035   7.103   5.488   2.542
14032TIP3   OH242036   4.789   0.857   0.049
14032TIP3    H142037   4.820   0.770   0.073
14032TIP3    H242038   4.838   0.917   0.106
14033TIP3   OH242039   3.424   1.623   4.167
14033TIP3    H142040   3.412   1.574   4.085
14033TIP3    H242041   3.427   1.555   4.235
14034TIP3   OH242042   1.719   5.372   6.524
14034TIP3    H142043   1.734   5.358   6.431
14034TIP3    H242044   1.794   5.425   6.552
14035TIP3   OH242045   3.748   3.798   2.193
14035TIP3    H142046   3.742   3.891   2.172
14035TIP3    H242047   3.658   3.769   2.201
14036TIP3   OH242048   8.093   7.017   1.988
14036TIP3    H142049   8.031   7.042   1.920
14036TIP3    H242050   8.179   7.038   1.951
14037TIP3   OH242051   5.858   5.387   4.868
14037TIP3    H142052   5.818   5.395   4.781
14037TIP3    H242053   5.881   5.477   4.892
14038TIP3   OH242054   7.631   1.195   0.994
14038TIP3    H142055   7.667   1.236   1.072
14038TIP3    H242056   7.598   1.268   0.941
14039TIP3   OH242057   5.911   4.065   0.522
14039TIP3    H142058   5.975   4.122   0.565
14039TIP3    H242059   5.891   4.110   0.440
14040TIP3   OH242060   4.223   2.854   2.967
14040TIP3    H142061   4.317   2.856   2.985
14040TIP3    H242062   4.189   2.787   3.026
14041TIP3   OH242063   5.180   6.424   2.654
14041TIP3    H142064   5.217   6.335   2.650
14041TIP3    H242065   5.232   6.474   2.592
14042TIP3   OH242066   1.647   6.097   5.265
14042TIP3    H142067   1.615   6.159   5.330
14042TIP3    H242068   1.682   6.024   5.317
14043TIP3   OH242069   6.930   4.906   1.830
14043TIP3    H142070   6.956   4.881   1.918
14043TIP3    H242071   6.893   4.994   1.841
14044TIP3   OH242072   3.350   7.406   0.543
14044TIP3    H142073   3.382   7.491   0.574
14044TIP3    H242074   3.258   7.404   0.569
14045TIP3   OH242075   4.734   6.067   4.595
14045TIP3    H142076   4.761   6.060   4.504
14045TIP3    H242077   4.639   6.072   4.593
14046TIP3   OH242078   1.832   3.607   2.191
14046TIP3    H142079   1.775   3.678   2.219
14046TIP3    H242080   1.782   3.562   2.122
14047TIP3   OH242081   1.544   6.877   5.753
14047TIP3    H142082   1.449   6.868   5.749
14047TIP3    H242083   1.565   6.865   5.846
14048TIP3   OH242084   3.854   6.393   3.379
14048TIP3    H142085   3.887   6.422   3.294
14048TIP3    H242086   3.774   6.444   3.391
14049TIP3   OH242087   4.087   0.754   4.140
14049TIP3    H142088   4.158   0.692   4.124
14049TIP3    H242089   4.083   0.807   4.061
14050TIP3   OH242090   0.411   1.794   4.786
14050TIP3    H142091   0.377   1.716   4.742
14050TIP3    H242092   0.351   1.809   4.859
14051TIP3   OH242093   6.859   7.050   3.878
14051TIP3    H142094   6.886   7.017   3.963
14051TIP3    H242095   6.766   7.029   3.872
14052TIP3   OH242096   6.135   3.882   5.232
14052TIP3    H142097   6.080   3.829   5.174
14052TIP3    H242098   6.110   3.972   5.213
14053TIP3   OH242099   0.552   7.236   2.367
14053TIP3    H142100   0.472   7.290   2.363
14053TIP3    H242101   0.578   7.239   2.459
14054TIP3   OH242102   0.359   5.785   1.721
14054TIP3    H142103   0.285   5.728   1.743
14054TIP3    H242104   0.405   5.797   1.804
14055TIP3   OH242105   5.023   5.047   0.541
14055TIP3    H142106   4.947   4.994   0.564
14055TIP3    H242107   5.047   5.092   0.622
14056TIP3   OH242108   8.327   0.514   3.183
14056TIP3    H142109   8.380   0.562   3.247
14056TIP3    H242110   8.294   0.582   3.124
14057TIP3   OH242111   4.112   1.432   3.894
14057TIP3    H142112   4.146   1.506   3.844
14057TIP3    H242113   4.069   1.377   3.829
14058TIP3   OH242114   6.527   5.558   5.424
14058TIP3    H142115   6.544   5.495   5.494
14058TIP3    H242116   6.604   5.554   5.368
14059TIP3   OH242117   7.173   0.516   5.106
14059TIP3    H142118   7.145   0.556   5.024
14059TIP3    H242119   7.140   0.575   5.174
14060TIP3   OH242120   0.806   0.001   5.098
14060TIP3    H142121   0.843   0.018   5.185
14060TIP3    H242122   0.724  -0.046   5.116
14061TIP3   OH242123   0.333   4.429   6.583
14061TIP3    H142124   0.264   4.495   6.584
14061TIP3    H242125   0.339   4.402   6.492
14062TIP3   OH242126   5.180   7.123   2.338
14062TIP3    H142127   5.109   7.099   2.397
14062TIP3    H242128   5.151   7.204   2.297
14063TIP3   OH242129   5.322   0.541   1.307
14063TIP3    H142130   5.405   0.492   1.312
14063TIP3    H242131   5.257   0.480   1.341
14064TIP3   OH242132   8.168   5.495   5.577
14064TIP3    H142133   8.077   5.488   5.551
14064TIP3    H242134   8.177   5.583   5.614
14065TIP3   OH242135   7.476   0.583   0.363
14065TIP3    H142136   7.546   0.518   0.362
14065TIP3    H242137   7.407   0.542   0.415
14066TIP3   OH242138   1.405   2.530   3.670
14066TIP3    H142139   1.467   2.559   3.603
14066TIP3    H242140   1.323   2.516   3.623
14067TIP3   OH242141   7.012   1.218   5.320
14067TIP3    H142142   6.953   1.294   5.316
14067TIP3    H242143   7.062   1.222   5.239
14068TIP3   OH242144   5.907   3.448   2.629
14068TIP3    H142145   5.966   3.402   2.688
14068TIP3    H242146   5.819   3.427   2.662
14069TIP3   OH242147   4.094   6.304   2.702
14069TIP3    H142148   4.110   6.272   2.613
14069TIP3    H242149   4.118   6.230   2.758
14070TIP3   OH242150   6.212   2.443   5.071
14070TIP3    H142151   6.144   2.407   5.129
14070TIP3    H242152   6.291   2.444   5.125
14071TIP3   OH242153   2.425   1.929   6.732
14071TIP3    H142154   2.425   2.021   6.708
14071TIP3    H242155   2.506   1.916   6.781
14072TIP3   OH242156   4.826   2.820   0.896
14072TIP3    H142157   4.761   2.863   0.951
14072TIP3    H242158   4.858   2.888   0.837
14073TIP3   OH242159   0.208   0.773   4.107
14073TIP3    H142160   0.175   0.817   4.185
14073TIP3    H242161   0.158   0.810   4.035
14074TIP3   OH242162   4.590   7.073   4.742
14074TIP3    H142163   4.554   7.135   4.805
14074TIP3    H242164   4.539   7.089   4.662
14075TIP3   OH242165   6.849   1.199   4.672
14075TIP3    H142166   6.828   1.147   4.595
14075TIP3    H242167   6.912   1.146   4.720
14076TIP3   OH242168   1.359   6.545   1.241
14076TIP3    H142169   1.436   6.546   1.298
14076TIP3    H242170   1.388   6.499   1.162
14077TIP3   OH242171   7.707   6.650   2.450
14077TIP3    H142172   7.699   6.669   2.544
14077TIP3    H242173   7.744   6.730   2.413
14078TIP3   OH242174   7.135   2.716   1.241
14078TIP3    H142175   7.173   2.692   1.157
14078TIP3    H242176   7.061   2.655   1.252
14079TIP3   OH242177   2.451   0.860   6.538
14079TIP3    H142178   2.453   0.863   6.634
14079TIP3    H242179   2.519   0.921   6.510
14080TIP3   OH242180   8.190   6.124   5.194
14080TIP3    H142181   8.246   6.113   5.117
14080TIP3    H242182   8.147   6.209   5.181
14081TIP3   OH242183   0.935   6.350   4.401
14081TIP3    H142184   0.880   6.421   4.367
14081TIP3    H242185   0.944   6.290   4.327
14082TIP3   OH242186   1.160   1.395   5.738
14082TIP3    H142187   1.154   1.445   5.657
14082TIP3    H242188   1.232   1.333   5.722
14083TIP3   OH242189   0.384   4.394   5.349
14083TIP3    H142190   0.428   4.469   5.309
14083TIP3    H242191   0.399   4.406   5.443
14084TIP3   OH242192   1.370   4.969   5.566
14084TIP3    H142193   1.301   4.974   5.633
14084TIP3    H242194   1.326   4.932   5.489
14085TIP3   OH242195   1.176   5.899   4.008
14085TIP3    H142196   1.261   5.926   4.044
14085TIP3    H242197   1.124   5.979   4.008
14086TIP3   OH242198   5.829   1.478   0.706
14086TIP3    H142199   5.787   1.549   0.754
14086TIP3    H242200   5.762   1.445   0.646
14087TIP3   OH242201   3.952   1.383   4.647
14087TIP3    H142202   3.925   1.471   4.622
14087TIP3    H242203   4.023   1.361   4.586
14088TIP3   OH242204   4.515   1.321   6.021
14088TIP3    H142205   4.592   1.291   6.069
14088TIP3    H242206   4.472   1.382   6.081
14089TIP3   OH242207   4.399   3.578   6.412
14089TIP3    H142208   4.399   3.541   6.500
14089TIP3    H242209   4.333   3.527   6.364
14090TIP3   OH242210   6.016   0.296   3.798
14090TIP3    H142211   6.006   0.242   3.876
14090TIP3    H242212   5.990   0.384   3.826
14091TIP3   OH242213   1.104   2.500   6.793
14091TIP3    H142214   1.019   2.525   6.758
14091TIP3    H242215   1.112   2.547   6.876
14092TIP3   OH242216   6.680   7.830   1.658
14092TIP3    H142217   6.604   7.884   1.635
14092TIP3    H242218   6.750   7.893   1.675
14093TIP3   OH242219   3.772   2.136   6.144
14093TIP3    H142220   3.765   2.151   6.050
14093TIP3    H242221   3.834   2.063   6.152
14094TIP3   OH242222   5.241   2.465   6.361
14094TIP3    H142223   5.306   2.491   6.426
14094TIP3    H242224   5.220   2.546   6.315
14095TIP3   OH242225   7.150   6.836   3.876
14095TIP3    H142226   7.242   6.864   3.868
14095TIP3    H242227   7.100   6.907   3.835
14096TIP3   OH242228   3.110   6.377   6.323
14096TIP3    H142229   3.205   6.373   6.324
14096TIP3    H242230   3.085   6.371   6.416
14097TIP3   OH242231   6.907   6.909   1.150
14097TIP3    H142232   6.956   6.965   1.090
14097TIP3    H242233   6.972   6.874   1.210
14098TIP3   OH242234   5.174   6.150   2.595
14098TIP3    H142235   5.211   6.130   2.509
14098TIP3    H242236   5.213   6.084   2.653
14099TIP3   OH242237   5.703   1.340   4.061
14099TIP3    H142238   5.725   1.361   3.970
14099TIP3    H242239   5.785   1.308   4.098
14100TIP3   OH242240   3.774   6.926   0.420
14100TIP3    H142241   3.865   6.920   0.391
14100TIP3    H242242   3.756   7.020   0.422
14101TIP3   OH242243   8.214   7.696   1.170
14101TIP3    H142244   8.261   7.685   1.088
14101TIP3    H242245   8.227   7.614   1.217
14102TIP3   OH242246   2.229   3.564   0.662
14102TIP3    H142247   2.237   3.485   0.716
14102TIP3    H242248   2.255   3.535   0.575
14103TIP3   OH242249   0.618   6.018   3.321
14103TIP3    H142250   0.567   5.997   3.399
14103TIP3    H242251   0.670   5.939   3.306
14104TIP3   OH242252   5.866   5.962   1.384
14104TIP3    H142253   5.810   5.925   1.315
14104TIP3    H242254   5.889   6.049   1.352
14105TIP3   OH242255   4.202   0.303   3.369
14105TIP3    H142256   4.161   0.250   3.301
14105TIP3    H242257   4.135   0.309   3.438
14106TIP3   OH242258   8.402   1.468   0.182
14106TIP3    H142259   8.343   1.485   0.108
14106TIP3    H242260   8.345   1.431   0.250
14107TIP3   OH242261   5.126   4.493   1.991
14107TIP3    H142262   5.081   4.430   2.047
14107TIP3    H242263   5.219   4.470   1.999
14108TIP3   OH242264   1.048   5.991   2.908
14108TIP3    H142265   1.102   6.069   2.889
14108TIP3    H242266   0.962   6.026   2.930
14109TIP3   OH242267   0.895   6.672   5.669
14109TIP3    H142268   0.974   6.696   5.620
14109TIP3    H242269   0.927   6.649   5.756
14110TIP3   OH242270   1.893   0.289   5.320
14110TIP3    H142271   1.818   0.299   5.262
14110TIP3    H242272   1.969   0.307   5.265
14111TIP3   OH242273   7.001   2.256   5.514
14111TIP3    H142274   6.912   2.292   5.506
14111TIP3    H242275   7.022   2.225   5.426
14112TIP3   OH242276   6.944   0.835   2.239
14112TIP3    H142277   7.031   0.862   2.209
14112TIP3    H242278   6.910   0.913   2.284
14113TIP3   OH242279   7.945   2.088   4.687
14113TIP3    H142280   8.007   2.143   4.639
14113TIP3    H242281   7.885   2.056   4.620
14114TIP3   OH242282   3.313   3.805   0.643
14114TIP3    H142283   3.406   3.826   0.657
14114TIP3    H242284   3.269   3.839   0.721
14115TIP3   OH242285   7.111   0.924   4.627
14115TIP3    H142286   7.157   0.916   4.543
14115TIP3    H242287   7.125   1.015   4.653
14116TIP3   OH242288   3.354   0.127   6.005
14116TIP3    H142289   3.425   0.068   5.979
14116TIP3    H242290   3.274   0.080   5.982
14117TIP3   OH242291   6.759   5.028   4.854
14117TIP3    H142292   6.719   4.999   4.935
14117TIP3    H242293   6.685   5.046   4.795
14118TIP3   OH242294   4.683   2.314   3.083
14118TIP3    H142295   4.642   2.400   3.092
14118TIP3    H242296   4.651   2.264   3.159
14119TIP3   OH242297   2.863   6.409   2.661
14119TIP3    H142298   2.888   6.349   2.590
14119TIP3    H242299   2.767   6.413   2.656
14120TIP3   OH242300   5.776   0.408   1.237
14120TIP3    H142301   5.834   0.470   1.281
14120TIP3    H242302   5.830   0.332   1.220
14121TIP3   OH242303   2.159   6.716   2.564
14121TIP3    H142304   2.218   6.654   2.608
14121TIP3    H242305   2.130   6.669   2.485
14122TIP3   OH242306   8.360   0.730   1.598
14122TIP3    H142307   8.352   0.824   1.615
14122TIP3    H242308   8.307   0.689   1.666
14123TIP3   OH242309   6.480   4.320   1.179
14123TIP3    H142310   6.392   4.299   1.210
14123TIP3    H242311   6.507   4.395   1.232
14124TIP3   OH242312   7.547   2.870   2.802
14124TIP3    H142313   7.611   2.800   2.791
14124TIP3    H242314   7.522   2.866   2.894
14125TIP3   OH242315   2.484   4.888   1.739
14125TIP3    H142316   2.398   4.849   1.758
14125TIP3    H242317   2.545   4.815   1.746
14126TIP3   OH242318   1.624   0.900   1.920
14126TIP3    H142319   1.649   0.813   1.889
14126TIP3    H242320   1.707   0.939   1.949
14127TIP3   OH242321   6.557   3.057   1.386
14127TIP3    H142322   6.545   3.120   1.315
14127TIP3    H242323   6.630   3.002   1.357
14128TIP3   OH242324   4.037   5.888   2.532
14128TIP3    H142325   3.961   5.851   2.487
14128TIP3    H242326   4.019   5.982   2.538
14129TIP3   OH242327   4.416   3.004   6.297
14129TIP3    H142328   4.372   3.068   6.242
14129TIP3    H242329   4.425   2.927   6.242
14130TIP3   OH242330   1.049   2.200   4.208
14130TIP3    H142331   0.957   2.176   4.196
14130TIP3    H242332   1.076   2.153   4.287
14131TIP3   OH242333   0.355   5.603   5.226
14131TIP3    H142334   0.348   5.514   5.191
14131TIP3    H242335   0.355   5.660   5.149
14132TIP3   OH242336   2.726   3.444   5.271
14132TIP3    H142337   2.631   3.445   5.278
14132TIP3    H242338   2.757   3.417   5.358
14133TIP3   OH242339   4.652   7.103   0.367
14133TIP3    H142340   4.666   7.195   0.346
14133TIP3    H242341   4.594   7.072   0.298
14134TIP3   OH242342   2.334   1.012   5.077
14134TIP3    H142343   2.239   1.011   5.062
14134TIP3    H242344   2.363   0.928   5.042
14135TIP3   OH242345   3.464   0.665   0.088
14135TIP3    H142346   3.547   0.710   0.099
14135TIP3    H242347   3.460   0.603   0.161
14136TIP3   OH242348   4.825   6.374   6.478
14136TIP3    H142349   4.820   6.302   6.541
14136TIP3    H242350   4.739   6.376   6.437
14137TIP3   OH242351   0.223   2.030   0.011
14137TIP3    H142352   0.190   1.972  -0.057
14137TIP3    H242353   0.146   2.081   0.038
14138TIP3   OH242354   4.477   2.729   1.095
14138TIP3    H142355   4.393   2.697   1.064
14138TIP3    H242356   4.501   2.668   1.166
14139TIP3   OH242357   5.482   3.041   2.590
14139TIP3    H142358   5.401   3.025   2.541
14139TIP3    H242359   5.461   3.019   2.680
14140TIP3   OH242360   2.440   5.002   2.062
14140TIP3    H142361   2.522   4.969   2.100
14140TIP3    H242362   2.381   5.011   2.138
14141TIP3   OH242363   5.021   0.917   3.160
14141TIP3    H142364   5.091   0.978   3.135
14141TIP3    H242365   4.952   0.973   3.196
14142TIP3   OH242366   4.906   0.973   4.112
14142TIP3    H142367   4.910   0.964   4.017
14142TIP3    H242368   4.851   1.050   4.126
14143TIP3   OH242369   8.088   5.257   1.597
14143TIP3    H142370   8.046   5.185   1.548
14143TIP3    H242371   8.058   5.245   1.687
14144TIP3   OH242372   7.735   5.598   5.329
14144TIP3    H142373   7.666   5.595   5.264
14144TIP3    H242374   7.814   5.619   5.279
14145TIP3   OH242375   4.407   1.843   4.148
14145TIP3    H142376   4.403   1.840   4.243
14145TIP3    H242377   4.351   1.772   4.118
14146TIP3   OH242378   3.507   1.516   1.798
14146TIP3    H142379   3.441   1.521   1.867
14146TIP3    H242380   3.547   1.429   1.810
14147TIP3   OH242381   4.503   5.579   3.722
14147TIP3    H142382   4.560   5.645   3.761
14147TIP3    H242383   4.416   5.599   3.758
14148TIP3   OH242384   7.029   6.090   3.481
14148TIP3    H142385   7.024   6.038   3.401
14148TIP3    H242386   7.002   6.029   3.550
14149TIP3   OH242387   3.420   1.391   3.960
14149TIP3    H142388   3.356   1.422   3.897
14149TIP3    H242389   3.433   1.299   3.939
14150TIP3   OH242390   6.180   2.201   5.470
14150TIP3    H142391   6.213   2.277   5.517
14150TIP3    H242392   6.182   2.130   5.535
14151TIP3   OH242393   5.707   7.388   3.884
14151TIP3    H142394   5.733   7.478   3.865
14151TIP3    H242395   5.668   7.393   3.971
14152TIP3   OH242396   3.402   7.427   3.053
14152TIP3    H142397   3.432   7.342   3.084
14152TIP3    H242398   3.398   7.482   3.131
14153TIP3   OH242399   7.794   7.471  -0.030
14153TIP3    H142400   7.760   7.555  -0.002
14153TIP3    H242401   7.796   7.418   0.049
14154TIP3   OH242402   2.562   4.471   2.962
14154TIP3    H142403   2.577   4.384   2.926
14154TIP3    H242404   2.481   4.462   3.012
14155TIP3   OH242405   4.388   3.364   3.223
14155TIP3    H142406   4.347   3.311   3.154
14155TIP3    H242407   4.462   3.312   3.253
14156TIP3   OH242408   4.040   5.741   6.816
14156TIP3    H142409   3.989   5.661   6.803
14156TIP3    H242410   4.092   5.750   6.736
14157TIP3   OH242411   4.889   7.268   5.685
14157TIP3    H142412   4.819   7.332   5.679
14157TIP3    H242413   4.886   7.238   5.776
14158TIP3   OH242414   4.857   2.380   1.908
14158TIP3    H142415   4.936   2.428   1.885
14158TIP3    H242416   4.840   2.322   1.834
14159TIP3   OH242417   0.582   2.652   3.322
14159TIP3    H142418   0.506   2.647   3.381
14159TIP3    H242419   0.655   2.672   3.380
14160TIP3   OH242420   3.913   7.051   4.575
14160TIP3    H142421   3.942   7.138   4.603
14160TIP3    H242422   3.981   7.020   4.515
14161TIP3   OH242423   6.101   6.596   0.451
14161TIP3    H142424   6.067   6.618   0.538
14161TIP3    H242425   6.092   6.501   0.445
14162TIP3   OH242426   3.295   4.968   1.477
14162TIP3    H142427   3.374   5.003   1.519
14162TIP3    H242428   3.239   5.044   1.462
14163TIP3   OH242429   5.971   1.660   2.609
14163TIP3    H142430   5.965   1.735   2.549
14163TIP3    H242431   6.044   1.682   2.667
14164TIP3   OH242432   8.173   6.355   4.518
14164TIP3    H142433   8.086   6.317   4.506
14164TIP3    H242434   8.181   6.418   4.447
14165TIP3   OH242435   1.091   5.993   5.841
14165TIP3    H142436   1.178   5.955   5.831
14165TIP3    H242437   1.104   6.070   5.897
14166TIP3   OH242438   1.938   4.528   1.792
14166TIP3    H142439   2.026   4.529   1.756
14166TIP3    H242440   1.881   4.554   1.720
14167TIP3   OH242441   7.915   2.905   2.002
14167TIP3    H142442   7.919   2.826   1.949
14167TIP3    H242443   7.846   2.887   2.066
14168TIP3   OH242444   3.730   5.806   3.503
14168TIP3    H142445   3.696   5.855   3.427
14168TIP3    H242446   3.761   5.873   3.563
14169TIP3   OH242447   1.351   5.646   1.118
14169TIP3    H142448   1.350   5.550   1.111
14169TIP3    H242449   1.424   5.665   1.176
14170TIP3   OH242450   0.554   3.347   0.930
14170TIP3    H142451   0.625   3.283   0.934
14170TIP3    H242452   0.599   3.432   0.932
14171TIP3   OH242453   6.928   5.548   0.222
14171TIP3    H142454   6.907   5.624   0.277
14171TIP3    H242455   6.846   5.529   0.175
14172TIP3   OH242456   7.881   0.205   5.313
14172TIP3    H142457   7.838   0.211   5.228
14172TIP3    H242458   7.947   0.137   5.302
14173TIP3   OH242459   0.142   1.127   6.095
14173TIP3    H142460   0.089   1.190   6.046
14173TIP3    H242461   0.132   1.154   6.186
14174TIP3   OH242462   7.262   7.247   6.485
14174TIP3    H142463   7.335   7.206   6.440
14174TIP3    H242464   7.195   7.259   6.417
14175TIP3   OH242465   6.563   6.285   2.008
14175TIP3    H142466   6.506   6.335   2.067
14175TIP3    H242467   6.652   6.311   2.033
14176TIP3   OH242468   0.434   2.262   4.706
14176TIP3    H142469   0.428   2.258   4.801
14176TIP3    H242470   0.353   2.221   4.675
14177TIP3   OH242471   4.442   5.675   5.813
14177TIP3    H142472   4.446   5.599   5.755
14177TIP3    H242473   4.370   5.655   5.873
14178TIP3   OH242474   2.094   5.259   0.570
14178TIP3    H142475   2.083   5.181   0.625
14178TIP3    H242476   2.104   5.331   0.633
14179TIP3   OH242477   5.499   5.753   4.400
14179TIP3    H142478   5.566   5.766   4.467
14179TIP3    H242479   5.537   5.789   4.320
14180TIP3   OH242480   4.461   4.205   1.479
14180TIP3    H142481   4.535   4.155   1.445
14180TIP3    H242482   4.462   4.286   1.428
14181TIP3   OH242483   3.140   1.246   0.394
14181TIP3    H142484   3.128   1.217   0.484
14181TIP3    H242485   3.154   1.165   0.345
14182TIP3   OH242486   1.272   4.069   3.264
14182TIP3    H142487   1.210   4.142   3.267
14182TIP3    H242488   1.322   4.082   3.183
14183TIP3   OH242489   0.480   6.890   3.054
14183TIP3    H142490   0.481   6.815   3.113
14183TIP3    H242491   0.505   6.854   2.969
14184TIP3   OH242492   1.040   1.634   1.694
14184TIP3    H142493   1.122   1.600   1.657
14184TIP3    H242494   0.974   1.568   1.669
14185TIP3   OH242495   3.623   0.658   0.963
14185TIP3    H142496   3.671   0.716   0.904
14185TIP3    H242497   3.539   0.703   0.977
14186TIP3   OH242498   6.690   5.808   6.654
14186TIP3    H142499   6.732   5.871   6.595
14186TIP3    H242500   6.597   5.828   6.648
14187TIP3   OH242501   7.442   5.685  -0.031
14187TIP3    H142502   7.412   5.689   0.060
14187TIP3    H242503   7.538   5.693  -0.026
14188TIP3   OH242504   6.213   3.213   3.801
14188TIP3    H142505   6.194   3.274   3.873
14188TIP3    H242506   6.252   3.268   3.733
14189TIP3   OH242507   2.726   2.880   2.897
14189TIP3    H142508   2.813   2.843   2.887
14189TIP3    H242509   2.703   2.865   2.989
14190TIP3   OH242510   6.719   0.528   6.394
14190TIP3    H142511   6.653   0.522   6.325
14190TIP3    H242512   6.771   0.605   6.371
14191TIP3   OH242513   6.632   1.328   6.559
14191TIP3    H142514   6.607   1.243   6.594
14191TIP3    H242515   6.576   1.341   6.482
14192TIP3   OH242516   1.062   7.628   3.562
14192TIP3    H142517   0.967   7.634   3.565
14192TIP3    H242518   1.087   7.680   3.485
14193TIP3   OH242519   3.309   1.872   3.423
14193TIP3    H142520   3.278   1.901   3.338
14193TIP3    H242521   3.231   1.871   3.478
14194TIP3   OH242522   4.216   7.039   0.040
14194TIP3    H142523   4.283   6.986  -0.003
14194TIP3    H242524   4.188   7.101  -0.027
14195TIP3   OH242525   1.512   1.341   5.781
14195TIP3    H142526   1.483   1.391   5.704
14195TIP3    H242527   1.608   1.348   5.779
14196TIP3   OH242528   0.137   7.124   3.083
14196TIP3    H142529   0.131   7.035   3.118
14196TIP3    H242530   0.210   7.164   3.131
14197TIP3   OH242531   2.136   7.733   5.318
14197TIP3    H142532   2.174   7.748   5.232
14197TIP3    H242533   2.128   7.820   5.356
14198TIP3   OH242534   8.134   1.618   4.457
14198TIP3    H142535   8.204   1.580   4.510
14198TIP3    H242536   8.116   1.702   4.499
14199TIP3   OH242537   0.702   6.249   2.670
14199TIP3    H142538   0.776   6.189   2.678
14199TIP3    H242539   0.707   6.282   2.580
14200TIP3   OH242540   1.096   3.907   6.159
14200TIP3    H142541   1.057   3.943   6.238
14200TIP3    H242542   1.145   3.980   6.121
14201TIP3   OH242543   1.258   0.530   2.461
14201TIP3    H142544   1.189   0.565   2.404
14201TIP3    H242545   1.263   0.437   2.438
14202TIP3   OH242546   5.767   4.575   0.115
14202TIP3    H142547   5.777   4.633   0.190
14202TIP3    H242548   5.676   4.547   0.118
14203TIP3   OH242549   6.566   5.778   5.042
14203TIP3    H142550   6.530   5.694   5.014
14203TIP3    H242551   6.639   5.794   4.982
14204TIP3   OH242552   7.494   7.709   0.691
14204TIP3    H142553   7.403   7.694   0.715
14204TIP3    H242554   7.536   7.624   0.702
14205TIP3   OH242555   0.515   1.414   2.309
14205TIP3    H142556   0.441   1.383   2.361
14205TIP3    H242557   0.571   1.337   2.299
14206TIP3   OH242558   0.541   2.181   3.631
14206TIP3    H142559   0.602   2.255   3.624
14206TIP3    H242560   0.578   2.114   3.574
14207TIP3   OH242561   3.961   4.417   2.998
14207TIP3    H142562   3.958   4.386   2.908
14207TIP3    H242563   3.928   4.507   2.993
14208TIP3   OH242564   2.430   2.433   1.141
14208TIP3    H142565   2.415   2.372   1.214
14208TIP3    H242566   2.524   2.432   1.129
14209TIP3   OH242567   3.763   0.877   1.799
14209TIP3    H142568   3.816   0.800   1.778
14209TIP3    H242569   3.805   0.949   1.752
14210TIP3   OH242570   3.928   5.484   1.516
14210TIP3    H142571   4.012   5.524   1.536
14210TIP3    H242572   3.942   5.390   1.531
14211TIP3   OH242573   0.394   4.361   3.008
14211TIP3    H142574   0.452   4.305   3.060
14211TIP3    H242575   0.321   4.304   2.984
14212TIP3   OH242576   1.516   0.640   3.471
14212TIP3    H142577   1.534   0.690   3.391
14212TIP3    H242578   1.526   0.549   3.446
14213TIP3   OH242579   3.901   2.262   5.432
14213TIP3    H142580   3.835   2.329   5.419
14213TIP3    H242581   3.855   2.179   5.418
14214TIP3   OH242582   1.612   3.050   0.750
14214TIP3    H142583   1.577   3.063   0.663
14214TIP3    H242584   1.577   2.965   0.778
14215TIP3   OH242585   7.235   5.753   5.540
14215TIP3    H142586   7.237   5.665   5.503
14215TIP3    H242587   7.294   5.804   5.485
14216TIP3   OH242588   4.870   4.521   1.206
14216TIP3    H142589   4.937   4.549   1.144
14216TIP3    H242590   4.792   4.509   1.153
14217TIP3   OH242591   4.027   7.836   2.994
14217TIP3    H142592   3.973   7.757   2.994
14217TIP3    H242593   3.989   7.892   3.062
14218TIP3   OH242594   4.430   2.338   4.706
14218TIP3    H142595   4.429   2.267   4.642
14218TIP3    H242596   4.338   2.355   4.724
14219TIP3   OH242597   0.736   0.041   3.361
14219TIP3    H142598   0.699  -0.041   3.394
14219TIP3    H242599   0.686   0.060   3.282
14220TIP3   OH242600   3.762   1.087   5.426
14220TIP3    H142601   3.693   1.021   5.423
14220TIP3    H242602   3.838   1.044   5.387
14221TIP3   OH242603   2.600   6.797   6.708
14221TIP3    H142604   2.637   6.849   6.637
14221TIP3    H242605   2.675   6.764   6.756
14222TIP3   OH242606   5.372   0.624   0.365
14222TIP3    H142607   5.342   0.632   0.456
14222TIP3    H242608   5.376   0.530   0.349
14223TIP3   OH242609   8.030   7.550   2.194
14223TIP3    H142610   8.086   7.612   2.241
14223TIP3    H242611   7.947   7.551   2.242
14224TIP3   OH242612   7.678   6.177   0.164
14224TIP3    H142613   7.744   6.121   0.206
14224TIP3    H242614   7.594   6.137   0.188
14225TIP3   OH242615   1.190   2.426   3.548
14225TIP3    H142616   1.173   2.358   3.483
14225TIP3    H242617   1.108   2.432   3.598
14226TIP3   OH242618   1.236   7.467   1.903
14226TIP3    H142619   1.186   7.544   1.929
14226TIP3    H242620   1.289   7.447   1.980
14227TIP3   OH242621   0.405   4.857   1.356
14227TIP3    H142622   0.364   4.845   1.271
14227TIP3    H242623   0.386   4.777   1.404
14228TIP3   OH242624   6.845   1.624   4.936
14228TIP3    H142625   6.800   1.646   4.854
14228TIP3    H242626   6.860   1.529   4.931
14229TIP3   OH242627   1.779   7.521   6.092
14229TIP3    H142628   1.726   7.450   6.131
14229TIP3    H242629   1.824   7.560   6.167
14230TIP3   OH242630   6.100   3.564   6.045
14230TIP3    H142631   6.040   3.490   6.053
14230TIP3    H242632   6.186   3.523   6.030
14231TIP3   OH242633   1.642   2.231   0.150
14231TIP3    H142634   1.737   2.229   0.159
14231TIP3    H242635   1.613   2.301   0.209
14232TIP3   OH242636   6.207   7.261   1.346
14232TIP3    H142637   6.115   7.271   1.320
14232TIP3    H242638   6.255   7.257   1.263
14233TIP3   OH242639   3.226   4.699   5.045
14233TIP3    H142640   3.303   4.643   5.033
14233TIP3    H242641   3.210   4.698   5.139
14234TIP3   OH242642  -0.052   2.020   6.380
14234TIP3    H142643  -0.008   2.101   6.407
14234TIP3    H242644  -0.132   2.018   6.433
14235TIP3   OH242645   1.271   0.527   6.773
14235TIP3    H142646   1.354   0.496   6.738
14235TIP3    H242647   1.207   0.506   6.705
14236TIP3   OH242648   1.089   6.275   3.132
14236TIP3    H142649   1.132   6.212   3.191
14236TIP3    H242650   1.000   6.241   3.123
14237TIP3   OH242651   3.834   3.669   1.807
14237TIP3    H142652   3.829   3.597   1.870
14237TIP3    H242653   3.910   3.648   1.753
14238TIP3   OH242654  -0.034   0.541   5.086
14238TIP3    H142655   0.003   0.528   4.999
14238TIP3    H242656   0.033   0.507   5.146
14239TIP3   OH242657   3.991   0.441   4.074
14239TIP3    H142658   3.945   0.497   4.136
14239TIP3    H242659   4.079   0.431   4.111
14240TIP3   OH242660   4.670   0.043   1.769
14240TIP3    H142661   4.704   0.108   1.708
14240TIP3    H242662   4.748   0.007   1.812
14241TIP3   OH242663   7.163   2.008   4.114
14241TIP3    H142664   7.208   1.966   4.040
14241TIP3    H242665   7.081   2.040   4.077
14242TIP3   OH242666   4.786   6.823   5.780
14242TIP3    H142667   4.850   6.809   5.709
14242TIP3    H242668   4.813   6.906   5.819
14243TIP3   OH242669   3.180   0.393   3.658
14243TIP3    H142670   3.258   0.404   3.714
14243TIP3    H242671   3.215   0.366   3.573
14244TIP3   OH242672   4.765   7.034   3.403
14244TIP3    H142673   4.742   6.941   3.407
14244TIP3    H242674   4.847   7.041   3.453
14245TIP3   OH242675   2.232   5.749   2.950
14245TIP3    H142676   2.216   5.843   2.964
14245TIP3    H242677   2.309   5.747   2.893
14246TIP3   OH242678   8.197   3.090   4.897
14246TIP3    H142679   8.223   3.183   4.898
14246TIP3    H242680   8.161   3.077   4.810
14247TIP3   OH242681   7.464   2.502   3.435
14247TIP3    H142682   7.549   2.539   3.413
14247TIP3    H242683   7.471   2.409   3.413
14248TIP3   OH242684   4.897   0.573   1.885
14248TIP3    H142685   4.815   0.605   1.922
14248TIP3    H242686   4.909   0.486   1.924
14249TIP3   OH242687   1.450   5.558   5.146
14249TIP3    H142688   1.435   5.491   5.213
14249TIP3    H242689   1.528   5.604   5.176
14250TIP3   OH242690   2.176   7.677   3.360
14250TIP3    H142691   2.208   7.598   3.404
14250TIP3    H242692   2.089   7.692   3.396
14251TIP3   OH242693   5.259   3.504   6.718
14251TIP3    H142694   5.174   3.548   6.726
14251TIP3    H242695   5.252   3.454   6.636
14252TIP3   OH242696   3.367   7.174   3.099
14252TIP3    H142697   3.276   7.170   3.069
14252TIP3    H242698   3.404   7.091   3.072
14253TIP3   OH242699   2.305   5.701   4.628
14253TIP3    H142700   2.363   5.770   4.596
14253TIP3    H242701   2.237   5.747   4.676
14254TIP3   OH242702   1.425   3.571   2.762
14254TIP3    H142703   1.386   3.597   2.679
14254TIP3    H242704   1.509   3.532   2.739
14255TIP3   OH242705   3.265   0.476   5.541
14255TIP3    H142706   3.232   0.530   5.612
14255TIP3    H242707   3.236   0.520   5.461
14256TIP3   OH242708   7.706   2.094   2.656
14256TIP3    H142709   7.616   2.061   2.660
14256TIP3    H242710   7.697   2.188   2.643
14257TIP3   OH242711   2.850   1.201   5.956
14257TIP3    H142712   2.935   1.241   5.939
14257TIP3    H242713   2.863   1.108   5.934
14258TIP3   OH242714   4.720   7.878   5.299
14258TIP3    H142715   4.754   7.792   5.326
14258TIP3    H242716   4.625   7.868   5.300
14259TIP3   OH242717   7.036   6.123   6.443
14259TIP3    H142718   7.075   6.148   6.359
14259TIP3    H242719   7.102   6.147   6.508
14260TIP3   OH242720   3.091   6.376   3.865
14260TIP3    H142721   3.143   6.419   3.933
14260TIP3    H242722   3.001   6.398   3.887
14261TIP3   OH242723   5.109   1.223   0.302
14261TIP3    H142724   5.199   1.199   0.325
14261TIP3    H242725   5.077   1.273   0.377
14262TIP3   OH242726   7.810   0.240   3.083
14262TIP3    H142727   7.835   0.326   3.117
14262TIP3    H242728   7.893   0.193   3.073
14263TIP3   OH242729   6.345   4.348   1.719
14263TIP3    H142730   6.392   4.430   1.705
14263TIP3    H242731   6.318   4.351   1.811
14264TIP3   OH242732   4.772   5.611   3.513
14264TIP3    H142733   4.752   5.597   3.606
14264TIP3    H242734   4.845   5.551   3.496
14265TIP3   OH242735   4.311   4.110   0.750
14265TIP3    H142736   4.345   4.066   0.672
14265TIP3    H242737   4.389   4.136   0.799
14266TIP3   OH242738   1.296   0.252   4.069
14266TIP3    H142739   1.222   0.195   4.047
14266TIP3    H242740   1.347   0.258   3.988
14267TIP3   OH242741   8.303   6.521   0.547
14267TIP3    H142742   8.283   6.527   0.454
14267TIP3    H242743   8.283   6.608   0.582
14268TIP3   OH242744   5.880   2.845   5.801
14268TIP3    H142745   5.920   2.818   5.718
14268TIP3    H242746   5.942   2.819   5.868
14269TIP3   OH242747   8.304   1.408   2.427
14269TIP3    H142748   8.283   1.349   2.354
14269TIP3    H242749   8.327   1.491   2.384
14270TIP3   OH242750   4.041   3.496   2.132
14270TIP3    H142751   4.124   3.448   2.129
14270TIP3    H242752   3.976   3.432   2.106
14271TIP3   OH242753   8.245   6.862   5.627
14271TIP3    H142754   8.300   6.784   5.636
14271TIP3    H242755   8.298   6.933   5.663
14272TIP3   OH242756   3.916   5.003   2.492
14272TIP3    H142757   3.988   4.947   2.520
14272TIP3    H242758   3.945   5.092   2.513
14273TIP3   OH242759   8.143   6.523   5.684
14273TIP3    H142760   8.237   6.510   5.698
14273TIP3    H242761   8.132   6.618   5.678
14274TIP3   OH242762   4.960   5.064   4.969
14274TIP3    H142763   4.897   5.126   4.933
14274TIP3    H242764   4.992   5.015   4.893
14275TIP3   OH242765   3.212   5.073   1.116
14275TIP3    H142766   3.135   5.053   1.169
14275TIP3    H242767   3.213   5.168   1.111
14276TIP3   OH242768   2.510   7.306   1.668
14276TIP3    H142769   2.423   7.337   1.644
14276TIP3    H242770   2.535   7.247   1.597
14277TIP3   OH242771   3.912   7.725   6.122
14277TIP3    H142772   3.825   7.752   6.092
14277TIP3    H242773   3.896   7.678   6.204
14278TIP3   OH242774   6.996   2.320   6.471
14278TIP3    H142775   7.074   2.372   6.486
14278TIP3    H242776   6.973   2.337   6.380
14279TIP3   OH242777   5.083   7.392   6.101
14279TIP3    H142778   5.142   7.317   6.116
14279TIP3    H242779   5.069   7.429   6.188
14280TIP3   OH242780   3.054   6.879   2.807
14280TIP3    H142781   3.037   6.971   2.784
14280TIP3    H242782   2.998   6.863   2.883
14281TIP3   OH242783   7.513   3.239   4.637
14281TIP3    H142784   7.540   3.152   4.664
14281TIP3    H242785   7.462   3.225   4.557
14282TIP3   OH242786   6.447   2.468   2.481
14282TIP3    H142787   6.479   2.379   2.465
14282TIP3    H242788   6.519   2.524   2.451
14283TIP3   OH242789   5.391   4.613   6.451
14283TIP3    H142790   5.445   4.632   6.528
14283TIP3    H242791   5.301   4.609   6.485
14284TIP3   OH242792   4.820   6.788   1.034
14284TIP3    H142793   4.864   6.717   0.987
14284TIP3    H242794   4.762   6.744   1.095
14285TIP3   OH242795   6.085   5.241   2.084
14285TIP3    H142796   6.061   5.220   1.994
14285TIP3    H242797   6.058   5.332   2.096
14286TIP3   OH242798   4.754   0.557   3.258
14286TIP3    H142799   4.771   0.561   3.164
14286TIP3    H242800   4.777   0.468   3.283
14287TIP3   OH242801   4.522   2.485   1.611
14287TIP3    H142802   4.456   2.425   1.646
14287TIP3    H242803   4.481   2.523   1.534
14288TIP3   OH242804   7.753   0.679   2.515
14288TIP3    H142805   7.727   0.633   2.435
14288TIP3    H242806   7.744   0.772   2.494
14289TIP3   OH242807   2.344   6.469   4.795
14289TIP3    H142808   2.385   6.446   4.712
14289TIP3    H242809   2.292   6.392   4.818
14290TIP3   OH242810   4.094   1.108   3.246
14290TIP3    H142811   4.181   1.149   3.247
14290TIP3    H242812   4.034   1.178   3.269
14291TIP3   OH242813   5.907   5.221   5.312
14291TIP3    H142814   5.925   5.128   5.320
14291TIP3    H242815   5.875   5.231   5.222
14292TIP3   OH242816   1.051   5.750   2.720
14292TIP3    H142817   1.064   5.668   2.767
14292TIP3    H242818   1.027   5.813   2.788
14293TIP3   OH242819   6.184   2.139   2.875
14293TIP3    H142820   6.266   2.177   2.845
14293TIP3    H242821   6.210   2.059   2.921
14294TIP3   OH242822   5.356   5.738   6.699
14294TIP3    H142823   5.430   5.797   6.687
14294TIP3    H242824   5.314   5.735   6.613
14295TIP3   OH242825   5.955   7.757   2.595
14295TIP3    H142826   5.956   7.832   2.536
14295TIP3    H242827   6.040   7.714   2.582
14296TIP3   OH242828   0.437   2.915   6.601
14296TIP3    H142829   0.397   2.930   6.686
14296TIP3    H242830   0.531   2.913   6.618
14297TIP3   OH242831   0.586   0.612   4.384
14297TIP3    H142832   0.618   0.686   4.333
14297TIP3    H242833   0.544   0.554   4.320
14298TIP3   OH242834   0.835   6.276   1.161
14298TIP3    H142835   0.843   6.299   1.068
14298TIP3    H242836   0.742   6.262   1.174
14299TIP3   OH242837   0.327   1.866   4.432
14299TIP3    H142838   0.401   1.905   4.386
14299TIP3    H242839   0.268   1.837   4.363
14300TIP3   OH242840   8.011   1.486   3.937
14300TIP3    H142841   8.039   1.529   3.856
14300TIP3    H242842   7.998   1.558   3.999
14301TIP3   OH242843   1.349   0.908   2.330
14301TIP3    H142844   1.336   0.866   2.415
14301TIP3    H242845   1.296   0.988   2.334
14302TIP3   OH242846   4.087   5.971   0.393
14302TIP3    H142847   4.132   6.039   0.343
14302TIP3    H242848   4.105   5.890   0.345
14303TIP3   OH242849   4.331   3.403   3.804
14303TIP3    H142850   4.342   3.408   3.709
14303TIP3    H242851   4.275   3.327   3.818
14304TIP3   OH242852   4.742   4.811   6.554
14304TIP3    H142853   4.673   4.774   6.500
14304TIP3    H242854   4.823   4.779   6.515
14305TIP3   OH242855   7.145   6.293   0.294
14305TIP3    H142856   7.110   6.348   0.365
14305TIP3    H242857   7.207   6.234   0.337
14306TIP3   OH242858   0.559   0.301   1.773
14306TIP3    H142859   0.537   0.223   1.723
14306TIP3    H242860   0.494   0.366   1.746
14307TIP3   OH242861   3.533   2.818   1.586
14307TIP3    H142862   3.500   2.728   1.587
14307TIP3    H242863   3.598   2.820   1.657
14308TIP3   OH242864   3.119   6.249   2.273
14308TIP3    H142865   3.126   6.322   2.212
14308TIP3    H242866   3.070   6.182   2.224
14309TIP3   OH242867   7.227   0.932   5.619
14309TIP3    H142868   7.287   0.965   5.686
14309TIP3    H242869   7.283   0.910   5.545
14310TIP3   OH242870   0.336   1.140   4.460
14310TIP3    H142871   0.247   1.161   4.485
14310TIP3    H242872   0.391   1.191   4.519
14311TIP3   OH242873   3.066   1.985   4.340
14311TIP3    H142874   3.132   1.928   4.302
14311TIP3    H242875   3.067   2.063   4.284
14312TIP3   OH242876   1.681   4.603   0.247
14312TIP3    H142877   1.652   4.671   0.186
14312TIP3    H242878   1.626   4.615   0.324
14313TIP3   OH242879   2.483   2.429   4.091
14313TIP3    H142880   2.455   2.473   4.011
14313TIP3    H242881   2.512   2.500   4.148
14314TIP3   OH242882   3.301   2.730   0.061
14314TIP3    H142883   3.374   2.767   0.011
14314TIP3    H242884   3.267   2.805   0.111
14315TIP3   OH242885   1.918   0.154   4.904
14315TIP3    H142886   1.892   0.128   4.992
14315TIP3    H242887   1.842   0.199   4.868
14316TIP3   OH242888   2.913   7.387   4.335
14316TIP3    H142889   2.969   7.430   4.400
14316TIP3    H242890   2.970   7.321   4.294
14317TIP3   OH242891   6.634   4.237   1.904
14317TIP3    H142892   6.630   4.279   1.990
14317TIP3    H242893   6.680   4.300   1.849
14318TIP3   OH242894   0.290   2.792   5.376
14318TIP3    H142895   0.366   2.744   5.344
14318TIP3    H242896   0.219   2.767   5.318
14319TIP3   OH242897   2.902   4.528   0.333
14319TIP3    H142898   2.812   4.557   0.318
14319TIP3    H242899   2.911   4.451   0.277
14320TIP3   OH242900   7.764   3.203   0.595
14320TIP3    H142901   7.757   3.228   0.503
14320TIP3    H242902   7.677   3.169   0.617
14321TIP3   OH242903   6.490   5.645   4.730
14321TIP3    H142904   6.448   5.583   4.790
14321TIP3    H242905   6.431   5.649   4.654
14322TIP3   OH242906   2.294   6.089   0.253
14322TIP3    H142907   2.240   6.034   0.309
14322TIP3    H242908   2.240   6.165   0.233
14323TIP3   OH242909   0.774   1.798   0.280
14323TIP3    H142910   0.737   1.711   0.276
14323TIP3    H242911   0.868   1.784   0.296
14324TIP3   OH242912   6.647   4.630   2.435
14324TIP3    H142913   6.672   4.619   2.343
14324TIP3    H242914   6.727   4.661   2.478
14325TIP3   OH242915   0.144   4.677   0.911
14325TIP3    H142916   0.211   4.670   0.980
14325TIP3    H242917   0.192   4.661   0.830
14326TIP3   OH242918   6.745   0.883   1.464
14326TIP3    H142919   6.735   0.881   1.369
14326TIP3    H242920   6.835   0.855   1.480
14327TIP3   OH242921   1.108   6.865   2.040
14327TIP3    H142922   1.079   6.946   2.082
14327TIP3    H242923   1.204   6.870   2.042
14328TIP3   OH242924   4.265   3.706   1.541
14328TIP3    H142925   4.263   3.728   1.448
14328TIP3    H242926   4.310   3.779   1.583
14329TIP3   OH242927   5.767   0.514   6.069
14329TIP3    H142928   5.811   0.434   6.100
14329TIP3    H242929   5.775   0.575   6.142
14330TIP3   OH242930   6.011   5.120   1.855
14330TIP3    H142931   5.989   5.130   1.762
14330TIP3    H242932   6.069   5.044   1.859
14331TIP3   OH242933   2.081   2.416   3.341
14331TIP3    H142934   2.002   2.363   3.343
14331TIP3    H242935   2.052   2.504   3.365
14332TIP3   OH242936   3.664   2.417   1.171
14332TIP3    H142937   3.620   2.501   1.186
14332TIP3    H242938   3.700   2.425   1.082
14333TIP3   OH242939   1.560   0.666   0.317
14333TIP3    H142940   1.502   0.608   0.267
14333TIP3    H242941   1.513   0.679   0.400
14334TIP3   OH242942   4.697   2.752   0.174
14334TIP3    H142943   4.689   2.847   0.168
14334TIP3    H242944   4.764   2.729   0.110
14335TIP3   OH242945   1.456   6.121   0.972
14335TIP3    H142946   1.414   6.138   1.056
14335TIP3    H242947   1.396   6.062   0.927
14336TIP3   OH242948   7.906   1.748   2.473
14336TIP3    H142949   7.863   1.789   2.548
14336TIP3    H242950   7.969   1.687   2.512
14337TIP3   OH242951   7.245   5.416   1.821
14337TIP3    H142952   7.183   5.488   1.834
14337TIP3    H242953   7.206   5.342   1.867
14338TIP3   OH242954   0.583   7.686   1.143
14338TIP3    H142955   0.522   7.629   1.095
14338TIP3    H242956   0.574   7.660   1.234
14339TIP3   OH242957   4.778   6.066   5.935
14339TIP3    H142958   4.685   6.085   5.929
14339TIP3    H242959   4.803   6.041   5.846
14340TIP3   OH242960   2.419   3.032   1.400
14340TIP3    H142961   2.390   2.954   1.354
14340TIP3    H242962   2.512   3.040   1.377
14341TIP3   OH242963   3.781   6.067   3.370
14341TIP3    H142964   3.802   6.055   3.463
14341TIP3    H242965   3.700   6.119   3.371
14342TIP3   OH242966   0.472   0.471   6.427
14342TIP3    H142967   0.529   0.472   6.350
14342TIP3    H242968   0.532   0.454   6.500
14343TIP3   OH242969   0.878   4.121   5.591
14343TIP3    H142970   0.828   4.067   5.653
14343TIP3    H242971   0.932   4.058   5.543
14344TIP3   OH242972   5.351   5.010   6.512
14344TIP3    H142973   5.437   4.980   6.541
14344TIP3    H242974   5.289   4.948   6.549
14345TIP3   OH242975   5.862   1.344   1.402
14345TIP3    H142976   5.919   1.366   1.328
14345TIP3    H242977   5.787   1.300   1.363
14346TIP3   OH242978   3.422   5.157   3.648
14346TIP3    H142979   3.455   5.216   3.581
14346TIP3    H242980   3.487   5.087   3.652
14347TIP3   OH242981   3.521   0.652   5.512
14347TIP3    H142982   3.576   0.575   5.498
14347TIP3    H242983   3.439   0.630   5.468
14348TIP3   OH242984   1.968   3.737   4.025
14348TIP3    H142985   1.964   3.818   4.075
14348TIP3    H242986   2.034   3.684   4.071
14349TIP3   OH242987   4.575   0.619   0.666
14349TIP3    H142988   4.502   0.609   0.605
14349TIP3    H242989   4.564   0.707   0.702
14350TIP3   OH242990   0.919   6.454   1.527
14350TIP3    H142991   0.833   6.429   1.495
14350TIP3    H242992   0.981   6.412   1.467
14351TIP3   OH242993   6.880   7.490   2.415
14351TIP3    H142994   6.916   7.410   2.378
14351TIP3    H242995   6.789   7.490   2.386
14352TIP3   OH242996   4.849   4.158   4.432
14352TIP3    H142997   4.928   4.162   4.378
14352TIP3    H242998   4.804   4.241   4.415
14353TIP3   OH242999   2.984   7.325   5.317
14353TIP3    H143000   2.963   7.323   5.223
14353TIP3    H243001   3.080   7.332   5.319
14354TIP3   OH243002   2.805   1.972   3.639
14354TIP3    H143003   2.743   1.900   3.627
14354TIP3    H243004   2.799   1.994   3.732
14355TIP3   OH243005   0.752   7.490   2.115
14355TIP3    H143006   0.661   7.521   2.119
14355TIP3    H243007   0.744   7.394   2.112
14356TIP3   OH243008   4.282   5.830   0.903
14356TIP3    H143009   4.261   5.797   0.991
14356TIP3    H243010   4.210   5.888   0.882
14357TIP3   OH243011   8.290   4.659   5.517
14357TIP3    H143012   8.267   4.720   5.448
14357TIP3    H243013   8.366   4.698   5.560
14358TIP3   OH243014   6.384   3.210   3.076
14358TIP3    H143015   6.325   3.151   3.029
14358TIP3    H243016   6.328   3.257   3.137
14359TIP3   OH243017   7.869   4.151   1.494
14359TIP3    H143018   7.902   4.079   1.548
14359TIP3    H243019   7.935   4.163   1.426
14360TIP3   OH243020   1.507   3.145   5.485
14360TIP3    H143021   1.477   3.184   5.568
14360TIP3    H243022   1.479   3.054   5.490
14361TIP3   OH243023   0.109   4.453   1.180
14361TIP3    H143024   0.062   4.467   1.261
14361TIP3    H243025   0.175   4.386   1.201
14362TIP3   OH243026   1.425   1.870   2.903
14362TIP3    H143027   1.400   1.939   2.965
14362TIP3    H243028   1.447   1.917   2.822
14363TIP3   OH243029   3.480   3.181   0.057
14363TIP3    H143030   3.422   3.201  -0.017
14363TIP3    H243031   3.560   3.232   0.039
14364TIP3   OH243032   5.185   3.486   5.320
14364TIP3    H143033   5.194   3.476   5.225
14364TIP3    H243034   5.261   3.536   5.346
14365TIP3   OH243035   4.050   1.542   5.027
14365TIP3    H143036   4.027   1.452   5.007
14365TIP3    H243037   4.145   1.545   5.020
14366TIP3   OH243038   0.816   6.241   3.366
14366TIP3    H143039   0.820   6.285   3.281
14366TIP3    H243040   0.742   6.181   3.359
14367TIP3   OH243041   4.068   6.378   0.217
14367TIP3    H143042   4.150   6.387   0.168
14367TIP3    H243043   4.039   6.468   0.232
14368TIP3   OH243044   6.615   6.720   1.708
14368TIP3    H143045   6.701   6.725   1.752
14368TIP3    H243046   6.591   6.812   1.694
14369TIP3   OH243047   7.465   1.992   4.264
14369TIP3    H143048   7.542   2.043   4.239
14369TIP3    H243049   7.394   2.030   4.213
14370TIP3   OH243050   0.599   0.613   0.511
14370TIP3    H143051   0.536   0.554   0.470
14370TIP3    H243052   0.645   0.653   0.438
14371TIP3   OH243053   7.089   6.776   0.779
14371TIP3    H143054   7.149   6.710   0.744
14371TIP3    H243055   7.011   6.768   0.725
14372TIP3   OH243056   6.468   5.186   3.173
14372TIP3    H143057   6.500   5.275   3.155
14372TIP3    H243058   6.535   5.148   3.230
14373TIP3   OH243059   2.889   6.788   1.972
14373TIP3    H143060   2.964   6.842   1.946
14373TIP3    H243061   2.820   6.851   1.993
14374TIP3   OH243062   5.710   5.361   2.525
14374TIP3    H143063   5.789   5.318   2.494
14374TIP3    H243064   5.708   5.445   2.480
14375TIP3   OH243065   5.863   3.862   6.381
14375TIP3    H143066   5.855   3.776   6.338
14375TIP3    H243067   5.929   3.908   6.331
14376TIP3   OH243068   5.451   0.140   1.738
14376TIP3    H143069   5.391   0.173   1.805
14376TIP3    H243070   5.444   0.044   1.744
14377TIP3   OH243071   0.435   4.355   4.697
14377TIP3    H143072   0.514   4.330   4.649
14377TIP3    H243073   0.422   4.285   4.761
14378TIP3   OH243074   0.845   5.137   1.890
14378TIP3    H143075   0.849   5.139   1.794
14378TIP3    H243076   0.915   5.195   1.918
14379TIP3   OH243077   2.494   7.946   3.084
14379TIP3    H143078   2.486   7.885   3.158
14379TIP3    H243079   2.440   7.907   3.015
14380TIP3   OH243080   7.818   5.855   5.529
14380TIP3    H143081   7.809   5.921   5.460
14380TIP3    H243082   7.859   5.781   5.485
14381TIP3   OH243083   0.387   1.898   0.637
14381TIP3    H143084   0.300   1.858   0.637
14381TIP3    H243085   0.431   1.863   0.559
14382TIP3   OH243086   6.581   5.506   3.803
14382TIP3    H143087   6.583   5.584   3.748
14382TIP3    H243088   6.669   5.468   3.793
14383TIP3   OH243089   1.047   0.281   5.420
14383TIP3    H143090   1.077   0.319   5.338
14383TIP3    H243091   1.126   0.275   5.474
14384TIP3   OH243092   6.774   5.781   1.114
14384TIP3    H143093   6.808   5.706   1.164
14384TIP3    H243094   6.691   5.749   1.079
14385TIP3   OH243095   1.535   5.461   1.817
14385TIP3    H143096   1.600   5.415   1.871
14385TIP3    H243097   1.544   5.553   1.842
14386TIP3   OH243098   5.875   6.729   6.760
14386TIP3    H143099   5.942   6.690   6.816
14386TIP3    H243100   5.925   6.778   6.694
14387TIP3   OH243101   4.301   4.053   1.318
14387TIP3    H143102   4.341   4.076   1.402
14387TIP3    H243103   4.308   3.957   1.313
14388TIP3   OH243104   3.878   1.079   5.102
14388TIP3    H143105   3.844   0.999   5.144
14388TIP3    H243106   3.916   1.129   5.174
14389TIP3   OH243107   7.506   3.600   2.884
14389TIP3    H143108   7.597   3.584   2.860
14389TIP3    H243109   7.494   3.694   2.870
14390TIP3   OH243110   5.213   4.586   5.503
14390TIP3    H143111   5.166   4.525   5.560
14390TIP3    H243112   5.268   4.637   5.561
14391TIP3   OH243113   0.681   4.937   5.249
14391TIP3    H143114   0.756   4.887   5.283
14391TIP3    H243115   0.676   4.913   5.157
14392TIP3   OH243116   0.533   5.389   2.995
14392TIP3    H143117   0.501   5.475   2.970
14392TIP3    H243118   0.479   5.328   2.945
14393TIP3   OH243119   3.693   5.523   3.269
14393TIP3    H143120   3.775   5.565   3.297
14393TIP3    H243121   3.651   5.588   3.213
14394TIP3   OH243122   4.311   1.625   1.668
14394TIP3    H143123   4.365   1.549   1.644
14394TIP3    H243124   4.358   1.700   1.633
14395TIP3   OH243125   2.120   6.340   1.061
14395TIP3    H143126   2.089   6.430   1.072
14395TIP3    H243127   2.123   6.305   1.151
14396TIP3   OH243128   0.114   7.477   3.572
14396TIP3    H143129   0.095   7.451   3.482
14396TIP3    H243130   0.029   7.494   3.611
14397TIP3   OH243131   3.987   7.544   5.478
14397TIP3    H143132   4.021   7.455   5.471
14397TIP3    H243133   3.975   7.559   5.572
14398TIP3   OH243134   2.272   5.508   3.506
14398TIP3    H143135   2.179   5.500   3.528
14398TIP3    H243136   2.274   5.556   3.424
14399TIP3   OH243137   3.742   6.182   1.472
14399TIP3    H143138   3.673   6.224   1.522
14399TIP3    H243139   3.710   6.183   1.381
14400TIP3   OH243140   2.610   7.735   1.239
14400TIP3    H143141   2.591   7.827   1.220
14400TIP3    H243142   2.528   7.700   1.272
14401TIP3   OH243143   1.110   6.058   1.422
14401TIP3    H143144   1.074   5.972   1.399
14401TIP3    H243145   1.194   6.038   1.463
14402TIP3   OH243146   8.243   4.295   1.917
14402TIP3    H143147   8.199   4.380   1.923
14402TIP3    H243148   8.262   4.272   2.008
14403TIP3   OH243149   3.187   7.109   4.588
14403TIP3    H143150   3.161   7.174   4.653
14403TIP3    H243151   3.127   7.036   4.601
14404TIP3   OH243152   1.589   1.819   1.740
14404TIP3    H143153   1.665   1.824   1.682
14404TIP3    H243154   1.606   1.743   1.795
14405TIP3   OH243155   5.518   3.561   1.405
14405TIP3    H143156   5.552   3.598   1.324
14405TIP3    H243157   5.447   3.503   1.376
14406TIP3   OH243158   1.352   1.764   6.118
14406TIP3    H143159   1.366   1.845   6.070
14406TIP3    H243160   1.257   1.761   6.134
14407TIP3   OH243161   0.107   5.952   5.297
14407TIP3    H143162   0.123   5.901   5.217
14407TIP3    H243163   0.139   5.896   5.368
14408TIP3   OH243164   1.821   0.589   0.619
14408TIP3    H143165   1.872   0.667   0.598
14408TIP3    H243166   1.797   0.600   0.711
14409TIP3   OH243167   5.092   2.225   2.600
14409TIP3    H143168   5.062   2.136   2.618
14409TIP3    H243169   5.026   2.260   2.540
14410TIP3   OH243170   1.898   3.892   1.723
14410TIP3    H143171   1.905   3.826   1.792
14410TIP3    H243172   1.946   3.967   1.759
14411TIP3   OH243173   7.372   4.613   2.273
14411TIP3    H143174   7.468   4.617   2.278
14411TIP3    H243175   7.353   4.524   2.242
14412TIP3   OH243176   1.491   7.341   1.531
14412TIP3    H143177   1.483   7.292   1.449
14412TIP3    H243178   1.479   7.432   1.505
14413TIP3   OH243179   1.112   4.090   0.666
14413TIP3    H143180   1.059   4.028   0.714
14413TIP3    H243181   1.200   4.080   0.703
14414TIP3   OH243182   6.528   4.413   3.613
14414TIP3    H143183   6.510   4.473   3.685
14414TIP3    H243184   6.615   4.378   3.633
14415TIP3   OH243185   7.028   1.521   6.734
14415TIP3    H143186   7.103   1.544   6.680
14415TIP3    H243187   7.047   1.434   6.768
14416TIP3   OH243188   4.890   5.499   0.322
14416TIP3    H143189   4.915   5.471   0.235
14416TIP3    H243190   4.798   5.475   0.330
14417TIP3   OH243191   5.535   4.008   4.971
14417TIP3    H143192   5.572   4.031   4.886
14417TIP3    H243193   5.489   3.925   4.955
14418TIP3   OH243194   2.646   5.713   4.039
14418TIP3    H143195   2.587   5.777   4.079
14418TIP3    H243196   2.588   5.646   4.004
14419TIP3   OH243197   0.934   5.981   6.786
14419TIP3    H143198   0.978   6.045   6.842
14419TIP3    H243199   0.906   5.912   6.847
14420TIP3   OH243200   3.110   0.502   4.598
14420TIP3    H143201   3.085   0.415   4.629
14420TIP3    H243202   3.040   0.527   4.538
14421TIP3   OH243203   6.343   3.416   4.397
14421TIP3    H143204   6.252   3.393   4.379
14421TIP3    H243205   6.354   3.398   4.490
14422TIP3   OH243206   1.019   6.184   4.186
14422TIP3    H143207   0.980   6.096   4.177
14422TIP3    H243208   1.071   6.195   4.107
14423TIP3   OH243209   0.070   3.437   4.006
14423TIP3    H143210   0.000   3.501   4.012
14423TIP3    H243211   0.150   3.487   4.022
14424TIP3   OH243212   1.777   1.301   5.717
14424TIP3    H143213   1.792   1.309   5.812
14424TIP3    H243214   1.858   1.262   5.683
14425TIP3   OH243215   5.269   3.897   4.581
14425TIP3    H143216   5.179   3.876   4.556
14425TIP3    H243217   5.302   3.952   4.510
14426TIP3   OH243218   8.289   6.596   2.146
14426TIP3    H143219   8.235   6.539   2.091
14426TIP3    H243220   8.256   6.684   2.129
14427TIP3   OH243221   1.465   2.707   2.454
14427TIP3    H143222   1.522   2.661   2.515
14427TIP3    H243223   1.418   2.770   2.508
14428TIP3   OH243224   5.225   6.875   3.302
14428TIP3    H143225   5.307   6.833   3.277
14428TIP3    H243226   5.252   6.958   3.342
14429TIP3   OH243227   5.400   1.814   3.071
14429TIP3    H143228   5.487   1.798   3.108
14429TIP3    H243229   5.417   1.868   2.994
14430TIP3   OH243230   5.979   2.772   2.075
14430TIP3    H143231   6.051   2.786   2.013
14430TIP3    H243232   5.999   2.831   2.148
14431TIP3   OH243233   4.513   0.214   3.972
14431TIP3    H143234   4.585   0.157   3.999
14431TIP3    H243235   4.511   0.205   3.876
14432TIP3   OH243236   1.830   5.301   2.279
14432TIP3    H143237   1.814   5.218   2.324
14432TIP3    H243238   1.756   5.356   2.303
14433TIP3   OH243239   0.171   4.375   4.582
14433TIP3    H143240   0.195   4.398   4.492
14433TIP3    H243241   0.233   4.306   4.607
14434TIP3   OH243242   6.112   1.587   1.901
14434TIP3    H143243   6.073   1.524   1.840
14434TIP3    H243244   6.123   1.539   1.983
14435TIP3   OH243245   5.118   6.680   0.987
14435TIP3    H143246   5.188   6.626   0.951
14435TIP3    H243247   5.154   6.768   0.989
14436TIP3   OH243248   4.568   6.060   3.049
14436TIP3    H143249   4.623   6.057   3.128
14436TIP3    H243250   4.569   5.970   3.016
14437TIP3   OH243251   4.368   7.451   2.587
14437TIP3    H143252   4.410   7.536   2.593
14437TIP3    H243253   4.440   7.388   2.587
14438TIP3   OH243254   8.121   5.270   0.431
14438TIP3    H143255   8.212   5.243   0.416
14438TIP3    H243256   8.114   5.279   0.526
14439TIP3   OH243257   3.513   5.553   6.760
14439TIP3    H143258   3.431   5.560   6.810
14439TIP3    H243259   3.574   5.509   6.820
14440TIP3   OH243260   2.758   6.957   3.101
14440TIP3    H143261   2.826   6.896   3.073
14440TIP3    H243262   2.676   6.914   3.076
14441TIP3   OH243263   5.731   3.074   1.467
14441TIP3    H143264   5.821   3.046   1.456
14441TIP3    H243265   5.695   3.077   1.378
14442TIP3   OH243266   3.769   5.028   0.989
14442TIP3    H143267   3.682   5.057   0.962
14442TIP3    H243268   3.792   4.959   0.927
14443TIP3   OH243269   8.133   7.554   6.614
14443TIP3    H143270   8.225   7.554   6.641
14443TIP3    H243271   8.105   7.463   6.623
14444TIP3   OH243272   5.170   2.483   3.734
14444TIP3    H143273   5.242   2.427   3.703
14444TIP3    H243274   5.120   2.428   3.793
14445TIP3   OH243275   7.943   0.623   6.345
14445TIP3    H143276   7.876   0.555   6.351
14445TIP3    H243277   8.006   0.602   6.414
14446TIP3   OH243278   0.058   3.652   0.250
14446TIP3    H143279   0.090   3.740   0.270
14446TIP3    H243280  -0.037   3.658   0.263
14447TIP3   OH243281   6.621   3.077   2.694
14447TIP3    H143282   6.708   3.111   2.675
14447TIP3    H243283   6.635   3.014   2.764
14448TIP3   OH243284   4.454   2.217   5.081
14448TIP3    H143285   4.495   2.207   4.995
14448TIP3    H243286   4.414   2.304   5.079
14449TIP3   OH243287   2.081   2.280   3.080
14449TIP3    H143288   2.117   2.194   3.101
14449TIP3    H243289   2.055   2.316   3.165
14450TIP3   OH243290   6.784   2.033   5.692
14450TIP3    H143291   6.753   2.119   5.663
14450TIP3    H243292   6.876   2.047   5.712
14451TIP3   OH243293   7.639   3.319   0.909
14451TIP3    H143294   7.723   3.352   0.876
14451TIP3    H243295   7.587   3.305   0.829
14452TIP3   OH243296   7.890   2.072   5.154
14452TIP3    H143297   7.827   2.096   5.086
14452TIP3    H243298   7.879   1.978   5.165
14453TIP3   OH243299   8.077   2.594   0.376
14453TIP3    H143300   8.132   2.670   0.355
14453TIP3    H243301   8.058   2.554   0.291
14454TIP3   OH243302   7.779   4.300   0.907
14454TIP3    H143303   7.831   4.230   0.946
14454TIP3    H243304   7.837   4.375   0.905
14455TIP3   OH243305   0.348   5.141   0.043
14455TIP3    H143306   0.355   5.150   0.138
14455TIP3    H243307   0.379   5.224   0.008
14456TIP3   OH243308   3.599   2.679   6.101
14456TIP3    H143309   3.588   2.605   6.041
14456TIP3    H243310   3.511   2.713   6.114
14457TIP3   OH243311   5.526   1.719   6.066
14457TIP3    H143312   5.529   1.696   6.159
14457TIP3    H243313   5.435   1.741   6.049
14458TIP3   OH243314   0.369   0.157   2.805
14458TIP3    H143315   0.423   0.231   2.776
14458TIP3    H243316   0.418   0.079   2.778
14459TIP3   OH243317   5.578   6.947   0.888
14459TIP3    H143318   5.566   7.041   0.899
14459TIP3    H243319   5.564   6.910   0.976
14460TIP3   OH243320   6.165   7.697   4.672
14460TIP3    H143321   6.113   7.649   4.737
14460TIP3    H243322   6.104   7.712   4.599
14461TIP3   OH243323   7.906   2.161   4.165
14461TIP3    H143324   7.880   2.168   4.257
14461TIP3    H243325   7.917   2.067   4.151
14462TIP3   OH243326   0.367   3.989   1.154
14462TIP3    H143327   0.460   3.986   1.174
14462TIP3    H243328   0.326   4.023   1.233
14463TIP3   OH243329   6.022   0.097   4.285
14463TIP3    H143330   5.935   0.134   4.301
14463TIP3    H243331   6.028   0.024   4.346
14464TIP3   OH243332   3.638   2.877   0.150
14464TIP3    H143333   3.622   2.849   0.060
14464TIP3    H243334   3.642   2.972   0.145
14465TIP3   OH243335   3.877   1.171   0.571
14465TIP3    H143336   3.836   1.157   0.656
14465TIP3    H243337   3.881   1.266   0.561
14466TIP3   OH243338   7.280   5.433   2.259
14466TIP3    H143339   7.211   5.473   2.312
14466TIP3    H243340   7.241   5.422   2.173
14467TIP3   OH243341   1.159   1.398   4.092
14467TIP3    H143342   1.150   1.485   4.053
14467TIP3    H243343   1.151   1.338   4.018
14468TIP3   OH243344   6.338   2.664   3.998
14468TIP3    H143345   6.253   2.621   3.993
14468TIP3    H243346   6.318   2.756   4.016
14469TIP3   OH243347   5.517   1.003   5.147
14469TIP3    H143348   5.443   1.021   5.089
14469TIP3    H243349   5.583   1.067   5.122
14470TIP3   OH243350   1.654  -0.013   2.102
14470TIP3    H143351   1.658   0.043   2.180
14470TIP3    H243352   1.593   0.032   2.044
14471TIP3   OH243353   3.440   4.805   1.699
14471TIP3    H143354   3.461   4.887   1.744
14471TIP3    H243355   3.518   4.784   1.649
14472TIP3   OH243356   1.216   6.775   0.209
14472TIP3    H143357   1.170   6.852   0.243
14472TIP3    H243358   1.195   6.706   0.271
14473TIP3   OH243359   4.371   4.337   2.555
14473TIP3    H143360   4.328   4.380   2.480
14473TIP3    H243361   4.301   4.329   2.620
14474TIP3   OH243362   4.593   2.391   0.580
14474TIP3    H143363   4.680   2.397   0.539
14474TIP3    H243364   4.598   2.451   0.654
14475TIP3   OH243365   5.215   6.387   0.000
14475TIP3    H143366   5.192   6.446  -0.071
14475TIP3    H243367   5.217   6.442   0.078
14476TIP3   OH243368   3.179   4.730   1.532
14476TIP3    H143369   3.252   4.793   1.534
14476TIP3    H243370   3.159   4.719   1.439
14477TIP3   OH243371   2.998   6.071   0.290
14477TIP3    H143372   2.996   6.163   0.261
14477TIP3    H243373   2.924   6.063   0.349
14478TIP3   OH243374   0.246   0.868   2.682
14478TIP3    H143375   0.311   0.936   2.665
14478TIP3    H243376   0.165   0.900   2.642
14479TIP3   OH243377   8.427   7.871   3.977
14479TIP3    H143378   8.397   7.869   4.068
14479TIP3    H243379   8.462   7.783   3.962
14480TIP3   OH243380   2.055   5.916   1.600
14480TIP3    H143381   2.089   5.929   1.689
14480TIP3    H243382   2.119   5.859   1.558
14481TIP3   OH243383   7.601   0.585   5.804
14481TIP3    H143384   7.674   0.576   5.743
14481TIP3    H243385   7.550   0.505   5.791
14482TIP3   OH243386   7.051   2.950   5.038
14482TIP3    H143387   7.026   3.039   5.012
14482TIP3    H243388   7.141   2.958   5.068
14483TIP3   OH243389   2.854   2.082   4.732
14483TIP3    H143390   2.830   2.163   4.777
14483TIP3    H243391   2.907   2.111   4.658
14484TIP3   OH243392   5.637   2.573   1.592
14484TIP3    H143393   5.614   2.663   1.615
14484TIP3    H243394   5.621   2.524   1.673
14485TIP3   OH243395   7.768   0.970   3.388
14485TIP3    H143396   7.829   0.930   3.326
14485TIP3    H243397   7.825   1.011   3.454
14486TIP3   OH243398   7.546   7.876   0.223
14486TIP3    H143399   7.575   7.953   0.271
14486TIP3    H243400   7.482   7.834   0.280
14487TIP3   OH243401   0.314   0.767   6.423
14487TIP3    H143402   0.338   0.681   6.458
14487TIP3    H243403   0.225   0.782   6.454
14488TIP3   OH243404   6.864   0.473   3.834
14488TIP3    H143405   6.859   0.556   3.882
14488TIP3    H243406   6.780   0.431   3.851
14489TIP3   OH243407   3.451   2.031   5.304
14489TIP3    H143408   3.366   2.062   5.272
14489TIP3    H243409   3.460   1.943   5.268
14490TIP3   OH243410   4.140   7.656   4.289
14490TIP3    H143411   4.134   7.751   4.276
14490TIP3    H243412   4.169   7.646   4.379
14491TIP3   OH243413   7.982   6.475   6.208
14491TIP3    H143414   7.957   6.505   6.120
14491TIP3    H243415   7.899   6.465   6.254
14492TIP3   OH243416   3.139   0.475   6.003
14492TIP3    H143417   3.075   0.418   5.960
14492TIP3    H243418   3.215   0.419   6.019
14493TIP3   OH243419   2.984   2.653   1.583
14493TIP3    H143420   3.013   2.570   1.620
14493TIP3    H243421   3.007   2.648   1.490
14494TIP3   OH243422   6.398   4.146   3.148
14494TIP3    H143423   6.322   4.166   3.094
14494TIP3    H243424   6.397   4.213   3.217
14495TIP3   OH243425   7.770   3.171   0.090
14495TIP3    H143426   7.838   3.134   0.034
14495TIP3    H243427   7.688   3.148   0.047
14496TIP3   OH243428   6.239   3.114   0.320
14496TIP3    H143429   6.306   3.062   0.275
14496TIP3    H243430   6.268   3.205   0.308
14497TIP3   OH243431   0.072   1.067   1.092
14497TIP3    H143432   0.164   1.059   1.119
14497TIP3    H243433   0.023   1.036   1.168
14498TIP3   OH243434   6.882   1.047   4.054
14498TIP3    H143435   6.820   1.055   3.981
14498TIP3    H243436   6.832   1.007   4.125
14499TIP3   OH243437   5.562   2.472   1.832
14499TIP3    H143438   5.496   2.405   1.814
14499TIP3    H243439   5.630   2.427   1.881
14500TIP3   OH243440   1.564   0.287   2.536
14500TIP3    H143441   1.570   0.339   2.616
14500TIP3    H243442   1.647   0.302   2.491
14501TIP3   OH243443   1.828   6.721   5.226
14501TIP3    H143444   1.806   6.679   5.143
14501TIP3    H243445   1.783   6.805   5.224
14502TIP3   OH243446   6.170   0.882   2.985
14502TIP3    H143447   6.140   0.800   3.024
14502TIP3    H243448   6.090   0.930   2.965
14503TIP3   OH243449   2.477   0.470   0.925
14503TIP3    H143450   2.436   0.552   0.897
14503TIP3    H243451   2.538   0.448   0.854
14504TIP3   OH243452   2.739   3.207   4.543
14504TIP3    H143453   2.755   3.204   4.638
14504TIP3    H243454   2.821   3.175   4.504
14505TIP3   OH243455   1.908   0.800   2.077
14505TIP3    H143456   1.910   0.812   2.172
14505TIP3    H243457   1.826   0.754   2.060
14506TIP3   OH243458   4.650   6.778   4.717
14506TIP3    H143459   4.559   6.758   4.693
14506TIP3    H243460   4.653   6.873   4.722
14507TIP3   OH243461   5.856   3.312   5.290
14507TIP3    H143462   5.844   3.240   5.227
14507TIP3    H243463   5.815   3.387   5.248
14508TIP3   OH243464   0.517   6.361   5.619
14508TIP3    H143465   0.561   6.404   5.692
14508TIP3    H243466   0.521   6.425   5.548
14509TIP3   OH243467   7.663   4.573   3.956
14509TIP3    H143468   7.745   4.574   4.004
14509TIP3    H243469   7.601   4.620   4.012
14510TIP3   OH243470   4.980   6.235   5.327
14510TIP3    H143471   4.922   6.161   5.308
14510TIP3    H243472   4.921   6.309   5.338
14511TIP3   OH243473   5.236   1.093   1.884
14511TIP3    H143474   5.184   1.173   1.874
14511TIP3    H243475   5.324   1.124   1.908
14512TIP3   OH243476   6.216   6.445   1.373
14512TIP3    H143477   6.234   6.431   1.280
14512TIP3    H243478   6.271   6.519   1.398
14513TIP3   OH243479   1.368   4.350   3.405
14513TIP3    H143480   1.322   4.346   3.322
14513TIP3    H243481   1.300   4.335   3.471
14514TIP3   OH243482   6.136   6.058   4.083
14514TIP3    H143483   6.225   6.091   4.067
14514TIP3    H243484   6.148   5.986   4.146
14515TIP3   OH243485   0.689   7.168   0.022
14515TIP3    H143486   0.623   7.114   0.066
14515TIP3    H243487   0.675   7.256   0.057
14516TIP3   OH243488   3.320   4.918   6.914
14516TIP3    H143489   3.351   4.929   6.824
14516TIP3    H243490   3.236   4.872   6.904
14517TIP3   OH243491   4.339   6.389   6.536
14517TIP3    H143492   4.289   6.463   6.501
14517TIP3    H243493   4.279   6.344   6.595
14518TIP3   OH243494   5.750   1.901   0.436
14518TIP3    H143495   5.656   1.910   0.422
14518TIP3    H243496   5.766   1.807   0.435
14519TIP3   OH243497   6.458   3.459   3.293
14519TIP3    H143498   6.377   3.419   3.261
14519TIP3    H243499   6.493   3.507   3.218
14520TIP3   OH243500   1.878   7.283   4.079
14520TIP3    H143501   1.850   7.372   4.056
14520TIP3    H243502   1.967   7.293   4.111
14521TIP3   OH243503   5.300   4.804   2.736
14521TIP3    H143504   5.207   4.784   2.723
14521TIP3    H243505   5.310   4.894   2.706
14522TIP3   OH243506   0.912   6.460   5.374
14522TIP3    H143507   0.969   6.432   5.446
14522TIP3    H243508   0.968   6.517   5.321
14523TIP3   OH243509   3.011   1.655   4.961
14523TIP3    H143510   2.942   1.708   4.919
14523TIP3    H243511   3.082   1.717   4.977
14524TIP3   OH243512   2.546   1.768   2.444
14524TIP3    H143513   2.558   1.725   2.529
14524TIP3    H243514   2.609   1.725   2.386
14525TIP3   OH243515   7.921   2.422   1.470
14525TIP3    H143516   7.842   2.382   1.434
14525TIP3    H243517   7.960   2.469   1.396
14526TIP3   OH243518   2.646   4.945   1.130
14526TIP3    H143519   2.552   4.956   1.141
14526TIP3    H243520   2.666   4.861   1.172
14527TIP3   OH243521   1.026   7.777   3.894
14527TIP3    H143522   1.117   7.799   3.874
14527TIP3    H243523   1.012   7.809   3.983
14528TIP3   OH243524   0.311   6.670   4.349
14528TIP3    H143525   0.387   6.726   4.337
14528TIP3    H243526   0.337   6.609   4.418
14529TIP3   OH243527   0.115   1.019   6.699
14529TIP3    H143528   0.192   0.964   6.706
14529TIP3    H243529   0.106   1.061   6.784
14530TIP3   OH243530   8.133   1.954   4.952
14530TIP3    H143531   8.077   1.879   4.973
14530TIP3    H243532   8.072   2.028   4.946
14531TIP3   OH243533   1.269   0.176   0.249
14531TIP3    H143534   1.199   0.116   0.225
14531TIP3    H243535   1.231   0.231   0.318
14532TIP3   OH243536   4.670   6.078   6.338
14532TIP3    H143537   4.684   6.002   6.281
14532TIP3    H243538   4.685   6.154   6.281
14533TIP3   OH243539   4.739   2.123   2.289
14533TIP3    H143540   4.655   2.079   2.279
14533TIP3    H243541   4.731   2.202   2.236
14534TIP3   OH243542   4.637   4.362   4.034
14534TIP3    H143543   4.550   4.401   4.034
14534TIP3    H243544   4.664   4.363   3.942
14535TIP3   OH243545   7.942   0.375   3.928
14535TIP3    H143546   7.966   0.462   3.959
14535TIP3    H243547   7.936   0.384   3.833
14536TIP3   OH243548   4.458   1.536   6.197
14536TIP3    H143549   4.380   1.555   6.249
14536TIP3    H243550   4.524   1.510   6.261
14537TIP3   OH243551   3.457   0.217   3.741
14537TIP3    H143552   3.531   0.159   3.761
14537TIP3    H243553   3.444   0.266   3.822
14538TIP3   OH243554   5.190   6.742   1.283
14538TIP3    H143555   5.225   6.658   1.254
14538TIP3    H243556   5.145   6.777   1.206
14539TIP3   OH243557   8.343   2.281   6.585
14539TIP3    H143558   8.322   2.288   6.491
14539TIP3    H243559   8.425   2.233   6.588
14540TIP3   OH243560   5.971   0.429   0.637
14540TIP3    H143561   5.978   0.433   0.733
14540TIP3    H243562   6.059   0.450   0.607
14541TIP3   OH243563   0.264   7.772   3.581
14541TIP3    H143564   0.351   7.805   3.602
14541TIP3    H243565   0.256   7.691   3.630
14542TIP3   OH243566   8.190   6.610   4.390
14542TIP3    H143567   8.182   6.699   4.425
14542TIP3    H243568   8.220   6.622   4.300
14543TIP3   OH243569   1.957   6.223   1.531
14543TIP3    H143570   1.916   6.292   1.584
14543TIP3    H243571   2.032   6.194   1.583
14544TIP3   OH243572   6.538   0.510   2.645
14544TIP3    H143573   6.588   0.429   2.647
14544TIP3    H243574   6.603   0.577   2.622
14545TIP3   OH243575   6.304   1.890   1.349
14545TIP3    H143576   6.256   1.858   1.425
14545TIP3    H243577   6.332   1.811   1.303
14546TIP3   OH243578   6.749   1.024   0.619
14546TIP3    H143579   6.825   0.966   0.623
14546TIP3    H243580   6.750   1.071   0.703
14547TIP3   OH243581   1.713   2.555  -0.007
14547TIP3    H143582   1.780   2.618   0.020
14547TIP3    H243583   1.727   2.480   0.050
14548TIP3   OH243584   0.619   2.500   1.469
14548TIP3    H143585   0.690   2.541   1.420
14548TIP3    H243586   0.541   2.515   1.416
14549TIP3   OH243587   4.452   4.219   5.433
14549TIP3    H143588   4.507   4.203   5.356
14549TIP3    H243589   4.381   4.155   5.425
14550TIP3   OH243590   1.182   3.741   6.752
14550TIP3    H143591   1.181   3.651   6.721
14550TIP3    H243592   1.260   3.779   6.711
14551TIP3   OH243593   1.584   5.028   4.513
14551TIP3    H143594   1.531   5.023   4.593
14551TIP3    H243595   1.670   5.056   4.543
14552TIP3   OH243596   4.876   3.299   0.992
14552TIP3    H143597   4.924   3.359   0.934
14552TIP3    H243598   4.795   3.280   0.945
14553TIP3   OH243599   0.816   1.814   6.041
14553TIP3    H143600   0.742   1.801   6.101
14553TIP3    H243601   0.893   1.814   6.097
14554TIP3   OH243602   8.402   3.625   3.025
14554TIP3    H143603   8.307   3.614   3.023
14554TIP3    H243604   8.431   3.591   2.940
14555TIP3   OH243605   1.547   0.562   4.786
14555TIP3    H143606   1.630   0.603   4.763
14555TIP3    H243607   1.521   0.605   4.868
14556TIP3   OH243608   7.418   5.801   2.279
14556TIP3    H143609   7.491   5.840   2.230
14556TIP3    H243610   7.436   5.822   2.371
14557TIP3   OH243611   2.631   1.300   6.440
14557TIP3    H143612   2.709   1.347   6.412
14557TIP3    H243613   2.627   1.314   6.535
14558TIP3   OH243614   2.334   4.496   0.333
14558TIP3    H143615   2.280   4.470   0.408
14558TIP3    H243616   2.302   4.584   0.311
14559TIP3   OH243617   2.084   1.263   4.130
14559TIP3    H143618   2.176   1.281   4.147
14559TIP3    H243619   2.076   1.168   4.139
14560TIP3   OH243620   5.310   6.540   3.348
14560TIP3    H143621   5.255   6.463   3.361
14560TIP3    H243622   5.258   6.597   3.290
14561TIP3   OH243623   6.651   0.225   1.412
14561TIP3    H143624   6.721   0.224   1.477
14561TIP3    H243625   6.667   0.303   1.359
14562TIP3   OH243626   6.248   1.213   5.327
14562TIP3    H143627   6.154   1.222   5.312
14562TIP3    H243628   6.256   1.199   5.421
14563TIP3   OH243629   7.434   5.222   0.707
14563TIP3    H143630   7.497   5.168   0.756
14563TIP3    H243631   7.397   5.162   0.642
14564TIP3   OH243632   0.735   0.045   5.905
14564TIP3    H143633   0.659  -0.010   5.922
14564TIP3    H243634   0.702   0.135   5.907
14565TIP3   OH243635   2.397   4.953   4.689
14565TIP3    H143636   2.485   4.935   4.657
14565TIP3    H243637   2.406   4.961   4.784
14566TIP3   OH243638   2.496   7.839   5.168
14566TIP3    H143639   2.428   7.907   5.176
14566TIP3    H243640   2.577   7.888   5.154
14567TIP3   OH243641   5.552   3.394   0.405
14567TIP3    H143642   5.631   3.353   0.441
14567TIP3    H243643   5.517   3.329   0.345
14568TIP3   OH243644   2.205   0.366   0.241
14568TIP3    H143645   2.225   0.311   0.165
14568TIP3    H243646   2.143   0.314   0.292
14569TIP3   OH243647   6.684   7.633   3.720
14569TIP3    H143648   6.667   7.712   3.669
14569TIP3    H243649   6.684   7.663   3.811
14570TIP3   OH243650   6.798   0.796   3.785
14570TIP3    H143651   6.890   0.821   3.797
14570TIP3    H243652   6.775   0.751   3.866
14571TIP3   OH243653   7.233   6.800   3.332
14571TIP3    H143654   7.153   6.793   3.281
14571TIP3    H243655   7.209   6.769   3.420
14572TIP3   OH243656   7.058   6.570   3.216
14572TIP3    H143657   6.969   6.598   3.238
14572TIP3    H243658   7.076   6.497   3.275
14573TIP3   OH243659   7.962   6.664   1.786
14573TIP3    H143660   7.971   6.741   1.731
14573TIP3    H243661   7.936   6.594   1.726
14574TIP3   OH243662   6.399   7.417   1.916
14574TIP3    H143663   6.409   7.503   1.956
14574TIP3    H243664   6.393   7.357   1.990
14575TIP3   OH243665   0.606   5.321   1.692
14575TIP3    H143666   0.601   5.240   1.743
14575TIP3    H243667   0.531   5.372   1.721
14576TIP3   OH243668   4.253   4.747   4.623
14576TIP3    H143669   4.254   4.818   4.687
14576TIP3    H243670   4.216   4.787   4.544
14577TIP3   OH243671   5.221   5.666   6.431
14577TIP3    H143672   5.165   5.670   6.353
14577TIP3    H243673   5.274   5.746   6.426
14578TIP3   OH243674   2.076   1.396   3.587
14578TIP3    H143675   2.130   1.320   3.565
14578TIP3    H243676   2.041   1.376   3.674
14579TIP3   OH243677   0.337   1.706   3.635
14579TIP3    H143678   0.273   1.765   3.594
14579TIP3    H243679   0.288   1.663   3.705
14580TIP3   OH243680   3.643   6.700   5.953
14580TIP3    H143681   3.676   6.788   5.971
14580TIP3    H243682   3.612   6.704   5.863
14581TIP3   OH243683   7.783   2.961   3.578
14581TIP3    H143684   7.718   2.924   3.638
14581TIP3    H243685   7.836   3.019   3.632
14582TIP3   OH243686   7.491   6.116   5.776
14582TIP3    H143687   7.515   6.037   5.825
14582TIP3    H243688   7.571   6.141   5.730
14583TIP3   OH243689   4.150   3.118   6.465
14583TIP3    H143690   4.096   3.120   6.545
14583TIP3    H243691   4.090   3.144   6.395
14584TIP3   OH243692   6.135   1.205   2.462
14584TIP3    H143693   6.188   1.284   2.464
14584TIP3    H243694   6.152   1.162   2.545
14585TIP3   OH243695   2.331   2.340   3.363
14585TIP3    H143696   2.240   2.357   3.339
14585TIP3    H243697   2.340   2.245   3.357
14586TIP3   OH243698   1.988   6.987   2.722
14586TIP3    H143699   1.917   7.006   2.783
14586TIP3    H243700   2.031   6.910   2.759
14587TIP3   OH243701   5.904   6.564   3.423
14587TIP3    H143702   5.828   6.620   3.411
14587TIP3    H243703   5.921   6.566   3.517
14588TIP3   OH243704   1.352   0.655   1.806
14588TIP3    H143705   1.353   0.715   1.881
14588TIP3    H243706   1.444   0.646   1.781
14589TIP3   OH243707   1.786   3.955   5.736
14589TIP3    H143708   1.786   3.861   5.751
14589TIP3    H243709   1.858   3.988   5.790
14590TIP3   OH243710   2.411   6.106   1.769
14590TIP3    H143711   2.402   6.034   1.831
14590TIP3    H243712   2.506   6.114   1.756
14591TIP3   OH243713   6.362   7.199   1.562
14591TIP3    H143714   6.455   7.216   1.553
14591TIP3    H243715   6.323   7.232   1.481
14592TIP3   OH243716   4.558   3.012   1.604
14592TIP3    H143717   4.627   3.009   1.670
14592TIP3    H243718   4.493   3.071   1.641
14593TIP3   OH243719   1.433   7.824   1.780
14593TIP3    H143720   1.465   7.879   1.852
14593TIP3    H243721   1.511   7.780   1.747
14594TIP3   OH243722   0.893   4.804   4.885
14594TIP3    H143723   0.813   4.794   4.936
14594TIP3    H243724   0.908   4.898   4.879
14595TIP3   OH243725   2.607   2.129   3.858
14595TIP3    H143726   2.563   2.166   3.782
14595TIP3    H243727   2.543   2.137   3.929
14596TIP3   OH243728   2.819   0.468   2.800
14596TIP3    H143729   2.762   0.525   2.749
14596TIP3    H243730   2.779   0.464   2.886
14597TIP3   OH243731   6.178   5.867   4.595
14597TIP3    H143732   6.119   5.814   4.647
14597TIP3    H243733   6.240   5.804   4.558
14598TIP3   OH243734   2.328   6.759   4.573
14598TIP3    H143735   2.318   6.670   4.607
14598TIP3    H243736   2.268   6.812   4.626
14599TIP3   OH243737   2.766   7.823   2.002
14599TIP3    H143738   2.837   7.811   1.938
14599TIP3    H243739   2.806   7.800   2.086
14600TIP3   OH243740   0.328   7.843   0.782
14600TIP3    H143741   0.400   7.790   0.816
14600TIP3    H243742   0.315   7.811   0.692
14601TIP3   OH243743   5.120   1.588   2.730
14601TIP3    H143744   5.169   1.542   2.799
14601TIP3    H243745   5.187   1.622   2.671
14602TIP3   OH243746   1.545   6.310   5.429
14602TIP3    H143747   1.484   6.324   5.356
14602TIP3    H243748   1.612   6.378   5.417
14603TIP3   OH243749   0.021   2.576   0.872
14603TIP3    H143750  -0.006   2.659   0.834
14603TIP3    H243751  -0.056   2.545   0.919
14604TIP3   OH243752   0.880   7.607   6.422
14604TIP3    H143753   0.806   7.546   6.431
14604TIP3    H243754   0.855   7.682   6.476
14605TIP3   OH243755   5.358   3.246   0.574
14605TIP3    H143756   5.371   3.283   0.487
14605TIP3    H243757   5.443   3.210   0.598
14606TIP3   OH243758   5.367   4.114   2.378
14606TIP3    H143759   5.322   4.031   2.364
14606TIP3    H243760   5.450   4.105   2.332
14607TIP3   OH243761   4.452   2.399   1.972
14607TIP3    H143762   4.466   2.462   1.901
14607TIP3    H243763   4.456   2.314   1.929
14608TIP3   OH243764   4.488   2.169   1.545
14608TIP3    H143765   4.426   2.160   1.472
14608TIP3    H243766   4.570   2.195   1.503
14609TIP3   OH243767   1.731   6.239   6.073
14609TIP3    H143768   1.720   6.159   6.125
14609TIP3    H243769   1.761   6.304   6.136
14610TIP3   OH243770   6.731   7.813   5.534
14610TIP3    H143771   6.637   7.806   5.550
14610TIP3    H243772   6.751   7.906   5.549
14611TIP3   OH243773   3.537   1.930   3.217
14611TIP3    H143774   3.622   1.967   3.192
14611TIP3    H243775   3.536   1.843   3.176
14612TIP3   OH243776   5.408   1.717   3.420
14612TIP3    H143777   5.423   1.646   3.357
14612TIP3    H243778   5.404   1.673   3.505
14613TIP3   OH243779   3.908   6.029   4.746
14613TIP3    H143780   3.836   5.992   4.796
14613TIP3    H243781   3.893   6.124   4.749
14614TIP3   OH243782   7.934   7.786   2.994
14614TIP3    H143783   7.901   7.701   3.024
14614TIP3    H243784   8.028   7.784   3.015
14615TIP3   OH243785   6.886   3.125   6.290
14615TIP3    H143786   6.940   3.178   6.348
14615TIP3    H243787   6.803   3.172   6.283
14616TIP3   OH243788   2.283   7.459   3.483
14616TIP3    H143789   2.283   7.368   3.454
14616TIP3    H243790   2.371   7.473   3.519
14617TIP3   OH243791   0.973   4.257   4.410
14617TIP3    H143792   0.911   4.288   4.345
14617TIP3    H243793   0.996   4.168   4.380
14618TIP3   OH243794   2.191   5.272   3.911
14618TIP3    H143795   2.284   5.251   3.903
14618TIP3    H243796   2.173   5.271   4.005
14619TIP3   OH243797   3.180   6.060   2.480
14619TIP3    H143798   3.224   6.129   2.531
14619TIP3    H243799   3.131   6.108   2.413
14620TIP3   OH243800   8.370   6.627   1.808
14620TIP3    H143801   8.315   6.552   1.832
14620TIP3    H243802   8.323   6.669   1.736
14621TIP3   OH243803   8.290   0.406   1.765
14621TIP3    H143804   8.247   0.490   1.783
14621TIP3    H243805   8.367   0.406   1.821
14622TIP3   OH243806   5.284   2.159   1.135
14622TIP3    H143807   5.272   2.234   1.077
14622TIP3    H243808   5.376   2.136   1.126
14623TIP3   OH243809   6.297   2.316   3.216
14623TIP3    H143810   6.280   2.222   3.224
14623TIP3    H243811   6.257   2.340   3.133
14624TIP3   OH243812   1.818   2.077   5.092
14624TIP3    H143813   1.899   2.097   5.139
14624TIP3    H243814   1.836   1.995   5.046
14625TIP3   OH243815   7.305   3.024   5.535
14625TIP3    H143816   7.311   2.981   5.450
14625TIP3    H243817   7.352   2.965   5.595
14626TIP3   OH243818   7.489   4.612   1.011
14626TIP3    H143819   7.522   4.553   0.943
14626TIP3    H243820   7.468   4.554   1.084
14627TIP3   OH243821   5.888   2.243   2.506
14627TIP3    H143822   5.892   2.188   2.584
14627TIP3    H243823   5.819   2.307   2.525
14628TIP3   OH243824   6.077   7.833   5.983
14628TIP3    H143825   6.033   7.748   5.977
14628TIP3    H243826   6.006   7.896   5.996
14629TIP3   OH243827   3.696   3.612   6.201
14629TIP3    H143828   3.671   3.663   6.125
14629TIP3    H243829   3.661   3.525   6.185
14630TIP3   OH243830   7.290   1.822   0.517
14630TIP3    H143831   7.312   1.774   0.597
14630TIP3    H243832   7.265   1.909   0.547
14631TIP3   OH243833   3.578   1.681   6.547
14631TIP3    H143834   3.517   1.650   6.479
14631TIP3    H243835   3.603   1.768   6.518
14632TIP3   OH243836   5.697   5.180   4.127
14632TIP3    H143837   5.698   5.269   4.162
14632TIP3    H243838   5.630   5.135   4.178
14633TIP3   OH243839   5.788   1.608   6.873
14633TIP3    H143840   5.765   1.667   6.945
14633TIP3    H243841   5.706   1.595   6.825
14634TIP3   OH243842   5.867   7.631   0.864
14634TIP3    H143843   5.902   7.652   0.950
14634TIP3    H243844   5.886   7.709   0.811
14635TIP3   OH243845   0.298   1.385   5.144
14635TIP3    H143846   0.380   1.429   5.163
14635TIP3    H243847   0.291   1.385   5.049
14636TIP3   OH243848   3.253   2.954   3.219
14636TIP3    H143849   3.295   2.870   3.199
14636TIP3    H243850   3.219   2.984   3.134
14637TIP3   OH243851   4.519   3.392   5.316
14637TIP3    H143852   4.542   3.305   5.283
14637TIP3    H243853   4.428   3.384   5.345
14638TIP3   OH243854   0.256   2.453   5.251
14638TIP3    H143855   0.276   2.458   5.345
14638TIP3    H243856   0.313   2.383   5.219
14639TIP3   OH243857   0.789   6.096   6.271
14639TIP3    H143858   0.737   6.022   6.239
14639TIP3    H243859   0.843   6.122   6.196
14640TIP3   OH243860   4.812   6.733   1.899
14640TIP3    H143861   4.827   6.812   1.848
14640TIP3    H243862   4.899   6.693   1.908
14641TIP3   OH243863   3.515   2.407   6.554
14641TIP3    H143864   3.431   2.395   6.509
14641TIP3    H243865   3.542   2.319   6.578
14642TIP3   OH243866   6.352   5.583   0.535
14642TIP3    H143867   6.318   5.534   0.460
14642TIP3    H243868   6.292   5.562   0.607
14643TIP3   OH243869   6.345   4.734   1.785
14643TIP3    H143870   6.279   4.669   1.808
14643TIP3    H243871   6.386   4.699   1.706
14644TIP3   OH243872   0.808   5.727   1.509
14644TIP3    H143873   0.765   5.658   1.458
14644TIP3    H243874   0.823   5.687   1.595
14645TIP3   OH243875   3.468   4.606   1.225
14645TIP3    H143876   3.478   4.519   1.186
14645TIP3    H243877   3.486   4.593   1.318
14646TIP3   OH243878   8.254   1.314   5.116
14646TIP3    H143879   8.264   1.355   5.202
14646TIP3    H243880   8.170   1.347   5.084
14647TIP3   OH243881   0.415   7.375   1.647
14647TIP3    H143882   0.361   7.405   1.574
14647TIP3    H243883   0.503   7.367   1.610
14648TIP3   OH243884   5.966   3.258   0.098
14648TIP3    H143885   6.017   3.326   0.142
14648TIP3    H243886   5.884   3.301   0.072
14649TIP3   OH243887   2.066   7.376   3.304
14649TIP3    H143888   2.120   7.386   3.383
14649TIP3    H243889   2.016   7.296   3.320
14650TIP3   OH243890   0.647   4.206   1.746
14650TIP3    H143891   0.561   4.211   1.705
14650TIP3    H243892   0.697   4.146   1.691
14651TIP3   OH243893   3.162   5.268   1.424
14651TIP3    H143894   3.214   5.346   1.410
14651TIP3    H243895   3.073   5.300   1.438
14652TIP3   OH243896   3.023   4.507   1.211
14652TIP3    H143897   3.003   4.457   1.132
14652TIP3    H243898   3.001   4.597   1.188
14653TIP3   OH243899   5.491   2.198   6.097
14653TIP3    H143900   5.531   2.114   6.118
14653TIP3    H243901   5.398   2.178   6.083
14654TIP3   OH243902   2.536   5.670   0.504
14654TIP3    H143903   2.549   5.575   0.509
14654TIP3    H243904   2.594   5.698   0.432
14655TIP3   OH243905   6.902   4.434   6.569
14655TIP3    H143906   6.933   4.413   6.657
14655TIP3    H243907   6.814   4.469   6.582
14656TIP3   OH243908   3.646   7.735   2.513
14656TIP3    H143909   3.640   7.653   2.563
14656TIP3    H243910   3.562   7.778   2.526
14657TIP3   OH243911   7.209   7.211   3.188
14657TIP3    H143912   7.136   7.228   3.128
14657TIP3    H243913   7.285   7.249   3.145
14658TIP3   OH243914   4.173   2.878   0.478
14658TIP3    H143915   4.235   2.922   0.420
14658TIP3    H243916   4.088   2.888   0.435
14659TIP3   OH243917   6.032   3.088   1.343
14659TIP3    H143918   6.114   3.041   1.357
14659TIP3    H243919   6.059   3.172   1.305
14660TIP3   OH243920   0.334   1.853   2.689
14660TIP3    H143921   0.285   1.830   2.768
14660TIP3    H243922   0.368   1.941   2.707
14661TIP3   OH243923   3.174   1.638   3.262
14661TIP3    H143924   3.226   1.629   3.341
14661TIP3    H243925   3.205   1.719   3.221
14662TIP3   OH243926   4.768   2.995   6.849
14662TIP3    H143927   4.789   2.951   6.767
14662TIP3    H243928   4.689   3.046   6.829
14663TIP3   OH243929   7.512   4.832   3.257
14663TIP3    H143930   7.583   4.832   3.322
14663TIP3    H243931   7.506   4.923   3.228
14664TIP3   OH243932   5.274   1.552   4.240
14664TIP3    H143933   5.193   1.556   4.189
14664TIP3    H243934   5.323   1.478   4.203
14665TIP3   OH243935   3.948   1.556   2.723
14665TIP3    H143936   3.903   1.502   2.657
14665TIP3    H243937   3.931   1.646   2.696
14666TIP3   OH243938   5.706   0.919   4.063
14666TIP3    H143939   5.802   0.922   4.061
14666TIP3    H243940   5.680   1.003   4.101
14667TIP3   OH243941   3.925   5.990   2.921
14667TIP3    H143942   3.938   5.895   2.929
14667TIP3    H243943   3.998   6.020   2.867
14668TIP3   OH243944   0.178   1.827   2.920
14668TIP3    H143945   0.238   1.801   2.990
14668TIP3    H243946   0.102   1.770   2.931
14669TIP3   OH243947   5.735   7.337   1.639
14669TIP3    H143948   5.692   7.352   1.555
14669TIP3    H243949   5.829   7.334   1.618
14670TIP3   OH243950   1.118   6.290   6.746
14670TIP3    H143951   1.127   6.242   6.828
14670TIP3    H243952   1.089   6.378   6.772
14671TIP3   OH243953   0.093   7.070   4.412
14671TIP3    H143954   0.123   6.989   4.454
14671TIP3    H243955   0.152   7.138   4.447
14672TIP3   OH243956   7.663   2.673   6.604
14672TIP3    H143957   7.686   2.753   6.650
14672TIP3    H243958   7.595   2.633   6.658
14673TIP3   OH243959   6.853   1.359   4.899
14673TIP3    H143960   6.847   1.313   4.815
14673TIP3    H243961   6.783   1.320   4.952
14674TIP3   OH243962   4.625   7.227   2.904
14674TIP3    H143963   4.622   7.132   2.893
14674TIP3    H243964   4.689   7.241   2.974
14675TIP3   OH243965   1.168   0.199   1.110
14675TIP3    H143966   1.084   0.183   1.067
14675TIP3    H243967   1.173   0.133   1.179
14676TIP3   OH243968   6.058   6.149   6.405
14676TIP3    H143969   6.015   6.190   6.479
14676TIP3    H243970   5.992   6.149   6.335
14677TIP3   OH243971   6.911   3.951   5.654
14677TIP3    H143972   6.993   3.930   5.608
14677TIP3    H243973   6.871   4.019   5.600
14678TIP3   OH243974   4.989   4.313   0.614
14678TIP3    H143975   4.962   4.379   0.679
14678TIP3    H243976   4.996   4.362   0.532
14679TIP3   OH243977   4.348   6.969   5.000
14679TIP3    H143978   4.284   6.975   5.071
14679TIP3    H243979   4.421   6.918   5.037
14680TIP3   OH243980   8.093   5.407   2.043
14680TIP3    H143981   8.114   5.498   2.065
14680TIP3    H243982   8.070   5.410   1.950
14681TIP3   OH243983   6.925   3.824   1.890
14681TIP3    H143984   6.918   3.874   1.808
14681TIP3    H243985   6.849   3.766   1.888
14682TIP3   OH243986   4.681   5.834   2.793
14682TIP3    H143987   4.671   5.752   2.746
14682TIP3    H243988   4.609   5.836   2.855
14683TIP3   OH243989   0.409   5.236   3.732
14683TIP3    H143990   0.419   5.149   3.772
14683TIP3    H243991   0.410   5.218   3.637
14684TIP3   OH243992   7.544   2.625   1.037
14684TIP3    H143993   7.623   2.585   1.073
14684TIP3    H243994   7.573   2.709   1.001
14685TIP3   OH243995   2.222   5.782   4.267
14685TIP3    H143996   2.128   5.766   4.259
14685TIP3    H243997   2.231   5.877   4.268
14686TIP3   OH243998   1.331   5.761   2.938
14686TIP3    H143999   1.345   5.834   2.878
14686TIP3    H244000   1.250   5.783   2.984
14687TIP3   OH244001   6.084   2.888   6.262
14687TIP3    H144002   6.176   2.876   6.284
14687TIP3    H244003   6.046   2.928   6.340
14688TIP3   OH244004   5.394   2.241   1.461
14688TIP3    H144005   5.425   2.299   1.391
14688TIP3    H244006   5.313   2.203   1.426
14689TIP3   OH244007   3.803   5.899   6.661
14689TIP3    H144008   3.860   5.958   6.709
14689TIP3    H244009   3.750   5.957   6.606
14690TIP3   OH244010   0.319   5.421   3.952
14690TIP3    H144011   0.291   5.399   3.863
14690TIP3    H244012   0.292   5.345   4.005
14691TIP3   OH244013   7.039   3.312   3.275
14691TIP3    H144014   7.081   3.233   3.239
14691TIP3    H244015   7.030   3.295   3.368
14692TIP3   OH244016   4.580   1.767   6.562
14692TIP3    H144017   4.615   1.748   6.649
14692TIP3    H244018   4.585   1.862   6.554
14693TIP3   OH244019   1.902   5.008   1.667
14693TIP3    H144020   1.822   5.040   1.709
14693TIP3    H244021   1.960   4.986   1.740
14694TIP3   OH244022   4.748   0.601   4.791
14694TIP3    H144023   4.716   0.566   4.708
14694TIP3    H244024   4.773   0.524   4.842
14695TIP3   OH244025   4.523   0.684   0.992
14695TIP3    H144026   4.434   0.693   0.959
14695TIP3    H244027   4.577   0.736   0.931
14696TIP3   OH244028   4.226   7.327   0.135
14696TIP3    H144029   4.282   7.257   0.098
14696TIP3    H244030   4.165   7.280   0.191
14697TIP3   OH244031   4.268   4.905   0.687
14697TIP3    H144032   4.204   4.963   0.645
14697TIP3    H244033   4.242   4.903   0.779
14698TIP3   OH244034   5.385   2.003   6.439
14698TIP3    H144035   5.364   1.911   6.422
14698TIP3    H244036   5.385   2.010   6.535
14699TIP3   OH244037   6.729   6.559   6.824
14699TIP3    H144038   6.669   6.554   6.749
14699TIP3    H244039   6.791   6.487   6.809
14700TIP3   OH244040   4.980   7.072   5.501
14700TIP3    H144041   5.066   7.036   5.521
14700TIP3    H244042   4.969   7.143   5.564
14701TIP3   OH244043   1.826   3.709   3.135
14701TIP3    H144044   1.842   3.683   3.044
14701TIP3    H244045   1.801   3.628   3.179
14702TIP3   OH244046   6.306   3.629   2.926
14702TIP3    H144047   6.358   3.554   2.895
14702TIP3    H244048   6.240   3.642   2.858
14703TIP3   OH244049   1.173   0.954   1.549
14703TIP3    H144050   1.129   1.024   1.500
14703TIP3    H244051   1.266   0.972   1.537
14704TIP3   OH244052   5.490   0.408   3.020
14704TIP3    H144053   5.396   0.427   3.022
14704TIP3    H244054   5.497   0.316   3.047
14705TIP3   OH244055   1.067   4.535   0.471
14705TIP3    H144056   1.062   4.599   0.542
14705TIP3    H244057   0.995   4.558   0.413
14706TIP3   OH244058   8.329   3.158   0.714
14706TIP3    H144059   8.395   3.195   0.771
14706TIP3    H244060   8.271   3.231   0.692
14707TIP3   OH244061   1.520   6.070   0.417
14707TIP3    H144062   1.554   6.114   0.339
14707TIP3    H244063   1.549   6.125   0.490
14708TIP3   OH244064   7.309   2.244   4.769
14708TIP3    H144065   7.325   2.169   4.712
14708TIP3    H244066   7.252   2.301   4.717
14709TIP3   OH244067   6.177   7.349   6.279
14709TIP3    H144068   6.177   7.431   6.327
14709TIP3    H244069   6.189   7.375   6.187
14710TIP3   OH244070   4.190   4.494   1.216
14710TIP3    H144071   4.125   4.428   1.240
14710TIP3    H244072   4.165   4.521   1.128
14711TIP3   OH244073   1.828   3.654   6.113
14711TIP3    H144074   1.922   3.638   6.128
14711TIP3    H244075   1.806   3.726   6.173
14712TIP3   OH244076   3.745   7.700   1.906
14712TIP3    H144077   3.761   7.759   1.833
14712TIP3    H244078   3.672   7.739   1.954
14713TIP3   OH244079   8.344   6.972   2.206
14713TIP3    H144080   8.279   6.940   2.269
14713TIP3    H244081   8.329   6.920   2.127
14714TIP3   OH244082   2.849   3.020   3.361
14714TIP3    H144083   2.813   2.941   3.321
14714TIP3    H244084   2.928   2.991   3.406
14715TIP3   OH244085   0.131   6.542   0.845
14715TIP3    H144086   0.087   6.598   0.781
14715TIP3    H244087   0.180   6.480   0.792
14716TIP3   OH244088   6.937   3.192   0.694
14716TIP3    H144089   6.988   3.142   0.630
14716TIP3    H244090   6.949   3.145   0.776
14717TIP3   OH244091   5.857   4.690   2.156
14717TIP3    H144092   5.944   4.729   2.146
14717TIP3    H244093   5.865   4.634   2.233
14718TIP3   OH244094   7.841   5.244   3.718
14718TIP3    H144095   7.770   5.276   3.774
14718TIP3    H244096   7.806   5.166   3.677
14719TIP3   OH244097   3.451   7.072   5.671
14719TIP3    H144098   3.442   7.030   5.756
14719TIP3    H244099   3.538   7.110   5.671
14720TIP3   OH244100   3.990   4.134   2.024
14720TIP3    H144101   4.064   4.083   2.056
14720TIP3    H244102   3.971   4.096   1.938
14721TIP3   OH244103   4.700   4.999   4.282
14721TIP3    H144104   4.715   4.909   4.310
14721TIP3    H244105   4.643   4.991   4.206
14722TIP3   OH244106   6.340   1.211   3.455
14722TIP3    H144107   6.269   1.162   3.414
14722TIP3    H244108   6.420   1.167   3.426
14723TIP3   OH244109   7.250   4.924   4.784
14723TIP3    H144110   7.286   4.854   4.839
14723TIP3    H244111   7.155   4.915   4.793
14724TIP3   OH244112   0.133   3.936   6.882
14724TIP3    H144113   0.111   3.931   6.789
14724TIP3    H244114   0.164   4.026   6.895
14725TIP3   OH244115   6.205   0.086   3.253
14725TIP3    H144116   6.280   0.109   3.197
14725TIP3    H244117   6.129   0.118   3.205
14726TIP3   OH244118   1.672   7.880   2.522
14726TIP3    H144119   1.736   7.813   2.498
14726TIP3    H244120   1.634   7.849   2.605
14727TIP3   OH244121   6.653   3.761   1.353
14727TIP3    H144122   6.592   3.771   1.425
14727TIP3    H244123   6.643   3.670   1.324
14728TIP3   OH244124   1.844   1.651   1.081
14728TIP3    H144125   1.882   1.735   1.105
14728TIP3    H244126   1.799   1.668   0.998
14729TIP3   OH244127   4.090   3.089   5.335
14729TIP3    H144128   4.167   3.047   5.374
14729TIP3    H244129   4.046   3.131   5.409
14730TIP3   OH244130   0.701   3.955   4.133
14730TIP3    H144131   0.607   3.948   4.147
14730TIP3    H244132   0.736   3.984   4.218
14731TIP3   OH244133   2.201   4.267   2.353
14731TIP3    H144134   2.224   4.346   2.402
14731TIP3    H244135   2.125   4.292   2.301
14732TIP3   OH244136   2.059   2.947   2.789
14732TIP3    H144137   2.026   2.907   2.870
14732TIP3    H244138   2.004   2.910   2.720
14733TIP3   OH244139   1.417   1.930   0.957
14733TIP3    H144140   1.392   1.850   1.003
14733TIP3    H244141   1.412   1.908   0.864
14734TIP3   OH244142   2.337   4.885   1.459
14734TIP3    H144143   2.367   4.914   1.373
14734TIP3    H244144   2.334   4.965   1.512
14735TIP3   OH244145   4.355   4.117   0.176
14735TIP3    H144146   4.268   4.156   0.183
14735TIP3    H244147   4.407   4.181   0.128
14736TIP3   OH244148   5.320   4.782   3.291
14736TIP3    H144149   5.364   4.705   3.253
14736TIP3    H244150   5.231   4.777   3.257
14737TIP3   OH244151   6.659   4.047   4.821
14737TIP3    H144152   6.741   4.013   4.785
14737TIP3    H244153   6.627   4.108   4.754
14738TIP3   OH244154   5.595   4.182   2.834
14738TIP3    H144155   5.562   4.264   2.871
14738TIP3    H244156   5.539   4.165   2.758
14739TIP3   OH244157   2.423   0.053   0.520
14739TIP3    H144158   2.494   0.078   0.460
14739TIP3    H244159   2.460   0.066   0.607
14740TIP3   OH244160   4.033   5.309   0.595
14740TIP3    H144161   3.964   5.319   0.529
14740TIP3    H244162   4.074   5.396   0.600
14741TIP3   OH244163   2.015   1.029   4.289
14741TIP3    H144164   2.056   0.970   4.353
14741TIP3    H244165   1.962   0.971   4.235
14742TIP3   OH244166   4.448   0.787   3.980
14742TIP3    H144167   4.407   0.829   4.056
14742TIP3    H244168   4.453   0.695   4.005
14743TIP3   OH244169   2.021   6.263   4.372
14743TIP3    H144170   2.105   6.304   4.353
14743TIP3    H244171   2.019   6.185   4.317
14744TIP3   OH244172   7.974   3.612   0.619
14744TIP3    H144173   7.940   3.675   0.555
14744TIP3    H244174   8.008   3.665   0.690
14745TIP3   OH244175   1.460   6.135   3.931
14745TIP3    H144176   1.386   6.185   3.965
14745TIP3    H244177   1.468   6.060   3.990
14746TIP3   OH244178   1.505   7.949   0.461
14746TIP3    H144179   1.479   7.860   0.437
14746TIP3    H244180   1.437   8.005   0.424
14747TIP3   OH244181   8.222   3.938   6.507
14747TIP3    H144182   8.241   4.006   6.442
14747TIP3    H244183   8.146   3.892   6.472
14748TIP3   OH244184   7.552   4.686   4.564
14748TIP3    H144185   7.555   4.779   4.540
14748TIP3    H244186   7.631   4.672   4.616
14749TIP3   OH244187   3.896   4.687   6.446
14749TIP3    H144188   3.988   4.709   6.431
14749TIP3    H244189   3.884   4.603   6.402
14750TIP3   OH244190   2.350   6.328   0.876
14750TIP3    H144191   2.275   6.358   0.928
14750TIP3    H244192   2.422   6.386   0.900
14751TIP3   OH244193   3.034   6.670   6.189
14751TIP3    H144194   3.008   6.759   6.166
14751TIP3    H244195   3.047   6.626   6.105
14752TIP3   OH244196   5.884   1.080   2.036
14752TIP3    H144197   5.943   1.005   2.042
14752TIP3    H244198   5.904   1.133   2.113
14753TIP3   OH244199   1.882   4.696   2.038
14753TIP3    H144200   1.794   4.718   2.007
14753TIP3    H244201   1.921   4.647   1.965
14754TIP3   OH244202   4.043   1.583   1.983
14754TIP3    H144203   4.101   1.509   1.999
14754TIP3    H244204   4.101   1.659   1.981
14755TIP3   OH244205   7.680   3.378   2.779
14755TIP3    H144206   7.675   3.285   2.755
14755TIP3    H244207   7.700   3.378   2.872
14756TIP3   OH244208   4.791   4.449   3.806
14756TIP3    H144209   4.818   4.538   3.830
14756TIP3    H244210   4.868   4.412   3.762
14757TIP3   OH244211   3.724   3.213   4.456
14757TIP3    H144212   3.716   3.271   4.532
14757TIP3    H244213   3.818   3.214   4.434
14758TIP3   OH244214   5.626   0.427   4.703
14758TIP3    H144215   5.567   0.426   4.628
14758TIP3    H244216   5.710   0.396   4.668
14759TIP3   OH244217   5.827   0.576   5.821
14759TIP3    H144218   5.797   0.666   5.814
14759TIP3    H244219   5.811   0.552   5.912
14760TIP3   OH244220   8.275   6.524   2.834
14760TIP3    H144221   8.229   6.440   2.836
14760TIP3    H244222   8.249   6.567   2.915
14761TIP3   OH244223   2.897   7.101   2.784
14761TIP3    H144224   2.885   7.084   2.691
14761TIP3    H244225   2.808   7.108   2.819
14762TIP3   OH244226   0.885   1.089   4.718
14762TIP3    H144227   0.958   1.143   4.750
14762TIP3    H244228   0.825   1.083   4.793
14763TIP3   OH244229   7.152   4.608   0.879
14763TIP3    H144230   7.192   4.540   0.824
14763TIP3    H244231   7.086   4.562   0.930
14764TIP3   OH244232   1.410   4.299   2.803
14764TIP3    H144233   1.343   4.260   2.747
14764TIP3    H244234   1.413   4.391   2.777
14765TIP3   OH244235   4.647   5.848   6.186
14765TIP3    H144236   4.554   5.827   6.189
14765TIP3    H244237   4.678   5.809   6.104
14766TIP3   OH244238   1.861   2.297   1.755
14766TIP3    H144239   1.860   2.364   1.824
14766TIP3    H244240   1.947   2.306   1.714
14767TIP3   OH244241   1.611   3.889   3.135
14767TIP3    H144242   1.559   3.888   3.055
14767TIP3    H244243   1.692   3.844   3.112
14768TIP3   OH244244   1.627   4.281   3.296
14768TIP3    H144245   1.544   4.279   3.344
14768TIP3    H244246   1.694   4.285   3.365
14769TIP3   OH244247   7.672   4.643   0.516
14769TIP3    H144248   7.761   4.669   0.541
14769TIP3    H244249   7.662   4.675   0.427
14770TIP3   OH244250   1.919   1.592   4.299
14770TIP3    H144251   1.967   1.514   4.323
14770TIP3    H244252   1.862   1.565   4.226
14771TIP3   OH244253   6.913   1.760   0.043
14771TIP3    H144254   6.829   1.758  -0.003
14771TIP3    H244255   6.978   1.735  -0.022
14772TIP3   OH244256   5.073   2.128   1.685
14772TIP3    H144257   5.142   2.076   1.644
14772TIP3    H244258   5.105   2.144   1.774
14773TIP3   OH244259   2.075   4.687   2.884
14773TIP3    H144260   2.061   4.740   2.805
14773TIP3    H244261   2.164   4.653   2.875
14774TIP3   OH244262   5.593   1.952   2.499
14774TIP3    H144263   5.521   2.010   2.473
14774TIP3    H244264   5.569   1.867   2.462
14775TIP3   OH244265   8.000   6.447   3.609
14775TIP3    H144266   7.986   6.537   3.641
14775TIP3    H244267   8.075   6.415   3.658
14776TIP3   OH244268   5.212   0.266   1.398
14776TIP3    H144269   5.280   0.241   1.336
14776TIP3    H244270   5.177   0.183   1.431
14777TIP3   OH244271   6.663   1.806   5.086
14777TIP3    H144272   6.705   1.744   5.026
14777TIP3    H244273   6.603   1.855   5.030
14778TIP3   OH244274   6.077   4.206   0.712
14778TIP3    H144275   6.121   4.121   0.716
14778TIP3    H244276   6.146   4.270   0.731
14779TIP3   OH244277   7.972   3.886   1.093
14779TIP3    H144278   8.049   3.916   1.141
14779TIP3    H244279   7.947   3.805   1.137
14780TIP3   OH244280   4.473   2.303   5.616
14780TIP3    H144281   4.527   2.261   5.682
14780TIP3    H244282   4.400   2.242   5.603
14781TIP3   OH244283   6.170   2.785   2.685
14781TIP3    H144284   6.110   2.815   2.753
14781TIP3    H244285   6.218   2.713   2.726
14782TIP3   OH244286   4.537   6.154   5.832
14782TIP3    H144287   4.540   6.237   5.783
14782TIP3    H244288   4.488   6.095   5.775
14783TIP3   OH244289   2.926   2.839   4.463
14783TIP3    H144290   2.945   2.933   4.473
14783TIP3    H244291   2.845   2.826   4.512
14784TIP3   OH244292   6.621   4.754   0.134
14784TIP3    H144293   6.637   4.728   0.044
14784TIP3    H244294   6.529   4.781   0.135
14785TIP3   OH244295   2.576   7.060   0.934
14785TIP3    H144296   2.498   7.034   0.983
14785TIP3    H244297   2.607   7.139   0.978
14786TIP3   OH244298   2.617   1.752   5.781
14786TIP3    H144299   2.709   1.732   5.764
14786TIP3    H244300   2.572   1.668   5.776
14787TIP3   OH244301   0.358   0.202   0.745
14787TIP3    H144302   0.400   0.188   0.660
14787TIP3    H244303   0.404   0.277   0.782
14788TIP3   OH244304   7.547   4.622   2.700
14788TIP3    H144305   7.623   4.633   2.642
14788TIP3    H244306   7.512   4.536   2.677
14789TIP3   OH244307   2.262   2.418   6.154
14789TIP3    H144308   2.312   2.487   6.110
14789TIP3    H244309   2.171   2.433   6.126
14790TIP3   OH244310   2.349   1.423   2.772
14790TIP3    H144311   2.426   1.390   2.726
14790TIP3    H244312   2.276   1.405   2.712
14791TIP3   OH244313   5.892   2.115   2.763
14791TIP3    H144314   5.980   2.117   2.800
14791TIP3    H244315   5.851   2.196   2.795
14792TIP3   OH244316   0.968   3.332   0.813
14792TIP3    H144317   0.955   3.349   0.907
14792TIP3    H244318   1.000   3.242   0.809
14793TIP3   OH244319   0.190   7.313   2.876
14793TIP3    H144320   0.127   7.317   2.804
14793TIP3    H244321   0.155   7.245   2.934
14794TIP3   OH244322   4.309   1.681   0.049
14794TIP3    H144323   4.369   1.663  -0.023
14794TIP3    H244324   4.309   1.601   0.101
14795TIP3   OH244325   5.326   7.278   5.278
14795TIP3    H144326   5.289   7.213   5.338
14795TIP3    H244327   5.358   7.227   5.204
14796TIP3   OH244328   8.211   4.616   0.810
14796TIP3    H144329   8.281   4.673   0.841
14796TIP3    H244330   8.211   4.626   0.715
14797TIP3   OH244331   2.435   2.336   5.580
14797TIP3    H144332   2.471   2.401   5.520
14797TIP3    H244333   2.510   2.304   5.629
14798TIP3   OH244334   3.987   5.160   5.492
14798TIP3    H144335   4.005   5.082   5.439
14798TIP3    H244336   4.011   5.233   5.436
14799TIP3   OH244337   7.997   4.453   0.924
14799TIP3    H144338   8.074   4.497   0.889
14799TIP3    H244339   8.010   4.451   1.018
14800TIP3   OH244340   3.553   2.560   4.337
14800TIP3    H144341   3.620   2.546   4.404
14800TIP3    H244342   3.580   2.641   4.293
14801TIP3   OH244343   4.393   5.700   1.932
14801TIP3    H144344   4.427   5.629   1.987
14801TIP3    H244345   4.447   5.776   1.956
14802TIP3   OH244346   1.835   6.325   4.101
14802TIP3    H144347   1.876   6.239   4.115
14802TIP3    H244348   1.747   6.316   4.138
14803TIP3   OH244349   3.134   6.124   6.033
14803TIP3    H144350   3.187   6.204   6.028
14803TIP3    H244351   3.180   6.069   6.096
14804TIP3   OH244352   6.027   0.052   2.562
14804TIP3    H144353   6.072  -0.022   2.602
14804TIP3    H244354   6.094   0.096   2.509
14805TIP3   OH244355   1.905   2.728   0.070
14805TIP3    H144356   1.855   2.809   0.063
14805TIP3    H244357   1.993   2.750   0.039
14806TIP3   OH244358   4.898   0.234   0.924
14806TIP3    H144359   4.983   0.269   0.951
14806TIP3    H244360   4.848   0.310   0.895
14807TIP3   OH244361   2.890   3.251   4.778
14807TIP3    H144362   2.928   3.332   4.813
14807TIP3    H244363   2.954   3.184   4.800
14808TIP3   OH244364   3.114   5.521   1.587
14808TIP3    H144365   3.036   5.494   1.635
14808TIP3    H244366   3.160   5.580   1.647
14809TIP3   OH244367   2.864   5.862   0.865
14809TIP3    H144368   2.933   5.890   0.805
14809TIP3    H244369   2.823   5.788   0.821
14810TIP3   OH244370   6.782   1.176   1.430
14810TIP3    H144371   6.704   1.229   1.416
14810TIP3    H244372   6.751   1.101   1.482
14811TIP3   OH244373   5.190   1.839   4.259
14811TIP3    H144374   5.285   1.832   4.248
14811TIP3    H244375   5.171   1.788   4.338
14812TIP3   OH244376   2.666   5.261   0.841
14812TIP3    H144377   2.674   5.356   0.852
14812TIP3    H244378   2.725   5.240   0.768
14813TIP3   OH244379   6.874   0.129   3.780
14813TIP3    H144380   6.902   0.038   3.774
14813TIP3    H244381   6.920   0.173   3.708
14814TIP3   OH244382   4.487   3.128   4.431
14814TIP3    H144383   4.545   3.072   4.483
14814TIP3    H244384   4.399   3.107   4.462
14815TIP3   OH244385   1.758   6.691   1.473
14815TIP3    H144386   1.675   6.722   1.508
14815TIP3    H244387   1.815   6.683   1.549
14816TIP3   OH244388   4.554   4.726   2.424
14816TIP3    H144389   4.465   4.715   2.457
14816TIP3    H244390   4.574   4.643   2.381
14817TIP3   OH244391   4.697   2.855   2.379
14817TIP3    H144392   4.668   2.911   2.307
14817TIP3    H244393   4.743   2.914   2.439
14818TIP3   OH244394   3.199   2.751   4.501
14818TIP3    H144395   3.110   2.771   4.529
14818TIP3    H244396   3.248   2.741   4.582
14819TIP3   OH244397   0.432   5.519   1.799
14819TIP3    H144398   0.344   5.505   1.766
14819TIP3    H244399   0.421   5.532   1.893
14820TIP3   OH244400   3.213   5.833   2.855
14820TIP3    H144401   3.228   5.738   2.858
14820TIP3    H244402   3.127   5.842   2.814
14821TIP3   OH244403   6.198   1.780   6.048
14821TIP3    H144404   6.187   1.779   5.953
14821TIP3    H244405   6.223   1.870   6.069
14822TIP3   OH244406   7.592   6.935   0.318
14822TIP3    H144407   7.528   7.005   0.302
14822TIP3    H244408   7.652   6.940   0.243
14823TIP3   OH244409  -0.014   7.451   1.155
14823TIP3    H144410   0.045   7.392   1.108
14823TIP3    H244411   0.037   7.484   1.229
14824TIP3   OH244412   3.654   7.815   3.113
14824TIP3    H144413   3.569   7.779   3.090
14824TIP3    H244414   3.671   7.882   3.047
14825TIP3   OH244415   5.113   4.121   1.329
14825TIP3    H144416   5.074   4.204   1.302
14825TIP3    H244417   5.117   4.127   1.425
14826TIP3   OH244418   8.054   4.826   5.227
14826TIP3    H144419   8.042   4.734   5.247
14826TIP3    H244420   8.148   4.836   5.214
14827TIP3   OH244421   5.207   0.793   5.627
14827TIP3    H144422   5.201   0.767   5.535
14827TIP3    H244423   5.135   0.855   5.639
14828TIP3   OH244424   4.569   0.957   3.364
14828TIP3    H144425   4.535   0.946   3.275
14828TIP3    H244426   4.538   0.880   3.411
14829TIP3   OH244427   4.123   2.410   5.458
14829TIP3    H144428   4.186   2.342   5.483
14829TIP3    H244429   4.041   2.364   5.445
14830TIP3   OH244430   1.471   0.104   1.880
14830TIP3    H144431   1.412   0.106   1.804
14830TIP3    H244432   1.550   0.149   1.849
14831TIP3   OH244433   1.103   7.272   6.852
14831TIP3    H144434   1.064   7.358   6.837
14831TIP3    H244435   1.029   7.214   6.872
14832TIP3   OH244436   5.540   2.699   4.078
14832TIP3    H144437   5.506   2.717   4.166
14832TIP3    H244438   5.516   2.608   4.061
14833TIP3   OH244439   6.943   7.881   0.872
14833TIP3    H144440   7.025   7.919   0.901
14833TIP3    H244441   6.915   7.936   0.799
14834TIP3   OH244442   3.741   1.614   2.413
14834TIP3    H144443   3.687   1.631   2.491
14834TIP3    H244444   3.725   1.689   2.356
14835TIP3   OH244445   4.524   6.616   5.473
14835TIP3    H144446   4.480   6.627   5.389
14835TIP3    H244447   4.478   6.677   5.532
14836TIP3   OH244448   3.748   7.042   5.776
14836TIP3    H144449   3.839   7.015   5.761
14836TIP3    H244450   3.720   6.992   5.853
14837TIP3   OH244451   3.412   0.232   5.222
14837TIP3    H144452   3.398   0.259   5.312
14837TIP3    H244453   3.330   0.191   5.195
14838TIP3   OH244454   5.340   7.735   5.580
14838TIP3    H144455   5.311   7.777   5.660
14838TIP3    H244456   5.436   7.740   5.584
14839TIP3   OH244457   2.642   4.959   5.459
14839TIP3    H144458   2.614   4.974   5.549
14839TIP3    H244459   2.738   4.965   5.463
14840TIP3   OH244460   2.357   4.810   6.385
14840TIP3    H144461   2.318   4.897   6.375
14840TIP3    H244462   2.443   4.827   6.424
14841TIP3   OH244463   2.412   4.066   4.952
14841TIP3    H144464   2.384   4.078   5.043
14841TIP3    H244465   2.423   3.971   4.943
14842TIP3   OH244466   0.327   5.302   4.316
14842TIP3    H144467   0.292   5.263   4.236
14842TIP3    H244468   0.392   5.239   4.347
14843TIP3   OH244469   1.480   3.998   3.823
14843TIP3    H144470   1.556   3.992   3.882
14843TIP3    H244471   1.456   3.908   3.805
14844TIP3   OH244472   6.048   5.412   3.764
14844TIP3    H144473   6.088   5.378   3.844
14844TIP3    H244474   6.118   5.462   3.722
14845TIP3   OH244475   8.149   5.063   0.648
14845TIP3    H144476   8.073   5.015   0.678
14845TIP3    H244477   8.173   5.021   0.565
14846TIP3   OH244478   3.582   6.172   0.836
14846TIP3    H144479   3.569   6.091   0.786
14846TIP3    H244480   3.549   6.241   0.778
14847TIP3   OH244481   7.617   1.922   0.940
14847TIP3    H144482   7.625   1.920   1.035
14847TIP3    H244483   7.702   1.953   0.909
14848TIP3   OH244484   4.606   7.232   6.178
14848TIP3    H144485   4.684   7.287   6.183
14848TIP3    H244486   4.535   7.293   6.159
14849TIP3   OH244487   0.135   6.277   0.225
14849TIP3    H144488   0.189   6.264   0.303
14849TIP3    H244489   0.172   6.354   0.182
14850TIP3   OH244490   4.281   0.700   2.371
14850TIP3    H144491   4.187   0.702   2.390
14850TIP3    H244492   4.322   0.673   2.453
14851TIP3   OH244493   4.408   1.617   1.148
14851TIP3    H144494   4.360   1.550   1.197
14851TIP3    H244495   4.496   1.581   1.138
14852TIP3   OH244496   6.061   4.139   6.829
14852TIP3    H144497   6.050   4.206   6.762
14852TIP3    H244498   5.974   4.131   6.869
14853TIP3   OH244499   5.340   7.261   3.962
14853TIP3    H144500   5.368   7.175   3.930
14853TIP3    H244501   5.401   7.323   3.921
14854TIP3   OH244502   5.805   2.487   5.274
14854TIP3    H144503   5.873   2.529   5.221
14854TIP3    H244504   5.728   2.483   5.217
14855TIP3   OH244505   7.160   2.696   1.749
14855TIP3    H144506   7.124   2.715   1.836
14855TIP3    H244507   7.084   2.695   1.691
14856TIP3   OH244508   5.858   0.862   5.812
14856TIP3    H144509   5.802   0.909   5.874
14856TIP3    H244510   5.879   0.927   5.744
14857TIP3   OH244511   2.874   7.158   3.308
14857TIP3    H144512   2.920   7.103   3.245
14857TIP3    H244513   2.935   7.230   3.327
14858TIP3   OH244514   0.407   0.548   4.954
14858TIP3    H144515   0.409   0.633   4.999
14858TIP3    H244516   0.498   0.535   4.925
14859TIP3   OH244517   7.294   1.982   2.972
14859TIP3    H144518   7.261   1.911   3.027
14859TIP3    H244519   7.351   2.033   3.030
14860TIP3   OH244520   8.072   7.900   1.019
14860TIP3    H144521   8.108   7.834   1.079
14860TIP3    H244522   7.999   7.939   1.067
14861TIP3   OH244523   8.175   0.903   2.839
14861TIP3    H144524   8.239   0.886   2.770
14861TIP3    H244525   8.183   0.997   2.857
14862TIP3   OH244526   5.610   5.702   5.352
14862TIP3    H144527   5.554   5.699   5.429
14862TIP3    H244528   5.616   5.795   5.330
14863TIP3   OH244529   5.159   7.959   3.837
14863TIP3    H144530   5.183   7.918   3.920
14863TIP3    H244531   5.107   8.035   3.862
14864TIP3   OH244532   1.151   7.677   5.830
14864TIP3    H144533   1.204   7.751   5.800
14864TIP3    H244534   1.108   7.645   5.750
14865TIP3   OH244535   1.390   7.479   5.628
14865TIP3    H144536   1.451   7.414   5.663
14865TIP3    H244537   1.393   7.466   5.533
14866TIP3   OH244538   3.237   4.918   3.091
14866TIP3    H144539   3.225   4.865   3.012
14866TIP3    H244540   3.222   5.008   3.061
14867TIP3   OH244541   5.665   1.961   6.053
14867TIP3    H144542   5.637   1.870   6.066
14867TIP3    H244543   5.727   1.977   6.125
14868TIP3   OH244544   1.066   2.361   0.724
14868TIP3    H144545   0.982   2.325   0.698
14868TIP3    H244546   1.099   2.300   0.790
14869TIP3   OH244547   1.902   0.202   1.075
14869TIP3    H144548   1.958   0.125   1.087
14869TIP3    H244549   1.882   0.202   0.981
14870TIP3   OH244550   8.002   2.930   0.513
14870TIP3    H144551   7.953   2.962   0.437
14870TIP3    H244552   7.946   2.863   0.552
14871TIP3   OH244553   0.458   3.225   3.568
14871TIP3    H144554   0.514   3.235   3.491
14871TIP3    H244555   0.465   3.132   3.590
14872TIP3   OH244556   2.394   1.183   1.395
14872TIP3    H144557   2.405   1.090   1.417
14872TIP3    H244558   2.405   1.229   1.478
14873TIP3   OH244559   0.936   4.717   4.553
14873TIP3    H144560   0.904   4.678   4.471
14873TIP3    H244561   0.857   4.736   4.603
14874TIP3   OH244562   1.766   1.236   3.659
14874TIP3    H144563   1.681   1.269   3.631
14874TIP3    H244564   1.827   1.308   3.639
14875TIP3   OH244565   4.318   5.598   1.417
14875TIP3    H144566   4.281   5.513   1.393
14875TIP3    H244567   4.279   5.618   1.502
14876TIP3   OH244568   5.358   2.993   6.192
14876TIP3    H144569   5.273   3.034   6.177
14876TIP3    H244570   5.413   3.024   6.120
14877TIP3   OH244571   1.563   2.241   1.668
14877TIP3    H144572   1.649   2.256   1.707
14877TIP3    H244573   1.582   2.223   1.576
14878TIP3   OH244574   7.476   3.217   1.111
14878TIP3    H144575   7.540   3.240   1.043
14878TIP3    H244576   7.433   3.138   1.078
14879TIP3   OH244577   2.570   4.792   6.561
14879TIP3    H144578   2.663   4.774   6.576
14879TIP3    H244579   2.528   4.773   6.645
14880TIP3   OH244580   5.845   3.090   5.539
14880TIP3    H144581   5.864   3.109   5.631
14880TIP3    H244582   5.758   3.127   5.524
14881TIP3   OH244583   2.679   7.183   4.014
14881TIP3    H144584   2.693   7.181   3.919
14881TIP3    H244585   2.629   7.103   4.032
14882TIP3   OH244586   0.625   4.872   4.449
14882TIP3    H144587   0.664   4.797   4.405
14882TIP3    H244588   0.559   4.835   4.507
14883TIP3   OH244589   5.540   3.112   5.397
14883TIP3    H144590   5.453   3.083   5.368
14883TIP3    H244591   5.522   3.175   5.466
14884TIP3   OH244592   4.248   7.009   1.185
14884TIP3    H144593   4.275   6.964   1.105
14884TIP3    H244594   4.162   7.046   1.164
14885TIP3   OH244595   0.450   7.676   5.908
14885TIP3    H144596   0.534   7.669   5.862
14885TIP3    H244597   0.396   7.731   5.852
14886TIP3   OH244598   6.493   0.704   1.537
14886TIP3    H144599   6.514   0.639   1.605
14886TIP3    H244600   6.578   0.741   1.512
14887TIP3   OH244601   1.470   4.139   5.600
14887TIP3    H144602   1.430   4.181   5.675
14887TIP3    H244603   1.559   4.174   5.597
14888TIP3   OH244604   4.026   2.037   4.188
14888TIP3    H144605   4.063   2.101   4.249
14888TIP3    H244606   3.932   2.058   4.185
14889TIP3   OH244607   0.739   0.703   0.283
14889TIP3    H144608   0.781   0.781   0.248
14889TIP3    H244609   0.796   0.631   0.256
14890TIP3   OH244610   7.869   4.893   3.770
14890TIP3    H144611   7.792   4.936   3.807
14890TIP3    H244612   7.944   4.940   3.808
14891TIP3   OH244613   2.241   3.326   1.364
14891TIP3    H144614   2.189   3.395   1.324
14891TIP3    H244615   2.317   3.372   1.401
14892TIP3   OH244616   5.726   4.556   4.299
14892TIP3    H144617   5.672   4.484   4.334
14892TIP3    H244618   5.729   4.540   4.205
14893TIP3   OH244619   6.158   5.559   1.689
14893TIP3    H144620   6.179   5.472   1.722
14893TIP3    H244621   6.089   5.544   1.624
14894TIP3   OH244622   0.196   6.383   4.117
14894TIP3    H144623   0.169   6.313   4.175
14894TIP3    H244624   0.292   6.380   4.118
14895TIP3   OH244625   4.272   4.805   4.340
14895TIP3    H144626   4.305   4.716   4.335
14895TIP3    H244627   4.302   4.848   4.260
14896TIP3   OH244628   5.222   1.280   6.628
14896TIP3    H144629   5.302   1.258   6.677
14896TIP3    H244630   5.151   1.256   6.686
14897TIP3   OH244631   5.901   6.144   0.657
14897TIP3    H144632   5.878   6.151   0.750
14897TIP3    H244633   5.821   6.114   0.615
14898TIP3   OH244634   4.940   6.757   6.813
14898TIP3    H144635   4.951   6.725   6.724
14898TIP3    H244636   5.022   6.801   6.833
14899TIP3   OH244637   3.083   6.312   1.172
14899TIP3    H144638   3.115   6.384   1.226
14899TIP3    H244639   3.131   6.235   1.203
14900TIP3   OH244640   5.671   4.907   6.811
14900TIP3    H144641   5.639   4.933   6.724
14900TIP3    H244642   5.762   4.936   6.813
14901TIP3   OH244643   5.143   7.763   6.268
14901TIP3    H144644   5.212   7.737   6.207
14901TIP3    H244645   5.189   7.802   6.342
14902TIP3   OH244646   2.204   6.466   2.982
14902TIP3    H144647   2.259   6.525   3.034
14902TIP3    H244648   2.187   6.515   2.902
14903TIP3   OH244649   2.608   4.248   6.678
14903TIP3    H144650   2.686   4.195   6.662
14903TIP3    H244651   2.576   4.269   6.591
14904TIP3   OH244652   5.500   2.756   2.422
14904TIP3    H144653   5.554   2.708   2.360
14904TIP3    H244654   5.481   2.840   2.379
14905TIP3   OH244655   3.170   5.326   3.476
14905TIP3    H144656   3.208   5.346   3.391
14905TIP3    H244657   3.225   5.374   3.538
14906TIP3   OH244658   2.796   3.688   0.424
14906TIP3    H144659   2.833   3.657   0.342
14906TIP3    H244660   2.720   3.739   0.398
14907TIP3   OH244661   6.276   5.547   2.413
14907TIP3    H144662   6.275   5.625   2.358
14907TIP3    H244663   6.250   5.476   2.355
14908TIP3   OH244664   4.170   1.004   1.267
14908TIP3    H144665   4.256   1.017   1.307
14908TIP3    H244666   4.114   0.977   1.340
14909TIP3   OH244667   6.958   3.866   0.933
14909TIP3    H144668   6.883   3.832   0.981
14909TIP3    H244669   7.033   3.848   0.990
14910TIP3   OH244670   5.891   3.718   1.070
14910TIP3    H144671   5.809   3.732   1.116
14910TIP3    H244672   5.873   3.745   0.980
14911TIP3   OH244673   4.892   2.534   6.318
14911TIP3    H144674   4.903   2.623   6.351
14911TIP3    H244675   4.882   2.480   6.396
14912TIP3   OH244676   0.128   3.735   3.649
14912TIP3    H144677   0.169   3.660   3.692
14912TIP3    H244678   0.184   3.753   3.574
14913TIP3   OH244679   6.325   6.154   3.847
14913TIP3    H144680   6.380   6.157   3.926
14913TIP3    H244681   6.253   6.213   3.866
14914TIP3   OH244682   1.930   2.104   6.688
14914TIP3    H144683   1.944   2.052   6.609
14914TIP3    H244684   2.002   2.168   6.688
14915TIP3   OH244685   3.378   5.136   4.573
14915TIP3    H144686   3.317   5.200   4.536
14915TIP3    H244687   3.455   5.187   4.597
14916TIP3   OH244688   3.952   5.388   5.867
14916TIP3    H144689   4.004   5.311   5.844
14916TIP3    H244690   3.899   5.359   5.941
14917TIP3   OH244691   5.478   1.934   0.384
14917TIP3    H144692   5.386   1.910   0.379
14917TIP3    H244693   5.497   1.974   0.298
14918TIP3   OH244694   4.918   5.637   1.425
14918TIP3    H144695   4.897   5.644   1.518
14918TIP3    H244696   4.858   5.698   1.382
14919TIP3   OH244697   0.277   1.321   4.688
14919TIP3    H144698   0.299   1.245   4.742
14919TIP3    H244699   0.282   1.395   4.748
14920TIP3   OH244700   3.827   2.098   1.334
14920TIP3    H144701   3.762   2.101   1.404
14920TIP3    H244702   3.895   2.039   1.367
14921TIP3   OH244703   2.316   6.552   2.709
14921TIP3    H144704   2.382   6.621   2.718
14921TIP3    H244705   2.365   6.476   2.676
14922TIP3   OH244706   5.285   4.357   5.736
14922TIP3    H144707   5.193   4.368   5.711
14922TIP3    H244708   5.282   4.326   5.826
14923TIP3   OH244709   8.034   3.798   4.970
14923TIP3    H144710   7.968   3.729   4.969
14923TIP3    H244711   7.989   3.872   5.012
14924TIP3   OH244712   1.361   3.493   6.056
14924TIP3    H144713   1.344   3.478   6.149
14924TIP3    H244714   1.455   3.478   6.046
14925TIP3   OH244715   2.546   4.107   2.029
14925TIP3    H144716   2.547   4.075   1.939
14925TIP3    H244717   2.460   4.080   2.063
14926TIP3   OH244718   4.370   4.549   3.997
14926TIP3    H144719   4.325   4.629   3.968
14926TIP3    H244720   4.312   4.478   3.970
14927TIP3   OH244721   0.323   1.908   2.403
14927TIP3    H144722   0.271   1.979   2.440
14927TIP3    H244723   0.359   1.862   2.479
14928TIP3   OH244724   4.067   2.403   0.909
14928TIP3    H144725   4.037   2.426   0.821
14928TIP3    H244726   3.988   2.402   0.963
14929TIP3   OH244727   2.227   4.155   0.421
14929TIP3    H144728   2.176   4.226   0.383
14929TIP3    H244729   2.194   4.146   0.511
14930TIP3   OH244730   0.834   2.768   6.014
14930TIP3    H144731   0.765   2.703   6.000
14930TIP3    H244732   0.850   2.804   5.927
14931TIP3   OH244733   5.008   0.632   3.226
14931TIP3    H144734   4.930   0.607   3.275
14931TIP3    H244735   5.003   0.727   3.219
14932TIP3   OH244736   2.500   5.237   1.915
14932TIP3    H144737   2.479   5.156   1.961
14932TIP3    H244738   2.595   5.232   1.900
14933TIP3   OH244739   2.773   2.500   6.600
14933TIP3    H144740   2.843   2.451   6.557
14933TIP3    H244741   2.791   2.591   6.577
14934TIP3   OH244742   0.952   4.141   5.144
14934TIP3    H144743   0.944   4.218   5.199
14934TIP3    H244744   0.902   4.073   5.189
14935TIP3   OH244745   3.853   1.094   6.272
14935TIP3    H144746   3.886   1.180   6.245
14935TIP3    H244747   3.891   1.080   6.359
14936TIP3   OH244748   7.389   4.228   2.898
14936TIP3    H144749   7.394   4.137   2.869
14936TIP3    H244750   7.306   4.233   2.946
14937TIP3   OH244751   0.441   4.128   6.460
14937TIP3    H144752   0.512   4.179   6.499
14937TIP3    H244753   0.474   4.038   6.458
14938TIP3   OH244754   5.646   7.109   0.279
14938TIP3    H144755   5.601   7.038   0.325
14938TIP3    H244756   5.733   7.112   0.320
14939TIP3   OH244757   2.221   4.168   3.463
14939TIP3    H144758   2.139   4.133   3.497
14939TIP3    H244759   2.279   4.173   3.539
14940TIP3   OH244760   7.855   0.309   1.909
14940TIP3    H144761   7.938   0.282   1.869
14940TIP3    H244762   7.880   0.359   1.986
14941TIP3   OH244763   4.956   1.211   1.374
14941TIP3    H144764   4.962   1.292   1.426
14941TIP3    H244765   5.045   1.177   1.373
14942TIP3   OH244766   0.258   6.378   5.790
14942TIP3    H144767   0.278   6.454   5.844
14942TIP3    H244768   0.342   6.353   5.751
14943TIP3   OH244769   6.016   1.344   5.338
14943TIP3    H144770   5.993   1.345   5.431
14943TIP3    H244771   6.011   1.436   5.311
14944TIP3   OH244772   6.801   7.408   4.113
14944TIP3    H144773   6.867   7.367   4.169
14944TIP3    H244774   6.745   7.457   4.174
14945TIP3   OH244775   3.515   4.795   3.994
14945TIP3    H144776   3.423   4.796   4.019
14945TIP3    H244777   3.528   4.710   3.950
14946TIP3   OH244778   1.577   3.398   4.229
14946TIP3    H144779   1.542   3.455   4.297
14946TIP3    H244780   1.649   3.350   4.272
14947TIP3   OH244781   2.277   5.948   3.494
14947TIP3    H144782   2.182   5.954   3.501
14947TIP3    H244783   2.305   6.037   3.476
14948TIP3   OH244784   0.928   4.267   2.335
14948TIP3    H144785   0.890   4.235   2.253
14948TIP3    H244786   0.891   4.354   2.346
14949TIP3   OH244787   2.126   1.808   0.472
14949TIP3    H144788   2.213   1.807   0.511
14949TIP3    H244789   2.080   1.734   0.511
14950TIP3   OH244790   4.379   6.307   3.762
14950TIP3    H144791   4.429   6.364   3.821
14950TIP3    H244792   4.314   6.266   3.819
14951TIP3   OH244793   0.011   0.537   5.407
14951TIP3    H144794   0.012   0.450   5.447
14951TIP3    H244795   0.038   0.596   5.477
14952TIP3   OH244796   8.300   4.892   4.915
14952TIP3    H144797   8.290   4.801   4.889
14952TIP3    H244798   8.392   4.899   4.943
14953TIP3   OH244799   5.174   7.519   0.491
14953TIP3    H144800   5.163   7.567   0.409
14953TIP3    H244801   5.104   7.454   0.490
14954TIP3   OH244802   5.351   3.034   1.228
14954TIP3    H144803   5.259   3.057   1.237
14954TIP3    H244804   5.371   2.982   1.306
14955TIP3   OH244805   4.917   0.468   2.326
14955TIP3    H144806   4.849   0.500   2.267
14955TIP3    H244807   4.919   0.373   2.311
14956TIP3   OH244808   1.626   4.770   6.640
14956TIP3    H144809   1.558   4.818   6.688
14956TIP3    H244810   1.696   4.758   6.703
14957TIP3   OH244811   7.766   6.116   0.627
14957TIP3    H144812   7.841   6.137   0.682
14957TIP3    H244813   7.765   6.020   0.624
14958TIP3   OH244814   7.327   1.793   5.636
14958TIP3    H144815   7.232   1.784   5.652
14958TIP3    H244816   7.367   1.771   5.720
14959TIP3   OH244817   6.565   1.172   3.018
14959TIP3    H144818   6.512   1.102   2.979
14959TIP3    H244819   6.533   1.252   2.977
14960TIP3   OH244820   0.542   5.207   5.762
14960TIP3    H144821   0.495   5.285   5.733
14960TIP3    H244822   0.632   5.222   5.736
14961TIP3   OH244823   6.136   5.141   3.991
14961TIP3    H144824   6.176   5.215   4.036
14961TIP3    H244825   6.099   5.088   4.062
14962TIP3   OH244826   6.482   3.573   4.765
14962TIP3    H144827   6.494   3.644   4.829
14962TIP3    H244828   6.541   3.504   4.795
14963TIP3   OH244829   1.523   6.569   0.672
14963TIP3    H144830   1.488   6.553   0.585
14963TIP3    H244831   1.540   6.481   0.707
14964TIP3   OH244832   5.820   1.116   0.054
14964TIP3    H144833   5.913   1.107   0.076
14964TIP3    H244834   5.774   1.082   0.130
14965TIP3   OH244835   1.005   3.331   3.831
14965TIP3    H144836   0.941   3.394   3.865
14965TIP3    H244837   1.079   3.336   3.891
14966TIP3   OH244838   3.699   3.054   1.698
14966TIP3    H144839   3.731   3.123   1.757
14966TIP3    H244840   3.734   2.973   1.733
14967TIP3   OH244841   4.720   7.476   3.342
14967TIP3    H144842   4.627   7.470   3.321
14967TIP3    H244843   4.723   7.478   3.437
14968TIP3   OH244844   7.923   1.401   2.113
14968TIP3    H144845   7.925   1.471   2.179
14968TIP3    H244846   7.833   1.370   2.114
14969TIP3   OH244847   5.818   1.316   5.540
14969TIP3    H144848   5.815   1.380   5.611
14969TIP3    H244849   5.775   1.360   5.467
14970TIP3   OH244850   0.599   5.682   5.379
14970TIP3    H144851   0.530   5.633   5.334
14970TIP3    H244852   0.679   5.659   5.332
14971TIP3   OH244853   6.133   1.489   3.095
14971TIP3    H144854   6.174   1.406   3.118
14971TIP3    H244855   6.205   1.548   3.074
14972TIP3   OH244856   1.254   3.275   3.944
14972TIP3    H144857   1.337   3.245   3.981
14972TIP3    H244858   1.227   3.205   3.885
14973TIP3   OH244859   4.965   7.672   4.664
14973TIP3    H144860   4.966   7.763   4.634
14973TIP3    H244861   4.882   7.663   4.711
14974TIP3   OH244862   3.576   3.568   6.452
14974TIP3    H144863   3.633   3.509   6.501
14974TIP3    H244864   3.637   3.627   6.406
14975TIP3   OH244865   7.253   4.967   5.280
14975TIP3    H144866   7.320   4.921   5.229
14975TIP3    H244867   7.302   5.013   5.348
14976TIP3   OH244868   4.429   7.487   3.233
14976TIP3    H144869   4.446   7.555   3.168
14976TIP3    H244870   4.359   7.523   3.287
14977TIP3   OH244871   1.636   3.235   2.629
14977TIP3    H144872   1.619   3.211   2.538
14977TIP3    H244873   1.553   3.217   2.674
14978TIP3   OH244874   1.209   0.620   2.708
14978TIP3    H144875   1.293   0.620   2.754
14978TIP3    H244876   1.229   0.583   2.622
14979TIP3   OH244877   8.066   4.566   5.865
14979TIP3    H144878   8.067   4.646   5.812
14979TIP3    H244879   8.056   4.598   5.955
14980TIP3   OH244880   7.038   2.602   4.088
14980TIP3    H144881   7.001   2.688   4.069
14980TIP3    H244882   7.130   2.609   4.064
14981TIP3   OH244883   0.483   2.169   5.803
14981TIP3    H144884   0.460   2.110   5.875
14981TIP3    H244885   0.444   2.128   5.726
14982TIP3   OH244886   7.886   5.981   4.584
14982TIP3    H144887   7.895   5.991   4.679
14982TIP3    H244888   7.891   6.070   4.550
14983TIP3   OH244889   6.635   5.623   3.445
14983TIP3    H144890   6.614   5.530   3.431
14983TIP3    H244891   6.610   5.666   3.363
14984TIP3   OH244892   0.557   3.105   1.668
14984TIP3    H144893   0.588   3.014   1.662
14984TIP3    H244894   0.601   3.149   1.595
14985TIP3   OH244895   3.834   1.603   4.286
14985TIP3    H144896   3.903   1.551   4.246
14985TIP3    H244897   3.877   1.683   4.315
14986TIP3   OH244898   1.439   6.420   0.997
14986TIP3    H144899   1.469   6.379   0.916
14986TIP3    H244900   1.344   6.425   0.988
14987TIP3   OH244901   0.254   3.297   2.657
14987TIP3    H144902   0.173   3.339   2.628
14987TIP3    H244903   0.323   3.353   2.622
14988TIP3   OH244904   3.042   4.175   4.271
14988TIP3    H144905   3.125   4.223   4.271
14988TIP3    H244906   3.030   4.148   4.362
14989TIP3   OH244907   2.207   5.087   6.430
14989TIP3    H144908   2.257   5.140   6.493
14989TIP3    H244909   2.132   5.055   6.480
14990TIP3   OH244910   6.322   0.170   2.440
14990TIP3    H144911   6.302   0.242   2.500
14990TIP3    H244912   6.418   0.170   2.433
14991TIP3   OH244913   3.181   3.261   0.005
14991TIP3    H144914   3.242   3.312   0.058
14991TIP3    H244915   3.101   3.258   0.058
14992TIP3   OH244916   2.612   6.299   3.813
14992TIP3    H144917   2.539   6.356   3.838
14992TIP3    H244918   2.572   6.213   3.803
14993TIP3   OH244919   7.163   3.790   0.219
14993TIP3    H144920   7.096   3.726   0.195
14993TIP3    H244921   7.243   3.759   0.177
14994TIP3   OH244922   7.371   2.999   1.003
14994TIP3    H144923   7.379   2.970   0.912
14994TIP3    H244924   7.406   2.926   1.054
14995TIP3   OH244925   2.743   4.292   3.452
14995TIP3    H144926   2.696   4.258   3.528
14995TIP3    H244927   2.674   4.322   3.393
14996TIP3   OH244928   4.265   0.378   2.315
14996TIP3    H144929   4.355   0.368   2.284
14996TIP3    H244930   4.274   0.421   2.400
14997TIP3   OH244931   7.891   4.506   3.700
14997TIP3    H144932   7.929   4.493   3.613
14997TIP3    H244933   7.956   4.558   3.747
14998TIP3   OH244934   6.930   7.313   3.857
14998TIP3    H144935   6.916   7.219   3.848
14998TIP3    H244936   6.874   7.339   3.930
14999TIP3   OH244937   5.872   0.839   3.090
14999TIP3    H144938   5.790   0.812   3.132
14999TIP3    H244939   5.935   0.772   3.118
15000TIP3   OH244940   7.625   0.828   5.025
15000TIP3    H144941   7.712   0.864   5.006
15000TIP3    H244942   7.608   0.768   4.952
15001TIP3   OH244943   3.790   2.398   4.181
15001TIP3    H144944   3.784   2.467   4.115
15001TIP3    H244945   3.732   2.329   4.149
15002TIP3   OH244946   7.888   2.695   0.543
15002TIP3    H144947   7.834   2.619   0.524
15002TIP3    H244948   7.964   2.685   0.485
15003TIP3   OH244949   3.973   1.572   0.112
15003TIP3    H144950   3.892   1.566   0.060
15003TIP3    H244951   3.978   1.664   0.138
15004TIP3   OH244952   4.957   3.260   5.208
15004TIP3    H144953   4.946   3.167   5.189
15004TIP3    H244954   4.880   3.283   5.260
15005TIP3   OH244955   3.804   1.444   2.028
15005TIP3    H144956   3.857   1.524   2.021
15005TIP3    H244957   3.835   1.390   1.955
15006TIP3   OH244958   6.567   4.066   5.876
15006TIP3    H144959   6.526   4.144   5.838
15006TIP3    H244960   6.581   4.008   5.801
15007TIP3   OH244961   7.612   3.646   0.691
15007TIP3    H144962   7.663   3.575   0.730
15007TIP3    H244963   7.665   3.724   0.706
15008TIP3   OH244964   2.807   4.240   5.597
15008TIP3    H144965   2.717   4.242   5.628
15008TIP3    H244966   2.821   4.325   5.555
15009TIP3   OH244967   0.264   4.607   4.722
15009TIP3    H144968   0.209   4.540   4.764
15009TIP3    H244969   0.338   4.558   4.686
15010TIP3   OH244970   0.526   7.857   4.539
15010TIP3    H144971   0.457   7.907   4.495
15010TIP3    H244972   0.593   7.843   4.472
15011TIP3   OH244973   6.558   4.880   2.543
15011TIP3    H144974   6.652   4.885   2.557
15011TIP3    H244975   6.544   4.792   2.507
15012TIP3   OH244976   3.203   5.517   2.118
15012TIP3    H144977   3.290   5.518   2.156
15012TIP3    H244978   3.184   5.609   2.097
15013TIP3   OH244979   7.505   7.274   1.458
15013TIP3    H144980   7.477   7.183   1.467
15013TIP3    H244981   7.507   7.289   1.364
15014TIP3   OH244982   3.345   7.749   6.424
15014TIP3    H144983   3.437   7.749   6.400
15014TIP3    H244984   3.304   7.687   6.363
15015TIP3   OH244985   8.354   4.180   4.948
15015TIP3    H144986   8.303   4.134   5.014
15015TIP3    H244987   8.422   4.118   4.922
15016TIP3   OH244988   0.883   3.509   4.389
15016TIP3    H144989   0.795   3.501   4.353
15016TIP3    H244990   0.895   3.429   4.440
15017TIP3   OH244991   3.274   3.013   6.269
15017TIP3    H144992   3.261   2.979   6.357
15017TIP3    H244993   3.188   3.012   6.229
15018TIP3   OH244994   8.189   7.767   3.087
15018TIP3    H144995   8.171   7.673   3.082
15018TIP3    H244996   8.279   7.773   3.117
15019TIP3   OH244997   3.513   7.371   3.998
15019TIP3    H144998   3.560   7.412   3.925
15019TIP3    H244999   3.539   7.279   3.995
15020TIP3   OH245000   2.792   3.932   6.492
15020TIP3    H145001   2.807   4.005   6.431
15020TIP3    H245002   2.857   3.867   6.468
15021TIP3   OH245003   4.495   2.916   3.391
15021TIP3    H145004   4.427   2.955   3.445
15021TIP3    H245005   4.452   2.845   3.344
15022TIP3   OH245006   7.157   4.010   6.438
15022TIP3    H145007   7.085   4.070   6.418
15022TIP3    H245008   7.182   3.972   6.354
15023TIP3   OH245009   7.851   4.747   2.668
15023TIP3    H145010   7.842   4.699   2.750
15023TIP3    H245011   7.827   4.684   2.600
15024TIP3   OH245012   0.688   4.959   6.343
15024TIP3    H145013   0.650   4.934   6.427
15024TIP3    H245014   0.782   4.958   6.357
15025TIP3   OH245015   7.633   6.223   6.173
15025TIP3    H145016   7.650   6.307   6.215
15025TIP3    H245017   7.589   6.171   6.240
15026TIP3   OH245018   4.827   1.227   4.949
15026TIP3    H145019   4.856   1.169   5.019
15026TIP3    H245020   4.846   1.315   4.981
15027TIP3   OH245021   8.332   0.158   4.062
15027TIP3    H145022   8.356   0.243   4.024
15027TIP3    H245023   8.239   0.168   4.086
15028TIP3   OH245024   7.551   3.857   3.120
15028TIP3    H145025   7.543   3.775   3.168
15028TIP3    H245026   7.469   3.904   3.138
15029TIP3   OH245027   2.603   5.285   1.455
15029TIP3    H145028   2.612   5.192   1.477
15029TIP3    H245029   2.685   5.308   1.411
15030TIP3   OH245030   2.474   6.901   1.548
15030TIP3    H145031   2.404   6.933   1.605
15030TIP3    H245032   2.536   6.973   1.543
15031TIP3   OH245033   1.315   3.831   1.331
15031TIP3    H145034   1.390   3.775   1.310
15031TIP3    H245035   1.255   3.774   1.379
15032TIP3   OH245036   6.057   2.785   5.300
15032TIP3    H145037   6.081   2.877   5.314
15032TIP3    H245038   6.135   2.736   5.327
15033TIP3   OH245039   4.710   4.327   1.680
15033TIP3    H145040   4.656   4.396   1.718
15033TIP3    H245041   4.787   4.373   1.646
15034TIP3   OH245042   3.642   1.967   0.164
15034TIP3    H145043   3.595   1.886   0.145
15034TIP3    H245044   3.670   1.999   0.078
15035TIP3   OH245045   0.044   3.106   6.056
15035TIP3    H145046   0.055   3.017   6.024
15035TIP3    H245047  -0.017   3.146   5.994
15036TIP3   OH245048   0.046   2.666   2.400
15036TIP3    H145049   0.034   2.716   2.320
15036TIP3    H245050   0.023   2.727   2.470
15037TIP3   OH245051   1.999   5.678   3.518
15037TIP3    H145052   2.015   5.770   3.537
15037TIP3    H245053   1.945   5.679   3.439
15038TIP3   OH245054   0.031   4.437   5.742
15038TIP3    H145055  -0.021   4.425   5.663
15038TIP3    H245056  -0.015   4.388   5.810
15039TIP3   OH245057   3.719   0.463   0.386
15039TIP3    H145058   3.711   0.417   0.470
15039TIP3    H245059   3.753   0.549   0.409
15040TIP3   OH245060   7.465   0.207   2.687
15040TIP3    H145061   7.493   0.177   2.601
15040TIP3    H245062   7.534   0.178   2.747
15041TIP3   OH245063   3.726   7.311   5.774
15041TIP3    H145064   3.696   7.327   5.684
15041TIP3    H245065   3.752   7.218   5.774
15042TIP3   OH245066   3.494   0.469   6.080
15042TIP3    H145067   3.585   0.448   6.056
15042TIP3    H245068   3.451   0.490   5.998
15043TIP3   OH245069   5.488   2.797   5.525
15043TIP3    H145070   5.566   2.745   5.503
15043TIP3    H245071   5.471   2.848   5.446
15044TIP3   OH245072   2.796   7.290   1.437
15044TIP3    H145073   2.766   7.308   1.348
15044TIP3    H245074   2.890   7.311   1.436
15045TIP3   OH245075   0.875   5.787   5.709
15045TIP3    H145076   0.866   5.864   5.653
15045TIP3    H245077   0.801   5.731   5.686
15046TIP3   OH245078   3.460   0.859   6.097
15046TIP3    H145079   3.377   0.813   6.085
15046TIP3    H245080   3.441   0.949   6.073
15047TIP3   OH245081   3.609   6.053   4.599
15047TIP3    H145082   3.681   6.055   4.537
15047TIP3    H245083   3.646   6.016   4.679
15048TIP3   OH245084   6.323   5.794   3.458
15048TIP3    H145085   6.336   5.816   3.550
15048TIP3    H245086   6.377   5.857   3.411
15049TIP3   OH245087   3.738   2.523   0.175
15049TIP3    H145088   3.795   2.581   0.125
15049TIP3    H245089   3.770   2.435   0.155
15050TIP3   OH245090   5.931   2.151   1.512
15050TIP3    H145091   5.901   2.070   1.470
15050TIP3    H245092   5.851   2.195   1.539
15051TIP3   OH245093   8.127   0.142   6.182
15051TIP3    H145094   8.060   0.210   6.187
15051TIP3    H245095   8.134   0.124   6.088
15052TIP3   OH245096   7.584   0.020   5.056
15052TIP3    H145097   7.578   0.013   5.151
15052TIP3    H245098   7.499   0.058   5.030
15053TIP3   OH245099   5.277   6.706   1.699
15053TIP3    H145100   5.344   6.749   1.646
15053TIP3    H245101   5.194   6.730   1.658
15054TIP3   OH245102   5.176   7.350   1.254
15054TIP3    H145103   5.206   7.361   1.344
15054TIP3    H245104   5.081   7.365   1.258
15055TIP3   OH245105   0.295   2.618   0.605
15055TIP3    H145106   0.329   2.528   0.606
15055TIP3    H245107   0.228   2.618   0.538
15056TIP3   OH245108   0.640   5.760   4.397
15056TIP3    H145109   0.582   5.685   4.381
15056TIP3    H245110   0.685   5.738   4.479
15057TIP3   OH245111   1.926   2.928   1.315
15057TIP3    H145112   1.942   2.998   1.251
15057TIP3    H245113   2.003   2.930   1.372
15058TIP3   OH245114   3.503   5.627   2.684
15058TIP3    H145115   3.450   5.698   2.650
15058TIP3    H245116   3.550   5.593   2.608
15059TIP3   OH245117   3.291   5.498   1.352
15059TIP3    H145118   3.229   5.525   1.420
15059TIP3    H245119   3.327   5.580   1.318
15060TIP3   OH245120   6.420   2.566   6.342
15060TIP3    H145121   6.362   2.497   6.372
15060TIP3    H245122   6.506   2.524   6.335
15061TIP3   OH245123   3.578   4.373   2.136
15061TIP3    H145124   3.625   4.290   2.138
15061TIP3    H245125   3.493   4.352   2.096
15062TIP3   OH245126   7.009   4.742   3.934
15062TIP3    H145127   7.103   4.726   3.933
15062TIP3    H245128   7.000   4.826   3.980
15063TIP3   OH245129   3.447  -0.003   5.669
15063TIP3    H145130   3.479  -0.078   5.719
15063TIP3    H245131   3.508   0.068   5.690
15064TIP3   OH245132   5.860   6.967   2.826
15064TIP3    H145133   5.934   6.992   2.881
15064TIP3    H245134   5.815   7.050   2.808
15065TIP3   OH245135   3.621   0.162   4.907
15065TIP3    H145136   3.699   0.133   4.954
15065TIP3    H245137   3.651   0.234   4.851
15066TIP3   OH245138   7.862   6.613   4.173
15066TIP3    H145139   7.890   6.703   4.156
15066TIP3    H245140   7.870   6.603   4.268
15067TIP3   OH245141   0.275   2.457   3.129
15067TIP3    H145142   0.201   2.518   3.134
15067TIP3    H245143   0.254   2.389   3.193
15068TIP3   OH245144   3.185   0.629   3.992
15068TIP3    H145145   3.249   0.605   3.924
15068TIP3    H245146   3.138   0.547   4.011
15069TIP3   OH245147   4.055   1.102   5.310
15069TIP3    H145148   4.148   1.104   5.334
15069TIP3    H245149   4.009   1.086   5.392
15070TIP3   OH245150   5.322   6.523   5.516
15070TIP3    H145151   5.294   6.517   5.607
15070TIP3    H245152   5.379   6.600   5.513
15071TIP3   OH245153   4.728   7.775   1.198
15071TIP3    H145154   4.689   7.731   1.123
15071TIP3    H245155   4.655   7.820   1.240
15072TIP3   OH245156   5.393   1.388   2.531
15072TIP3    H145157   5.424   1.389   2.622
15072TIP3    H245158   5.362   1.477   2.515
15073TIP3   OH245159   6.919   7.675   6.751
15073TIP3    H145160   6.869   7.597   6.729
15073TIP3    H245161   6.978   7.689   6.677
15074TIP3   OH245162   3.108   4.438   2.577
15074TIP3    H145163   3.098   4.432   2.482
15074TIP3    H245164   3.058   4.516   2.601
15075TIP3   OH245165   5.077   0.571   3.778
15075TIP3    H145166   5.100   0.658   3.813
15075TIP3    H245167   5.022   0.590   3.702
15076TIP3   OH245168   6.372   7.861   2.155
15076TIP3    H145169   6.450   7.882   2.206
15076TIP3    H245170   6.399   7.873   2.064
15077TIP3   OH245171   0.933   0.373   6.142
15077TIP3    H145172   0.995   0.414   6.081
15077TIP3    H245173   0.864   0.338   6.086
15078TIP3   OH245174   2.023   0.504   2.271
15078TIP3    H145175   1.976   0.460   2.201
15078TIP3    H245176   2.076   0.570   2.227
15079TIP3   OH245177   4.593   7.257   5.844
15079TIP3    H145178   4.677   7.257   5.891
15079TIP3    H245179   4.595   7.336   5.791
15080TIP3   OH245180   5.233   6.548   4.726
15080TIP3    H145181   5.186   6.535   4.809
15080TIP3    H245182   5.322   6.519   4.744
15081TIP3   OH245183   0.365   4.149   4.909
15081TIP3    H145184   0.357   4.222   4.971
15081TIP3    H245185   0.332   4.073   4.957
15082TIP3   OH245186   6.514   2.233   5.405
15082TIP3    H145187   6.602   2.247   5.371
15082TIP3    H245188   6.499   2.139   5.395
15083TIP3   OH245189   7.228   4.030   0.393
15083TIP3    H145190   7.315   4.064   0.372
15083TIP3    H245191   7.218   3.954   0.336
15084TIP3   OH245192   0.602   5.377   4.703
15084TIP3    H145193   0.647   5.327   4.635
15084TIP3    H245194   0.513   5.341   4.705
15085TIP3   OH245195   6.983   4.458   2.248
15085TIP3    H145196   6.967   4.375   2.203
15085TIP3    H245197   6.965   4.525   2.183
15086TIP3   OH245198   1.097   2.061   6.407
15086TIP3    H145199   1.018   2.071   6.459
15086TIP3    H245200   1.166   2.041   6.471
15087TIP3   OH245201   3.212   3.630   6.511
15087TIP3    H145202   3.228   3.544   6.473
15087TIP3    H245203   3.289   3.646   6.567
15088TIP3   OH245204   3.058   1.069   1.679
15088TIP3    H145205   3.104   0.989   1.656
15088TIP3    H245206   3.044   1.114   1.596
15089TIP3   OH245207   3.523   1.449   1.512
15089TIP3    H145208   3.611   1.465   1.477
15089TIP3    H245209   3.528   1.473   1.604
15090TIP3   OH245210   7.005   2.233   3.708
15090TIP3    H145211   7.070   2.285   3.660
15090TIP3    H245212   6.923   2.248   3.661
15091TIP3   OH245213   6.488   1.441   2.978
15091TIP3    H145214   6.583   1.451   2.976
15091TIP3    H245215   6.468   1.421   3.070
15092TIP3   OH245216   5.499   6.111   4.913
15092TIP3    H145217   5.403   6.111   4.909
15092TIP3    H245218   5.519   6.155   4.995
15093TIP3   OH245219   6.522   7.891   0.780
15093TIP3    H145220   6.465   7.838   0.836
15093TIP3    H245221   6.568   7.949   0.840
15094TIP3   OH245222   2.951   6.374   6.102
15094TIP3    H145223   3.014   6.409   6.038
15094TIP3    H245224   2.999   6.373   6.185
15095TIP3   OH245225   1.069   5.477   4.527
15095TIP3    H145226   1.055   5.398   4.474
15095TIP3    H245227   1.162   5.474   4.550
15096TIP3   OH245228   3.195   3.719   1.013
15096TIP3    H145229   3.228   3.631   0.994
15096TIP3    H245230   3.142   3.742   0.937
15097TIP3   OH245231   4.874   5.068   1.937
15097TIP3    H145232   4.921   5.145   1.905
15097TIP3    H245233   4.861   5.014   1.859
15098TIP3   OH245234   7.147   4.296   6.202
15098TIP3    H145235   7.142   4.284   6.297
15098TIP3    H245236   7.101   4.220   6.166
15099TIP3   OH245237   1.962   0.132   6.266
15099TIP3    H145238   2.025   0.065   6.241
15099TIP3    H245239   1.937   0.109   6.356
15100TIP3   OH245240   2.883   3.201   1.288
15100TIP3    H145241   2.788   3.191   1.283
15100TIP3    H245242   2.913   3.181   1.200
15101TIP3   OH245243   1.377   4.507   5.656
15101TIP3    H145244   1.452   4.559   5.628
15101TIP3    H245245   1.333   4.483   5.574
15102TIP3   OH245246   7.432   3.049   0.255
15102TIP3    H145247   7.436   2.963   0.297
15102TIP3    H245248   7.382   3.103   0.316
15103TIP3   OH245249   6.639   3.270   5.093
15103TIP3    H145250   6.622   3.258   5.187
15103TIP3    H245251   6.681   3.188   5.067
15104TIP3   OH245252   1.762   2.652   2.165
15104TIP3    H145253   1.822   2.632   2.238
15104TIP3    H245254   1.820   2.677   2.093
15105TIP3   OH245255   2.813   3.493   6.638
15105TIP3    H145256   2.757   3.569   6.623
15105TIP3    H245257   2.757   3.418   6.621
15106TIP3   OH245258   5.241   1.048   4.056
15106TIP3    H145259   5.308   1.008   4.111
15106TIP3    H245260   5.228   0.985   3.985
15107TIP3   OH245261   3.927   1.847   6.333
15107TIP3    H145262   4.019   1.822   6.342
15107TIP3    H245263   3.879   1.763   6.330
15108TIP3   OH245264   2.378   0.486   4.912
15108TIP3    H145265   2.283   0.488   4.920
15108TIP3    H245266   2.409   0.450   4.996
15109TIP3   OH245267   3.983   4.826   4.944
15109TIP3    H145268   3.996   4.912   4.904
15109TIP3    H245269   3.898   4.832   4.988
15110TIP3   OH245270   5.192   3.767   0.800
15110TIP3    H145271   5.268   3.818   0.772
15110TIP3    H245272   5.134   3.831   0.842
15111TIP3   OH245273   7.066   2.478   4.322
15111TIP3    H145274   7.053   2.508   4.232
15111TIP3    H245275   6.977   2.469   4.357
15112TIP3   OH245276   5.481   0.154   5.778
15112TIP3    H145277   5.569   0.192   5.771
15112TIP3    H245278   5.445   0.191   5.858
15113TIP3   OH245279   2.861   4.842   5.939
15113TIP3    H145280   2.922   4.796   5.881
15113TIP3    H245281   2.917   4.881   6.006
15114TIP3   OH245282   6.619   3.193   1.146
15114TIP3    H145283   6.636   3.145   1.066
15114TIP3    H245284   6.706   3.217   1.179
15115TIP3   OH245285   3.907   2.646   1.207
15115TIP3    H145286   3.876   2.655   1.117
15115TIP3    H245287   3.836   2.682   1.260
15116TIP3   OH245288   2.401   4.669   5.061
15116TIP3    H145289   2.442   4.593   5.019
15116TIP3    H245290   2.311   4.668   5.028
15117TIP3   OH245291   5.196   3.498   1.756
15117TIP3    H145292   5.179   3.585   1.791
15117TIP3    H245293   5.286   3.501   1.725
15118TIP3   OH245294   6.238   3.987   0.676
15118TIP3    H145295   6.221   3.894   0.661
15118TIP3    H245296   6.297   4.013   0.605
15119TIP3   OH245297   2.018   0.724   6.756
15119TIP3    H145298   1.945   0.765   6.709
15119TIP3    H245299   2.089   0.721   6.691
15120TIP3   OH245300   6.696   6.469   1.529
15120TIP3    H145301   6.758   6.540   1.547
15120TIP3    H245302   6.643   6.501   1.456
15121TIP3   OH245303   6.717   7.789   1.063
15121TIP3    H145304   6.783   7.805   0.995
15121TIP3    H245305   6.746   7.842   1.137
15122TIP3   OH245306   4.511   0.829   6.351
15122TIP3    H145307   4.516   0.923   6.336
15122TIP3    H245308   4.600   0.798   6.333
15123TIP3   OH245309   1.528   7.169   0.074
15123TIP3    H145310   1.566   7.082   0.085
15123TIP3    H245311   1.588   7.214   0.014
15124TIP3   OH245312   1.892   6.674   4.446
15124TIP3    H145313   1.940   6.634   4.518
15124TIP3    H245314   1.833   6.736   4.487
15125TIP3   OH245315   0.548   3.378   5.866
15125TIP3    H145316   0.545   3.427   5.948
15125TIP3    H245317   0.470   3.407   5.818
15126TIP3   OH245318   4.587   5.940   0.352
15126TIP3    H145319   4.669   5.982   0.328
15126TIP3    H245320   4.603   5.847   0.340
15127TIP3   OH245321   5.551   1.599   1.616
15127TIP3    H145322   5.575   1.533   1.551
15127TIP3    H245323   5.623   1.597   1.679
15128TIP3   OH245324   3.711   4.250   5.235
15128TIP3    H145325   3.737   4.286   5.321
15128TIP3    H245326   3.726   4.156   5.243
15129TIP3   OH245327   5.121   0.798   6.160
15129TIP3    H145328   5.121   0.803   6.256
15129TIP3    H245329   5.069   0.719   6.140
15130TIP3   OH245330   8.134   6.728   3.370
15130TIP3    H145331   8.126   6.809   3.420
15130TIP3    H245332   8.053   6.725   3.318
15131TIP3   OH245333   4.016   3.956   3.709
15131TIP3    H145334   3.939   3.993   3.665
15131TIP3    H245335   4.090   3.995   3.662
15132TIP3   OH245336   8.196   3.630   2.144
15132TIP3    H145337   8.175   3.556   2.087
15132TIP3    H245338   8.118   3.642   2.197
15133TIP3   OH245339   1.596   5.777   1.732
15133TIP3    H145340   1.542   5.767   1.653
15133TIP3    H245341   1.583   5.868   1.759
15134TIP3   OH245342   1.283   3.942   0.254
15134TIP3    H145343   1.267   3.852   0.224
15134TIP3    H245344   1.297   3.934   0.348
15135TIP3   OH245345   8.240   5.406   6.625
15135TIP3    H145346   8.311   5.372   6.681
15135TIP3    H245347   8.160   5.389   6.676
15136TIP3   OH245348   1.361   6.506   4.343
15136TIP3    H145349   1.270   6.534   4.355
15136TIP3    H245350   1.379   6.450   4.419
15137TIP3   OH245351   5.446   5.108   4.005
15137TIP3    H145352   5.385   5.109   4.078
15137TIP3    H245353   5.494   5.190   4.012
15138TIP3   OH245354   8.175   5.849   1.595
15138TIP3    H145355   8.261   5.886   1.616
15138TIP3    H245356   8.195   5.762   1.560
15139TIP3   OH245357   6.566   6.406   5.920
15139TIP3    H145358   6.481   6.447   5.900
15139TIP3    H245359   6.606   6.391   5.835
15140TIP3   OH245360   8.096   0.082   2.360
15140TIP3    H145361   8.124   0.154   2.305
15140TIP3    H245362   8.136   0.100   2.445
15141TIP3   OH245363   6.372   3.906   3.641
15141TIP3    H145364   6.363   3.916   3.546
15141TIP3    H245365   6.363   3.995   3.676
15142TIP3   OH245366   7.862   7.539   3.131
15142TIP3    H145367   7.922   7.470   3.102
15142TIP3    H245368   7.776   7.497   3.133
15143TIP3   OH245369   3.935   0.866   5.412
15143TIP3    H145370   3.901   0.777   5.400
15143TIP3    H245371   3.894   0.896   5.493
15144TIP3   OH245372   4.820   3.083   1.818
15144TIP3    H145373   4.866   3.088   1.902
15144TIP3    H245374   4.828   2.992   1.791
15145TIP3   OH245375   0.869   4.870   1.802
15145TIP3    H145376   0.832   4.955   1.825
15145TIP3    H245377   0.842   4.812   1.873
15146TIP3   OH245378   1.112   4.352   1.337
15146TIP3    H145379   1.161   4.270   1.347
15146TIP3    H245380   1.135   4.383   1.250
15147TIP3   OH245381   4.589   4.099   5.692
15147TIP3    H145382   4.629   4.160   5.753
15147TIP3    H245383   4.551   4.155   5.624
15148TIP3   OH245384   6.069   1.164   5.829
15148TIP3    H145385   6.087   1.078   5.866
15148TIP3    H245386   6.052   1.219   5.906
15149TIP3   OH245387   5.702   4.153   1.069
15149TIP3    H145388   5.666   4.241   1.063
15149TIP3    H245389   5.626   4.096   1.053
15150TIP3   OH245390   7.023   1.627   3.755
15150TIP3    H145391   7.010   1.584   3.840
15150TIP3    H245392   7.116   1.650   3.754
15151TIP3   OH245393   2.577   3.920   2.999
15151TIP3    H145394   2.588   3.859   3.072
15151TIP3    H245395   2.655   3.907   2.946
15152TIP3   OH245396   4.985   5.375   6.389
15152TIP3    H145397   5.062   5.341   6.436
15152TIP3    H245398   4.957   5.303   6.333
15153TIP3   OH245399   2.448   3.978   3.403
15153TIP3    H145400   2.507   3.956   3.331
15153TIP3    H245401   2.438   4.073   3.397
15154TIP3   OH245402   2.429   0.494   0.399
15154TIP3    H145403   2.375   0.446   0.335
15154TIP3    H245404   2.366   0.526   0.463
15155TIP3   OH245405   1.949   4.979   6.526
15155TIP3    H145406   1.905   4.899   6.496
15155TIP3    H245407   1.948   4.972   6.621
15156TIP3   OH245408   2.905   6.106   1.875
15156TIP3    H145409   3.000   6.096   1.871
15156TIP3    H245410   2.872   6.054   1.802
15157TIP3   OH245411   1.092   1.543   4.390
15157TIP3    H145412   1.063   1.485   4.460
15157TIP3    H245413   1.016   1.551   4.332
15158TIP3   OH245414   4.658   2.718   0.541
15158TIP3    H145415   4.650   2.726   0.636
15158TIP3    H245416   4.737   2.767   0.520
15159TIP3   OH245417   1.378   3.604   1.746
15159TIP3    H145418   1.380   3.529   1.805
15159TIP3    H245419   1.296   3.649   1.768
15160TIP3   OH245420   7.553   4.305   3.117
15160TIP3    H145421   7.491   4.296   3.190
15160TIP3    H245422   7.505   4.274   3.040
15161TIP3   OH245423   0.982   2.875   4.321
15161TIP3    H145424   0.971   2.883   4.416
15161TIP3    H245425   1.074   2.895   4.306
15162TIP3   OH245426   3.289   6.549   6.642
15162TIP3    H145427   3.325   6.548   6.554
15162TIP3    H245428   3.303   6.639   6.674
15163TIP3   OH245429   8.332   5.199   1.965
15163TIP3    H145430   8.264   5.267   1.958
15163TIP3    H245431   8.328   5.170   2.056
15164TIP3   OH245432   6.559   3.968   3.237
15164TIP3    H145433   6.649   3.973   3.203
15164TIP3    H245434   6.514   4.041   3.195
15165TIP3   OH245435   7.270   4.924   3.745
15165TIP3    H145436   7.250   5.015   3.769
15165TIP3    H245437   7.214   4.906   3.670
15166TIP3   OH245438   6.287   6.434   3.665
15166TIP3    H145439   6.268   6.372   3.594
15166TIP3    H245440   6.240   6.399   3.740
15167TIP3   OH245441   3.404   6.176   2.909
15167TIP3    H145442   3.383   6.090   2.946
15167TIP3    H245443   3.495   6.167   2.879
15168TIP3   OH245444   2.498   3.414   2.853
15168TIP3    H145445   2.587   3.387   2.875
15168TIP3    H245446   2.509   3.499   2.809
15169TIP3   OH245447   2.200   3.949   3.137
15169TIP3    H145448   2.133   4.000   3.182
15169TIP3    H245449   2.174   3.858   3.149
15170TIP3   OH245450   0.946   5.091   6.372
15170TIP3    H145451   1.008   5.120   6.439
15170TIP3    H245452   0.877   5.157   6.372
15171TIP3   OH245453   5.061   2.901   4.953
15171TIP3    H145454   5.135   2.842   4.968
15171TIP3    H245455   5.062   2.917   4.858
15172TIP3   OH245456   0.986   6.830   3.806
15172TIP3    H145457   0.976   6.744   3.764
15172TIP3    H245458   1.035   6.812   3.886
15173TIP3   OH245459   4.155   7.127   1.680
15173TIP3    H145460   4.197   7.051   1.641
15173TIP3    H245461   4.163   7.196   1.614
15174TIP3   OH245462   7.746   5.749   4.481
15174TIP3    H145463   7.779   5.827   4.525
15174TIP3    H245464   7.807   5.679   4.505
15175TIP3   OH245465   7.738   2.168   3.937
15175TIP3    H145466   7.770   2.092   3.889
15175TIP3    H245467   7.772   2.156   4.026
15176TIP3   OH245468   2.744   5.901   5.415
15176TIP3    H145469   2.675   5.835   5.410
15176TIP3    H245470   2.727   5.947   5.497
15177TIP3   OH245471   7.657   4.379   5.407
15177TIP3    H145472   7.598   4.349   5.476
15177TIP3    H245473   7.720   4.435   5.452
15178TIP3   OH245474   0.818   3.831   3.584
15178TIP3    H145475   0.898   3.778   3.587
15178TIP3    H245476   0.848   3.921   3.596
15179TIP3   OH245477   7.921   6.428   2.133
15179TIP3    H145478   7.840   6.478   2.142
15179TIP3    H245479   7.986   6.478   2.182
15180TIP3   OH245480   1.505   7.386   3.462
15180TIP3    H145481   1.581   7.408   3.407
15180TIP3    H245482   1.429   7.413   3.409
15181TIP3   OH245483   2.615   3.263   1.295
15181TIP3    H145484   2.598   3.344   1.248
15181TIP3    H245485   2.601   3.285   1.387
15182TIP3   OH245486   1.193   5.410   1.807
15182TIP3    H145487   1.179   5.357   1.886
15182TIP3    H245488   1.285   5.399   1.786
15183TIP3   OH245489   4.370   6.515   5.055
15183TIP3    H145490   4.336   6.468   4.979
15183TIP3    H245491   4.306   6.584   5.072
15184TIP3   OH245492   5.370   0.966   1.666
15184TIP3    H145493   5.299   0.989   1.727
15184TIP3    H245494   5.357   0.872   1.650
15185TIP3   OH245495   8.248   2.018   6.910
15185TIP3    H145496   8.300   1.945   6.876
15185TIP3    H245497   8.311   2.091   6.917
15186TIP3   OH245498   5.107   4.572   1.054
15186TIP3    H145499   5.190   4.548   1.095
15186TIP3    H245500   5.115   4.665   1.035
15187TIP3   OH245501   6.248   1.679   2.722
15187TIP3    H145502   6.284   1.725   2.798
15187TIP3    H245503   6.309   1.607   2.707
15188TIP3   OH245504   4.982   1.668   5.953
15188TIP3    H145505   5.021   1.641   6.036
15188TIP3    H245506   4.912   1.604   5.938
15189TIP3   OH245507   2.475   0.918   4.716
15189TIP3    H145508   2.432   1.003   4.717
15189TIP3    H245509   2.480   0.891   4.808
15190TIP3   OH245510   8.047   7.516   3.381
15190TIP3    H145511   8.128   7.498   3.334
15190TIP3    H245512   7.978   7.478   3.326
15191TIP3   OH245513   5.136   3.842   4.093
15191TIP3    H145514   5.105   3.858   4.004
15191TIP3    H245515   5.229   3.866   4.091
15192TIP3   OH245516   2.940   3.187   5.340
15192TIP3    H145517   2.891   3.222   5.414
15192TIP3    H245518   2.922   3.094   5.340
15193TIP3   OH245519   1.208   1.513   0.662
15193TIP3    H145520   1.256   1.522   0.579
15193TIP3    H245521   1.122   1.480   0.635
15194TIP3   OH245522   6.515   1.972   3.678
15194TIP3    H145523   6.469   2.052   3.705
15194TIP3    H245524   6.590   1.966   3.738
15195TIP3   OH245525   0.158   1.783   0.705
15195TIP3    H145526   0.180   1.715   0.768
15195TIP3    H245527   0.107   1.738   0.638
15196TIP3   OH245528   7.218   4.447   3.005
15196TIP3    H145529   7.196   4.477   3.093
15196TIP3    H245530   7.287   4.505   2.976
15197TIP3   OH245531   1.732   3.800   6.329
15197TIP3    H145532   1.641   3.827   6.316
15197TIP3    H245533   1.725   3.723   6.386
15198TIP3   OH245534   0.380   2.316   6.398
15198TIP3    H145535   0.384   2.404   6.360
15198TIP3    H245536   0.378   2.257   6.323
15199TIP3   OH245537   5.902   5.700   0.588
15199TIP3    H145538   5.926   5.693   0.495
15199TIP3    H245539   5.968   5.757   0.626
15200TIP3   OH245540   2.668   7.287   1.060
15200TIP3    H145541   2.763   7.277   1.064
15200TIP3    H245542   2.654   7.361   1.000
15201TIP3   OH245543   0.932   5.469   1.292
15201TIP3    H145544   0.887   5.460   1.376
15201TIP3    H245545   0.865   5.448   1.227
15202TIP3   OH245546   6.600   6.066   3.607
15202TIP3    H145547   6.641   6.008   3.543
15202TIP3    H245548   6.643   6.151   3.594
15203TIP3   OH245549   5.832   6.973   5.843
15203TIP3    H145550   5.750   7.006   5.806
15203TIP3    H245551   5.900   7.006   5.785
15204TIP3   OH245552   7.475   2.507   6.747
15204TIP3    H145553   7.382   2.503   6.770
15204TIP3    H245554   7.520   2.504   6.832
15205TIP3   OH245555   5.485   1.693   5.098
15205TIP3    H145556   5.514   1.659   5.014
15205TIP3    H245557   5.543   1.653   5.162
15206TIP3   OH245558   6.799   1.754   2.825
15206TIP3    H145559   6.880   1.707   2.843
15206TIP3    H245560   6.821   1.812   2.752
15207TIP3   OH245561   1.814   2.797   3.806
15207TIP3    H145562   1.776   2.879   3.839
15207TIP3    H245563   1.794   2.797   3.712
15208TIP3   OH245564   2.071   0.785   0.807
15208TIP3    H145565   1.998   0.842   0.831
15208TIP3    H245566   2.068   0.783   0.711
15209TIP3   OH245567   3.494   4.979   1.928
15209TIP3    H145568   3.444   5.053   1.962
15209TIP3    H245569   3.568   5.019   1.883
15210TIP3   OH245570   4.472   1.413   5.234
15210TIP3    H145571   4.543   1.449   5.287
15210TIP3    H245572   4.408   1.381   5.297
15211TIP3   OH245573   8.277   1.575   0.931
15211TIP3    H145574   8.270   1.481   0.916
15211TIP3    H245575   8.222   1.615   0.863
15212TIP3   OH245576   2.127   7.091   2.100
15212TIP3    H145577   2.186   7.165   2.114
15212TIP3    H245578   2.052   7.128   2.054
15213TIP3   OH245579   4.389   0.123   1.132
15213TIP3    H145580   4.478   0.088   1.133
15213TIP3    H245581   4.397   0.207   1.088
15214TIP3   OH245582   7.681   6.236   3.379
15214TIP3    H145583   7.595   6.200   3.401
15214TIP3    H245584   7.724   6.250   3.463
15215TIP3   OH245585   1.655   1.373   4.469
15215TIP3    H145586   1.640   1.302   4.532
15215TIP3    H245587   1.696   1.330   4.394
15216TIP3   OH245588   1.364   2.409   6.752
15216TIP3    H145589   1.412   2.457   6.820
15216TIP3    H245590   1.272   2.425   6.773
15217TIP3   OH245591   0.812   1.828   5.739
15217TIP3    H145592   0.798   1.756   5.678
15217TIP3    H245593   0.867   1.791   5.808
15218TIP3   OH245594   8.173   0.502   5.682
15218TIP3    H145595   8.111   0.454   5.627
15218TIP3    H245596   8.215   0.435   5.735
15219TIP3   OH245597   4.168   5.616   3.393
15219TIP3    H145598   4.251   5.574   3.416
15219TIP3    H245599   4.126   5.633   3.478
15220TIP3   OH245600   6.688   2.613   1.552
15220TIP3    H145601   6.714   2.579   1.466
15220TIP3    H245602   6.740   2.692   1.564
15221TIP3   OH245603   6.176   1.876   4.913
15221TIP3    H145604   6.121   1.798   4.908
15221TIP3    H245605   6.168   1.917   4.827
15222TIP3   OH245606   5.743   4.369   3.952
15222TIP3    H145607   5.765   4.315   4.028
15222TIP3    H245608   5.688   4.439   3.987
15223TIP3   OH245609   5.060   3.106   0.874
15223TIP3    H145610   4.997   3.125   0.805
15223TIP3    H245611   5.015   3.132   0.955
15224TIP3   OH245612   0.744   2.710   2.553
15224TIP3    H145613   0.745   2.629   2.502
15224TIP3    H245614   0.835   2.740   2.552
15225TIP3   OH245615   2.503   7.664   5.386
15225TIP3    H145616   2.452   7.596   5.341
15225TIP3    H245617   2.506   7.737   5.324
15226TIP3   OH245618   4.139   7.761   1.491
15226TIP3    H145619   4.047   7.735   1.493
15226TIP3    H245620   4.163   7.755   1.398
15227TIP3   OH245621   5.639   3.029   4.728
15227TIP3    H145622   5.552   3.004   4.698
15227TIP3    H245623   5.626   3.109   4.779
15228TIP3   OH245624   4.469   5.987   1.949
15228TIP3    H145625   4.556   6.027   1.949
15228TIP3    H245626   4.416   6.045   1.894
15229TIP3   OH245627   5.699   6.235   3.151
15229TIP3    H145628   5.755   6.184   3.209
15229TIP3    H245629   5.737   6.323   3.151
15230TIP3   OH245630   6.575   7.586   5.899
15230TIP3    H145631   6.482   7.581   5.877
15230TIP3    H245632   6.586   7.674   5.936
15231TIP3   OH245633   5.326   2.959   2.291
15231TIP3    H145634   5.299   3.048   2.269
15231TIP3    H245635   5.327   2.913   2.207
15232TIP3   OH245636   8.156   6.624   4.084
15232TIP3    H145637   8.074   6.585   4.116
15232TIP3    H245638   8.217   6.551   4.078
15233TIP3   OH245639   1.102   3.230   6.000
15233TIP3    H145640   1.089   3.324   5.995
15233TIP3    H245641   1.181   3.219   6.053
15234TIP3   OH245642   1.840   2.252   2.948
15234TIP3    H145643   1.801   2.315   3.008
15234TIP3    H245644   1.932   2.247   2.974
15235TIP3   OH245645   7.104   0.349   5.422
15235TIP3    H145646   7.131   0.279   5.481
15235TIP3    H245647   7.144   0.328   5.338
15236TIP3   OH245648   4.640   7.178   2.202
15236TIP3    H145649   4.714   7.134   2.161
15236TIP3    H245650   4.672   7.266   2.223
15237TIP3   OH245651   2.527   3.064   4.085
15237TIP3    H145652   2.477   3.128   4.035
15237TIP3    H245653   2.501   2.980   4.048
15238TIP3   OH245654   7.227   0.680   2.281
15238TIP3    H145655   7.306   0.657   2.331
15238TIP3    H245656   7.155   0.659   2.341
15239TIP3   OH245657   4.312   1.360   2.616
15239TIP3    H145658   4.403   1.359   2.645
15239TIP3    H245659   4.310   1.423   2.544
15240TIP3   OH245660   6.606   3.672   0.951
15240TIP3    H145661   6.564   3.704   0.870
15240TIP3    H245662   6.544   3.692   1.020
15241TIP3   OH245663   8.163   0.150   5.009
15241TIP3    H145664   8.180   0.220   4.946
15241TIP3    H245665   8.068   0.150   5.020
15242TIP3   OH245666   5.046   2.208   4.144
15242TIP3    H145667   5.075   2.172   4.227
15242TIP3    H245668   4.959   2.245   4.162
15243TIP3   OH245669   2.977   0.124   0.852
15243TIP3    H145670   2.889   0.094   0.874
15243TIP3    H245671   3.031   0.045   0.856
15244TIP3   OH245672   6.630   1.411   0.200
15244TIP3    H145673   6.700   1.371   0.251
15244TIP3    H245674   6.638   1.371   0.113
15245TIP3   OH245675   2.525   7.901   0.520
15245TIP3    H145676   2.601   7.949   0.486
15245TIP3    H245677   2.471   7.885   0.443
15246TIP3   OH245678   7.501   5.550   2.101
15246TIP3    H145679   7.424   5.586   2.144
15246TIP3    H245680   7.573   5.607   2.128
15247TIP3   OH245681   7.587   7.818   4.187
15247TIP3    H145682   7.632   7.898   4.160
15247TIP3    H245683   7.565   7.832   4.279
15248TIP3   OH245684   1.425   0.243   0.997
15248TIP3    H145685   1.463   0.180   1.058
15248TIP3    H245686   1.500   0.284   0.954
15249TIP3   OH245687   3.928   1.331   3.351
15249TIP3    H145688   3.929   1.422   3.320
15249TIP3    H245689   3.937   1.337   3.446
15250TIP3   OH245690   1.312   1.592   0.910
15250TIP3    H145691   1.402   1.561   0.917
15250TIP3    H245692   1.283   1.559   0.825
15251TIP3   OH245693   1.505   2.402   0.300
15251TIP3    H145694   1.540   2.448   0.377
15251TIP3    H245695   1.455   2.329   0.337
15252TIP3   OH245696   0.407   3.912   2.444
15252TIP3    H145697   0.453   3.971   2.384
15252TIP3    H245698   0.318   3.908   2.410
15253TIP3   OH245699   5.799   4.547   6.772
15253TIP3    H145700   5.857   4.473   6.756
15253TIP3    H245701   5.855   4.611   6.816
15254TIP3   OH245702   3.514   4.404   1.018
15254TIP3    H145703   3.583   4.429   0.957
15254TIP3    H245704   3.438   4.389   0.963
15255TIP3   OH245705   6.571   1.750   3.524
15255TIP3    H145706   6.546   1.667   3.565
15255TIP3    H245707   6.543   1.816   3.587
15256TIP3   OH245708   3.856   0.970   4.852
15256TIP3    H145709   3.839   1.041   4.790
15256TIP3    H245710   3.858   1.013   4.938
15257TIP3   OH245711   7.069   7.009   4.651
15257TIP3    H145712   7.011   7.078   4.683
15257TIP3    H245713   7.013   6.954   4.596
15258TIP3   OH245714   8.271   6.226   0.297
15258TIP3    H145715   8.206   6.254   0.232
15258TIP3    H245716   8.355   6.254   0.260
15259TIP3   OH245717   6.684   0.640   5.108
15259TIP3    H145718   6.604   0.597   5.137
15259TIP3    H245719   6.753   0.598   5.158
15260TIP3   OH245720   4.284   2.631   1.991
15260TIP3    H145721   4.264   2.545   1.952
15260TIP3    H245722   4.234   2.693   1.939
15261TIP3   OH245723   4.296   5.643   4.598
15261TIP3    H145724   4.266   5.630   4.688
15261TIP3    H245725   4.219   5.622   4.544
15262TIP3   OH245726   0.391   7.763   4.755
15262TIP3    H145727   0.453   7.702   4.796
15262TIP3    H245728   0.447   7.822   4.703
15263TIP3   OH245729   4.862   4.950   1.206
15263TIP3    H145730   4.874   4.869   1.256
15263TIP3    H245731   4.863   4.922   1.114
15264TIP3   OH245732   1.172   3.463   3.608
15264TIP3    H145733   1.204   3.406   3.538
15264TIP3    H245734   1.108   3.409   3.655
15265TIP3   OH245735   2.546   6.164   5.030
15265TIP3    H145736   2.533   6.123   4.944
15265TIP3    H245737   2.587   6.248   5.010
15266TIP3   OH245738   3.332   3.871   0.104
15266TIP3    H145739   3.426   3.860   0.121
15266TIP3    H245740   3.293   3.879   0.191
15267TIP3   OH245741   3.213   3.273   5.842
15267TIP3    H145742   3.120   3.267   5.818
15267TIP3    H245743   3.258   3.219   5.777
15268TIP3   OH245744   2.761   1.977  -0.067
15268TIP3    H145745   2.681   1.960  -0.018
15268TIP3    H245746   2.831   1.970  -0.003
15269TIP3   OH245747   5.143   4.062   6.114
15269TIP3    H145748   5.178   4.094   6.197
15269TIP3    H245749   5.049   4.079   6.119
15270TIP3   OH245750   6.732   6.988   2.953
15270TIP3    H145751   6.821   7.020   2.941
15270TIP3    H245752   6.699   6.974   2.865
15271TIP3   OH245753   1.902   7.162   5.209
15271TIP3    H145754   1.869   7.205   5.289
15271TIP3    H245755   1.995   7.149   5.226
15272TIP3   OH245756   6.085   5.054   6.381
15272TIP3    H145757   6.049   4.984   6.436
15272TIP3    H245758   6.045   5.134   6.415
15273TIP3   OH245759   7.231   7.442   5.840
15273TIP3    H145760   7.265   7.486   5.762
15273TIP3    H245761   7.300   7.451   5.905
15274TIP3   OH245762   8.248   1.915   5.497
15274TIP3    H145763   8.329   1.935   5.450
15274TIP3    H245764   8.178   1.931   5.434
15275TIP3   OH245765   8.179   7.171   5.950
15275TIP3    H145766   8.261   7.126   5.969
15275TIP3    H245767   8.165   7.229   6.025
15276TIP3   OH245768   6.303   1.954   2.058
15276TIP3    H145769   6.296   1.945   2.153
15276TIP3    H245770   6.213   1.958   2.027
15277TIP3   OH245771   7.964   2.089   1.879
15277TIP3    H145772   7.948   2.088   1.973
15277TIP3    H245773   7.877   2.093   1.840
15278TIP3   OH245774   3.537   2.859   3.211
15278TIP3    H145775   3.566   2.838   3.122
15278TIP3    H245776   3.477   2.788   3.234
15279TIP3   OH245777   2.598   0.110   0.728
15279TIP3    H145778   2.662   0.180   0.715
15279TIP3    H245779   2.532   0.148   0.785
15280TIP3   OH245780   3.475   7.052   3.324
15280TIP3    H145781   3.432   7.079   3.243
15280TIP3    H245782   3.559   7.016   3.296
15281TIP3   OH245783   2.841   1.784   6.079
15281TIP3    H145784   2.759   1.741   6.103
15281TIP3    H245785   2.831   1.874   6.109
15282TIP3   OH245786   6.127   2.341   1.054
15282TIP3    H145787   6.139   2.426   1.095
15282TIP3    H245788   6.216   2.308   1.042
15283TIP3   OH245789   5.112   2.767   3.845
15283TIP3    H145790   5.022   2.750   3.817
15283TIP3    H245791   5.165   2.703   3.797
15284TIP3   OH245792   5.728   2.949   0.567
15284TIP3    H145793   5.766   2.879   0.619
15284TIP3    H245794   5.646   2.913   0.534
15285TIP3   OH245795   3.043   7.682   5.538
15285TIP3    H145796   2.999   7.732   5.469
15285TIP3    H245797   3.128   7.661   5.501
15286TIP3   OH245798   1.017   1.609   0.196
15286TIP3    H145799   0.997   1.541   0.261
15286TIP3    H245800   1.020   1.562   0.113
15287TIP3   OH245801   2.472   6.200   4.116
15287TIP3    H145802   2.524   6.213   4.195
15287TIP3    H245803   2.480   6.282   4.068
15288TIP3   OH245804   4.440   5.340   0.772
15288TIP3    H145805   4.514   5.370   0.823
15288TIP3    H245806   4.365   5.347   0.831
15289TIP3   OH245807   6.560   6.444   4.358
15289TIP3    H145808   6.509   6.521   4.330
15289TIP3    H245809   6.494   6.381   4.388
15290TIP3   OH245810   7.395   1.446   5.163
15290TIP3    H145811   7.370   1.437   5.072
15290TIP3    H245812   7.343   1.519   5.196
15291TIP3   OH245813   1.163   3.985   0.916
15291TIP3    H145814   1.203   3.908   0.875
15291TIP3    H245815   1.097   3.948   0.975
15292TIP3   OH245816   5.532   4.112   3.909
15292TIP3    H145817   5.626   4.100   3.917
15292TIP3    H245818   5.513   4.097   3.817
15293TIP3   OH245819   6.328   5.525   3.294
15293TIP3    H145820   6.349   5.616   3.318
15293TIP3    H245821   6.410   5.491   3.258
15294TIP3   OH245822   4.780   4.322   1.990
15294TIP3    H145823   4.805   4.414   1.992
15294TIP3    H245824   4.690   4.320   2.022
15295TIP3   OH245825   3.506   5.915   3.287
15295TIP3    H145826   3.432   5.923   3.227
15295TIP3    H245827   3.577   5.882   3.231
15296TIP3   OH245828   8.249   6.480   4.984
15296TIP3    H145829   8.160   6.493   5.019
15296TIP3    H245830   8.238   6.415   4.915
15297TIP3   OH245831   1.939   4.781   1.193
15297TIP3    H145832   1.940   4.867   1.235
15297TIP3    H245833   1.956   4.799   1.101
15298TIP3   OH245834   1.019   3.485   3.043
15298TIP3    H145835   1.111   3.501   3.064
15298TIP3    H245836   0.971   3.522   3.117
15299TIP3   OH245837   5.537   5.477   4.963
15299TIP3    H145838   5.622   5.463   5.004
15299TIP3    H245839   5.527   5.572   4.958
15300TIP3   OH245840   3.850   7.613   6.372
15300TIP3    H145841   3.913   7.644   6.438
15300TIP3    H245842   3.853   7.518   6.378
15301TIP3   OH245843   8.285   3.575   3.452
15301TIP3    H145844   8.374   3.608   3.448
15301TIP3    H245845   8.237   3.641   3.502
15302TIP3   OH245846   5.951   3.846   2.469
15302TIP3    H145847   5.993   3.838   2.384
15302TIP3    H245848   5.970   3.763   2.513
15303TIP3   OH245849   0.909   6.898   6.245
15303TIP3    H145850   0.967   6.959   6.289
15303TIP3    H245851   0.858   6.858   6.316
15304TIP3   OH245852   2.776   3.250   5.546
15304TIP3    H145853   2.712   3.320   5.560
15304TIP3    H245854   2.725   3.169   5.555
15305TIP3   OH245855   3.194   0.951   3.742
15305TIP3    H145856   3.194   1.047   3.735
15305TIP3    H245857   3.104   0.926   3.721
15306TIP3   OH245858   6.526   5.060   1.834
15306TIP3    H145859   6.598   5.040   1.775
15306TIP3    H245860   6.448   5.031   1.788
15307TIP3   OH245861   8.195   0.654   0.660
15307TIP3    H145862   8.176   0.583   0.599
15307TIP3    H245863   8.136   0.724   0.633
15308TIP3   OH245864   5.421   4.727   1.361
15308TIP3    H145865   5.486   4.734   1.431
15308TIP3    H245866   5.351   4.786   1.388
15309TIP3   OH245867   7.040   2.685   6.309
15309TIP3    H145868   6.954   2.689   6.351
15309TIP3    H245869   7.028   2.623   6.237
15310TIP3   OH245870   1.365   1.158   6.625
15310TIP3    H145871   1.402   1.205   6.551
15310TIP3    H245872   1.289   1.210   6.651
15311TIP3   OH245873   0.677   5.154   2.166
15311TIP3    H145874   0.736   5.135   2.094
15311TIP3    H245875   0.636   5.237   2.142
15312TIP3   OH245876   3.485   5.662   3.555
15312TIP3    H145877   3.574   5.697   3.551
15312TIP3    H245878   3.432   5.724   3.506
15313TIP3   OH245879   7.971   4.625   1.329
15313TIP3    H145880   7.906   4.616   1.399
15313TIP3    H245881   7.983   4.537   1.296
15314TIP3   OH245882   5.806   6.516   6.372
15314TIP3    H145883   5.860   6.574   6.426
15314TIP3    H245884   5.807   6.433   6.418
15315TIP3   OH245885   6.439   1.620   0.542
15315TIP3    H145886   6.492   1.541   0.546
15315TIP3    H245887   6.503   1.692   0.548
15316TIP3   OH245888   7.332   2.761   2.101
15316TIP3    H145889   7.256   2.718   2.139
15316TIP3    H245890   7.364   2.701   2.034
15317TIP3   OH245891   1.635   1.755   6.821
15317TIP3    H145892   1.664   1.781   6.734
15317TIP3    H245893   1.630   1.659   6.817
15318TIP3   OH245894   0.620   1.127   5.969
15318TIP3    H145895   0.650   1.170   6.049
15318TIP3    H245896   0.577   1.196   5.919
15319TIP3   OH245897   0.658   5.080   6.698
15319TIP3    H145898   0.708   5.028   6.760
15319TIP3    H245899   0.626   5.154   6.749
15320TIP3   OH245900   3.411   3.902   4.069
15320TIP3    H145901   3.407   3.858   4.154
15320TIP3    H245902   3.504   3.896   4.045
15321TIP3   OH245903   4.260   7.935   3.436
15321TIP3    H145904   4.168   7.909   3.434
15321TIP3    H245905   4.305   7.870   3.382
15322TIP3   OH245906   6.234   1.565   6.835
15322TIP3    H145907   6.252   1.630   6.767
15322TIP3    H245908   6.295   1.494   6.817
15323TIP3   OH245909   2.966   1.366   5.162
15323TIP3    H145910   3.009   1.320   5.090
15323TIP3    H245911   3.013   1.337   5.241
15324TIP3   OH245912   8.224   5.412   3.040
15324TIP3    H145913   8.283   5.358   3.093
15324TIP3    H245914   8.196   5.355   2.969
15325TIP3   OH245915   3.035   4.100   5.145
15325TIP3    H145916   3.011   4.061   5.061
15325TIP3    H245917   2.951   4.116   5.188
15326TIP3   OH245918   0.597   0.298   4.396
15326TIP3    H145919   0.508   0.317   4.369
15326TIP3    H245920   0.637   0.384   4.410
15327TIP3   OH245921   2.289   5.778   0.588
15327TIP3    H145922   2.236   5.717   0.639
15327TIP3    H245923   2.379   5.750   0.604
15328TIP3   OH245924   4.990   4.843   2.676
15328TIP3    H145925   5.006   4.807   2.588
15328TIP3    H245926   4.895   4.848   2.683
15329TIP3   OH245927   0.252   3.143   4.605
15329TIP3    H145928   0.201   3.094   4.670
15329TIP3    H245929   0.209   3.228   4.601
15330TIP3   OH245930   5.207   0.161   0.128
15330TIP3    H145931   5.186   0.103   0.201
15330TIP3    H245932   5.262   0.108   0.070
15331TIP3   OH245933   1.473   7.546   6.156
15331TIP3    H145934   1.455   7.487   6.083
15331TIP3    H245935   1.483   7.632   6.116
15332TIP3   OH245936   1.443   0.666   5.032
15332TIP3    H145937   1.460   0.756   5.061
15332TIP3    H245938   1.349   0.653   5.044
15333TIP3   OH245939   5.152   6.293   5.538
15333TIP3    H145940   5.207   6.370   5.523
15333TIP3    H245941   5.097   6.288   5.459
15334TIP3   OH245942   4.813   4.139   0.980
15334TIP3    H145943   4.764   4.134   0.899
15334TIP3    H245944   4.747   4.140   1.049
15335TIP3   OH245945   6.235   2.388   6.704
15335TIP3    H145946   6.330   2.373   6.707
15335TIP3    H245947   6.200   2.329   6.771
15336TIP3   OH245948   5.815   5.746   4.404
15336TIP3    H145949   5.814   5.838   4.429
15336TIP3    H245950   5.862   5.702   4.474
15337TIP3   OH245951   7.541   7.844   4.462
15337TIP3    H145952   7.588   7.884   4.535
15337TIP3    H245953   7.469   7.796   4.502
15338TIP3   OH245954   4.050   2.378   4.274
15338TIP3    H145955   4.045   2.455   4.331
15338TIP3    H245956   3.962   2.369   4.238
15339TIP3   OH245957   5.144   0.147   5.235
15339TIP3    H145958   5.076   0.174   5.296
15339TIP3    H245959   5.208   0.218   5.238
15340TIP3   OH245960   8.137   2.849   5.219
15340TIP3    H145961   8.163   2.767   5.178
15340TIP3    H245962   8.057   2.828   5.266
15341TIP3   OH245963   4.716   0.467   4.569
15341TIP3    H145964   4.664   0.392   4.541
15341TIP3    H245965   4.802   0.453   4.527
15342TIP3   OH245966   8.149   2.983   5.828
15342TIP3    H145967   8.215   3.046   5.857
15342TIP3    H245968   8.182   2.950   5.745
15343TIP3   OH245969   1.619   0.012   4.831
15343TIP3    H145970   1.525   0.025   4.817
15343TIP3    H245971   1.630   0.011   4.926
15344TIP3   OH245972   0.887   4.385   4.017
15344TIP3    H145973   0.885   4.410   3.925
15344TIP3    H245974   0.973   4.346   4.030
15345TIP3   OH245975   3.235   1.767   5.641
15345TIP3    H145976   3.251   1.714   5.563
15345TIP3    H245977   3.282   1.849   5.624
15346TIP3   OH245978   4.104   6.515   2.940
15346TIP3    H145979   4.169   6.573   2.979
15346TIP3    H245980   4.088   6.447   3.006
15347TIP3   OH245981   5.342   1.668   1.448
15347TIP3    H145982   5.394   1.648   1.525
15347TIP3    H245983   5.399   1.721   1.393
15348TIP3   OH245984   5.996   3.541   4.550
15348TIP3    H145985   5.903   3.545   4.569
15348TIP3    H245986   6.036   3.513   4.632
15349TIP3   OH245987   7.763   6.987   1.481
15349TIP3    H145988   7.729   6.899   1.472
15349TIP3    H245989   7.697   7.034   1.532
15350TIP3   OH245990   4.537   7.038   3.168
15350TIP3    H145991   4.620   7.080   3.192
15350TIP3    H245992   4.542   7.030   3.073
15351TIP3   OH245993   5.308   2.150   3.619
15351TIP3    H145994   5.286   2.090   3.690
15351TIP3    H245995   5.403   2.156   3.621
15352TIP3   OH245996   4.203   6.260   6.826
15352TIP3    H145997   4.184   6.330   6.888
15352TIP3    H245998   4.281   6.216   6.862
15353TIP3   OH245999   7.340   6.818   1.370
15353TIP3    H146000   7.274   6.767   1.416
15353TIP3    H246001   7.395   6.753   1.326
15354TIP3   OH246002   3.721   3.334   1.711
15354TIP3    H146003   3.626   3.320   1.702
15354TIP3    H246004   3.751   3.351   1.622
15355TIP3   OH246005   5.469   2.178   3.259
15355TIP3    H146006   5.449   2.255   3.314
15355TIP3    H246007   5.475   2.105   3.321
15356TIP3   OH246008   0.719   3.591   0.599
15356TIP3    H146009   0.748   3.640   0.676
15356TIP3    H246010   0.624   3.583   0.611
15357TIP3   OH246011   8.079   4.436   1.640
15357TIP3    H146012   8.052   4.495   1.711
15357TIP3    H246013   8.014   4.366   1.641
15358TIP3   OH246014   0.930   7.743   6.094
15358TIP3    H146015   0.948   7.825   6.139
15358TIP3    H246016   0.982   7.746   6.014
15359TIP3   OH246017   1.055   7.474   5.602
15359TIP3    H146018   1.002   7.553   5.599
15359TIP3    H246019   1.093   7.467   5.514
15360TIP3   OH246020   2.429   0.488   2.282
15360TIP3    H146021   2.465   0.400   2.285
15360TIP3    H246022   2.346   0.478   2.235
15361TIP3   OH246023   6.322   4.949   2.826
15361TIP3    H146024   6.412   4.954   2.796
15361TIP3    H246025   6.296   5.040   2.841
15362TIP3   OH246026   1.622   6.723   3.463
15362TIP3    H146027   1.570   6.678   3.397
15362TIP3    H246028   1.711   6.722   3.428
15363TIP3   OH246029   3.565   5.923   0.676
15363TIP3    H146030   3.594   5.998   0.623
15363TIP3    H246031   3.503   5.877   0.619
15364TIP3   OH246032   0.168   7.307   4.048
15364TIP3    H146033   0.261   7.305   4.027
15364TIP3    H246034   0.128   7.357   3.976
15365TIP3   OH246035   7.749   7.513   5.781
15365TIP3    H146036   7.731   7.489   5.690
15365TIP3    H246037   7.758   7.429   5.827
15366TIP3   OH246038   0.752   2.068   2.203
15366TIP3    H146039   0.787   2.143   2.250
15366TIP3    H246040   0.661   2.091   2.184
15367TIP3   OH246041   3.333   2.159   0.163
15367TIP3    H146042   3.381   2.185   0.085
15367TIP3    H246043   3.241   2.179   0.143
15368TIP3   OH246044   8.345   2.835   4.944
15368TIP3    H146045   8.301   2.775   5.005
15368TIP3    H246046   8.281   2.904   4.929
15369TIP3   OH246047   5.377   0.687   3.212
15369TIP3    H146048   5.327   0.612   3.180
15369TIP3    H246049   5.416   0.724   3.133
15370TIP3   OH246050   4.343   3.902   2.737
15370TIP3    H146051   4.429   3.860   2.730
15370TIP3    H246052   4.362   3.989   2.773
15371TIP3   OH246053   3.081   4.015   5.420
15371TIP3    H146054   3.102   4.096   5.466
15371TIP3    H246055   3.057   4.043   5.332
   8.40174   7.92124   6.85999   0.00000   0.00000  -2.80058   0.00000  -2.80058  -3.96062
